<event>
 7    1  0.2468912E-015  0.9000766E+02  0.7816164E-02  0.1186339E+00
        -11   -1    0    0    0    0  0.00000000000E+00  0.00000000000E+00  0.45593999997E+02  0.45594000000E+02  0.51100000000E-03 0. -1.
         11   -1    0    0    0    0 -0.00000000000E+00 -0.00000000000E+00 -0.45593999997E+02  0.45594000000E+02  0.51100000000E-03 0.  1.
    9900012    2    1    2    0    0  0.93686650754E+00 -0.69466287202E+00  0.18148807254E+00  0.90007655440E+02  0.89999915692E+02 0.  0.
         12    1    1    2    0    0 -0.93686650754E+00  0.69466287202E+00 -0.18148807254E+00  0.11803445595E+01  0.00000000000E+00 0. -1.
         11    1    3    3    0    0 -0.10106013638E+02 -0.26317376842E+02  0.30453236887E+02  0.41498620129E+02  0.51100000000E-03 0. -1.
        -11    1    3    3    0    0 -0.70812985393E+01  0.88971313810E+00 -0.43551501419E+01  0.83608439460E+01  0.51100000000E-03 0.  1.
        -12    1    3    3    0    0  0.18124178685E+02  0.24733000832E+02 -0.25916598672E+02  0.40148191365E+02  0.00000000000E+00 0.  1.
</event>
<event>
 7    1  0.2468912E-015  0.9000781E+02  0.7816164E-02  0.1186339E+00
        -11   -1    0    0    0    0  0.00000000000E+00  0.00000000000E+00  0.45593999997E+02  0.45594000000E+02  0.51100000000E-03 0. -1.
         11   -1    0    0    0    0 -0.00000000000E+00 -0.00000000000E+00 -0.45593999997E+02  0.45594000000E+02  0.51100000000E-03 0.  1.
    9900012    2    1    2    0    0 -0.10442348518E+01  0.51528033466E+00  0.19212352750E+00  0.90007808618E+02  0.90000070891E+02 0.  0.
         12    1    1    2    0    0  0.10442348518E+01 -0.51528033466E+00 -0.19212352750E+00  0.11801913823E+01  0.00000000000E+00 0. -1.
         11    1    3    3    0    0 -0.56219525961E+01 -0.72090338306E+01  0.45476561160E+00  0.91533235377E+01  0.51100000000E-03 0. -1.
        -11    1    3    3    0    0 -0.36408375664E+02  0.11622744339E+02 -0.77809329074E+01  0.39002575833E+02  0.51100000000E-03 0.  1.
         12    1    3    3    0    0  0.40986093408E+02 -0.38984301735E+01  0.75182908233E+01  0.41851909247E+02  0.00000000000E+00 0. -1.
</event>
<event>
 7    1  0.2468912E-015  0.9000779E+02  0.7816164E-02  0.1186339E+00
        -11   -1    0    0    0    0  0.00000000000E+00  0.00000000000E+00  0.45593999997E+02  0.45594000000E+02  0.51100000000E-03 0. -1.
         11   -1    0    0    0    0 -0.00000000000E+00 -0.00000000000E+00 -0.45593999997E+02  0.45594000000E+02  0.51100000000E-03 0.  1.
    9900012    2    1    2    0    0 -0.35117281921E+00  0.10597419402E+01  0.38277668185E+00  0.90007790986E+02  0.90000053027E+02 0.  0.
         12    1    1    2    0    0  0.35117281921E+00 -0.10597419402E+01 -0.38277668185E+00  0.11802090141E+01  0.00000000000E+00 0. -1.
         11    1    3    3    0    0 -0.13815599241E+02  0.59587092952E+00 -0.27096785290E+01  0.14091423014E+02  0.51100000000E-03 0. -1.
        -11    1    3    3    0    0 -0.11781220252E+02  0.71058395898E+01 -0.30449308930E+02  0.33413328501E+02  0.51100000000E-03 0.  1.
         12    1    3    3    0    0  0.25245646674E+02 -0.66419685790E+01  0.33541764141E+02  0.42503039471E+02  0.00000000000E+00 0. -1.
</event>
<event>
 7    1  0.2468912E-015  0.9000767E+02  0.7816164E-02  0.1186339E+00
        -11   -1    0    0    0    0  0.00000000000E+00  0.00000000000E+00  0.45593999997E+02  0.45594000000E+02  0.51100000000E-03 0. -1.
         11   -1    0    0    0    0 -0.00000000000E+00 -0.00000000000E+00 -0.45593999997E+02  0.45594000000E+02  0.51100000000E-03 0.  1.
    9900012    2    1    2    0    0 -0.11334534920E+01 -0.15059813733E+00 -0.29289519040E+00  0.90007667754E+02  0.89999928169E+02 0.  0.
         12    1    1    2    0    0  0.11334534920E+01  0.15059813733E+00  0.29289519040E+00  0.11803322456E+01  0.00000000000E+00 0. -1.
         11    1    3    3    0    0 -0.25496299773E+02 -0.29638722639E+02  0.31044353382E+01  0.39219289908E+02  0.51100000000E-03 0. -1.
        -11    1    3    3    0    0 -0.52839027087E+01  0.12907158350E+01  0.67158196682E+01  0.86422109022E+01  0.51100000000E-03 0.  1.
        -12    1    3    3    0    0  0.29646748990E+02  0.28197408667E+02 -0.10113150197E+02  0.42146166945E+02  0.00000000000E+00 0.  1.
</event>
<event>
 7    1  0.2468912E-015  0.9000777E+02  0.7816164E-02  0.1186339E+00
        -11   -1    0    0    0    0  0.00000000000E+00  0.00000000000E+00  0.45593999997E+02  0.45594000000E+02  0.51100000000E-03 0.  1.
         11   -1    0    0    0    0 -0.00000000000E+00 -0.00000000000E+00 -0.45593999997E+02  0.45594000000E+02  0.51100000000E-03 0. -1.
    9900012    2    1    2    0    0  0.10311753816E+01 -0.44514598780E+00  0.36259117544E+00  0.90007766981E+02  0.90000028705E+02 0.  0.
         12    1    1    2    0    0 -0.10311753816E+01  0.44514598780E+00 -0.36259117544E+00  0.11802330187E+01  0.00000000000E+00 0. -1.
         11    1    3    3    0    0  0.12024034052E+02 -0.35594973604E+02 -0.10231652822E+02  0.38939263738E+02  0.51100000000E-03 0. -1.
        -11    1    3    3    0    0  0.29561637929E+01 -0.26062683463E+01  0.10071016006E+02  0.10814661470E+02  0.51100000000E-03 0.  1.
        -12    1    3    3    0    0 -0.13949022463E+02  0.37756095962E+02  0.52322799160E+00  0.40253841773E+02  0.00000000000E+00 0.  1.
</event>
<event>
 7    1  0.2468912E-015  0.9000829E+02  0.7816164E-02  0.1186338E+00
        -11   -1    0    0    0    0  0.00000000000E+00  0.00000000000E+00  0.45593999997E+02  0.45594000000E+02  0.51100000000E-03 0. -1.
         11   -1    0    0    0    0 -0.00000000000E+00 -0.00000000000E+00 -0.45593999997E+02  0.45594000000E+02  0.51100000000E-03 0.  1.
    9900012    2    1    2    0    0 -0.89835554916E+00  0.72972703433E+00  0.22841657341E+00  0.90008288862E+02  0.90000557474E+02 0.  0.
         12    1    1    2    0    0  0.89835554916E+00 -0.72972703433E+00 -0.22841657341E+00  0.11797111377E+01  0.00000000000E+00 0. -1.
         11    1    3    3    0    0 -0.40763176082E+01 -0.69621047476E+01  0.51375984870E+01  0.95646320491E+01  0.51100000000E-03 0. -1.
        -11    1    3    3    0    0 -0.35951940729E+02 -0.70949643479E+01 -0.10792031577E+02  0.38201420223E+02  0.51100000000E-03 0.  1.
         12    1    3    3    0    0  0.39129902788E+02  0.14786796130E+02  0.58828496637E+01  0.42242236590E+02  0.00000000000E+00 0. -1.
</event>
<event>
 7    1  0.4176038E-015  0.9000768E+02  0.7816164E-02  0.1186339E+00
        -11   -1    0    0    0    0  0.00000000000E+00  0.00000000000E+00  0.45593999997E+02  0.45594000000E+02  0.51100000000E-03 0. -1.
         11   -1    0    0    0    0 -0.00000000000E+00 -0.00000000000E+00 -0.45593999997E+02  0.45594000000E+02  0.51100000000E-03 0.  1.
    9900012    2    1    2    0    0 -0.60781507762E+00  0.63976756432E+00 -0.78384114607E+00  0.90007682819E+02  0.89999943432E+02 0.  0.
         12    1    1    2    0    0  0.60781507762E+00 -0.63976756432E+00  0.78384114607E+00  0.11803171808E+01  0.00000000000E+00 0. -1.
         11    1    3    3    0    0  0.20516996003E+02  0.11863361223E+02  0.28822780330E+02  0.37315400717E+02  0.51100000000E-03 0. -1.
        -11    1    3    3    0    0  0.14092693024E+01  0.93914922443E+01  0.88217108876E+00  0.95375254983E+01  0.51100000000E-03 0.  1.
        -12    1    3    3    0    0 -0.22534080383E+02 -0.20615085902E+02 -0.30488792565E+02  0.43154756604E+02  0.00000000000E+00 0.  1.
</event>
<event>
 7    1  0.2468912E-015  0.9000764E+02  0.7816164E-02  0.1186339E+00
        -11   -1    0    0    0    0  0.00000000000E+00  0.00000000000E+00  0.45593999997E+02  0.45594000000E+02  0.51100000000E-03 0.  1.
         11   -1    0    0    0    0 -0.00000000000E+00 -0.00000000000E+00 -0.45593999997E+02  0.45594000000E+02  0.51100000000E-03 0. -1.
    9900012    2    1    2    0    0  0.75862889141E+00  0.38480082509E+00  0.81832326076E+00  0.90007643093E+02  0.89999903181E+02 0.  0.
         12    1    1    2    0    0 -0.75862889141E+00 -0.38480082509E+00 -0.81832326076E+00  0.11803569075E+01  0.00000000000E+00 0. -1.
         11    1    3    3    0    0 -0.11387402694E+02 -0.33090879865E+01 -0.92444239368E+00  0.11894435565E+02  0.51100000000E-03 0. -1.
        -11    1    3    3    0    0  0.22434054918E+02  0.36702995737E+02 -0.34318908367E+01  0.43152921003E+02  0.51100000000E-03 0.  1.
         12    1    3    3    0    0 -0.10288023333E+02 -0.33009106925E+02  0.51746564911E+01  0.34960286525E+02  0.00000000000E+00 0. -1.
</event>
<event>
 7    1  0.2468912E-015  0.9000773E+02  0.7816164E-02  0.1186339E+00
        -11   -1    0    0    0    0  0.00000000000E+00  0.00000000000E+00  0.45593999997E+02  0.45594000000E+02  0.51100000000E-03 0. -1.
         11   -1    0    0    0    0 -0.00000000000E+00 -0.00000000000E+00 -0.45593999997E+02  0.45594000000E+02  0.51100000000E-03 0.  1.
    9900012    2    1    2    0    0 -0.51787509998E+00  0.10531664170E+01  0.12523272934E+00  0.90007729964E+02  0.89999991200E+02 0.  0.
         12    1    1    2    0    0  0.51787509998E+00 -0.10531664170E+01 -0.12523272934E+00  0.11802700358E+01  0.00000000000E+00 0. -1.
         11    1    3    3    0    0  0.29606804837E+01  0.16154357273E+02  0.36864626541E+02  0.40357521951E+02  0.51100000000E-03 0. -1.
        -11    1    3    3    0    0  0.51445083142E+01  0.56091590309E+01 -0.13210845652E+01  0.77248880587E+01  0.51100000000E-03 0.  1.
        -12    1    3    3    0    0 -0.86230638979E+01 -0.20710349887E+02 -0.35418309246E+02  0.41925319954E+02  0.00000000000E+00 0.  1.
</event>
<event>
 7    1  0.2468912E-015  0.9000774E+02  0.7816164E-02  0.1186339E+00
        -11   -1    0    0    0    0  0.00000000000E+00  0.00000000000E+00  0.45593999997E+02  0.45594000000E+02  0.51100000000E-03 0.  1.
         11   -1    0    0    0    0 -0.00000000000E+00 -0.00000000000E+00 -0.45593999997E+02  0.45594000000E+02  0.51100000000E-03 0. -1.
    9900012    2    1    2    0    0  0.85776193088E+00 -0.72523659539E+00 -0.36233910297E+00  0.90007740166E+02  0.90000001537E+02 0.  0.
         12    1    1    2    0    0 -0.85776193088E+00  0.72523659539E+00  0.36233910297E+00  0.11802598336E+01  0.00000000000E+00 0. -1.
         11    1    3    3    0    0 -0.40105784325E+01 -0.68127643870E+01  0.83318199498E+01  0.11485544040E+02  0.51100000000E-03 0. -1.
        -11    1    3    3    0    0  0.54947633753E+00 -0.34006818619E+02  0.78974365132E+01  0.34916115771E+02  0.51100000000E-03 0.  1.
         12    1    3    3    0    0  0.43188640259E+01  0.40094346410E+02 -0.16591595566E+02  0.43606080355E+02  0.00000000000E+00 0. -1.
</event>
<event>
 7    1  0.2468912E-015  0.9000785E+02  0.7816164E-02  0.1186339E+00
        -11   -1    0    0    0    0  0.00000000000E+00  0.00000000000E+00  0.45593999997E+02  0.45594000000E+02  0.51100000000E-03 0.  1.
         11   -1    0    0    0    0 -0.00000000000E+00 -0.00000000000E+00 -0.45593999997E+02  0.45594000000E+02  0.51100000000E-03 0. -1.
    9900012    2    1    2    0    0 -0.75128145536E+00  0.68318390983E+00  0.60132191486E+00  0.90007850804E+02  0.90000113634E+02 0.  0.
         12    1    1    2    0    0  0.75128145536E+00 -0.68318390983E+00 -0.60132191486E+00  0.11801491961E+01  0.00000000000E+00 0. -1.
         11    1    3    3    0    0  0.32208823082E+02 -0.14274416680E+02 -0.78009149394E+01  0.36083535442E+02  0.51100000000E-03 0. -1.
        -11    1    3    3    0    0  0.49372225348E+01 -0.21308736149E+01  0.11028369638E+02  0.12269544647E+02  0.51100000000E-03 0.  1.
        -12    1    3    3    0    0 -0.37897327072E+02  0.17088474204E+02 -0.26261327837E+01  0.41654770714E+02  0.00000000000E+00 0.  1.
</event>
<event>
 7    1  0.2468912E-015  0.9000773E+02  0.7816164E-02  0.1186339E+00
        -11   -1    0    0    0    0  0.00000000000E+00  0.00000000000E+00  0.45593999997E+02  0.45594000000E+02  0.51100000000E-03 0. -1.
         11   -1    0    0    0    0 -0.00000000000E+00 -0.00000000000E+00 -0.45593999997E+02  0.45594000000E+02  0.51100000000E-03 0.  1.
    9900012    2    1    2    0    0 -0.91745928534E+00 -0.23882717717E+00  0.70303405190E+00  0.90007734420E+02  0.89999995715E+02 0.  0.
         12    1    1    2    0    0  0.91745928534E+00  0.23882717717E+00 -0.70303405190E+00  0.11802655798E+01  0.00000000000E+00 0. -1.
         11    1    3    3    0    0 -0.89917185214E+01 -0.10751065591E+02 -0.34618847003E+01  0.14436795324E+02  0.51100000000E-03 0. -1.
        -11    1    3    3    0    0 -0.11804190846E+02 -0.28891297150E+02 -0.30651850858E+00  0.31211214753E+02  0.51100000000E-03 0.  1.
         12    1    3    3    0    0  0.19878450082E+02  0.39403535563E+02  0.44714372608E+01  0.44359724342E+02  0.00000000000E+00 0. -1.
</event>
<event>
 7    1  0.2468912E-015  0.9000764E+02  0.7816164E-02  0.1186339E+00
        -11   -1    0    0    0    0  0.00000000000E+00  0.00000000000E+00  0.45593999997E+02  0.45594000000E+02  0.51100000000E-03 0. -1.
         11   -1    0    0    0    0 -0.00000000000E+00 -0.00000000000E+00 -0.45593999997E+02  0.45594000000E+02  0.51100000000E-03 0.  1.
    9900012    2    1    2    0    0 -0.16967748866E+00  0.98940608728E+00 -0.62092064861E+00  0.90007636790E+02  0.89999896796E+02 0.  0.
         12    1    1    2    0    0  0.16967748866E+00 -0.98940608728E+00  0.62092064861E+00  0.11803632100E+01  0.00000000000E+00 0. -1.
         11    1    3    3    0    0  0.35214602439E+02 -0.13760031477E+02 -0.14438429628E+02  0.40470667669E+02  0.51100000000E-03 0. -1.
        -11    1    3    3    0    0 -0.20809296086E+00  0.10398932593E+02 -0.22168432433E+01  0.10634636618E+02  0.51100000000E-03 0.  1.
        -12    1    3    3    0    0 -0.35176186967E+02  0.43505049706E+01  0.16034352223E+02  0.38902332504E+02  0.00000000000E+00 0.  1.
</event>
<event>
 7    1  0.2468912E-015  0.9000780E+02  0.7816164E-02  0.1186339E+00
        -11   -1    0    0    0    0  0.00000000000E+00  0.00000000000E+00  0.45593999997E+02  0.45594000000E+02  0.51100000000E-03 0.  1.
         11   -1    0    0    0    0 -0.00000000000E+00 -0.00000000000E+00 -0.45593999997E+02  0.45594000000E+02  0.51100000000E-03 0. -1.
    9900012    2    1    2    0    0 -0.30503315873E+00  0.11275683236E+01 -0.16855238008E+00  0.90007802789E+02  0.90000064986E+02 0.  0.
         12    1    1    2    0    0  0.30503315873E+00 -0.11275683236E+01  0.16855238008E+00  0.11801972111E+01  0.00000000000E+00 0. -1.
         11    1    3    3    0    0 -0.13895196238E+00 -0.80130257550E+01  0.39074394850E+01  0.89160514236E+01  0.51100000000E-03 0. -1.
        -11    1    3    3    0    0 -0.27235438962E+01 -0.16356171283E+01  0.37719821387E+02  0.37853373172E+02  0.51100000000E-03 0.  1.
         12    1    3    3    0    0  0.25574626998E+01  0.10776211207E+02 -0.41795813252E+02  0.43238378194E+02  0.00000000000E+00 0. -1.
</event>
<event>
 7    1  0.2468912E-015  0.9000777E+02  0.7816164E-02  0.1186339E+00
        -11   -1    0    0    0    0  0.00000000000E+00  0.00000000000E+00  0.45593999997E+02  0.45594000000E+02  0.51100000000E-03 0. -1.
         11   -1    0    0    0    0 -0.00000000000E+00 -0.00000000000E+00 -0.45593999997E+02  0.45594000000E+02  0.51100000000E-03 0.  1.
    9900012    2    1    2    0    0 -0.45520874650E+00 -0.94971047845E+00 -0.53269868918E+00  0.90007774221E+02  0.90000036041E+02 0.  0.
         12    1    1    2    0    0  0.45520874650E+00  0.94971047845E+00  0.53269868918E+00  0.11802257789E+01  0.00000000000E+00 0. -1.
         11    1    3    3    0    0  0.23461043766E+02  0.18533983105E+02  0.25751456514E+02  0.39459683440E+02  0.51100000000E-03 0. -1.
        -11    1    3    3    0    0 -0.10208950060E+02  0.69175221782E+01 -0.27944309937E+01  0.12644509451E+02  0.51100000000E-03 0.  1.
        -12    1    3    3    0    0 -0.13707302453E+02 -0.26401215762E+02 -0.23489724209E+02  0.37903581330E+02  0.00000000000E+00 0.  1.
</event>
<event>
 7    1  0.2468912E-015  0.9000771E+02  0.7816164E-02  0.1186339E+00
        -11   -1    0    0    0    0  0.00000000000E+00  0.00000000000E+00  0.45593999997E+02  0.45594000000E+02  0.51100000000E-03 0.  1.
         11   -1    0    0    0    0 -0.00000000000E+00 -0.00000000000E+00 -0.45593999997E+02  0.45594000000E+02  0.51100000000E-03 0. -1.
    9900012    2    1    2    0    0  0.68631335655E+00 -0.91467338504E+00  0.29229228344E+00  0.90007708424E+02  0.89999969376E+02 0.  0.
         12    1    1    2    0    0 -0.68631335655E+00  0.91467338504E+00 -0.29229228344E+00  0.11802915757E+01  0.00000000000E+00 0. -1.
         11    1    3    3    0    0  0.66732031101E+01  0.32386490674E+01 -0.18126148498E+01  0.76358405159E+01  0.51100000000E-03 0. -1.
        -11    1    3    3    0    0 -0.69095290058E-01 -0.18278062173E+01  0.41966504833E+02  0.42006346876E+02  0.51100000000E-03 0.  1.
         12    1    3    3    0    0 -0.59177944635E+01 -0.23255162351E+01 -0.39861597699E+02  0.40365521032E+02  0.00000000000E+00 0. -1.
</event>
<event>
 7    1  0.2468912E-015  0.9000782E+02  0.7816164E-02  0.1186339E+00
        -11   -1    0    0    0    0  0.00000000000E+00  0.00000000000E+00  0.45593999997E+02  0.45594000000E+02  0.51100000000E-03 0. -1.
         11   -1    0    0    0    0 -0.00000000000E+00 -0.00000000000E+00 -0.45593999997E+02  0.45594000000E+02  0.51100000000E-03 0.  1.
    9900012    2    1    2    0    0  0.75311748626E-01 -0.35145964752E+00 -0.11241167712E+01  0.90007816006E+02  0.90000078378E+02 0.  0.
         12    1    1    2    0    0 -0.75311748626E-01  0.35145964752E+00  0.11241167712E+01  0.11801839935E+01  0.00000000000E+00 0. -1.
         11    1    3    3    0    0 -0.39916368763E+01 -0.82084916044E+01 -0.82525188118E+00  0.91647989776E+01  0.51100000000E-03 0. -1.
        -11    1    3    3    0    0  0.27744099930E+02 -0.15030327955E+02 -0.24522460009E+02  0.39962443425E+02  0.51100000000E-03 0.  1.
         12    1    3    3    0    0 -0.23677151305E+02  0.22887359912E+02  0.24223595119E+02  0.40880573604E+02  0.00000000000E+00 0. -1.
</event>
<event>
 7    1  0.2468912E-015  0.9000774E+02  0.7816164E-02  0.1186339E+00
        -11   -1    0    0    0    0  0.00000000000E+00  0.00000000000E+00  0.45593999997E+02  0.45594000000E+02  0.51100000000E-03 0.  1.
         11   -1    0    0    0    0 -0.00000000000E+00 -0.00000000000E+00 -0.45593999997E+02  0.45594000000E+02  0.51100000000E-03 0. -1.
    9900012    2    1    2    0    0 -0.69888654044E+00  0.92373199091E+00 -0.22649899313E+00  0.90007735207E+02  0.89999996512E+02 0.  0.
         12    1    1    2    0    0  0.69888654044E+00 -0.92373199091E+00  0.22649899313E+00  0.11802647929E+01  0.00000000000E+00 0. -1.
         11    1    3    3    0    0 -0.40946842760E+01 -0.87796956954E+01  0.12677610474E+01  0.97701951955E+01  0.51100000000E-03 0. -1.
        -11    1    3    3    0    0  0.17515437035E+02 -0.85547251440E+01  0.33239926316E+02  0.38533966297E+02  0.51100000000E-03 0.  1.
         12    1    3    3    0    0 -0.14119639299E+02  0.18258152830E+02 -0.34734186357E+02  0.41703573715E+02  0.00000000000E+00 0. -1.
</event>
<event>
 7    1  0.2468912E-015  0.9000764E+02  0.7816164E-02  0.1186339E+00
        -11   -1    0    0    0    0  0.00000000000E+00  0.00000000000E+00  0.45593999997E+02  0.45594000000E+02  0.51100000000E-03 0.  1.
         11   -1    0    0    0    0 -0.00000000000E+00 -0.00000000000E+00 -0.45593999997E+02  0.45594000000E+02  0.51100000000E-03 0. -1.
    9900012    2    1    2    0    0 -0.13578240810E+00 -0.11689509616E+01 -0.91456776752E-01  0.90007640921E+02  0.89999900981E+02 0.  0.
         12    1    1    2    0    0  0.13578240810E+00  0.11689509616E+01  0.91456776751E-01  0.11803590789E+01  0.00000000000E+00 0. -1.
         11    1    3    3    0    0 -0.12417546960E+01  0.24167638433E+02 -0.21230449900E+02  0.32192370297E+02  0.51100000000E-03 0. -1.
        -11    1    3    3    0    0  0.80150153462E+01  0.60484665371E+01 -0.92011676051E+01  0.13619320982E+02  0.51100000000E-03 0.  1.
        -12    1    3    3    0    0 -0.69090430582E+01 -0.31385055931E+02  0.30340160728E+02  0.44195949642E+02  0.00000000000E+00 0.  1.
</event>
<event>
 7    1  0.2468912E-015  0.9000771E+02  0.7816164E-02  0.1186339E+00
        -11   -1    0    0    0    0  0.00000000000E+00  0.00000000000E+00  0.45593999997E+02  0.45594000000E+02  0.51100000000E-03 0.  1.
         11   -1    0    0    0    0 -0.00000000000E+00 -0.00000000000E+00 -0.45593999997E+02  0.45594000000E+02  0.51100000000E-03 0. -1.
    9900012    2    1    2    0    0 -0.91042584821E+00 -0.67840561844E+00  0.32245957270E+00  0.90007707839E+02  0.89999968783E+02 0.  0.
         12    1    1    2    0    0  0.91042584821E+00  0.67840561844E+00 -0.32245957270E+00  0.11802921605E+01  0.00000000000E+00 0. -1.
         11    1    3    3    0    0  0.30468054854E+02  0.19553818057E+02 -0.93032848327E+01  0.37379209143E+02  0.51100000000E-03 0. -1.
        -11    1    3    3    0    0  0.29683278873E+01  0.17136235706E+01  0.11326468240E+02  0.11833695924E+02  0.51100000000E-03 0.  1.
        -12    1    3    3    0    0 -0.34346808590E+02 -0.21945847246E+02 -0.17007238341E+01  0.40794802772E+02  0.00000000000E+00 0.  1.
</event>
<event>
 7    1  0.2468912E-015  0.9000767E+02  0.7816164E-02  0.1186339E+00
        -11   -1    0    0    0    0  0.00000000000E+00  0.00000000000E+00  0.45593999997E+02  0.45594000000E+02  0.51100000000E-03 0.  1.
         11   -1    0    0    0    0 -0.00000000000E+00 -0.00000000000E+00 -0.45593999997E+02  0.45594000000E+02  0.51100000000E-03 0. -1.
    9900012    2    1    2    0    0 -0.56923248909E+00  0.57498468513E+00  0.85939090387E+00  0.90007667106E+02  0.89999927512E+02 0.  0.
         12    1    1    2    0    0  0.56923248909E+00 -0.57498468513E+00 -0.85939090387E+00  0.11803328939E+01  0.00000000000E+00 0. -1.
         11    1    3    3    0    0 -0.48294662885E+01 -0.21602948493E+02 -0.27687254698E+02  0.35448486585E+02  0.51100000000E-03 0. -1.
        -11    1    3    3    0    0 -0.82350692765E+01 -0.41239483616E+01 -0.47195240646E+01  0.10348778852E+02  0.51100000000E-03 0.  1.
        -12    1    3    3    0    0  0.12495303076E+02  0.26301881539E+02  0.33266169666E+02  0.44210401669E+02  0.00000000000E+00 0.  1.
</event>
<event>
 7    1  0.2468912E-015  0.9000778E+02  0.7816164E-02  0.1186339E+00
        -11   -1    0    0    0    0  0.00000000000E+00  0.00000000000E+00  0.45593999997E+02  0.45594000000E+02  0.51100000000E-03 0. -1.
         11   -1    0    0    0    0 -0.00000000000E+00 -0.00000000000E+00 -0.45593999997E+02  0.45594000000E+02  0.51100000000E-03 0.  1.
    9900012    2    1    2    0    0 -0.54871375853E+00 -0.10445223272E+01 -0.28534757839E-01  0.90007776329E+02  0.90000038177E+02 0.  0.
         12    1    1    2    0    0  0.54871375853E+00  0.10445223272E+01  0.28534757839E-01  0.11802236708E+01  0.00000000000E+00 0. -1.
         11    1    3    3    0    0  0.35043024481E+02 -0.16349089859E+01 -0.71585072399E+01  0.35804060081E+02  0.51100000000E-03 0. -1.
        -11    1    3    3    0    0  0.20700591805E+01  0.13044007674E+02  0.60361134654E+01  0.14521224027E+02  0.51100000000E-03 0.  1.
        -12    1    3    3    0    0 -0.37661797420E+02 -0.12453621015E+02  0.10938590167E+01  0.39682492221E+02  0.00000000000E+00 0.  1.
</event>
<event>
 7    1  0.2468912E-015  0.9000757E+02  0.7816164E-02  0.1186339E+00
        -11   -1    0    0    0    0  0.00000000000E+00  0.00000000000E+00  0.45593999997E+02  0.45594000000E+02  0.51100000000E-03 0.  1.
         11   -1    0    0    0    0 -0.00000000000E+00 -0.00000000000E+00 -0.45593999997E+02  0.45594000000E+02  0.51100000000E-03 0. -1.
    9900012    2    1    2    0    0  0.11390433905E+01  0.30130323451E+00  0.72251230828E-01  0.90007566298E+02  0.89999825373E+02 0.  0.
         12    1    1    2    0    0 -0.11390433905E+01 -0.30130323451E+00 -0.72251230828E-01  0.11804337020E+01  0.00000000000E+00 0. -1.
         11    1    3    3    0    0  0.23991363539E+01 -0.11121648448E+02 -0.13106040973E+01  0.11452711592E+02  0.51100000000E-03 0. -1.
        -11    1    3    3    0    0  0.26949236644E+02  0.39918301138E+01  0.27998773014E+02  0.39065680000E+02  0.51100000000E-03 0.  1.
         12    1    3    3    0    0 -0.28209329607E+02  0.74311215688E+01 -0.26615917686E+02  0.39489174706E+02  0.00000000000E+00 0. -1.
</event>
<event>
 7    1  0.2468912E-015  0.9000774E+02  0.7816164E-02  0.1186339E+00
        -11   -1    0    0    0    0  0.00000000000E+00  0.00000000000E+00  0.45593999997E+02  0.45594000000E+02  0.51100000000E-03 0.  1.
         11   -1    0    0    0    0 -0.00000000000E+00 -0.00000000000E+00 -0.45593999997E+02  0.45594000000E+02  0.51100000000E-03 0. -1.
    9900012    2    1    2    0    0 -0.74890037171E-01 -0.36144109777E+00  0.11210541296E+01  0.90007741322E+02  0.90000002708E+02 0.  0.
         12    1    1    2    0    0  0.74890037171E-01  0.36144109777E+00 -0.11210541296E+01  0.11802586777E+01  0.00000000000E+00 0. -1.
         11    1    3    3    0    0 -0.40799022313E+01  0.46653868811E+01 -0.91194055254E+01  0.11026105131E+02  0.51100000000E-03 0. -1.
        -11    1    3    3    0    0 -0.13434662481E+02  0.27141510202E+02  0.25251389377E+02  0.39430754466E+02  0.51100000000E-03 0.  1.
         12    1    3    3    0    0  0.17439674676E+02 -0.32168338181E+02 -0.15010929722E+02  0.39550881725E+02  0.00000000000E+00 0. -1.
</event>
<event>
 7    1  0.2468912E-015  0.9000778E+02  0.7816164E-02  0.1186339E+00
        -11   -1    0    0    0    0  0.00000000000E+00  0.00000000000E+00  0.45593999997E+02  0.45594000000E+02  0.51100000000E-03 0.  1.
         11   -1    0    0    0    0 -0.00000000000E+00 -0.00000000000E+00 -0.45593999997E+02  0.45594000000E+02  0.51100000000E-03 0. -1.
    9900012    2    1    2    0    0 -0.10492264288E+01  0.52350176231E+00 -0.13411272970E+00  0.90007781199E+02  0.90000043111E+02 0.  0.
         12    1    1    2    0    0  0.10492264288E+01 -0.52350176231E+00  0.13411272970E+00  0.11802188010E+01  0.00000000000E+00 0. -1.
         11    1    3    3    0    0  0.25145095760E+02 -0.26929215055E+02 -0.14616546324E+02  0.39637127683E+02  0.51100000000E-03 0. -1.
        -11    1    3    3    0    0  0.59071830878E+01  0.16086109162E+01  0.54140569012E+01  0.81727873766E+01  0.51100000000E-03 0.  1.
        -12    1    3    3    0    0 -0.32101505277E+02  0.25844105901E+02  0.90683766935E+01  0.42197866139E+02  0.00000000000E+00 0.  1.
</event>
<event>
 7    1  0.2468912E-015  0.9000767E+02  0.7816164E-02  0.1186339E+00
        -11   -1    0    0    0    0  0.00000000000E+00  0.00000000000E+00  0.45593999997E+02  0.45594000000E+02  0.51100000000E-03 0. -1.
         11   -1    0    0    0    0 -0.00000000000E+00 -0.00000000000E+00 -0.45593999997E+02  0.45594000000E+02  0.51100000000E-03 0.  1.
    9900012    2    1    2    0    0 -0.89870306169E+00 -0.38378478180E+00 -0.66199100255E+00  0.90007665285E+02  0.89999925667E+02 0.  0.
         12    1    1    2    0    0  0.89870306169E+00  0.38378478180E+00  0.66199100255E+00  0.11803347149E+01  0.00000000000E+00 0. -1.
         11    1    3    3    0    0  0.33837780263E+01 -0.52953255658E+00  0.77124265622E+01  0.84387133023E+01  0.51100000000E-03 0. -1.
        -11    1    3    3    0    0  0.36202575183E+02 -0.15302261066E+01  0.92271892584E+01  0.37391296630E+02  0.51100000000E-03 0.  1.
         12    1    3    3    0    0 -0.40485056271E+02  0.16759738814E+01 -0.17601606823E+02  0.44177655353E+02  0.00000000000E+00 0. -1.
</event>
<event>
 7    1  0.2468912E-015  0.9000776E+02  0.7816164E-02  0.1186339E+00
        -11   -1    0    0    0    0  0.00000000000E+00  0.00000000000E+00  0.45593999997E+02  0.45594000000E+02  0.51100000000E-03 0. -1.
         11   -1    0    0    0    0 -0.00000000000E+00 -0.00000000000E+00 -0.45593999997E+02  0.45594000000E+02  0.51100000000E-03 0.  1.
    9900012    2    1    2    0    0 -0.33412612986E-01 -0.90488144033E+00 -0.75699352675E+00  0.90007760184E+02  0.90000021818E+02 0.  0.
         12    1    1    2    0    0  0.33412612986E-01  0.90488144033E+00  0.75699352675E+00  0.11802398160E+01  0.00000000000E+00 0. -1.
         11    1    3    3    0    0  0.30004625342E+01 -0.58931583614E+01 -0.55468032619E+01  0.86312871334E+01  0.51100000000E-03 0. -1.
        -11    1    3    3    0    0 -0.68840853225E+01 -0.36658477864E+01 -0.37365158994E+02  0.38170462110E+02  0.51100000000E-03 0.  1.
         12    1    3    3    0    0  0.38502101753E+01  0.86541247074E+01  0.42154968730E+02  0.43206010941E+02  0.00000000000E+00 0. -1.
</event>
<event>
 7    1  0.2468912E-015  0.9000773E+02  0.7816164E-02  0.1186339E+00
        -11   -1    0    0    0    0  0.00000000000E+00  0.00000000000E+00  0.45593999997E+02  0.45594000000E+02  0.51100000000E-03 0.  1.
         11   -1    0    0    0    0 -0.00000000000E+00 -0.00000000000E+00 -0.45593999997E+02  0.45594000000E+02  0.51100000000E-03 0. -1.
    9900012    2    1    2    0    0 -0.72689765608E+00 -0.92917615970E+00  0.35787458846E-01  0.90007733386E+02  0.89999994667E+02 0.  0.
         12    1    1    2    0    0  0.72689765608E+00  0.92917615970E+00 -0.35787458846E-01  0.11802666141E+01  0.00000000000E+00 0. -1.
         11    1    3    3    0    0  0.34869363179E+02 -0.59274258682E+01  0.22430363661E+02  0.41882312259E+02  0.51100000000E-03 0. -1.
        -11    1    3    3    0    0 -0.70471582021E+01  0.66684201937E+01  0.27081908103E+01  0.10072962044E+02  0.51100000000E-03 0.  1.
        -12    1    3    3    0    0 -0.28549102633E+02 -0.16701704851E+01 -0.25102767012E+02  0.38052459083E+02  0.00000000000E+00 0.  1.
</event>
<event>
 7    1  0.2468912E-015  0.9000775E+02  0.7816164E-02  0.1186339E+00
        -11   -1    0    0    0    0  0.00000000000E+00  0.00000000000E+00  0.45593999997E+02  0.45594000000E+02  0.51100000000E-03 0.  1.
         11   -1    0    0    0    0 -0.00000000000E+00 -0.00000000000E+00 -0.45593999997E+02  0.45594000000E+02  0.51100000000E-03 0. -1.
    9900012    2    1    2    0    0 -0.10867068034E+01 -0.27708584205E+00  0.36780169597E+00  0.90007751582E+02  0.90000013103E+02 0.  0.
         12    1    1    2    0    0  0.10867068034E+01  0.27708584205E+00 -0.36780169597E+00  0.11802484179E+01  0.00000000000E+00 0. -1.
         11    1    3    3    0    0 -0.61051010993E+01  0.70870745890E+01  0.11202428348E+01  0.94209251102E+01  0.51100000000E-03 0. -1.
        -11    1    3    3    0    0  0.19456900677E+02 -0.62280835592E+01  0.35828192716E+02  0.41243416472E+02  0.51100000000E-03 0.  1.
         12    1    3    3    0    0 -0.14438506381E+02 -0.11360768718E+01 -0.36580633855E+02  0.39343409999E+02  0.00000000000E+00 0. -1.
</event>
<event>
 7    1  0.2468912E-015  0.9000773E+02  0.7816164E-02  0.1186339E+00
        -11   -1    0    0    0    0  0.00000000000E+00  0.00000000000E+00  0.45593999997E+02  0.45594000000E+02  0.51100000000E-03 0. -1.
         11   -1    0    0    0    0 -0.00000000000E+00 -0.00000000000E+00 -0.45593999997E+02  0.45594000000E+02  0.51100000000E-03 0.  1.
    9900012    2    1    2    0    0 -0.37115420135E+00  0.11194630721E+01  0.45771941343E-01  0.90007725421E+02  0.89999986597E+02 0.  0.
         12    1    1    2    0    0  0.37115420135E+00 -0.11194630721E+01 -0.45771941343E-01  0.11802745789E+01  0.00000000000E+00 0. -1.
         11    1    3    3    0    0  0.93590968422E+01 -0.49017815851E+01  0.58737086107E+01  0.12088035801E+02  0.51100000000E-03 0. -1.
        -11    1    3    3    0    0 -0.25429748252E+02 -0.19903357409E+02  0.20097860314E+02  0.38036031888E+02  0.51100000000E-03 0.  1.
         12    1    3    3    0    0  0.15699497209E+02  0.25924602067E+02 -0.25925796983E+02  0.39883657732E+02  0.00000000000E+00 0. -1.
</event>
<event>
 7    1  0.2468912E-015  0.9000762E+02  0.7816164E-02  0.1186339E+00
        -11   -1    0    0    0    0  0.00000000000E+00  0.00000000000E+00  0.45593999997E+02  0.45594000000E+02  0.51100000000E-03 0. -1.
         11   -1    0    0    0    0 -0.00000000000E+00 -0.00000000000E+00 -0.45593999997E+02  0.45594000000E+02  0.51100000000E-03 0.  1.
    9900012    2    1    2    0    0 -0.98260131704E+00 -0.62583843754E+00 -0.19003510667E+00  0.90007621908E+02  0.89999881717E+02 0.  0.
         12    1    1    2    0    0  0.98260131704E+00  0.62583843754E+00  0.19003510667E+00  0.11803780919E+01  0.00000000000E+00 0. -1.
         11    1    3    3    0    0  0.22959828947E+02 -0.20918993307E+02  0.27942117848E+02  0.41779420488E+02  0.51100000000E-03 0. -1.
        -11    1    3    3    0    0 -0.72788835039E+01  0.31714556886E+01  0.34248929904E+01  0.86469745291E+01  0.51100000000E-03 0.  1.
        -12    1    3    3    0    0 -0.16663546760E+02  0.17121699180E+02 -0.31557045945E+02  0.39581226891E+02  0.00000000000E+00 0.  1.
</event>
<event>
 7    1  0.2468912E-015  0.9000711E+02  0.7816164E-02  0.1186340E+00
        -11   -1    0    0    0    0  0.00000000000E+00  0.00000000000E+00  0.45593999997E+02  0.45594000000E+02  0.51100000000E-03 0. -1.
         11   -1    0    0    0    0 -0.00000000000E+00 -0.00000000000E+00 -0.45593999997E+02  0.45594000000E+02  0.51100000000E-03 0.  1.
    9900012    2    1    2    0    0 -0.88612744109E+00  0.76473537228E+00  0.15642516544E+00  0.90007105905E+02  0.89999358901E+02 0.  0.
         12    1    1    2    0    0  0.88612744109E+00 -0.76473537228E+00 -0.15642516544E+00  0.11808940951E+01  0.00000000000E+00 0. -1.
         11    1    3    3    0    0  0.80664040101E+01  0.21140278178E+01  0.15424816710E+01  0.84802852095E+01  0.51100000000E-03 0. -1.
        -11    1    3    3    0    0  0.11255502266E+01  0.30370770449E+02 -0.26108979777E+02  0.40066561947E+02  0.51100000000E-03 0.  1.
         12    1    3    3    0    0 -0.10078081678E+02 -0.31720062895E+02  0.24722923272E+02  0.41460258748E+02  0.00000000000E+00 0. -1.
</event>
<event>
 7    1  0.2468912E-015  0.9000772E+02  0.7816164E-02  0.1186339E+00
        -11   -1    0    0    0    0  0.00000000000E+00  0.00000000000E+00  0.45593999997E+02  0.45594000000E+02  0.51100000000E-03 0.  1.
         11   -1    0    0    0    0 -0.00000000000E+00 -0.00000000000E+00 -0.45593999997E+02  0.45594000000E+02  0.51100000000E-03 0. -1.
    9900012    2    1    2    0    0 -0.37189083334E+00 -0.11194668475E+01 -0.39510920388E-01  0.90007716167E+02  0.89999977220E+02 0.  0.
         12    1    1    2    0    0  0.37189083334E+00  0.11194668475E+01  0.39510920388E-01  0.11802838334E+01  0.00000000000E+00 0. -1.
         11    1    3    3    0    0  0.60259385008E+01  0.94123188736E+01  0.19035463045E+02  0.22073797476E+02  0.51100000000E-03 0. -1.
        -11    1    3    3    0    0  0.79263487361E+01  0.24737431159E+02 -0.15385871990E+01  0.26021813070E+02  0.51100000000E-03 0.  1.
         12    1    3    3    0    0 -0.14324178070E+02 -0.35269216880E+02 -0.17536386767E+02  0.41912105621E+02  0.00000000000E+00 0. -1.
</event>
<event>
 7    1  0.2468912E-015  0.9000764E+02  0.7816164E-02  0.1186339E+00
        -11   -1    0    0    0    0  0.00000000000E+00  0.00000000000E+00  0.45593999997E+02  0.45594000000E+02  0.51100000000E-03 0. -1.
         11   -1    0    0    0    0 -0.00000000000E+00 -0.00000000000E+00 -0.45593999997E+02  0.45594000000E+02  0.51100000000E-03 0.  1.
    9900012    2    1    2    0    0  0.11681291744E+01 -0.17162560180E-01 -0.16859355007E+00  0.90007642382E+02  0.89999902461E+02 0.  0.
         12    1    1    2    0    0 -0.11681291744E+01  0.17162560180E-01  0.16859355007E+00  0.11803576182E+01  0.00000000000E+00 0. -1.
         11    1    3    3    0    0  0.61345683210E+00  0.12742751090E+02 -0.85207278431E+01  0.15341344070E+02  0.51100000000E-03 0. -1.
        -11    1    3    3    0    0  0.10890723383E+01 -0.42010321169E+02 -0.53455872767E+01  0.42363055448E+02  0.51100000000E-03 0.  1.
         12    1    3    3    0    0 -0.53439999598E+00  0.29250407519E+02  0.13697721570E+02  0.32303242865E+02  0.00000000000E+00 0. -1.
</event>
<event>
 7    1  0.2468912E-015  0.9000776E+02  0.7816164E-02  0.1186339E+00
        -11   -1    0    0    0    0  0.00000000000E+00  0.00000000000E+00  0.45593999997E+02  0.45594000000E+02  0.51100000000E-03 0.  1.
         11   -1    0    0    0    0 -0.00000000000E+00 -0.00000000000E+00 -0.45593999997E+02  0.45594000000E+02  0.51100000000E-03 0. -1.
    9900012    2    1    2    0    0  0.31215121510E+00 -0.11261547175E+01  0.16521108916E+00  0.90007763781E+02  0.90000025463E+02 0.  0.
         12    1    1    2    0    0 -0.31215121510E+00  0.11261547175E+01 -0.16521108916E+00  0.11802362190E+01  0.00000000000E+00 0. -1.
         11    1    3    3    0    0  0.36977003059E+00 -0.83908785089E+01  0.35913067481E+01  0.91346076241E+01  0.51100000000E-03 0. -1.
        -11    1    3    3    0    0  0.37792077719E+02  0.68978568688E+01  0.11628382177E+02  0.40137773232E+02  0.51100000000E-03 0.  1.
         12    1    3    3    0    0 -0.37849696535E+02  0.36686692269E+00 -0.15054477836E+02  0.40735382925E+02  0.00000000000E+00 0. -1.
</event>
<event>
 7    1  0.2468912E-015  0.9000707E+02  0.7816164E-02  0.1186340E+00
        -11   -1    0    0    0    0  0.00000000000E+00  0.00000000000E+00  0.45593999997E+02  0.45594000000E+02  0.51100000000E-03 0.  1.
         11   -1    0    0    0    0 -0.00000000000E+00 -0.00000000000E+00 -0.45593999997E+02  0.45594000000E+02  0.51100000000E-03 0. -1.
    9900012    2    1    2    0    0  0.64401322585E+00  0.45910732789E+00  0.87695858674E+00  0.90007072849E+02  0.89999325408E+02 0.  0.
         12    1    1    2    0    0 -0.64401322585E+00 -0.45910732789E+00 -0.87695858674E+00  0.11809271512E+01  0.00000000000E+00 0. -1.
         11    1    3    3    0    0 -0.16594274674E+01 -0.40629940536E+02  0.16275197691E+02  0.43799861046E+02  0.51100000000E-03 0. -1.
        -11    1    3    3    0    0  0.18124185781E+01  0.46398959490E+01 -0.73465464538E+01  0.88761050343E+01  0.51100000000E-03 0.  1.
        -12    1    3    3    0    0  0.49102211518E+00  0.36449151915E+02 -0.80516926500E+01  0.37331106769E+02  0.00000000000E+00 0.  1.
</event>
<event>
 7    1  0.2468912E-015  0.9000774E+02  0.7816164E-02  0.1186339E+00
        -11   -1    0    0    0    0  0.00000000000E+00  0.00000000000E+00  0.45593999997E+02  0.45594000000E+02  0.51100000000E-03 0.  1.
         11   -1    0    0    0    0 -0.00000000000E+00 -0.00000000000E+00 -0.45593999997E+02  0.45594000000E+02  0.51100000000E-03 0. -1.
    9900012    2    1    2    0    0  0.24415480503E+00 -0.20193041924E+00  0.11369335911E+01  0.90007743480E+02  0.90000004894E+02 0.  0.
         12    1    1    2    0    0 -0.24415480503E+00  0.20193041924E+00 -0.11369335911E+01  0.11802565202E+01  0.00000000000E+00 0. -1.
         11    1    3    3    0    0  0.39976055933E+01 -0.60173860259E+01 -0.63366091609E+01  0.96094953553E+01  0.51100000000E-03 0. -1.
        -11    1    3    3    0    0 -0.11980128379E+02 -0.22057399215E+02  0.33175854917E+02  0.41601558695E+02  0.51100000000E-03 0.  1.
         12    1    3    3    0    0  0.82266775909E+01  0.27872854822E+02 -0.25702312165E+02  0.38796689430E+02  0.00000000000E+00 0. -1.
</event>
<event>
 7    1  0.2468912E-015  0.9000777E+02  0.7816164E-02  0.1186339E+00
        -11   -1    0    0    0    0  0.00000000000E+00  0.00000000000E+00  0.45593999997E+02  0.45594000000E+02  0.51100000000E-03 0. -1.
         11   -1    0    0    0    0 -0.00000000000E+00 -0.00000000000E+00 -0.45593999997E+02  0.45594000000E+02  0.51100000000E-03 0.  1.
    9900012    2    1    2    0    0 -0.73279710118E+00  0.92514541680E+00  0.75514517537E-02  0.90007770083E+02  0.90000031848E+02 0.  0.
         12    1    1    2    0    0  0.73279710118E+00 -0.92514541680E+00 -0.75514517537E-02  0.11802299175E+01  0.00000000000E+00 0. -1.
         11    1    3    3    0    0  0.53950345038E+01  0.17386809802E+01  0.71967815930E+01  0.91609537935E+01  0.51100000000E-03 0. -1.
        -11    1    3    3    0    0  0.13576680211E+02  0.21718142592E+02 -0.32687111922E+02  0.41526512606E+02  0.51100000000E-03 0.  1.
         12    1    3    3    0    0 -0.19704511816E+02 -0.22531678155E+02  0.25497881781E+02  0.39320303683E+02  0.00000000000E+00 0. -1.
</event>
<event>
 7    1  0.2468912E-015  0.9000773E+02  0.7816164E-02  0.1186339E+00
        -11   -1    0    0    0    0  0.00000000000E+00  0.00000000000E+00  0.45593999997E+02  0.45594000000E+02  0.51100000000E-03 0. -1.
         11   -1    0    0    0    0 -0.00000000000E+00 -0.00000000000E+00 -0.45593999997E+02  0.45594000000E+02  0.51100000000E-03 0.  1.
    9900012    2    1    2    0    0 -0.69727755705E+00 -0.94348457698E+00 -0.12914353583E+00  0.90007730035E+02  0.89999991271E+02 0.  0.
         12    1    1    2    0    0  0.69727755705E+00  0.94348457698E+00  0.12914353583E+00  0.11802699655E+01  0.00000000000E+00 0. -1.
         11    1    3    3    0    0  0.12091465356E+01 -0.17914681166E+02  0.23125227536E+02  0.29277533801E+02  0.51100000000E-03 0. -1.
        -11    1    3    3    0    0 -0.12147041716E+02 -0.12207658571E+02 -0.24306041410E+02  0.29788608553E+02  0.51100000000E-03 0.  1.
         12    1    3    3    0    0  0.10240617623E+02  0.29178855159E+02  0.10516703378E+01  0.30941587681E+02  0.00000000000E+00 0. -1.
</event>
<event>
 7    1  0.2468912E-015  0.9000779E+02  0.7816164E-02  0.1186339E+00
        -11   -1    0    0    0    0  0.00000000000E+00  0.00000000000E+00  0.45593999997E+02  0.45594000000E+02  0.51100000000E-03 0. -1.
         11   -1    0    0    0    0 -0.00000000000E+00 -0.00000000000E+00 -0.45593999997E+02  0.45594000000E+02  0.51100000000E-03 0.  1.
    9900012    2    1    2    0    0  0.10108996621E+01 -0.59169069538E+00  0.14448847475E+00  0.90007791152E+02  0.90000053195E+02 0.  0.
         12    1    1    2    0    0 -0.10108996621E+01  0.59169069538E+00 -0.14448847475E+00  0.11802088481E+01  0.00000000000E+00 0. -1.
         11    1    3    3    0    0 -0.31446926957E+02 -0.32550519690E+00  0.27874468030E+02  0.42023816305E+02  0.51100000000E-03 0. -1.
        -11    1    3    3    0    0  0.68313202008E+01 -0.75817943032E+00  0.33930968740E+01  0.76651730830E+01  0.51100000000E-03 0.  1.
        -12    1    3    3    0    0  0.25626506418E+02  0.49199393184E+00 -0.31123076429E+02  0.40318801763E+02  0.00000000000E+00 0.  1.
</event>
<event>
 7    1  0.2468912E-015  0.9000779E+02  0.7816164E-02  0.1186339E+00
        -11   -1    0    0    0    0  0.00000000000E+00  0.00000000000E+00  0.45593999997E+02  0.45594000000E+02  0.51100000000E-03 0.  1.
         11   -1    0    0    0    0 -0.00000000000E+00 -0.00000000000E+00 -0.45593999997E+02  0.45594000000E+02  0.51100000000E-03 0. -1.
    9900012    2    1    2    0    0 -0.64594668782E+00 -0.65936079031E+00 -0.73544814898E+00  0.90007793342E+02  0.90000055414E+02 0.  0.
         12    1    1    2    0    0  0.64594668782E+00  0.65936079031E+00  0.73544814898E+00  0.11802066578E+01  0.00000000000E+00 0. -1.
         11    1    3    3    0    0 -0.28960989566E+02 -0.13305859609E+02 -0.17809867966E+02  0.36509946779E+02  0.51100000000E-03 0. -1.
        -11    1    3    3    0    0 -0.94536517463E+01  0.10940516706E+01 -0.18615621276E+01  0.96971075179E+01  0.51100000000E-03 0.  1.
        -12    1    3    3    0    0  0.37768694624E+02  0.11552447148E+02  0.18935981945E+02  0.43800739046E+02  0.00000000000E+00 0.  1.
</event>
<event>
 7    1  0.2468912E-015  0.9000770E+02  0.7816164E-02  0.1186339E+00
        -11   -1    0    0    0    0  0.00000000000E+00  0.00000000000E+00  0.45593999997E+02  0.45594000000E+02  0.51100000000E-03 0.  1.
         11   -1    0    0    0    0 -0.00000000000E+00 -0.00000000000E+00 -0.45593999997E+02  0.45594000000E+02  0.51100000000E-03 0. -1.
    9900012    2    1    2    0    0  0.10294463652E+00 -0.98616708575E+00  0.64029925950E+00  0.90007700775E+02  0.89999961625E+02 0.  0.
         12    1    1    2    0    0 -0.10294463652E+00  0.98616708575E+00 -0.64029925950E+00  0.11802992252E+01  0.00000000000E+00 0. -1.
         11    1    3    3    0    0 -0.61314005843E-01  0.97642956023E+01 -0.17639134201E+01  0.99225308682E+01  0.51100000000E-03 0. -1.
        -11    1    3    3    0    0  0.16559729662E+02  0.22358876829E+02  0.24468303551E+02  0.37051881173E+02  0.51100000000E-03 0.  1.
         12    1    3    3    0    0 -0.16395471020E+02 -0.33109339517E+02 -0.22064090871E+02  0.43033288733E+02  0.00000000000E+00 0. -1.
</event>
<event>
 7    1  0.2468912E-015  0.9000774E+02  0.7816164E-02  0.1186339E+00
        -11   -1    0    0    0    0  0.00000000000E+00  0.00000000000E+00  0.45593999997E+02  0.45594000000E+02  0.51100000000E-03 0.  1.
         11   -1    0    0    0    0 -0.00000000000E+00 -0.00000000000E+00 -0.45593999997E+02  0.45594000000E+02  0.51100000000E-03 0. -1.
    9900012    2    1    2    0    0  0.10957524086E-02 -0.11787879173E+01 -0.59010390573E-01  0.90007735462E+02  0.89999996770E+02 0.  0.
         12    1    1    2    0    0 -0.10957524086E-02  0.11787879173E+01  0.59010390573E-01  0.11802645385E+01  0.00000000000E+00 0. -1.
         11    1    3    3    0    0  0.68205699085E+01 -0.52747264427E+01 -0.74135251014E+01  0.11371159466E+02  0.51100000000E-03 0. -1.
        -11    1    3    3    0    0  0.25339131443E+02 -0.84952360321E+01 -0.20970752955E+02  0.33970768276E+02  0.51100000000E-03 0.  1.
         12    1    3    3    0    0 -0.32158605599E+02  0.12591174558E+02  0.28325267666E+02  0.44665807719E+02  0.00000000000E+00 0. -1.
</event>
<event>
 7    1  0.2468912E-015  0.9000772E+02  0.7816164E-02  0.1186339E+00
        -11   -1    0    0    0    0  0.00000000000E+00  0.00000000000E+00  0.45593999997E+02  0.45594000000E+02  0.51100000000E-03 0.  1.
         11   -1    0    0    0    0 -0.00000000000E+00 -0.00000000000E+00 -0.45593999997E+02  0.45594000000E+02  0.51100000000E-03 0. -1.
    9900012    2    1    2    0    0  0.87297740911E+00 -0.52275677858E+00  0.59808437758E+00  0.90007716505E+02  0.89999977563E+02 0.  0.
         12    1    1    2    0    0 -0.87297740911E+00  0.52275677858E+00 -0.59808437758E+00  0.11802834952E+01  0.00000000000E+00 0. -1.
         11    1    3    3    0    0 -0.12650089139E+02 -0.41456497713E+01  0.22359376304E+01  0.13498540091E+02  0.51100000000E-03 0. -1.
        -11    1    3    3    0    0 -0.12156796409E+02 -0.30635794287E+02  0.44679689213E+01  0.33261123509E+02  0.51100000000E-03 0.  1.
         12    1    3    3    0    0  0.25679862957E+02  0.34258687280E+02 -0.61058221741E+01  0.43248052905E+02  0.00000000000E+00 0. -1.
</event>
<event>
 7    1  0.2468912E-015  0.9000772E+02  0.7816164E-02  0.1186339E+00
        -11   -1    0    0    0    0  0.00000000000E+00  0.00000000000E+00  0.45593999997E+02  0.45594000000E+02  0.51100000000E-03 0. -1.
         11   -1    0    0    0    0 -0.00000000000E+00 -0.00000000000E+00 -0.45593999997E+02  0.45594000000E+02  0.51100000000E-03 0.  1.
    9900012    2    1    2    0    0 -0.95838481219E+00 -0.65201072615E+00  0.22233350584E+00  0.90007723921E+02  0.89999985077E+02 0.  0.
         12    1    1    2    0    0  0.95838481219E+00  0.65201072615E+00 -0.22233350584E+00  0.11802760792E+01  0.00000000000E+00 0. -1.
         11    1    3    3    0    0  0.13518490337E+02  0.25943394620E+02 -0.25650688812E+02  0.38907160551E+02  0.51100000000E-03 0. -1.
        -11    1    3    3    0    0  0.46615975373E+01  0.48251069743E+01  0.72048305911E+01  0.98448835961E+01  0.51100000000E-03 0.  1.
        -12    1    3    3    0    0 -0.19138472686E+02 -0.31420512320E+02  0.18668191727E+02  0.41255679773E+02  0.00000000000E+00 0.  1.
</event>
<event>
 7    1  0.2468912E-015  0.9000767E+02  0.7816164E-02  0.1186339E+00
        -11   -1    0    0    0    0  0.00000000000E+00  0.00000000000E+00  0.45593999997E+02  0.45594000000E+02  0.51100000000E-03 0.  1.
         11   -1    0    0    0    0 -0.00000000000E+00 -0.00000000000E+00 -0.45593999997E+02  0.45594000000E+02  0.51100000000E-03 0. -1.
    9900012    2    1    2    0    0  0.20504435081E+00  0.47170569171E-01  0.11614281779E+01  0.90007667987E+02  0.89999928404E+02 0.  0.
         12    1    1    2    0    0 -0.20504435081E+00 -0.47170569171E-01 -0.11614281779E+01  0.11803320129E+01  0.00000000000E+00 0. -1.
         11    1    3    3    0    0  0.76838311040E+01 -0.36534836179E+02  0.20473680073E+02  0.42579420981E+02  0.51100000000E-03 0. -1.
        -11    1    3    3    0    0 -0.85366603212E+01  0.25023528863E+01 -0.64443212516E+01  0.10984790215E+02  0.51100000000E-03 0.  1.
        -12    1    3    3    0    0  0.10578735680E+01  0.34079653862E+02 -0.12867930644E+02  0.36443456791E+02  0.00000000000E+00 0.  1.
</event>
<event>
 7    1  0.2468912E-015  0.9000773E+02  0.7816164E-02  0.1186339E+00
        -11   -1    0    0    0    0  0.00000000000E+00  0.00000000000E+00  0.45593999997E+02  0.45594000000E+02  0.51100000000E-03 0. -1.
         11   -1    0    0    0    0 -0.00000000000E+00 -0.00000000000E+00 -0.45593999997E+02  0.45594000000E+02  0.51100000000E-03 0.  1.
    9900012    2    1    2    0    0 -0.57671332540E+00 -0.77420278546E+00 -0.67901270418E+00  0.90007726106E+02  0.89999987290E+02 0.  0.
         12    1    1    2    0    0  0.57671332540E+00  0.77420278546E+00  0.67901270418E+00  0.11802738941E+01  0.00000000000E+00 0. -1.
         11    1    3    3    0    0 -0.29490162047E+02  0.12000759547E+02  0.24572288907E+02  0.40217971974E+02  0.51100000000E-03 0. -1.
        -11    1    3    3    0    0 -0.51446199566E+01 -0.58658537660E+01 -0.72574704173E+01  0.10655807432E+02  0.51100000000E-03 0.  1.
        -12    1    3    3    0    0  0.34058068679E+02 -0.69091085663E+01 -0.17993831194E+02  0.39133946700E+02  0.00000000000E+00 0.  1.
</event>
<event>
 7    1  0.2468912E-015  0.9000779E+02  0.7816164E-02  0.1186339E+00
        -11   -1    0    0    0    0  0.00000000000E+00  0.00000000000E+00  0.45593999997E+02  0.45594000000E+02  0.51100000000E-03 0. -1.
         11   -1    0    0    0    0 -0.00000000000E+00 -0.00000000000E+00 -0.45593999997E+02  0.45594000000E+02  0.51100000000E-03 0.  1.
    9900012    2    1    2    0    0 -0.65011279337E+00 -0.97935221148E+00  0.10545846814E+00  0.90007788626E+02  0.90000050636E+02 0.  0.
         12    1    1    2    0    0  0.65011279337E+00  0.97935221148E+00 -0.10545846814E+00  0.11802113738E+01  0.00000000000E+00 0. -1.
         11    1    3    3    0    0  0.25029233991E+01  0.88479591673E+01  0.54680094558E+01  0.10698136970E+02  0.51100000000E-03 0. -1.
        -11    1    3    3    0    0 -0.21252771603E+02  0.23598057167E+02 -0.21143959973E+02  0.38152531325E+02  0.51100000000E-03 0.  1.
         12    1    3    3    0    0  0.18099735411E+02 -0.33425368546E+02  0.15781408986E+02  0.41157120331E+02  0.00000000000E+00 0. -1.
</event>
<event>
 7    1  0.2468912E-015  0.9000775E+02  0.7816164E-02  0.1186339E+00
        -11   -1    0    0    0    0  0.00000000000E+00  0.00000000000E+00  0.45593999997E+02  0.45594000000E+02  0.51100000000E-03 0.  1.
         11   -1    0    0    0    0 -0.00000000000E+00 -0.00000000000E+00 -0.45593999997E+02  0.45594000000E+02  0.51100000000E-03 0. -1.
    9900012    2    1    2    0    0  0.10607628732E+01  0.31391810877E-01 -0.51650601078E+00  0.90007753510E+02  0.90000015056E+02 0.  0.
         12    1    1    2    0    0 -0.10607628732E+01 -0.31391810877E-01  0.51650601078E+00  0.11802464904E+01  0.00000000000E+00 0. -1.
         11    1    3    3    0    0 -0.10662342777E+01  0.26608100408E+02 -0.18345872210E+02  0.32337267823E+02  0.51100000000E-03 0. -1.
        -11    1    3    3    0    0 -0.12166806483E+02  0.81723970099E+01 -0.26246799473E+01  0.14889868971E+02  0.51100000000E-03 0.  1.
        -12    1    3    3    0    0  0.14293803633E+02 -0.34749105607E+02  0.20454046147E+02  0.42780616716E+02  0.00000000000E+00 0.  1.
</event>
<event>
 7    1  0.2468912E-015  0.9000767E+02  0.7816164E-02  0.1186339E+00
        -11   -1    0    0    0    0  0.00000000000E+00  0.00000000000E+00  0.45593999997E+02  0.45594000000E+02  0.51100000000E-03 0.  1.
         11   -1    0    0    0    0 -0.00000000000E+00 -0.00000000000E+00 -0.45593999997E+02  0.45594000000E+02  0.51100000000E-03 0. -1.
    9900012    2    1    2    0    0  0.83228246854E+00 -0.48801537927E+00  0.67994361138E+00  0.90007671049E+02  0.89999931507E+02 0.  0.
         12    1    1    2    0    0 -0.83228246854E+00  0.48801537927E+00 -0.67994361138E+00  0.11803289510E+01  0.00000000000E+00 0. -1.
         11    1    3    3    0    0 -0.24732510312E+02 -0.80199703052E+00 -0.28656170904E+02  0.37861806570E+02  0.51100000000E-03 0. -1.
        -11    1    3    3    0    0 -0.39688781385E+01 -0.67931658101E+01 -0.23895203297E+01  0.82224633212E+01  0.51100000000E-03 0.  1.
        -12    1    3    3    0    0  0.29533670920E+02  0.71071474613E+01  0.31725634845E+02  0.43923401158E+02  0.00000000000E+00 0.  1.
</event>
<event>
 7    1  0.2468912E-015  0.9000769E+02  0.7816164E-02  0.1186339E+00
        -11   -1    0    0    0    0  0.00000000000E+00  0.00000000000E+00  0.45593999997E+02  0.45594000000E+02  0.51100000000E-03 0. -1.
         11   -1    0    0    0    0 -0.00000000000E+00 -0.00000000000E+00 -0.45593999997E+02  0.45594000000E+02  0.51100000000E-03 0.  1.
    9900012    2    1    2    0    0 -0.81502575950E+00 -0.68287549627E+00 -0.51240172037E+00  0.90007685866E+02  0.89999946519E+02 0.  0.
         12    1    1    2    0    0  0.81502575950E+00  0.68287549627E+00  0.51240172037E+00  0.11803141341E+01  0.00000000000E+00 0. -1.
         11    1    3    3    0    0  0.36362530279E+02 -0.31566264483E+01  0.64940634458E+01  0.37072506783E+02  0.51100000000E-03 0. -1.
        -11    1    3    3    0    0  0.42688968694E+01 -0.22139411269E+01 -0.10021597329E+02  0.11115638942E+02  0.51100000000E-03 0.  1.
        -12    1    3    3    0    0 -0.41446452908E+02  0.46876920790E+01  0.30151321630E+01  0.41819540142E+02  0.00000000000E+00 0.  1.
</event>
<event>
 7    1  0.2468912E-015  0.9000764E+02  0.7816164E-02  0.1186339E+00
        -11   -1    0    0    0    0  0.00000000000E+00  0.00000000000E+00  0.45593999997E+02  0.45594000000E+02  0.51100000000E-03 0.  1.
         11   -1    0    0    0    0 -0.00000000000E+00 -0.00000000000E+00 -0.45593999997E+02  0.45594000000E+02  0.51100000000E-03 0. -1.
    9900012    2    1    2    0    0 -0.92623261015E+00  0.72760398381E+00 -0.77093956063E-01  0.90007636546E+02  0.89999896548E+02 0.  0.
         12    1    1    2    0    0  0.92623261015E+00 -0.72760398381E+00  0.77093956063E-01  0.11803634540E+01  0.00000000000E+00 0. -1.
         11    1    3    3    0    0  0.40053466734E+01 -0.10762710887E+02 -0.34977269332E+02  0.36814237976E+02  0.51100000000E-03 0. -1.
        -11    1    3    3    0    0  0.64487069437E+01 -0.39083544067E+01 -0.49235094519E+01  0.90056649393E+01  0.51100000000E-03 0.  1.
        -12    1    3    3    0    0 -0.11380286227E+02  0.15398669277E+02  0.39823684828E+02  0.44187733630E+02  0.00000000000E+00 0.  1.
</event>
<event>
 7    1  0.2468912E-015  0.9000768E+02  0.7816164E-02  0.1186339E+00
        -11   -1    0    0    0    0  0.00000000000E+00  0.00000000000E+00  0.45593999997E+02  0.45594000000E+02  0.51100000000E-03 0.  1.
         11   -1    0    0    0    0 -0.00000000000E+00 -0.00000000000E+00 -0.45593999997E+02  0.45594000000E+02  0.51100000000E-03 0. -1.
    9900012    2    1    2    0    0 -0.73749768396E+00  0.49462746491E+00  0.77756233537E+00  0.90007677015E+02  0.89999937552E+02 0.  0.
         12    1    1    2    0    0  0.73749768396E+00 -0.49462746491E+00 -0.77756233537E+00  0.11803229847E+01  0.00000000000E+00 0. -1.
         11    1    3    3    0    0  0.88070506531E+01 -0.64130530183E+01 -0.29738486005E+02  0.31671263637E+02  0.51100000000E-03 0. -1.
        -11    1    3    3    0    0  0.51310802274E+01 -0.12361788813E+02 -0.58786128329E+01  0.14618477898E+02  0.51100000000E-03 0.  1.
        -12    1    3    3    0    0 -0.14675628564E+02  0.19269469296E+02  0.36394661174E+02  0.43717935480E+02  0.00000000000E+00 0.  1.
</event>
<event>
 7    1  0.2468912E-015  0.9000778E+02  0.7816164E-02  0.1186339E+00
        -11   -1    0    0    0    0  0.00000000000E+00  0.00000000000E+00  0.45593999997E+02  0.45594000000E+02  0.51100000000E-03 0. -1.
         11   -1    0    0    0    0 -0.00000000000E+00 -0.00000000000E+00 -0.45593999997E+02  0.45594000000E+02  0.51100000000E-03 0.  1.
    9900012    2    1    2    0    0  0.93964803669E-01 -0.11764391035E+01 -0.93204534699E-02  0.90007777470E+02  0.90000039333E+02 0.  0.
         12    1    1    2    0    0 -0.93964803669E-01  0.11764391035E+01  0.93204534699E-02  0.11802225296E+01  0.00000000000E+00 0. -1.
         11    1    3    3    0    0 -0.14776040490E+02 -0.26264629829E+02  0.29455194311E+02  0.42139893507E+02  0.51100000000E-03 0. -1.
        -11    1    3    3    0    0  0.75265583607E+01  0.80762862809E+01  0.21275832080E+01  0.11242868469E+02  0.51100000000E-03 0.  1.
        -12    1    3    3    0    0  0.73434469333E+01  0.17011904444E+02 -0.31592097972E+02  0.36625015494E+02  0.00000000000E+00 0.  1.
</event>
<event>
 7    1  0.2468912E-015  0.9000729E+02  0.7816164E-02  0.1186340E+00
        -11   -1    0    0    0    0  0.00000000000E+00  0.00000000000E+00  0.45593999997E+02  0.45594000000E+02  0.51100000000E-03 0. -1.
         11   -1    0    0    0    0 -0.00000000000E+00 -0.00000000000E+00 -0.45593999997E+02  0.45594000000E+02  0.51100000000E-03 0.  1.
    9900012    2    1    2    0    0  0.34971903168E+00  0.53879517865E+00 -0.99069562625E+00  0.90007287728E+02  0.89999543125E+02 0.  0.
         12    1    1    2    0    0 -0.34971903168E+00 -0.53879517865E+00  0.99069562625E+00  0.11807122721E+01  0.00000000000E+00 0. -1.
         11    1    3    3    0    0  0.19739561678E+02 -0.13426986698E+02  0.31469276335E+02  0.39499995194E+02  0.51100000000E-03 0. -1.
        -11    1    3    3    0    0 -0.46237072455E+01  0.90910113814E+01  0.39330736079E+01  0.10931341404E+02  0.51100000000E-03 0.  1.
        -12    1    3    3    0    0 -0.14766135401E+02  0.48747704953E+01 -0.36393045569E+02  0.39575951130E+02  0.00000000000E+00 0.  1.
</event>
<event>
 7    1  0.2468912E-015  0.9000775E+02  0.7816164E-02  0.1186339E+00
        -11   -1    0    0    0    0  0.00000000000E+00  0.00000000000E+00  0.45593999997E+02  0.45594000000E+02  0.51100000000E-03 0.  1.
         11   -1    0    0    0    0 -0.00000000000E+00 -0.00000000000E+00 -0.45593999997E+02  0.45594000000E+02  0.51100000000E-03 0. -1.
    9900012    2    1    2    0    0  0.15505782078E+00  0.11207808890E+01  0.33585270651E+00  0.90007750124E+02  0.90000011626E+02 0.  0.
         12    1    1    2    0    0 -0.15505782078E+00 -0.11207808890E+01 -0.33585270651E+00  0.11802498758E+01  0.00000000000E+00 0. -1.
         11    1    3    3    0    0  0.55873418038E+01  0.96334308850E+01  0.96587881608E+01  0.14741559214E+02  0.51100000000E-03 0. -1.
        -11    1    3    3    0    0  0.10062722525E+02  0.30808771245E+02 -0.47098499772E+01  0.32750900100E+02  0.51100000000E-03 0.  1.
         12    1    3    3    0    0 -0.15495006508E+02 -0.39321421242E+02 -0.46130854772E+01  0.42515290811E+02  0.00000000000E+00 0. -1.
</event>
<event>
 7    1  0.2468912E-015  0.9000780E+02  0.7816164E-02  0.1186339E+00
        -11   -1    0    0    0    0  0.00000000000E+00  0.00000000000E+00  0.45593999997E+02  0.45594000000E+02  0.51100000000E-03 0. -1.
         11   -1    0    0    0    0 -0.00000000000E+00 -0.00000000000E+00 -0.45593999997E+02  0.45594000000E+02  0.51100000000E-03 0.  1.
    9900012    2    1    2    0    0  0.18309225361E+00  0.79284056584E+00  0.85484402115E+00  0.90007797798E+02  0.90000059929E+02 0.  0.
         12    1    1    2    0    0 -0.18309225361E+00 -0.79284056584E+00 -0.85484402115E+00  0.11802022016E+01  0.00000000000E+00 0. -1.
         11    1    3    3    0    0 -0.24908887043E+02  0.17739877127E+01  0.27991688841E+02  0.37511789220E+02  0.51100000000E-03 0. -1.
        -11    1    3    3    0    0 -0.21493644866E+00  0.46957652642E+01  0.77261581904E+01  0.90437785100E+01  0.51100000000E-03 0.  1.
        -12    1    3    3    0    0  0.25306915745E+02 -0.56769124110E+01 -0.34863003010E+02  0.43452230068E+02  0.00000000000E+00 0.  1.
</event>
<event>
 7    1  0.3879233E-015  0.9000698E+02  0.7816164E-02  0.1186341E+00
        -11   -1    0    0    0    0  0.00000000000E+00  0.00000000000E+00  0.45593999997E+02  0.45594000000E+02  0.51100000000E-03 0. -1.
         11   -1    0    0    0    0 -0.00000000000E+00 -0.00000000000E+00 -0.45593999997E+02  0.45594000000E+02  0.51100000000E-03 0.  1.
    9900012    2    1    2    0    0 -0.35707922000E+00  0.11003262173E+01 -0.23786704807E+00  0.90006981759E+02  0.89999233115E+02 0.  0.
         12    1    1    2    0    0  0.35707922000E+00 -0.11003262173E+01  0.23786704807E+00  0.11810182414E+01  0.00000000000E+00 0. -1.
         11    1    3    3    0    0  0.31761609458E+02 -0.95895250007E+01 -0.13134454080E+02  0.35682947038E+02  0.51100000000E-03 0. -1.
        -11    1    3    3    0    0  0.47702028217E+01 -0.39361050380E+01 -0.74881506086E+01  0.97118565490E+01  0.51100000000E-03 0.  1.
        -12    1    3    3    0    0 -0.36888891500E+02  0.14625956256E+02  0.20384737641E+02  0.44612178171E+02  0.00000000000E+00 0.  1.
</event>
<event>
 7    1  0.2468912E-015  0.9000775E+02  0.7816164E-02  0.1186339E+00
        -11   -1    0    0    0    0  0.00000000000E+00  0.00000000000E+00  0.45593999997E+02  0.45594000000E+02  0.51100000000E-03 0.  1.
         11   -1    0    0    0    0 -0.00000000000E+00 -0.00000000000E+00 -0.45593999997E+02  0.45594000000E+02  0.51100000000E-03 0. -1.
    9900012    2    1    2    0    0  0.78174020014E+00 -0.70658237175E+00  0.53162445040E+00  0.90007745390E+02  0.90000006829E+02 0.  0.
         12    1    1    2    0    0 -0.78174020014E+00  0.70658237175E+00 -0.53162445040E+00  0.11802546102E+01  0.00000000000E+00 0. -1.
         11    1    3    3    0    0  0.33644094579E+02 -0.21052242302E+02 -0.11918917216E+02  0.41438901938E+02  0.51100000000E-03 0. -1.
        -11    1    3    3    0    0 -0.27477618711E+01  0.44218234309E+01 -0.74709414327E+01  0.91059147759E+01  0.51100000000E-03 0.  1.
        -12    1    3    3    0    0 -0.30114592508E+02  0.15923836499E+02  0.19921483100E+02  0.39462928676E+02  0.00000000000E+00 0.  1.
</event>
<event>
 7    1  0.2468912E-015  0.9000762E+02  0.7816164E-02  0.1186339E+00
        -11   -1    0    0    0    0  0.00000000000E+00  0.00000000000E+00  0.45593999997E+02  0.45594000000E+02  0.51100000000E-03 0. -1.
         11   -1    0    0    0    0 -0.00000000000E+00 -0.00000000000E+00 -0.45593999997E+02  0.45594000000E+02  0.51100000000E-03 0.  1.
    9900012    2    1    2    0    0  0.48646610851E+00 -0.10226286859E+01  0.33297238137E+00  0.90007623234E+02  0.89999883060E+02 0.  0.
         12    1    1    2    0    0 -0.48646610851E+00  0.10226286859E+01 -0.33297238137E+00  0.11803767664E+01  0.00000000000E+00 0. -1.
         11    1    3    3    0    0 -0.81255778014E+01 -0.28883244358E+02  0.17481700642E+02  0.34725735079E+02  0.51100000000E-03 0. -1.
        -11    1    3    3    0    0 -0.85795026112E+01  0.15693557811E+01 -0.21843084754E+02  0.23520014763E+02  0.51100000000E-03 0.  1.
        -12    1    3    3    0    0  0.17191546521E+02  0.26291259890E+02  0.46943564938E+01  0.31761873391E+02  0.00000000000E+00 0.  1.
</event>
<event>
 7    1  0.2468912E-015  0.9000808E+02  0.7816164E-02  0.1186338E+00
        -11   -1    0    0    0    0  0.00000000000E+00  0.00000000000E+00  0.45593999997E+02  0.45594000000E+02  0.51100000000E-03 0.  1.
         11   -1    0    0    0    0 -0.00000000000E+00 -0.00000000000E+00 -0.45593999997E+02  0.45594000000E+02  0.51100000000E-03 0. -1.
    9900012    2    1    2    0    0  0.83010919357E+00 -0.28654525409E+00  0.78804331256E+00  0.90008084021E+02  0.90000349929E+02 0.  0.
         12    1    1    2    0    0 -0.83010919357E+00  0.28654525409E+00 -0.78804331256E+00  0.11799159794E+01  0.00000000000E+00 0. -1.
         11    1    3    3    0    0  0.67313764313E+01 -0.73248675587E+01 -0.96386927871E+01  0.13851697092E+02  0.51100000000E-03 0. -1.
        -11    1    3    3    0    0  0.32379038246E+01  0.22249884231E+02  0.37536246527E+02  0.43755127392E+02  0.51100000000E-03 0.  1.
         12    1    3    3    0    0 -0.91391710623E+01 -0.15211561926E+02 -0.27109510428E+02  0.32401259537E+02  0.00000000000E+00 0. -1.
</event>
<event>
 7    1  0.2468912E-015  0.9000776E+02  0.7816164E-02  0.1186339E+00
        -11   -1    0    0    0    0  0.00000000000E+00  0.00000000000E+00  0.45593999997E+02  0.45594000000E+02  0.51100000000E-03 0.  1.
         11   -1    0    0    0    0 -0.00000000000E+00 -0.00000000000E+00 -0.45593999997E+02  0.45594000000E+02  0.51100000000E-03 0. -1.
    9900012    2    1    2    0    0  0.35782367241E+00  0.52825039154E+00  0.99291103163E+00  0.90007763340E+02  0.90000025016E+02 0.  0.
         12    1    1    2    0    0 -0.35782367241E+00 -0.52825039154E+00 -0.99291103163E+00  0.11802366599E+01  0.00000000000E+00 0. -1.
         11    1    3    3    0    0 -0.28868134480E+02  0.58669892822E+01 -0.28951803618E+02  0.41303724827E+02  0.51100000000E-03 0. -1.
        -11    1    3    3    0    0  0.59675696368E+00  0.70205343587E+01  0.37665064834E+01  0.79894050408E+01  0.51100000000E-03 0.  1.
        -12    1    3    3    0    0  0.28629201188E+02 -0.12359273249E+02  0.26178208167E+02  0.40714633472E+02  0.00000000000E+00 0.  1.
</event>
<event>
 7    1  0.2468912E-015  0.9000771E+02  0.7816164E-02  0.1186339E+00
        -11   -1    0    0    0    0  0.00000000000E+00  0.00000000000E+00  0.45593999997E+02  0.45594000000E+02  0.51100000000E-03 0. -1.
         11   -1    0    0    0    0 -0.00000000000E+00 -0.00000000000E+00 -0.45593999997E+02  0.45594000000E+02  0.51100000000E-03 0.  1.
    9900012    2    1    2    0    0 -0.10957620259E+01  0.26572586988E+00 -0.34898408180E+00  0.90007705738E+02  0.89999966654E+02 0.  0.
         12    1    1    2    0    0  0.10957620259E+01 -0.26572586988E+00  0.34898408180E+00  0.11802942619E+01  0.00000000000E+00 0. -1.
         11    1    3    3    0    0 -0.34001108304E+02 -0.12285924345E+02 -0.18394646938E+02  0.40563312724E+02  0.51100000000E-03 0. -1.
        -11    1    3    3    0    0 -0.57766109377E+00 -0.71389220040E+01  0.34399330935E+01  0.79455043683E+01  0.51100000000E-03 0.  1.
        -12    1    3    3    0    0  0.33483007372E+02  0.19690572219E+02  0.14605729763E+02  0.41498888646E+02  0.00000000000E+00 0.  1.
</event>
<event>
 7    1  0.2468912E-015  0.9000761E+02  0.7816164E-02  0.1186339E+00
        -11   -1    0    0    0    0  0.00000000000E+00  0.00000000000E+00  0.45593999997E+02  0.45594000000E+02  0.51100000000E-03 0. -1.
         11   -1    0    0    0    0 -0.00000000000E+00 -0.00000000000E+00 -0.45593999997E+02  0.45594000000E+02  0.51100000000E-03 0.  1.
    9900012    2    1    2    0    0 -0.49471437925E+00  0.45391736428E+00 -0.97084894545E+00  0.90007605589E+02  0.89999865183E+02 0.  0.
         12    1    1    2    0    0  0.49471437925E+00 -0.45391736428E+00  0.97084894545E+00  0.11803944110E+01  0.00000000000E+00 0. -1.
         11    1    3    3    0    0 -0.16121420888E+02  0.17316831761E+02  0.20941245133E+02  0.31596022244E+02  0.51100000000E-03 0. -1.
        -11    1    3    3    0    0 -0.17817154682E+02 -0.40336208302E+01 -0.86831494784E+01  0.20226670094E+02  0.51100000000E-03 0.  1.
         12    1    3    3    0    0  0.33443861191E+02 -0.12829293566E+02 -0.13228944600E+02  0.38184913251E+02  0.00000000000E+00 0. -1.
</event>
<event>
 7    1  0.2468912E-015  0.9000772E+02  0.7816164E-02  0.1186339E+00
        -11   -1    0    0    0    0  0.00000000000E+00  0.00000000000E+00  0.45593999997E+02  0.45594000000E+02  0.51100000000E-03 0. -1.
         11   -1    0    0    0    0 -0.00000000000E+00 -0.00000000000E+00 -0.45593999997E+02  0.45594000000E+02  0.51100000000E-03 0.  1.
    9900012    2    1    2    0    0 -0.56068640635E+00  0.68806788324E+00 -0.77798102795E+00  0.90007719890E+02  0.89999980993E+02 0.  0.
         12    1    1    2    0    0  0.56068640635E+00 -0.68806788324E+00  0.77798102795E+00  0.11802801100E+01  0.00000000000E+00 0. -1.
         11    1    3    3    0    0  0.81852863861E+01 -0.19246369040E+01 -0.20165783852E+01  0.86469491197E+01  0.51100000000E-03 0. -1.
        -11    1    3    3    0    0 -0.14701943691E+02  0.13816589284E+02 -0.36412937844E+02  0.41628683986E+02  0.51100000000E-03 0.  1.
         12    1    3    3    0    0  0.59559708982E+01 -0.11203884497E+02  0.37651535202E+02  0.39732086784E+02  0.00000000000E+00 0. -1.
</event>
<event>
 7    1  0.2468912E-015  0.9000771E+02  0.7816164E-02  0.1186339E+00
        -11   -1    0    0    0    0  0.00000000000E+00  0.00000000000E+00  0.45593999997E+02  0.45594000000E+02  0.51100000000E-03 0. -1.
         11   -1    0    0    0    0 -0.00000000000E+00 -0.00000000000E+00 -0.45593999997E+02  0.45594000000E+02  0.51100000000E-03 0.  1.
    9900012    2    1    2    0    0 -0.34953570006E+00 -0.28222869208E+00 -0.10914447919E+01  0.90007711911E+02  0.89999972908E+02 0.  0.
         12    1    1    2    0    0  0.34953570006E+00  0.28222869208E+00  0.10914447919E+01  0.11802880894E+01  0.00000000000E+00 0. -1.
         11    1    3    3    0    0  0.35681388515E+00 -0.91330723005E+01 -0.44083002746E+01  0.10147582834E+02  0.51100000000E-03 0. -1.
        -11    1    3    3    0    0 -0.38463479189E+02 -0.17757372110E+01 -0.73763474307E+01  0.39204629518E+02  0.51100000000E-03 0.  1.
         12    1    3    3    0    0  0.37757129604E+02  0.10626580819E+02  0.10693202913E+02  0.40655499559E+02  0.00000000000E+00 0. -1.
</event>
<event>
 7    1  0.2468912E-015  0.9000771E+02  0.7816164E-02  0.1186339E+00
        -11   -1    0    0    0    0  0.00000000000E+00  0.00000000000E+00  0.45593999997E+02  0.45594000000E+02  0.51100000000E-03 0.  1.
         11   -1    0    0    0    0 -0.00000000000E+00 -0.00000000000E+00 -0.45593999997E+02  0.45594000000E+02  0.51100000000E-03 0. -1.
    9900012    2    1    2    0    0 -0.93229188889E+00  0.72060849753E+00  0.68128926381E-01  0.90007709221E+02  0.89999970183E+02 0.  0.
         12    1    1    2    0    0  0.93229188889E+00 -0.72060849753E+00 -0.68128926381E-01  0.11802907792E+01  0.00000000000E+00 0. -1.
         11    1    3    3    0    0  0.18581679376E+01  0.35832308934E+02 -0.17415705850E+02  0.39883755617E+02  0.51100000000E-03 0. -1.
        -11    1    3    3    0    0  0.95572242443E+00 -0.28288036030E+01 -0.81833746787E+01  0.87110938791E+01  0.51100000000E-03 0.  1.
        -12    1    3    3    0    0 -0.37461822509E+01 -0.32282896833E+02  0.25667209455E+02  0.41412859725E+02  0.00000000000E+00 0.  1.
</event>
<event>
 7    1  0.2468912E-015  0.9000769E+02  0.7816164E-02  0.1186339E+00
        -11   -1    0    0    0    0  0.00000000000E+00  0.00000000000E+00  0.45593999997E+02  0.45594000000E+02  0.51100000000E-03 0. -1.
         11   -1    0    0    0    0 -0.00000000000E+00 -0.00000000000E+00 -0.45593999997E+02  0.45594000000E+02  0.51100000000E-03 0.  1.
    9900012    2    1    2    0    0 -0.23548903456E+00  0.84073777548E+00 -0.79425266512E+00  0.90007689707E+02  0.89999950411E+02 0.  0.
         12    1    1    2    0    0  0.23548903456E+00 -0.84073777548E+00  0.79425266512E+00  0.11803102933E+01  0.00000000000E+00 0. -1.
         11    1    3    3    0    0  0.12393089624E+02  0.91005333793E+00  0.19716721483E+01  0.12581906009E+02  0.51100000000E-03 0. -1.
        -11    1    3    3    0    0 -0.17663922387E+02  0.36220642787E+02  0.26722553307E+01  0.40386756082E+02  0.51100000000E-03 0.  1.
         12    1    3    3    0    0  0.50353437285E+01 -0.36289958349E+02 -0.54381801440E+01  0.37039027616E+02  0.00000000000E+00 0. -1.
</event>
<event>
 7    1  0.2468912E-015  0.9000772E+02  0.7816164E-02  0.1186339E+00
        -11   -1    0    0    0    0  0.00000000000E+00  0.00000000000E+00  0.45593999997E+02  0.45594000000E+02  0.51100000000E-03 0. -1.
         11   -1    0    0    0    0 -0.00000000000E+00 -0.00000000000E+00 -0.45593999997E+02  0.45594000000E+02  0.51100000000E-03 0.  1.
    9900012    2    1    2    0    0 -0.72941906696E+00 -0.92316921708E+00  0.93634814623E-01  0.90007719924E+02  0.89999981027E+02 0.  0.
         12    1    1    2    0    0  0.72941906696E+00  0.92316921708E+00 -0.93634814623E-01  0.11802800757E+01  0.00000000000E+00 0. -1.
         11    1    3    3    0    0  0.23773608760E+01  0.26639909700E+00 -0.97668576536E+01  0.10055561740E+02  0.51100000000E-03 0. -1.
        -11    1    3    3    0    0  0.11616230931E+02  0.28522434554E+02 -0.18834943253E+02  0.36100154868E+02  0.51100000000E-03 0.  1.
         12    1    3    3    0    0 -0.14723010874E+02 -0.29712002868E+02  0.28695435721E+02  0.43852003316E+02  0.00000000000E+00 0. -1.
</event>
<event>
 7    1  0.2468912E-015  0.9000774E+02  0.7816164E-02  0.1186339E+00
        -11   -1    0    0    0    0  0.00000000000E+00  0.00000000000E+00  0.45593999997E+02  0.45594000000E+02  0.51100000000E-03 0. -1.
         11   -1    0    0    0    0 -0.00000000000E+00 -0.00000000000E+00 -0.45593999997E+02  0.45594000000E+02  0.51100000000E-03 0.  1.
    9900012    2    1    2    0    0  0.41872741803E-02  0.49449415533E+00 -0.10716683171E+01  0.90007739442E+02  0.90000000803E+02 0.  0.
         12    1    1    2    0    0 -0.41872741803E-02 -0.49449415533E+00  0.10716683171E+01  0.11802605580E+01  0.00000000000E+00 0. -1.
         11    1    3    3    0    0 -0.18449444596E+01 -0.67066847800E+01 -0.37083402747E+01  0.78825902248E+01  0.51100000000E-03 0. -1.
        -11    1    3    3    0    0  0.12905780232E+02  0.52864125794E+01 -0.37731447134E+02  0.40226451801E+02  0.51100000000E-03 0.  1.
         12    1    3    3    0    0 -0.11056648498E+02  0.19147663559E+01  0.40368119092E+02  0.41898697417E+02  0.00000000000E+00 0. -1.
</event>
<event>
 7    1  0.2468912E-015  0.9000766E+02  0.7816164E-02  0.1186339E+00
        -11   -1    0    0    0    0  0.00000000000E+00  0.00000000000E+00  0.45593999997E+02  0.45594000000E+02  0.51100000000E-03 0.  1.
         11   -1    0    0    0    0 -0.00000000000E+00 -0.00000000000E+00 -0.45593999997E+02  0.45594000000E+02  0.51100000000E-03 0. -1.
    9900012    2    1    2    0    0  0.89679541002E+00 -0.76743830339E+00 -0.10001250147E-02  0.90007659135E+02  0.89999919436E+02 0.  0.
         12    1    1    2    0    0 -0.89679541002E+00  0.76743830339E+00  0.10001250147E-02  0.11803408648E+01  0.00000000000E+00 0. -1.
         11    1    3    3    0    0 -0.77909259048E+01  0.17012941535E+01 -0.24564443752E+01  0.83442823226E+01  0.51100000000E-03 0. -1.
        -11    1    3    3    0    0 -0.29092569305E+02  0.10382405582E+02  0.21310101376E+02  0.37527221525E+02  0.51100000000E-03 0.  1.
         12    1    3    3    0    0  0.37780290620E+02 -0.12851138039E+02 -0.18854657126E+02  0.44136155288E+02  0.00000000000E+00 0. -1.
</event>
<event>
 7    1  0.2468912E-015  0.9000779E+02  0.7816164E-02  0.1186339E+00
        -11   -1    0    0    0    0  0.00000000000E+00  0.00000000000E+00  0.45593999997E+02  0.45594000000E+02  0.51100000000E-03 0. -1.
         11   -1    0    0    0    0 -0.00000000000E+00 -0.00000000000E+00 -0.45593999997E+02  0.45594000000E+02  0.51100000000E-03 0.  1.
    9900012    2    1    2    0    0 -0.34341237748E+00 -0.51979929714E+00 -0.10023851949E+01  0.90007788388E+02  0.90000050395E+02 0.  0.
         12    1    1    2    0    0  0.34341237748E+00  0.51979929714E+00  0.10023851949E+01  0.11802116120E+01  0.00000000000E+00 0. -1.
         11    1    3    3    0    0  0.18166070049E+02  0.27438909880E+02 -0.29009667335E+01  0.33035064472E+02  0.51100000000E-03 0. -1.
        -11    1    3    3    0    0 -0.11417881139E+02 -0.47015993617E+00 -0.18688243196E+02  0.21905238965E+02  0.51100000000E-03 0.  1.
        -12    1    3    3    0    0 -0.70916012872E+01 -0.27488549241E+02  0.20586824735E+02  0.35067484952E+02  0.00000000000E+00 0.  1.
</event>
<event>
 7    1  0.2535664E-015  0.9000801E+02  0.7816164E-02  0.1186339E+00
        -11   -1    0    0    0    0  0.00000000000E+00  0.00000000000E+00  0.45593999997E+02  0.45594000000E+02  0.51100000000E-03 0.  1.
         11   -1    0    0    0    0 -0.00000000000E+00 -0.00000000000E+00 -0.45593999997E+02  0.45594000000E+02  0.51100000000E-03 0. -1.
    9900012    2    1    2    0    0 -0.81894540692E+00  0.80488936960E+00  0.27176254470E+00  0.90008011289E+02  0.90000276238E+02 0.  0.
         12    1    1    2    0    0  0.81894540692E+00 -0.80488936960E+00 -0.27176254470E+00  0.11799887108E+01  0.00000000000E+00 0. -1.
         11    1    3    3    0    0  0.28057480017E+02  0.22659389245E+02  0.88704821211E+01  0.37139676347E+02  0.51100000000E-03 0. -1.
        -11    1    3    3    0    0 -0.14769498699E+01  0.99558702520E+01 -0.28175550981E+00  0.10068769529E+02  0.51100000000E-03 0.  1.
        -12    1    3    3    0    0 -0.27399475554E+02 -0.31810370127E+02 -0.83169640666E+01  0.42799565413E+02  0.00000000000E+00 0.  1.
</event>
<event>
 7    1  0.2468912E-015  0.9000788E+02  0.7816164E-02  0.1186339E+00
        -11   -1    0    0    0    0  0.00000000000E+00  0.00000000000E+00  0.45593999997E+02  0.45594000000E+02  0.51100000000E-03 0.  1.
         11   -1    0    0    0    0 -0.00000000000E+00 -0.00000000000E+00 -0.45593999997E+02  0.45594000000E+02  0.51100000000E-03 0. -1.
    9900012    2    1    2    0    0  0.44381009618E+00 -0.39213154309E+00  0.10207588607E+01  0.90007880006E+02  0.90000143222E+02 0.  0.
         12    1    1    2    0    0 -0.44381009618E+00  0.39213154309E+00 -0.10207588607E+01  0.11801199940E+01  0.00000000000E+00 0. -1.
         11    1    3    3    0    0  0.27340673645E+02 -0.20591495614E+01 -0.26723368574E+02  0.38286955487E+02  0.51100000000E-03 0. -1.
        -11    1    3    3    0    0 -0.88642920845E+01 -0.15048817188E+01 -0.76931045081E+01  0.11833182175E+02  0.51100000000E-03 0.  1.
        -12    1    3    3    0    0 -0.18032571464E+02  0.31718997371E+01  0.35437231943E+02  0.39887742344E+02  0.00000000000E+00 0.  1.
</event>
<event>
 7    1  0.2468912E-015  0.9000788E+02  0.7816164E-02  0.1186339E+00
        -11   -1    0    0    0    0  0.00000000000E+00  0.00000000000E+00  0.45593999997E+02  0.45594000000E+02  0.51100000000E-03 0.  1.
         11   -1    0    0    0    0 -0.00000000000E+00 -0.00000000000E+00 -0.45593999997E+02  0.45594000000E+02  0.51100000000E-03 0. -1.
    9900012    2    1    2    0    0 -0.69208952703E+00 -0.40330172087E+00  0.86662825182E+00  0.90007879363E+02  0.90000142570E+02 0.  0.
         12    1    1    2    0    0  0.69208952703E+00  0.40330172087E+00 -0.86662825182E+00  0.11801206372E+01  0.00000000000E+00 0. -1.
         11    1    3    3    0    0  0.34866369175E+02  0.37124133594E+00 -0.21187934109E+02  0.40801103804E+02  0.51100000000E-03 0. -1.
        -11    1    3    3    0    0 -0.17080760699E+01  0.86605989203E+01  0.38484545312E+01  0.96298546230E+01  0.51100000000E-03 0.  1.
        -12    1    3    3    0    0 -0.33850382632E+02 -0.94351419771E+01  0.18206107829E+02  0.39576920936E+02  0.00000000000E+00 0.  1.
</event>
<event>
 7    1  0.2605761E-015  0.9000760E+02  0.7816164E-02  0.1186339E+00
        -11   -1    0    0    0    0  0.00000000000E+00  0.00000000000E+00  0.45593999997E+02  0.45594000000E+02  0.51100000000E-03 0.  1.
         11   -1    0    0    0    0 -0.00000000000E+00 -0.00000000000E+00 -0.45593999997E+02  0.45594000000E+02  0.51100000000E-03 0. -1.
    9900012    2    1    2    0    0 -0.92323161570E+00 -0.16696822671E+00  0.71631071420E+00  0.90007603438E+02  0.89999863003E+02 0.  0.
         12    1    1    2    0    0  0.92323161570E+00  0.16696822671E+00 -0.71631071420E+00  0.11803965623E+01  0.00000000000E+00 0. -1.
         11    1    3    3    0    0 -0.17137133389E+01  0.17566876440E+02 -0.37910296212E+02  0.41817729738E+02  0.51100000000E-03 0. -1.
        -11    1    3    3    0    0 -0.83206594881E+01 -0.11026202591E+01  0.55486412401E+01  0.10061638317E+02  0.51100000000E-03 0.  1.
        -12    1    3    3    0    0  0.91111412113E+01 -0.16631224407E+02  0.33077965686E+02  0.38128235383E+02  0.00000000000E+00 0.  1.
</event>
<event>
 7    1  0.2468912E-015  0.9000782E+02  0.7816164E-02  0.1186339E+00
        -11   -1    0    0    0    0  0.00000000000E+00  0.00000000000E+00  0.45593999997E+02  0.45594000000E+02  0.51100000000E-03 0. -1.
         11   -1    0    0    0    0 -0.00000000000E+00 -0.00000000000E+00 -0.45593999997E+02  0.45594000000E+02  0.51100000000E-03 0.  1.
    9900012    2    1    2    0    0 -0.11718092627E+01 -0.10672889895E+00  0.91120586401E-01  0.90007817401E+02  0.90000079790E+02 0.  0.
         12    1    1    2    0    0  0.11718092627E+01  0.10672889895E+00 -0.91120586401E-01  0.11801825992E+01  0.00000000000E+00 0. -1.
         11    1    3    3    0    0 -0.13584336549E+02 -0.30023933658E+02  0.76940325310E+01  0.33840344688E+02  0.51100000000E-03 0. -1.
        -11    1    3    3    0    0 -0.13736808297E+02 -0.25393340374E+01 -0.20598747476E+01  0.14120595022E+02  0.51100000000E-03 0.  1.
        -12    1    3    3    0    0  0.26149335583E+02  0.32456538797E+02 -0.55430371970E+01  0.42046877690E+02  0.00000000000E+00 0.  1.
</event>
<event>
 7    1  0.2748185E-015  0.9000768E+02  0.7816164E-02  0.1186339E+00
        -11   -1    0    0    0    0  0.00000000000E+00  0.00000000000E+00  0.45593999997E+02  0.45594000000E+02  0.51100000000E-03 0.  1.
         11   -1    0    0    0    0 -0.00000000000E+00 -0.00000000000E+00 -0.45593999997E+02  0.45594000000E+02  0.51100000000E-03 0. -1.
    9900012    2    1    2    0    0 -0.39619043318E+00  0.40490242592E+00  0.10354934578E+01  0.90007678207E+02  0.89999938759E+02 0.  0.
         12    1    1    2    0    0  0.39619043318E+00 -0.40490242592E+00 -0.10354934578E+01  0.11803217929E+01  0.00000000000E+00 0. -1.
         11    1    3    3    0    0 -0.37515242162E+01 -0.29641606996E+02 -0.24834579630E+02  0.38851707104E+02  0.51100000000E-03 0. -1.
        -11    1    3    3    0    0 -0.47660742829E+01  0.44845297265E+01 -0.64281973678E+01  0.91732323964E+01  0.51100000000E-03 0.  1.
        -12    1    3    3    0    0  0.81214080659E+01  0.25561979695E+02  0.32298270456E+02  0.41982738707E+02  0.00000000000E+00 0.  1.
</event>
<event>
 7    1  0.2468912E-015  0.9000763E+02  0.7816164E-02  0.1186339E+00
        -11   -1    0    0    0    0  0.00000000000E+00  0.00000000000E+00  0.45593999997E+02  0.45594000000E+02  0.51100000000E-03 0. -1.
         11   -1    0    0    0    0 -0.00000000000E+00 -0.00000000000E+00 -0.45593999997E+02  0.45594000000E+02  0.51100000000E-03 0.  1.
    9900012    2    1    2    0    0  0.11647083860E+01 -0.91506618980E-01 -0.16835409111E+00  0.90007634724E+02  0.89999894702E+02 0.  0.
         12    1    1    2    0    0 -0.11647083860E+01  0.91506618980E-01  0.16835409111E+00  0.11803652764E+01  0.00000000000E+00 0. -1.
         11    1    3    3    0    0  0.68555254543E-01 -0.90456072839E+01 -0.62932242561E+01  0.11019636235E+02  0.51100000000E-03 0. -1.
        -11    1    3    3    0    0 -0.38527305329E+02  0.52263713863E+01  0.47100875958E+01  0.39164437175E+02  0.51100000000E-03 0.  1.
         12    1    3    3    0    0  0.39623458461E+02  0.37277292787E+01  0.14147825692E+01  0.39823561313E+02  0.00000000000E+00 0. -1.
</event>
<event>
 7    1  0.2468912E-015  0.9000768E+02  0.7816164E-02  0.1186339E+00
        -11   -1    0    0    0    0  0.00000000000E+00  0.00000000000E+00  0.45593999997E+02  0.45594000000E+02  0.51100000000E-03 0.  1.
         11   -1    0    0    0    0 -0.00000000000E+00 -0.00000000000E+00 -0.45593999997E+02  0.45594000000E+02  0.51100000000E-03 0. -1.
    9900012    2    1    2    0    0  0.10009860514E+01  0.41239455962E+00  0.47021937864E+00  0.90007682834E+02  0.89999943448E+02 0.  0.
         12    1    1    2    0    0 -0.10009860514E+01 -0.41239455962E+00 -0.47021937864E+00  0.11803171659E+01  0.00000000000E+00 0. -1.
         11    1    3    3    0    0  0.50977578030E+01  0.83372718365E+01  0.59246240026E+00  0.97902118593E+01  0.51100000000E-03 0. -1.
        -11    1    3    3    0    0  0.99599032548E+01  0.11606771189E+01  0.37618444556E+02  0.38931917693E+02  0.51100000000E-03 0.  1.
         12    1    3    3    0    0 -0.14056675006E+02 -0.90855543958E+01 -0.37740687578E+02  0.41285553281E+02  0.00000000000E+00 0. -1.
</event>
<event>
 7    1  0.2468912E-015  0.9000786E+02  0.7816164E-02  0.1186339E+00
        -11   -1    0    0    0    0  0.00000000000E+00  0.00000000000E+00  0.45593999997E+02  0.45594000000E+02  0.51100000000E-03 0.  1.
         11   -1    0    0    0    0 -0.00000000000E+00 -0.00000000000E+00 -0.45593999997E+02  0.45594000000E+02  0.51100000000E-03 0. -1.
    9900012    2    1    2    0    0  0.19249687849E+00  0.55795571263E+00  0.10219435532E+01  0.90007856682E+02  0.90000119590E+02 0.  0.
         12    1    1    2    0    0 -0.19249687849E+00 -0.55795571263E+00 -0.10219435532E+01  0.11801433182E+01  0.00000000000E+00 0. -1.
         11    1    3    3    0    0 -0.48991947038E+01  0.16811637036E+01  0.16316352677E+02  0.17118755361E+02  0.51100000000E-03 0. -1.
        -11    1    3    3    0    0  0.12788416232E+02  0.14535799280E+01  0.26953361780E+02  0.29868716006E+02  0.51100000000E-03 0.  1.
         12    1    3    3    0    0 -0.76967246501E+01 -0.25767879189E+01 -0.42247770904E+02  0.43020385315E+02  0.00000000000E+00 0. -1.
</event>
<event>
 7    1  0.2468912E-015  0.9000774E+02  0.7816164E-02  0.1186339E+00
        -11   -1    0    0    0    0  0.00000000000E+00  0.00000000000E+00  0.45593999997E+02  0.45594000000E+02  0.51100000000E-03 0. -1.
         11   -1    0    0    0    0 -0.00000000000E+00 -0.00000000000E+00 -0.45593999997E+02  0.45594000000E+02  0.51100000000E-03 0.  1.
    9900012    2    1    2    0    0 -0.12675559686E+00 -0.91249935715E+00 -0.73776702125E+00  0.90007736370E+02  0.89999997690E+02 0.  0.
         12    1    1    2    0    0  0.12675559686E+00  0.91249935715E+00  0.73776702125E+00  0.11802636298E+01  0.00000000000E+00 0. -1.
         11    1    3    3    0    0 -0.10569547107E+01 -0.15413590718E+02  0.12848800332E+02  0.20094466958E+02  0.51100000000E-03 0. -1.
        -11    1    3    3    0    0 -0.78634721604E+01  0.31292098119E+01 -0.39436885773E+02  0.40334775420E+02  0.51100000000E-03 0.  1.
         12    1    3    3    0    0  0.87936712743E+01  0.11371881549E+02  0.25850318420E+02  0.29578493993E+02  0.00000000000E+00 0. -1.
</event>
<event>
 7    1  0.2468912E-015  0.9000767E+02  0.7816164E-02  0.1186339E+00
        -11   -1    0    0    0    0  0.00000000000E+00  0.00000000000E+00  0.45593999997E+02  0.45594000000E+02  0.51100000000E-03 0. -1.
         11   -1    0    0    0    0 -0.00000000000E+00 -0.00000000000E+00 -0.45593999997E+02  0.45594000000E+02  0.51100000000E-03 0.  1.
    9900012    2    1    2    0    0 -0.59170882814E+00  0.41695316949E+00 -0.93231407042E+00  0.90007670042E+02  0.89999930487E+02 0.  0.
         12    1    1    2    0    0  0.59170882814E+00 -0.41695316949E+00  0.93231407042E+00  0.11803299576E+01  0.00000000000E+00 0. -1.
         11    1    3    3    0    0 -0.42837612456E+01  0.58695954770E+01  0.20130535109E+01  0.75402351536E+01  0.51100000000E-03 0. -1.
        -11    1    3    3    0    0  0.29377461144E+01  0.30043793014E+02 -0.26244811269E+02  0.40000624617E+02  0.51100000000E-03 0.  1.
         12    1    3    3    0    0  0.75430630300E+00 -0.35496435322E+02  0.23299443688E+02  0.42466810272E+02  0.00000000000E+00 0. -1.
</event>
<event>
 7    1  0.2468912E-015  0.9000764E+02  0.7816164E-02  0.1186339E+00
        -11   -1    0    0    0    0  0.00000000000E+00  0.00000000000E+00  0.45593999997E+02  0.45594000000E+02  0.51100000000E-03 0.  1.
         11   -1    0    0    0    0 -0.00000000000E+00 -0.00000000000E+00 -0.45593999997E+02  0.45594000000E+02  0.51100000000E-03 0. -1.
    9900012    2    1    2    0    0 -0.20205741285E+00  0.10602796091E+01 -0.47774032332E+00  0.90007637401E+02  0.89999897415E+02 0.  0.
         12    1    1    2    0    0  0.20205741285E+00 -0.10602796091E+01  0.47774032332E+00  0.11803625985E+01  0.00000000000E+00 0. -1.
         11    1    3    3    0    0 -0.10886701338E+01 -0.10898306261E+02  0.11179606447E+02  0.15650619240E+02  0.51100000000E-03 0. -1.
        -11    1    3    3    0    0  0.85299768822E+00  0.16203477213E+02  0.29132750762E+02  0.33346625707E+02  0.51100000000E-03 0.  1.
         12    1    3    3    0    0  0.33615032741E-01 -0.42448913424E+01 -0.40790097533E+02  0.41010392454E+02  0.00000000000E+00 0. -1.
</event>
<event>
 7    1  0.2468912E-015  0.9000830E+02  0.7816164E-02  0.1186338E+00
        -11   -1    0    0    0    0  0.00000000000E+00  0.00000000000E+00  0.45593999997E+02  0.45594000000E+02  0.51100000000E-03 0. -1.
         11   -1    0    0    0    0 -0.00000000000E+00 -0.00000000000E+00 -0.45593999997E+02  0.45594000000E+02  0.51100000000E-03 0.  1.
    9900012    2    1    2    0    0  0.11369949715E+01  0.22721792917E+00 -0.21752317960E+00  0.90008295848E+02  0.90000564551E+02 0.  0.
         12    1    1    2    0    0 -0.11369949715E+01 -0.22721792917E+00  0.21752317960E+00  0.11797041520E+01  0.00000000000E+00 0. -1.
         11    1    3    3    0    0 -0.64718032918E+01  0.19739879798E+01 -0.71062860380E+01  0.98122458137E+01  0.51100000000E-03 0. -1.
        -11    1    3    3    0    0 -0.29424646957E+02 -0.21343218943E+02 -0.48788768557E+01  0.36676235944E+02  0.51100000000E-03 0.  1.
         12    1    3    3    0    0  0.37033445220E+02  0.19596448892E+02  0.11767639714E+02  0.43519814091E+02  0.00000000000E+00 0. -1.
</event>
<event>
 7    1  0.2468912E-015  0.9000771E+02  0.7816164E-02  0.1186339E+00
        -11   -1    0    0    0    0  0.00000000000E+00  0.00000000000E+00  0.45593999997E+02  0.45594000000E+02  0.51100000000E-03 0. -1.
         11   -1    0    0    0    0 -0.00000000000E+00 -0.00000000000E+00 -0.45593999997E+02  0.45594000000E+02  0.51100000000E-03 0.  1.
    9900012    2    1    2    0    0  0.91624323804E+00  0.66414834404E+00 -0.33538294267E+00  0.90007713419E+02  0.89999974437E+02 0.  0.
         12    1    1    2    0    0 -0.91624323804E+00 -0.66414834404E+00  0.33538294267E+00  0.11802865806E+01  0.00000000000E+00 0. -1.
         11    1    3    3    0    0 -0.30263898707E+02  0.23654471793E+01  0.17718777693E+02  0.35149025427E+02  0.51100000000E-03 0. -1.
        -11    1    3    3    0    0 -0.71385113718E+01  0.14626801482E+01  0.60565866065E+01  0.94752318918E+01  0.51100000000E-03 0.  1.
        -12    1    3    3    0    0  0.38318653317E+02 -0.31639789835E+01 -0.24110747242E+02  0.45383456100E+02  0.00000000000E+00 0.  1.
</event>
<event>
 7    1  0.2468912E-015  0.9000767E+02  0.7816164E-02  0.1186339E+00
        -11   -1    0    0    0    0  0.00000000000E+00  0.00000000000E+00  0.45593999997E+02  0.45594000000E+02  0.51100000000E-03 0. -1.
         11   -1    0    0    0    0 -0.00000000000E+00 -0.00000000000E+00 -0.45593999997E+02  0.45594000000E+02  0.51100000000E-03 0.  1.
    9900012    2    1    2    0    0 -0.71241437091E+00 -0.16371759273E+00 -0.92673389018E+00  0.90007672338E+02  0.89999932813E+02 0.  0.
         12    1    1    2    0    0  0.71241437091E+00  0.16371759273E+00  0.92673389018E+00  0.11803276618E+01  0.00000000000E+00 0. -1.
         11    1    3    3    0    0 -0.19466634692E+01  0.35011642371E+02  0.19502507385E+01  0.35119909999E+02  0.51100000000E-03 0. -1.
        -11    1    3    3    0    0  0.20315183411E+01  0.93978446418E+01  0.26311814873E+01  0.99684335260E+01  0.51100000000E-03 0.  1.
        -12    1    3    3    0    0 -0.79726924283E+00 -0.44573204605E+02 -0.55081661160E+01  0.44919328813E+02  0.00000000000E+00 0.  1.
</event>
<event>
 7    1  0.2468912E-015  0.9000777E+02  0.7816164E-02  0.1186339E+00
        -11   -1    0    0    0    0  0.00000000000E+00  0.00000000000E+00  0.45593999997E+02  0.45594000000E+02  0.51100000000E-03 0.  1.
         11   -1    0    0    0    0 -0.00000000000E+00 -0.00000000000E+00 -0.45593999997E+02  0.45594000000E+02  0.51100000000E-03 0. -1.
    9900012    2    1    2    0    0 -0.51400499730E+00  0.64811259490E+00 -0.84183951400E+00  0.90007769158E+02  0.90000030911E+02 0.  0.
         12    1    1    2    0    0  0.51400499730E+00 -0.64811259490E+00  0.84183951400E+00  0.11802308419E+01  0.00000000000E+00 0. -1.
         11    1    3    3    0    0  0.38996784337E+01  0.11436696247E+02  0.25470216179E+01  0.12348798820E+02  0.51100000000E-03 0. -1.
        -11    1    3    3    0    0  0.19163553534E+02  0.91622999308E+01  0.26983882651E+02  0.34341220818E+02  0.51100000000E-03 0.  1.
         12    1    3    3    0    0 -0.23577236965E+02 -0.19950883582E+02 -0.30372743783E+02  0.43317749520E+02  0.00000000000E+00 0. -1.
</event>
<event>
 7    1  0.2468912E-015  0.9000718E+02  0.7816164E-02  0.1186340E+00
        -11   -1    0    0    0    0  0.00000000000E+00  0.00000000000E+00  0.45593999997E+02  0.45594000000E+02  0.51100000000E-03 0.  1.
         11   -1    0    0    0    0 -0.00000000000E+00 -0.00000000000E+00 -0.45593999997E+02  0.45594000000E+02  0.51100000000E-03 0. -1.
    9900012    2    1    2    0    0  0.71068967566E+00 -0.15985844101E+00  0.92935101975E+00  0.90007183395E+02  0.89999437414E+02 0.  0.
         12    1    1    2    0    0 -0.71068967566E+00  0.15985844101E+00 -0.92935101975E+00  0.11808166048E+01  0.00000000000E+00 0. -1.
         11    1    3    3    0    0  0.69304813809E+01  0.91561072697E+01 -0.24219105352E+01  0.11735907439E+02  0.51100000000E-03 0. -1.
        -11    1    3    3    0    0 -0.38736562622E+02  0.67244516565E+01 -0.83095032732E+01  0.40184417113E+02  0.51100000000E-03 0.  1.
         12    1    3    3    0    0  0.32516770917E+02 -0.16040417367E+02  0.11660764828E+02  0.38086858843E+02  0.00000000000E+00 0. -1.
</event>
<event>
 7    1  0.2468912E-015  0.9000769E+02  0.7816164E-02  0.1186339E+00
        -11   -1    0    0    0    0  0.00000000000E+00  0.00000000000E+00  0.45593999997E+02  0.45594000000E+02  0.51100000000E-03 0.  1.
         11   -1    0    0    0    0 -0.00000000000E+00 -0.00000000000E+00 -0.45593999997E+02  0.45594000000E+02  0.51100000000E-03 0. -1.
    9900012    2    1    2    0    0  0.99097439997E+00  0.63561696419E+00  0.84265135763E-01  0.90007686567E+02  0.89999947230E+02 0.  0.
         12    1    1    2    0    0 -0.99097439997E+00 -0.63561696419E+00 -0.84265135763E-01  0.11803134328E+01  0.00000000000E+00 0. -1.
         11    1    3    3    0    0 -0.11931228566E+01  0.29598742805E+00  0.70327794794E+01  0.71394074107E+01  0.51100000000E-03 0. -1.
        -11    1    3    3    0    0  0.10302799222E+02  0.34934298522E+02  0.16819131033E+02  0.40117777281E+02  0.51100000000E-03 0.  1.
         12    1    3    3    0    0 -0.81187019657E+01 -0.34594668986E+02 -0.23767645376E+02  0.42750501875E+02  0.00000000000E+00 0. -1.
</event>
<event>
 7    1  0.2468912E-015  0.9000863E+02  0.7816164E-02  0.1186337E+00
        -11   -1    0    0    0    0  0.00000000000E+00  0.00000000000E+00  0.45593999997E+02  0.45594000000E+02  0.51100000000E-03 0.  1.
         11   -1    0    0    0    0 -0.00000000000E+00 -0.00000000000E+00 -0.45593999997E+02  0.45594000000E+02  0.51100000000E-03 0. -1.
    9900012    2    1    2    0    0 -0.91276460043E+00  0.45361243323E+00  0.59329460899E+00  0.90008634938E+02  0.90000908115E+02 0.  0.
         12    1    1    2    0    0  0.91276460043E+00 -0.45361243323E+00 -0.59329460899E+00  0.11793650616E+01  0.00000000000E+00 0. -1.
         11    1    3    3    0    0 -0.90131124341E+01  0.32683732686E+01  0.44965453553E+01  0.10589493848E+02  0.51100000000E-03 0. -1.
        -11    1    3    3    0    0  0.32102536714E+02 -0.57811577502E+01 -0.29660081480E+02  0.44087584216E+02  0.51100000000E-03 0.  1.
         12    1    3    3    0    0 -0.24002188880E+02  0.29663969148E+01  0.25756830734E+02  0.35331556874E+02  0.00000000000E+00 0. -1.
</event>
<event>
 7    1  0.2468912E-015  0.9000787E+02  0.7816164E-02  0.1186339E+00
        -11   -1    0    0    0    0  0.00000000000E+00  0.00000000000E+00  0.45593999997E+02  0.45594000000E+02  0.51100000000E-03 0. -1.
         11   -1    0    0    0    0 -0.00000000000E+00 -0.00000000000E+00 -0.45593999997E+02  0.45594000000E+02  0.51100000000E-03 0.  1.
    9900012    2    1    2    0    0  0.41294580372E+00  0.85521947143E+00 -0.70056229734E+00  0.90007867756E+02  0.90000130810E+02 0.  0.
         12    1    1    2    0    0 -0.41294580372E+00 -0.85521947143E+00  0.70056229734E+00  0.11801322441E+01  0.00000000000E+00 0. -1.
         11    1    3    3    0    0  0.41489727602E+01  0.33043296184E+02  0.22742562365E+02  0.40327379544E+02  0.51100000000E-03 0. -1.
        -11    1    3    3    0    0 -0.31694162333E+01 -0.64326112502E+01  0.68482630552E+01  0.99157649171E+01  0.51100000000E-03 0.  1.
        -12    1    3    3    0    0 -0.56661072310E+00 -0.25755465463E+02 -0.30291387717E+02  0.39764723295E+02  0.00000000000E+00 0.  1.
</event>
<event>
 7    1  0.2468912E-015  0.9000769E+02  0.7816164E-02  0.1186339E+00
        -11   -1    0    0    0    0  0.00000000000E+00  0.00000000000E+00  0.45593999997E+02  0.45594000000E+02  0.51100000000E-03 0.  1.
         11   -1    0    0    0    0 -0.00000000000E+00 -0.00000000000E+00 -0.45593999997E+02  0.45594000000E+02  0.51100000000E-03 0. -1.
    9900012    2    1    2    0    0  0.10815243063E+01  0.47133035650E+00  0.35906443991E-01  0.90007688006E+02  0.89999948688E+02 0.  0.
         12    1    1    2    0    0 -0.10815243063E+01 -0.47133035650E+00 -0.35906443991E-01  0.11803119938E+01  0.00000000000E+00 0. -1.
         11    1    3    3    0    0 -0.30043989485E+02 -0.47922712358E+01  0.28380760218E+02  0.41606186062E+02  0.51100000000E-03 0. -1.
        -11    1    3    3    0    0  0.91260338127E+01 -0.66829748021E+00  0.30182704101E+01  0.96354071632E+01  0.51100000000E-03 0.  1.
        -12    1    3    3    0    0  0.21999479979E+02  0.59318990725E+01 -0.31363124184E+02  0.38766094781E+02  0.00000000000E+00 0.  1.
</event>
<event>
 7    1  0.2468912E-015  0.9000774E+02  0.7816164E-02  0.1186339E+00
        -11   -1    0    0    0    0  0.00000000000E+00  0.00000000000E+00  0.45593999997E+02  0.45594000000E+02  0.51100000000E-03 0. -1.
         11   -1    0    0    0    0 -0.00000000000E+00 -0.00000000000E+00 -0.45593999997E+02  0.45594000000E+02  0.51100000000E-03 0.  1.
    9900012    2    1    2    0    0 -0.79885038439E+00 -0.12228918242E+00 -0.86017338962E+00  0.90007739503E+02  0.90000000864E+02 0.  0.
         12    1    1    2    0    0  0.79885038439E+00  0.12228918242E+00  0.86017338962E+00  0.11802604971E+01  0.00000000000E+00 0. -1.
         11    1    3    3    0    0 -0.17930674127E+01  0.60070022068E+01 -0.96317238955E+01  0.11492139562E+02  0.51100000000E-03 0. -1.
        -11    1    3    3    0    0  0.24674615118E+02 -0.26031075275E+02 -0.15621985731E+02  0.39121604641E+02  0.51100000000E-03 0.  1.
         12    1    3    3    0    0 -0.23680398090E+02  0.19901783886E+02  0.24393536237E+02  0.39393995300E+02  0.00000000000E+00 0. -1.
</event>
<event>
 7    1  0.2468912E-015  0.9000777E+02  0.7816164E-02  0.1186339E+00
        -11   -1    0    0    0    0  0.00000000000E+00  0.00000000000E+00  0.45593999997E+02  0.45594000000E+02  0.51100000000E-03 0.  1.
         11   -1    0    0    0    0 -0.00000000000E+00 -0.00000000000E+00 -0.45593999997E+02  0.45594000000E+02  0.51100000000E-03 0. -1.
    9900012    2    1    2    0    0 -0.10142373463E+01 -0.27404975702E+00  0.53774572715E+00  0.90007766493E+02  0.90000028211E+02 0.  0.
         12    1    1    2    0    0  0.10142373463E+01  0.27404975702E+00 -0.53774572715E+00  0.11802335070E+01  0.00000000000E+00 0. -1.
         11    1    3    3    0    0 -0.71993518024E+01  0.24902508346E+02 -0.27118169400E+02  0.37514806412E+02  0.51100000000E-03 0. -1.
        -11    1    3    3    0    0  0.43448165782E+01 -0.44959446928E+01 -0.86479563265E+01  0.10671368172E+02  0.51100000000E-03 0.  1.
        -12    1    3    3    0    0  0.18402978779E+01 -0.20680613410E+02  0.36303871453E+02  0.41821591909E+02  0.00000000000E+00 0.  1.
</event>
<event>
 7    1  0.2468912E-015  0.9000749E+02  0.7816164E-02  0.1186340E+00
        -11   -1    0    0    0    0  0.00000000000E+00  0.00000000000E+00  0.45593999997E+02  0.45594000000E+02  0.51100000000E-03 0. -1.
         11   -1    0    0    0    0 -0.00000000000E+00 -0.00000000000E+00 -0.45593999997E+02  0.45594000000E+02  0.51100000000E-03 0.  1.
    9900012    2    1    2    0    0 -0.11008951163E+01 -0.34567980080E+00  0.24929429734E+00  0.90007486456E+02  0.89999744476E+02 0.  0.
         12    1    1    2    0    0  0.11008951163E+01  0.34567980080E+00 -0.24929429734E+00  0.11805135444E+01  0.00000000000E+00 0. -1.
         11    1    3    3    0    0  0.13918343312E+00  0.49400475607E+01  0.39743973857E+02  0.40050054933E+02  0.51100000000E-03 0. -1.
        -11    1    3    3    0    0 -0.15624649456E+01 -0.73674338600E+01  0.24806230452E+01  0.79293044677E+01  0.51100000000E-03 0.  1.
        -12    1    3    3    0    0  0.32238639620E+00  0.20817064985E+01 -0.41975302605E+02  0.42028127055E+02  0.00000000000E+00 0.  1.
</event>
<event>
 7    1  0.2468912E-015  0.9000773E+02  0.7816164E-02  0.1186339E+00
        -11   -1    0    0    0    0  0.00000000000E+00  0.00000000000E+00  0.45593999997E+02  0.45594000000E+02  0.51100000000E-03 0.  1.
         11   -1    0    0    0    0 -0.00000000000E+00 -0.00000000000E+00 -0.45593999997E+02  0.45594000000E+02  0.51100000000E-03 0. -1.
    9900012    2    1    2    0    0  0.41840783858E+00 -0.86708703515E+00  0.68273882678E+00  0.90007729967E+02  0.89999991202E+02 0.  0.
         12    1    1    2    0    0 -0.41840783858E+00  0.86708703515E+00 -0.68273882678E+00  0.11802700333E+01  0.00000000000E+00 0. -1.
         11    1    3    3    0    0  0.17444115243E+02 -0.31781595031E+02  0.10140355529E+02  0.37645633875E+02  0.51100000000E-03 0. -1.
        -11    1    3    3    0    0  0.87794046100E+00 -0.70598681309E+01 -0.74937984981E+01  0.10332934417E+02  0.51100000000E-03 0.  1.
        -12    1    3    3    0    0 -0.17903647866E+02  0.37974376127E+02 -0.19638182044E+01  0.42029161674E+02  0.00000000000E+00 0.  1.
</event>
<event>
 7    1  0.2468912E-015  0.9000772E+02  0.7816164E-02  0.1186339E+00
        -11   -1    0    0    0    0  0.00000000000E+00  0.00000000000E+00  0.45593999997E+02  0.45594000000E+02  0.51100000000E-03 0.  1.
         11   -1    0    0    0    0 -0.00000000000E+00 -0.00000000000E+00 -0.45593999997E+02  0.45594000000E+02  0.51100000000E-03 0. -1.
    9900012    2    1    2    0    0 -0.49215685554E+00 -0.10576312263E+01 -0.17960336713E+00  0.90007720562E+02  0.89999981674E+02 0.  0.
         12    1    1    2    0    0  0.49215685554E+00  0.10576312263E+01  0.17960336713E+00  0.11802794376E+01  0.00000000000E+00 0. -1.
         11    1    3    3    0    0 -0.32445361253E+01 -0.68508358514E+01 -0.78074965546E+01  0.10882002079E+02  0.51100000000E-03 0. -1.
        -11    1    3    3    0    0 -0.33840810274E+02  0.15200994907E+02  0.16040329913E+02  0.40417358525E+02  0.51100000000E-03 0.  1.
         12    1    3    3    0    0  0.36593189544E+02 -0.94077902822E+01 -0.84124367250E+01  0.38708359958E+02  0.00000000000E+00 0. -1.
</event>
<event>
 7    1  0.2468912E-015  0.9000767E+02  0.7816164E-02  0.1186339E+00
        -11   -1    0    0    0    0  0.00000000000E+00  0.00000000000E+00  0.45593999997E+02  0.45594000000E+02  0.51100000000E-03 0. -1.
         11   -1    0    0    0    0 -0.00000000000E+00 -0.00000000000E+00 -0.45593999997E+02  0.45594000000E+02  0.51100000000E-03 0.  1.
    9900012    2    1    2    0    0  0.86605334902E-01  0.22609219819E+00 -0.11552284396E+01  0.90007673387E+02  0.89999933875E+02 0.  0.
         12    1    1    2    0    0 -0.86605334902E-01 -0.22609219819E+00  0.11552284396E+01  0.11803266132E+01  0.00000000000E+00 0. -1.
         11    1    3    3    0    0 -0.37846109649E+02  0.16034301883E+02 -0.11628468767E+02  0.42715900302E+02  0.51100000000E-03 0. -1.
        -11    1    3    3    0    0  0.71415855203E+01 -0.67444206056E+00 -0.58886224818E+01  0.92807861106E+01  0.51100000000E-03 0.  1.
        -12    1    3    3    0    0  0.30791129464E+02 -0.15133767624E+02  0.16361862809E+02  0.38010986974E+02  0.00000000000E+00 0.  1.
</event>
<event>
 7    1  0.2468912E-015  0.9000775E+02  0.7816164E-02  0.1186339E+00
        -11   -1    0    0    0    0  0.00000000000E+00  0.00000000000E+00  0.45593999997E+02  0.45594000000E+02  0.51100000000E-03 0.  1.
         11   -1    0    0    0    0 -0.00000000000E+00 -0.00000000000E+00 -0.45593999997E+02  0.45594000000E+02  0.51100000000E-03 0. -1.
    9900012    2    1    2    0    0 -0.51751383667E+00  0.10240979887E+01  0.27639261444E+00  0.90007749968E+02  0.90000011467E+02 0.  0.
         12    1    1    2    0    0  0.51751383667E+00 -0.10240979887E+01 -0.27639261444E+00  0.11802500324E+01  0.00000000000E+00 0. -1.
         11    1    3    3    0    0 -0.39194331242E+01 -0.58680273590E+00 -0.80409609438E+01  0.89645605931E+01  0.51100000000E-03 0. -1.
        -11    1    3    3    0    0 -0.32482572990E+02 -0.68152044004E+01  0.24027741414E+02  0.40974344617E+02  0.51100000000E-03 0.  1.
         12    1    3    3    0    0  0.35884492278E+02  0.84261051251E+01 -0.15710387856E+02  0.40068844757E+02  0.00000000000E+00 0. -1.
</event>
<event>
 7    1  0.2468912E-015  0.9000771E+02  0.7816164E-02  0.1186339E+00
        -11   -1    0    0    0    0  0.00000000000E+00  0.00000000000E+00  0.45593999997E+02  0.45594000000E+02  0.51100000000E-03 0. -1.
         11   -1    0    0    0    0 -0.00000000000E+00 -0.00000000000E+00 -0.45593999997E+02  0.45594000000E+02  0.51100000000E-03 0.  1.
    9900012    2    1    2    0    0  0.83632816061E+00  0.77461395766E+00 -0.30594560306E+00  0.90007714319E+02  0.89999975348E+02 0.  0.
         12    1    1    2    0    0 -0.83632816061E+00 -0.77461395766E+00  0.30594560306E+00  0.11802856805E+01  0.00000000000E+00 0. -1.
         11    1    3    3    0    0 -0.23237860551E+02 -0.61426475319E+01  0.27407285669E+02  0.36453937918E+02  0.51100000000E-03 0. -1.
        -11    1    3    3    0    0 -0.59146299063E+01  0.47594659499E+01  0.50249128991E+01  0.91041261504E+01  0.51100000000E-03 0.  1.
        -12    1    3    3    0    0  0.29988818618E+02  0.21577955397E+01 -0.32738144171E+02  0.44449650251E+02  0.00000000000E+00 0.  1.
</event>
<event>
 7    1  0.2468912E-015  0.9000774E+02  0.7816164E-02  0.1186339E+00
        -11   -1    0    0    0    0  0.00000000000E+00  0.00000000000E+00  0.45593999997E+02  0.45594000000E+02  0.51100000000E-03 0.  1.
         11   -1    0    0    0    0 -0.00000000000E+00 -0.00000000000E+00 -0.45593999997E+02  0.45594000000E+02  0.51100000000E-03 0. -1.
    9900012    2    1    2    0    0 -0.95436117126E+00 -0.19299597700E+00  0.66705613722E+00  0.90007738765E+02  0.90000000117E+02 0.  0.
         12    1    1    2    0    0  0.95436117126E+00  0.19299597700E+00 -0.66705613722E+00  0.11802612349E+01  0.00000000000E+00 0. -1.
         11    1    3    3    0    0  0.31700573964E+02  0.11522267880E+02  0.19178113734E+02  0.38800632641E+02  0.51100000000E-03 0. -1.
        -11    1    3    3    0    0  0.27238880232E+01 -0.87680729472E+01  0.30457958203E+01  0.96734451780E+01  0.51100000000E-03 0.  1.
        -12    1    3    3    0    0 -0.35378823158E+02 -0.29471909100E+01 -0.21556853417E+02  0.41533660946E+02  0.00000000000E+00 0.  1.
</event>
<event>
 7    1  0.2468912E-015  0.9000770E+02  0.7816164E-02  0.1186339E+00
        -11   -1    0    0    0    0  0.00000000000E+00  0.00000000000E+00  0.45593999997E+02  0.45594000000E+02  0.51100000000E-03 0.  1.
         11   -1    0    0    0    0 -0.00000000000E+00 -0.00000000000E+00 -0.45593999997E+02  0.45594000000E+02  0.51100000000E-03 0. -1.
    9900012    2    1    2    0    0  0.58556969102E+00 -0.53716776040E+00  0.87273902398E+00  0.90007697297E+02  0.89999958102E+02 0.  0.
         12    1    1    2    0    0 -0.58556969102E+00  0.53716776040E+00 -0.87273902398E+00  0.11803027026E+01  0.00000000000E+00 0. -1.
         11    1    3    3    0    0  0.28696804369E+02 -0.22624683165E+02 -0.16379878496E+02  0.40046014647E+02  0.51100000000E-03 0. -1.
        -11    1    3    3    0    0  0.34872927134E+01 -0.15469939897E+01  0.88220021079E+01  0.96115619088E+01  0.51100000000E-03 0.  1.
        -12    1    3    3    0    0 -0.31598527392E+02  0.23634509394E+02  0.84306154117E+01  0.40350120741E+02  0.00000000000E+00 0.  1.
</event>
<event>
 7    1  0.2468912E-015  0.9000765E+02  0.7816164E-02  0.1186339E+00
        -11   -1    0    0    0    0  0.00000000000E+00  0.00000000000E+00  0.45593999997E+02  0.45594000000E+02  0.51100000000E-03 0. -1.
         11   -1    0    0    0    0 -0.00000000000E+00 -0.00000000000E+00 -0.45593999997E+02  0.45594000000E+02  0.51100000000E-03 0.  1.
    9900012    2    1    2    0    0 -0.11098624258E+01  0.31782519109E+00 -0.24582421494E+00  0.90007645392E+02  0.89999905511E+02 0.  0.
         12    1    1    2    0    0  0.11098624258E+01 -0.31782519109E+00  0.24582421494E+00  0.11803546082E+01  0.00000000000E+00 0. -1.
         11    1    3    3    0    0 -0.30694281968E+02 -0.21791849978E+02  0.60731126570E+01  0.38130124162E+02  0.51100000000E-03 0. -1.
        -11    1    3    3    0    0 -0.81822902831E+01  0.67156714745E+01 -0.27581025827E+01  0.10938795535E+02  0.51100000000E-03 0.  1.
        -12    1    3    3    0    0  0.37766709825E+02  0.15394003694E+02 -0.35608342893E+01  0.40938725696E+02  0.00000000000E+00 0.  1.
</event>
<event>
 7    1  0.2468912E-015  0.9000763E+02  0.7816164E-02  0.1186339E+00
        -11   -1    0    0    0    0  0.00000000000E+00  0.00000000000E+00  0.45593999997E+02  0.45594000000E+02  0.51100000000E-03 0. -1.
         11   -1    0    0    0    0 -0.00000000000E+00 -0.00000000000E+00 -0.45593999997E+02  0.45594000000E+02  0.51100000000E-03 0.  1.
    9900012    2    1    2    0    0 -0.10994285584E+01 -0.32790159950E+00 -0.27751964797E+00  0.90007627275E+02  0.89999887155E+02 0.  0.
         12    1    1    2    0    0  0.10994285584E+01  0.32790159950E+00  0.27751964797E+00  0.11803727246E+01  0.00000000000E+00 0. -1.
         11    1    3    3    0    0  0.16336164755E+01 -0.95777565078E+00 -0.99021344762E+01  0.10081582437E+02  0.51100000000E-03 0. -1.
        -11    1    3    3    0    0  0.47754002325E+01  0.26704590331E+02 -0.24344563060E+02  0.36449929259E+02  0.51100000000E-03 0.  1.
         12    1    3    3    0    0 -0.75084452664E+01 -0.26074716280E+02  0.33969177889E+02  0.43476115579E+02  0.00000000000E+00 0. -1.
</event>
<event>
 7    1  0.2468912E-015  0.9000791E+02  0.7816164E-02  0.1186339E+00
        -11   -1    0    0    0    0  0.00000000000E+00  0.00000000000E+00  0.45593999997E+02  0.45594000000E+02  0.51100000000E-03 0.  1.
         11   -1    0    0    0    0 -0.00000000000E+00 -0.00000000000E+00 -0.45593999997E+02  0.45594000000E+02  0.51100000000E-03 0. -1.
    9900012    2    1    2    0    0 -0.10624948937E+01 -0.37416276407E+00  0.35172696415E+00  0.90007913126E+02  0.90000176779E+02 0.  0.
         12    1    1    2    0    0  0.10624948937E+01  0.37416276407E+00 -0.35172696415E+00  0.11800868741E+01  0.00000000000E+00 0. -1.
         11    1    3    3    0    0 -0.42387672243E+01  0.23996432238E+01 -0.72381897930E+01  0.87244957977E+01  0.51100000000E-03 0. -1.
        -11    1    3    3    0    0  0.11589894212E+02  0.33005359131E+02  0.22529215939E+02  0.41608231761E+02  0.51100000000E-03 0.  1.
         12    1    3    3    0    0 -0.84136218809E+01 -0.35779165118E+02 -0.14939299182E+02  0.39675185567E+02  0.00000000000E+00 0. -1.
</event>
<event>
 7    1  0.2468912E-015  0.9000766E+02  0.7816164E-02  0.1186339E+00
        -11   -1    0    0    0    0  0.00000000000E+00  0.00000000000E+00  0.45593999997E+02  0.45594000000E+02  0.51100000000E-03 0.  1.
         11   -1    0    0    0    0 -0.00000000000E+00 -0.00000000000E+00 -0.45593999997E+02  0.45594000000E+02  0.51100000000E-03 0. -1.
    9900012    2    1    2    0    0 -0.62995617610E+00  0.90126184549E+00  0.42903999703E+00  0.90007664024E+02  0.89999924389E+02 0.  0.
         12    1    1    2    0    0  0.62995617610E+00 -0.90126184549E+00 -0.42903999703E+00  0.11803359763E+01  0.00000000000E+00 0. -1.
         11    1    3    3    0    0  0.19592391044E+02 -0.23553299625E+02  0.26308808101E+02  0.40382831674E+02  0.51100000000E-03 0. -1.
        -11    1    3    3    0    0 -0.73497722203E+01 -0.57958846074E+01 -0.43077955122E+01  0.10303811552E+02  0.51100000000E-03 0.  1.
        -12    1    3    3    0    0 -0.12872574999E+02  0.30250446078E+02 -0.21571972592E+02  0.39321020797E+02  0.00000000000E+00 0.  1.
</event>
<event>
 7    1  0.2468912E-015  0.9000776E+02  0.7816164E-02  0.1186339E+00
        -11   -1    0    0    0    0  0.00000000000E+00  0.00000000000E+00  0.45593999997E+02  0.45594000000E+02  0.51100000000E-03 0. -1.
         11   -1    0    0    0    0 -0.00000000000E+00 -0.00000000000E+00 -0.45593999997E+02  0.45594000000E+02  0.51100000000E-03 0.  1.
    9900012    2    1    2    0    0 -0.54557670285E+00  0.78904166970E+00 -0.68754453469E+00  0.90007763506E+02  0.90000025184E+02 0.  0.
         12    1    1    2    0    0  0.54557670285E+00 -0.78904166970E+00  0.68754453469E+00  0.11802364943E+01  0.00000000000E+00 0. -1.
         11    1    3    3    0    0 -0.98868332657E+01  0.28580833184E+01 -0.47163191796E+01  0.11320855937E+02  0.51100000000E-03 0. -1.
        -11    1    3    3    0    0  0.19107354128E+02  0.34335200899E+02  0.99481429646E+01  0.40533474454E+02  0.51100000000E-03 0.  1.
         12    1    3    3    0    0 -0.97660975652E+01 -0.36404242548E+02 -0.59193683197E+01  0.38153433115E+02  0.00000000000E+00 0. -1.
</event>
<event>
 7    1  0.2468912E-015  0.9000766E+02  0.7816164E-02  0.1186339E+00
        -11   -1    0    0    0    0  0.00000000000E+00  0.00000000000E+00  0.45593999997E+02  0.45594000000E+02  0.51100000000E-03 0.  1.
         11   -1    0    0    0    0 -0.00000000000E+00 -0.00000000000E+00 -0.45593999997E+02  0.45594000000E+02  0.51100000000E-03 0. -1.
    9900012    2    1    2    0    0 -0.46030666128E+00  0.98955576310E+00  0.44954696940E+00  0.90007663053E+02  0.89999923405E+02 0.  0.
         12    1    1    2    0    0  0.46030666128E+00 -0.98955576310E+00 -0.44954696940E+00  0.11803369470E+01  0.00000000000E+00 0. -1.
         11    1    3    3    0    0 -0.10457756362E+02  0.11023426024E+02 -0.36179291306E+02  0.39240562038E+02  0.51100000000E-03 0. -1.
        -11    1    3    3    0    0 -0.33170918166E+01  0.83137766380E+01  0.16763728860E+01  0.91067121630E+01  0.51100000000E-03 0.  1.
        -12    1    3    3    0    0  0.13314541517E+02 -0.18347646899E+02  0.34952465389E+02  0.41660388852E+02  0.00000000000E+00 0.  1.
</event>
<event>
 7    1  0.2468912E-015  0.9000773E+02  0.7816164E-02  0.1186339E+00
        -11   -1    0    0    0    0  0.00000000000E+00  0.00000000000E+00  0.45593999997E+02  0.45594000000E+02  0.51100000000E-03 0.  1.
         11   -1    0    0    0    0 -0.00000000000E+00 -0.00000000000E+00 -0.45593999997E+02  0.45594000000E+02  0.51100000000E-03 0. -1.
    9900012    2    1    2    0    0  0.61736637157E+00  0.96671409220E+00  0.27811837486E+00  0.90007734266E+02  0.89999995558E+02 0.  0.
         12    1    1    2    0    0 -0.61736637157E+00 -0.96671409220E+00 -0.27811837486E+00  0.11802657342E+01  0.00000000000E+00 0. -1.
         11    1    3    3    0    0  0.24456287950E+02  0.26573641603E+01 -0.26952107822E+02  0.36490926556E+02  0.51100000000E-03 0. -1.
        -11    1    3    3    0    0  0.66254268685E+01  0.19828311092E+01 -0.53633223383E+01  0.87517499487E+01  0.51100000000E-03 0.  1.
        -12    1    3    3    0    0 -0.30464348447E+02 -0.36734811773E+01  0.32593548535E+02  0.44765057761E+02  0.00000000000E+00 0.  1.
</event>
<event>
 7    1  0.2468912E-015  0.9000769E+02  0.7816164E-02  0.1186339E+00
        -11   -1    0    0    0    0  0.00000000000E+00  0.00000000000E+00  0.45593999997E+02  0.45594000000E+02  0.51100000000E-03 0.  1.
         11   -1    0    0    0    0 -0.00000000000E+00 -0.00000000000E+00 -0.45593999997E+02  0.45594000000E+02  0.51100000000E-03 0. -1.
    9900012    2    1    2    0    0 -0.53091214493E+00 -0.81265209347E+00  0.67146317594E+00  0.90007689055E+02  0.89999949750E+02 0.  0.
         12    1    1    2    0    0  0.53091214493E+00  0.81265209347E+00 -0.67146317594E+00  0.11803109452E+01  0.00000000000E+00 0. -1.
         11    1    3    3    0    0 -0.20512238719E+02 -0.31173342728E+02  0.32672267682E+01  0.37459364719E+02  0.51100000000E-03 0. -1.
        -11    1    3    3    0    0 -0.58209715010E+01  0.30337962914E+01  0.10808869013E+02  0.12645919450E+02  0.51100000000E-03 0.  1.
        -12    1    3    3    0    0  0.25802298075E+02  0.27326894343E+02 -0.13404632605E+02  0.39902404886E+02  0.00000000000E+00 0.  1.
</event>
<event>
 7    1  0.2468912E-015  0.9000775E+02  0.7816164E-02  0.1186339E+00
        -11   -1    0    0    0    0  0.00000000000E+00  0.00000000000E+00  0.45593999997E+02  0.45594000000E+02  0.51100000000E-03 0.  1.
         11   -1    0    0    0    0 -0.00000000000E+00 -0.00000000000E+00 -0.45593999997E+02  0.45594000000E+02  0.51100000000E-03 0. -1.
    9900012    2    1    2    0    0  0.21660484953E+00  0.78118473492E+00  0.85780399208E+00  0.90007747934E+02  0.90000009407E+02 0.  0.
         12    1    1    2    0    0 -0.21660484953E+00 -0.78118473492E+00 -0.85780399208E+00  0.11802520662E+01  0.00000000000E+00 0. -1.
         11    1    3    3    0    0 -0.14041628759E+02  0.34566459600E+02  0.94361243724E+01  0.38484385287E+02  0.51100000000E-03 0. -1.
        -11    1    3    3    0    0  0.44287475527E+00  0.20736791383E+01 -0.12699017076E+02  0.12874832743E+02  0.51100000000E-03 0.  1.
        -12    1    3    3    0    0  0.13815358853E+02 -0.35858954003E+02  0.41206966953E+01  0.38648529904E+02  0.00000000000E+00 0.  1.
</event>
<event>
 7    1  0.2468912E-015  0.9000772E+02  0.7816164E-02  0.1186339E+00
        -11   -1    0    0    0    0  0.00000000000E+00  0.00000000000E+00  0.45593999997E+02  0.45594000000E+02  0.51100000000E-03 0. -1.
         11   -1    0    0    0    0 -0.00000000000E+00 -0.00000000000E+00 -0.45593999997E+02  0.45594000000E+02  0.51100000000E-03 0.  1.
    9900012    2    1    2    0    0  0.11545209260E+01  0.12052825488E+00  0.21355365360E+00  0.90007724273E+02  0.89999985433E+02 0.  0.
         12    1    1    2    0    0 -0.11545209260E+01 -0.12052825488E+00 -0.21355365360E+00  0.11802757270E+01  0.00000000000E+00 0. -1.
         11    1    3    3    0    0 -0.23471580722E+02  0.11086270914E+02  0.30391447203E+02  0.39968244491E+02  0.51100000000E-03 0. -1.
        -11    1    3    3    0    0 -0.54873962236E+01 -0.16070654106E+00  0.75042386776E+00  0.55408013996E+01  0.51100000000E-03 0.  1.
        -12    1    3    3    0    0  0.30113497871E+02 -0.10805036118E+02 -0.30928317417E+02  0.44498678383E+02  0.00000000000E+00 0.  1.
</event>
<event>
 7    1  0.2468912E-015  0.9000774E+02  0.7816164E-02  0.1186339E+00
        -11   -1    0    0    0    0  0.00000000000E+00  0.00000000000E+00  0.45593999997E+02  0.45594000000E+02  0.51100000000E-03 0.  1.
         11   -1    0    0    0    0 -0.00000000000E+00 -0.00000000000E+00 -0.45593999997E+02  0.45594000000E+02  0.51100000000E-03 0. -1.
    9900012    2    1    2    0    0 -0.79387465946E+00  0.85514237994E+00 -0.17750372184E+00  0.90007740267E+02  0.90000001639E+02 0.  0.
         12    1    1    2    0    0  0.79387465946E+00 -0.85514237994E+00  0.17750372184E+00  0.11802597325E+01  0.00000000000E+00 0. -1.
         11    1    3    3    0    0 -0.58764514472E+01 -0.17367567507E+02 -0.17056242788E+02  0.25041575450E+02  0.51100000000E-03 0. -1.
        -11    1    3    3    0    0 -0.15181839520E+02  0.10114787581E+02  0.33084972582E+02  0.37781114198E+02  0.51100000000E-03 0.  1.
         12    1    3    3    0    0  0.20264416308E+02  0.81079223055E+01 -0.16206233515E+02  0.27185050619E+02  0.00000000000E+00 0. -1.
</event>
<event>
 7    1  0.2468912E-015  0.9000766E+02  0.7816164E-02  0.1186339E+00
        -11   -1    0    0    0    0  0.00000000000E+00  0.00000000000E+00  0.45593999997E+02  0.45594000000E+02  0.51100000000E-03 0. -1.
         11   -1    0    0    0    0 -0.00000000000E+00 -0.00000000000E+00 -0.45593999997E+02  0.45594000000E+02  0.51100000000E-03 0.  1.
    9900012    2    1    2    0    0 -0.70852566950E+00  0.94010481125E+00 -0.86001304009E-01  0.90007660259E+02  0.89999920574E+02 0.  0.
         12    1    1    2    0    0  0.70852566950E+00 -0.94010481125E+00  0.86001304009E-01  0.11803397412E+01  0.00000000000E+00 0. -1.
         11    1    3    3    0    0 -0.51976441538E+01  0.19317534331E+01 -0.76284731746E+01  0.94308419197E+01  0.51100000000E-03 0. -1.
        -11    1    3    3    0    0  0.35672435827E+02  0.16392792550E+02 -0.10410035205E+02  0.40615454678E+02  0.51100000000E-03 0.  1.
         12    1    3    3    0    0 -0.31183317343E+02 -0.17384441172E+02  0.17952507075E+02  0.39961363661E+02  0.00000000000E+00 0. -1.
</event>
<event>
 7    1  0.2468912E-015  0.9000770E+02  0.7816164E-02  0.1186339E+00
        -11   -1    0    0    0    0  0.00000000000E+00  0.00000000000E+00  0.45593999997E+02  0.45594000000E+02  0.51100000000E-03 0.  1.
         11   -1    0    0    0    0 -0.00000000000E+00 -0.00000000000E+00 -0.45593999997E+02  0.45594000000E+02  0.51100000000E-03 0. -1.
    9900012    2    1    2    0    0  0.52311816512E+00 -0.35264476884E+00  0.99754381065E+00  0.90007701478E+02  0.89999962337E+02 0.  0.
         12    1    1    2    0    0 -0.52311816512E+00  0.35264476884E+00 -0.99754381065E+00  0.11802985223E+01  0.00000000000E+00 0. -1.
         11    1    3    3    0    0 -0.32124296858E+02 -0.80224119319E+01  0.13479378752E+02  0.35749450256E+02  0.51100000000E-03 0. -1.
        -11    1    3    3    0    0 -0.64354604435E+01 -0.71038452386E+01  0.24410509004E+01  0.98913344930E+01  0.51100000000E-03 0.  1.
        -12    1    3    3    0    0  0.39082875467E+02  0.14773612402E+02 -0.14922885842E+02  0.44366916728E+02  0.00000000000E+00 0.  1.
</event>
<event>
 7    1  0.2468912E-015  0.9000795E+02  0.7816164E-02  0.1186339E+00
        -11   -1    0    0    0    0  0.00000000000E+00  0.00000000000E+00  0.45593999997E+02  0.45594000000E+02  0.51100000000E-03 0. -1.
         11   -1    0    0    0    0 -0.00000000000E+00 -0.00000000000E+00 -0.45593999997E+02  0.45594000000E+02  0.51100000000E-03 0.  1.
    9900012    2    1    2    0    0 -0.33489960428E+00 -0.10399271083E+01 -0.44599009199E+00  0.90007951994E+02  0.90000216160E+02 0.  0.
         12    1    1    2    0    0  0.33489960428E+00  0.10399271083E+01  0.44599009199E+00  0.11800480065E+01  0.00000000000E+00 0. -1.
         11    1    3    3    0    0  0.26202376022E+02 -0.98928155108E+01  0.28372696348E+02  0.39867809148E+02  0.51100000000E-03 0. -1.
        -11    1    3    3    0    0 -0.86545351340E+01 -0.96203660104E+01 -0.21893017977E+01  0.13124231908E+02  0.51100000000E-03 0.  1.
        -12    1    3    3    0    0 -0.17882740492E+02  0.18473254413E+02 -0.26629384642E+02  0.37015910938E+02  0.00000000000E+00 0.  1.
</event>
<event>
 7    1  0.2468912E-015  0.9000769E+02  0.7816164E-02  0.1186339E+00
        -11   -1    0    0    0    0  0.00000000000E+00  0.00000000000E+00  0.45593999997E+02  0.45594000000E+02  0.51100000000E-03 0. -1.
         11   -1    0    0    0    0 -0.00000000000E+00 -0.00000000000E+00 -0.45593999997E+02  0.45594000000E+02  0.51100000000E-03 0.  1.
    9900012    2    1    2    0    0  0.68550068020E+00  0.14876697677E+00 -0.94926307936E+00  0.90007685131E+02  0.89999945775E+02 0.  0.
         12    1    1    2    0    0 -0.68550068020E+00 -0.14876697677E+00  0.94926307936E+00  0.11803148689E+01  0.00000000000E+00 0. -1.
         11    1    3    3    0    0  0.91407669104E+01  0.84056997589E+01 -0.14706655036E+02  0.19248249550E+02  0.51100000000E-03 0.  1.
        -11    1    3    3    0    0 -0.25956900837E+02 -0.23347974172E+02 -0.11277686890E+02  0.36688892336E+02  0.51100000000E-03 0. -1.
         12    1    3    3    0    0  0.17501634607E+02  0.15091041390E+02  0.25035078846E+02  0.34070543245E+02  0.00000000000E+00 0. -1.
</event>
<event>
 7    1  0.2468912E-015  0.9000780E+02  0.7816164E-02  0.1186339E+00
        -11   -1    0    0    0    0  0.00000000000E+00  0.00000000000E+00  0.45593999997E+02  0.45594000000E+02  0.51100000000E-03 0. -1.
         11   -1    0    0    0    0 -0.00000000000E+00 -0.00000000000E+00 -0.45593999997E+02  0.45594000000E+02  0.51100000000E-03 0.  1.
    9900012    2    1    2    0    0  0.18926528497E+00 -0.11424223413E+01  0.22788884006E+00  0.90007795154E+02  0.90000057251E+02 0.  0.
         12    1    1    2    0    0 -0.18926528497E+00  0.11424223413E+01 -0.22788884006E+00  0.11802048455E+01  0.00000000000E+00 0. -1.
         11    1    3    3    0    0  0.66092807520E+01 -0.23074082492E+00  0.14984707205E+02  0.16379172252E+02  0.51100000000E-03 0. -1.
        -11    1    3    3    0    0  0.93447949938E+01  0.18406657650E+02 -0.35585315819E+02  0.41139335696E+02  0.51100000000E-03 0.  1.
         12    1    3    3    0    0 -0.15764810461E+02 -0.19318339166E+02  0.20828497454E+02  0.32489287207E+02  0.00000000000E+00 0. -1.
</event>
<event>
 7    1  0.2468912E-015  0.9000770E+02  0.7816164E-02  0.1186339E+00
        -11   -1    0    0    0    0  0.00000000000E+00  0.00000000000E+00  0.45593999997E+02  0.45594000000E+02  0.51100000000E-03 0.  1.
         11   -1    0    0    0    0 -0.00000000000E+00 -0.00000000000E+00 -0.45593999997E+02  0.45594000000E+02  0.51100000000E-03 0. -1.
    9900012    2    1    2    0    0 -0.73501603909E+00 -0.85018123289E+00  0.36062012299E+00  0.90007701911E+02  0.89999962776E+02 0.  0.
         12    1    1    2    0    0  0.73501603909E+00  0.85018123289E+00 -0.36062012299E+00  0.11802980893E+01  0.00000000000E+00 0. -1.
         11    1    3    3    0    0  0.21061662746E+02 -0.20368787597E+02 -0.26861698502E+02  0.39749616256E+02  0.51100000000E-03 0. -1.
        -11    1    3    3    0    0  0.34224712999E+01  0.10238359963E+02 -0.15298289196E+01  0.10903105123E+02  0.51100000000E-03 0.  1.
        -12    1    3    3    0    0 -0.25219150085E+02  0.92802464004E+01  0.28752147545E+02  0.39354980532E+02  0.00000000000E+00 0.  1.
</event>
<event>
 7    1  0.2468912E-015  0.9000774E+02  0.7816164E-02  0.1186339E+00
        -11   -1    0    0    0    0  0.00000000000E+00  0.00000000000E+00  0.45593999997E+02  0.45594000000E+02  0.51100000000E-03 0.  1.
         11   -1    0    0    0    0 -0.00000000000E+00 -0.00000000000E+00 -0.45593999997E+02  0.45594000000E+02  0.51100000000E-03 0. -1.
    9900012    2    1    2    0    0 -0.70297441201E+00  0.94800199933E+00 -0.11542418065E-01  0.90007739841E+02  0.90000001207E+02 0.  0.
         12    1    1    2    0    0  0.70297441201E+00 -0.94800199933E+00  0.11542418065E-01  0.11802601586E+01  0.00000000000E+00 0. -1.
         11    1    3    3    0    0  0.38436004585E+02  0.11847277998E+02  0.65395877143E+01  0.40748627611E+02  0.51100000000E-03 0. -1.
        -11    1    3    3    0    0 -0.42453933827E+01  0.49715800036E+01 -0.86801329550E+01  0.10866677555E+02  0.51100000000E-03 0.  1.
        -12    1    3    3    0    0 -0.34893585614E+02 -0.15870856003E+02  0.21290028226E+01  0.38392434675E+02  0.00000000000E+00 0.  1.
</event>
<event>
 7    1  0.2468912E-015  0.9000779E+02  0.7816164E-02  0.1186339E+00
        -11   -1    0    0    0    0  0.00000000000E+00  0.00000000000E+00  0.45593999997E+02  0.45594000000E+02  0.51100000000E-03 0.  1.
         11   -1    0    0    0    0 -0.00000000000E+00 -0.00000000000E+00 -0.45593999997E+02  0.45594000000E+02  0.51100000000E-03 0. -1.
    9900012    2    1    2    0    0  0.71622998321E+00  0.93705825206E+00  0.42911251323E-01  0.90007786065E+02  0.90000048041E+02 0.  0.
         12    1    1    2    0    0 -0.71622998321E+00 -0.93705825206E+00 -0.42911251323E-01  0.11802139349E+01  0.00000000000E+00 0. -1.
         11    1    3    3    0    0 -0.16256086126E+02 -0.68359385291E+01 -0.32330464512E+01  0.17928831008E+02  0.51100000000E-03 0. -1.
        -11    1    3    3    0    0 -0.16103452793E+02 -0.21476122403E+02 -0.45837430720E+01  0.27231520819E+02  0.51100000000E-03 0.  1.
         12    1    3    3    0    0  0.33075768902E+02  0.29249119184E+02  0.78597007745E+01  0.44847434238E+02  0.00000000000E+00 0. -1.
</event>
<event>
 7    1  0.2468912E-015  0.9000778E+02  0.7816164E-02  0.1186339E+00
        -11   -1    0    0    0    0  0.00000000000E+00  0.00000000000E+00  0.45593999997E+02  0.45594000000E+02  0.51100000000E-03 0. -1.
         11   -1    0    0    0    0 -0.00000000000E+00 -0.00000000000E+00 -0.45593999997E+02  0.45594000000E+02  0.51100000000E-03 0.  1.
    9900012    2    1    2    0    0  0.15240430495E+00 -0.52940232009E+00 -0.10437581965E+01  0.90007777537E+02  0.90000039401E+02 0.  0.
         12    1    1    2    0    0 -0.15240430495E+00  0.52940232009E+00  0.10437581965E+01  0.11802224627E+01  0.00000000000E+00 0. -1.
         11    1    3    3    0    0 -0.27500117969E+02  0.31726327343E+02  0.83808143453E+01  0.42814184383E+02  0.51100000000E-03 0. -1.
        -11    1    3    3    0    0 -0.13850266882E+01 -0.86457692300E+01 -0.27551759413E+01  0.91792493829E+01  0.51100000000E-03 0.  1.
        -12    1    3    3    0    0  0.29037548962E+02 -0.23609960433E+02 -0.66693966006E+01  0.38014343772E+02  0.00000000000E+00 0.  1.
</event>
<event>
 7    1  0.2468912E-015  0.9000771E+02  0.7816164E-02  0.1186339E+00
        -11   -1    0    0    0    0  0.00000000000E+00  0.00000000000E+00  0.45593999997E+02  0.45594000000E+02  0.51100000000E-03 0.  1.
         11   -1    0    0    0    0 -0.00000000000E+00 -0.00000000000E+00 -0.45593999997E+02  0.45594000000E+02  0.51100000000E-03 0. -1.
    9900012    2    1    2    0    0  0.10396203506E+00 -0.11735060016E+01 -0.71837913022E-01  0.90007709728E+02  0.89999970696E+02 0.  0.
         12    1    1    2    0    0 -0.10396203506E+00  0.11735060016E+01  0.71837913022E-01  0.11802902720E+01  0.00000000000E+00 0. -1.
         11    1    3    3    0    0  0.23963307810E+01  0.28761002262E+01 -0.96568653609E+01  0.10357094312E+02  0.51100000000E-03 0. -1.
        -11    1    3    3    0    0 -0.10089845282E+00  0.31728514181E+02  0.25232756236E+02  0.40538879859E+02  0.51100000000E-03 0.  1.
         12    1    3    3    0    0 -0.21914702931E+01 -0.35778120409E+02 -0.15647728789E+02  0.39111735557E+02  0.00000000000E+00 0. -1.
</event>
<event>
 7    1  0.2468912E-015  0.9000777E+02  0.7816164E-02  0.1186339E+00
        -11   -1    0    0    0    0  0.00000000000E+00  0.00000000000E+00  0.45593999997E+02  0.45594000000E+02  0.51100000000E-03 0. -1.
         11   -1    0    0    0    0 -0.00000000000E+00 -0.00000000000E+00 -0.45593999997E+02  0.45594000000E+02  0.51100000000E-03 0.  1.
    9900012    2    1    2    0    0  0.10614066439E+01 -0.50706381913E+00  0.96090030647E-01  0.90007774990E+02  0.90000036820E+02 0.  0.
         12    1    1    2    0    0 -0.10614066439E+01  0.50706381913E+00 -0.96090030647E-01  0.11802250101E+01  0.00000000000E+00 0. -1.
         11    1    3    3    0    0 -0.13497504154E+02  0.17588567003E+02  0.36678114015E+02  0.42858188897E+02  0.51100000000E-03 0. -1.
        -11    1    3    3    0    0  0.87700971873E+01 -0.13869968444E+00 -0.43236410006E+01  0.97789423784E+01  0.51100000000E-03 0.  1.
        -12    1    3    3    0    0  0.57888136105E+01 -0.17956931138E+02 -0.32258382983E+02  0.37370643714E+02  0.00000000000E+00 0.  1.
</event>
<event>
 7    1  0.2468912E-015  0.9000768E+02  0.7816164E-02  0.1186339E+00
        -11   -1    0    0    0    0  0.00000000000E+00  0.00000000000E+00  0.45593999997E+02  0.45594000000E+02  0.51100000000E-03 0. -1.
         11   -1    0    0    0    0 -0.00000000000E+00 -0.00000000000E+00 -0.45593999997E+02  0.45594000000E+02  0.51100000000E-03 0.  1.
    9900012    2    1    2    0    0 -0.93357370028E-01 -0.82000063415E+00 -0.84382126464E+00  0.90007681837E+02  0.89999942438E+02 0.  0.
         12    1    1    2    0    0  0.93357370028E-01  0.82000063415E+00  0.84382126464E+00  0.11803181627E+01  0.00000000000E+00 0. -1.
         11    1    3    3    0    0 -0.88795552604E+01 -0.24890276866E+02  0.29000527571E+02  0.39235226312E+02  0.51100000000E-03 0. -1.
        -11    1    3    3    0    0 -0.56838500451E+01 -0.48255744177E+01 -0.11282490461E+01  0.75409061768E+01  0.51100000000E-03 0.  1.
        -12    1    3    3    0    0  0.14470047935E+02  0.28895850649E+02 -0.28716099789E+02  0.43231549349E+02  0.00000000000E+00 0.  1.
</event>
<event>
 7    1  0.2468912E-015  0.9000774E+02  0.7816164E-02  0.1186339E+00
        -11   -1    0    0    0    0  0.00000000000E+00  0.00000000000E+00  0.45593999997E+02  0.45594000000E+02  0.51100000000E-03 0. -1.
         11   -1    0    0    0    0 -0.00000000000E+00 -0.00000000000E+00 -0.45593999997E+02  0.45594000000E+02  0.51100000000E-03 0.  1.
    9900012    2    1    2    0    0 -0.10320598412E+01  0.16538394235E+00  0.54818750463E+00  0.90007742018E+02  0.90000003412E+02 0.  0.
         12    1    1    2    0    0  0.10320598412E+01 -0.16538394235E+00 -0.54818750463E+00  0.11802579821E+01  0.00000000000E+00 0. -1.
         11    1    3    3    0    0  0.69412410574E+01  0.72688008396E+01 -0.23425717942E+01  0.10320074415E+02  0.51100000000E-03 0. -1.
        -11    1    3    3    0    0  0.84379425559E+01 -0.32428673598E+02 -0.22406270310E+02  0.40309536035E+02  0.51100000000E-03 0.  1.
         12    1    3    3    0    0 -0.16411243454E+02  0.25325256701E+02  0.25297029609E+02  0.39378131567E+02  0.00000000000E+00 0. -1.
</event>
<event>
 7    1  0.2468912E-015  0.9000768E+02  0.7816164E-02  0.1186339E+00
        -11   -1    0    0    0    0  0.00000000000E+00  0.00000000000E+00  0.45593999997E+02  0.45594000000E+02  0.51100000000E-03 0. -1.
         11   -1    0    0    0    0 -0.00000000000E+00 -0.00000000000E+00 -0.45593999997E+02  0.45594000000E+02  0.51100000000E-03 0.  1.
    9900012    2    1    2    0    0  0.74801131283E+00 -0.90745955459E+00  0.10075361023E+00  0.90007680104E+02  0.89999940681E+02 0.  0.
         12    1    1    2    0    0 -0.74801131283E+00  0.90745955459E+00 -0.10075361023E+00  0.11803198962E+01  0.00000000000E+00 0. -1.
         11    1    3    3    0    0  0.26096183484E+02  0.19841323790E+02 -0.59492211267E+01  0.33317895409E+02  0.51100000000E-03 0. -1.
        -11    1    3    3    0    0  0.33527380393E+01  0.50195840161E+01  0.15792686444E+02  0.16906981441E+02  0.51100000000E-03 0.  1.
        -12    1    3    3    0    0 -0.28700910211E+02 -0.25768367360E+02 -0.97427117075E+01  0.39782803254E+02  0.00000000000E+00 0.  1.
</event>
<event>
 7    1  0.2468912E-015  0.9000887E+02  0.7816164E-02  0.1186337E+00
        -11   -1    0    0    0    0  0.00000000000E+00  0.00000000000E+00  0.45593999997E+02  0.45594000000E+02  0.51100000000E-03 0.  1.
         11   -1    0    0    0    0 -0.00000000000E+00 -0.00000000000E+00 -0.45593999997E+02  0.45594000000E+02  0.51100000000E-03 0. -1.
    9900012    2    1    2    0    0 -0.23083973141E+00  0.11422351112E+01  0.17987726683E+00  0.90008871567E+02  0.90001147864E+02 0.  0.
         12    1    1    2    0    0  0.23083973141E+00 -0.11422351112E+01 -0.17987726683E+00  0.11791284332E+01  0.00000000000E+00 0. -1.
         11    1    3    3    0    0  0.82129172615E+01  0.57839952681E+01 -0.46334194125E+01  0.11062331893E+02  0.51100000000E-03 0. -1.
        -11    1    3    3    0    0  0.31810185699E+02 -0.67409002534E+01 -0.12816336049E+02  0.34951196266E+02  0.51100000000E-03 0.  1.
         12    1    3    3    0    0 -0.40253942692E+02  0.20991400965E+01  0.17629632729E+02  0.43995343407E+02  0.00000000000E+00 0. -1.
</event>
<event>
 7    1  0.2468912E-015  0.9000766E+02  0.7816164E-02  0.1186339E+00
        -11   -1    0    0    0    0  0.00000000000E+00  0.00000000000E+00  0.45593999997E+02  0.45594000000E+02  0.51100000000E-03 0. -1.
         11   -1    0    0    0    0 -0.00000000000E+00 -0.00000000000E+00 -0.45593999997E+02  0.45594000000E+02  0.51100000000E-03 0.  1.
    9900012    2    1    2    0    0 -0.10376070964E+01 -0.56194751044E+00  0.28290207536E-01  0.90007655208E+02  0.89999915457E+02 0.  0.
         12    1    1    2    0    0  0.10376070964E+01  0.56194751044E+00 -0.28290207536E-01  0.11803447915E+01  0.00000000000E+00 0. -1.
         11    1    3    3    0    0 -0.11280328900E+02 -0.61953654191E+01  0.17972438147E+01  0.12994554950E+02  0.51100000000E-03 0. -1.
        -11    1    3    3    0    0 -0.20404508828E+02  0.86932927008E+01 -0.28581576567E+02  0.36177670432E+02  0.51100000000E-03 0.  1.
         12    1    3    3    0    0  0.30647230632E+02 -0.30598747922E+01  0.26812622960E+02  0.40835429827E+02  0.00000000000E+00 0. -1.
</event>
<event>
 7    1  0.2468912E-015  0.9000774E+02  0.7816164E-02  0.1186339E+00
        -11   -1    0    0    0    0  0.00000000000E+00  0.00000000000E+00  0.45593999997E+02  0.45594000000E+02  0.51100000000E-03 0.  1.
         11   -1    0    0    0    0 -0.00000000000E+00 -0.00000000000E+00 -0.45593999997E+02  0.45594000000E+02  0.51100000000E-03 0. -1.
    9900012    2    1    2    0    0 -0.25372338346E+00 -0.10564456427E+01  0.46104730277E+00  0.90007738348E+02  0.89999999694E+02 0.  0.
         12    1    1    2    0    0  0.25372338346E+00  0.10564456427E+01 -0.46104730277E+00  0.11802616518E+01  0.00000000000E+00 0. -1.
         11    1    3    3    0    0 -0.23046619987E+02 -0.35439314904E+00 -0.28541494261E+02  0.36686362347E+02  0.51100000000E-03 0. -1.
        -11    1    3    3    0    0  0.71507761696E+01 -0.22620302327E-01 -0.94226582793E+01  0.11828803862E+02  0.51100000000E-03 0.  1.
        -12    1    3    3    0    0  0.15642120434E+02 -0.67943219135E+00  0.38425199843E+02  0.41492572139E+02  0.00000000000E+00 0.  1.
</event>
<event>
 7    1  0.2468912E-015  0.9000751E+02  0.7816164E-02  0.1186340E+00
        -11   -1    0    0    0    0  0.00000000000E+00  0.00000000000E+00  0.45593999997E+02  0.45594000000E+02  0.51100000000E-03 0.  1.
         11   -1    0    0    0    0 -0.00000000000E+00 -0.00000000000E+00 -0.45593999997E+02  0.45594000000E+02  0.51100000000E-03 0. -1.
    9900012    2    1    2    0    0  0.42088743923E+00  0.66584734057E-01  0.11008996791E+01  0.90007508633E+02  0.89999766947E+02 0.  0.
         12    1    1    2    0    0 -0.42088743923E+00 -0.66584734057E-01 -0.11008996791E+01  0.11804913667E+01  0.00000000000E+00 0. -1.
         11    1    3    3    0    0 -0.22292237433E+02 -0.24097855437E+02  0.14791937590E+02  0.36006275902E+02  0.51100000000E-03 0. -1.
        -11    1    3    3    0    0 -0.65687745728E+01 -0.35838017645E+01  0.55404452863E+01  0.93106910972E+01  0.51100000000E-03 0.  1.
        -12    1    3    3    0    0  0.29281899445E+02  0.27748241935E+02 -0.19231483197E+02  0.44690541634E+02  0.00000000000E+00 0.  1.
</event>
<event>
 7    1  0.2468912E-015  0.9000781E+02  0.7816164E-02  0.1186339E+00
        -11   -1    0    0    0    0  0.00000000000E+00  0.00000000000E+00  0.45593999997E+02  0.45594000000E+02  0.51100000000E-03 0.  1.
         11   -1    0    0    0    0 -0.00000000000E+00 -0.00000000000E+00 -0.45593999997E+02  0.45594000000E+02  0.51100000000E-03 0. -1.
    9900012    2    1    2    0    0  0.68390476707E+00 -0.47260847649E+00  0.83771539848E+00  0.90007808663E+02  0.90000070938E+02 0.  0.
         12    1    1    2    0    0 -0.68390476707E+00  0.47260847649E+00 -0.83771539848E+00  0.11801913367E+01  0.00000000000E+00 0. -1.
         11    1    3    3    0    0 -0.30628448842E+02 -0.24538779983E+02 -0.14406401106E+02  0.41806674044E+02  0.51100000000E-03 0. -1.
        -11    1    3    3    0    0  0.76372433590E+01  0.15297047174E+01 -0.54574561388E+01  0.95105893832E+01  0.51100000000E-03 0.  1.
        -12    1    3    3    0    0  0.23675110250E+02  0.22536466790E+02  0.20701572643E+02  0.38690545236E+02  0.00000000000E+00 0.  1.
</event>
<event>
 7    1  0.2468912E-015  0.9000765E+02  0.7816164E-02  0.1186339E+00
        -11   -1    0    0    0    0  0.00000000000E+00  0.00000000000E+00  0.45593999997E+02  0.45594000000E+02  0.51100000000E-03 0.  1.
         11   -1    0    0    0    0 -0.00000000000E+00 -0.00000000000E+00 -0.45593999997E+02  0.45594000000E+02  0.51100000000E-03 0. -1.
    9900012    2    1    2    0    0 -0.14971612490E-01  0.11261380576E+01 -0.35327915112E+00  0.90007653766E+02  0.89999913995E+02 0.  0.
         12    1    1    2    0    0  0.14971612490E-01 -0.11261380576E+01  0.35327915112E+00  0.11803462342E+01  0.00000000000E+00 0. -1.
         11    1    3    3    0    0  0.17949154841E+02 -0.28130359826E+02 -0.92454742206E+01  0.34626118716E+02  0.51100000000E-03 0. -1.
        -11    1    3    3    0    0  0.39638549403E+01  0.33724781469E+01 -0.13678616728E+02  0.14635242078E+02  0.51100000000E-03 0.  1.
        -12    1    3    3    0    0 -0.21927981394E+02  0.25884019737E+02  0.22570811797E+02  0.40746292972E+02  0.00000000000E+00 0.  1.
</event>
<event>
 7    1  0.2468912E-015  0.9000756E+02  0.7816164E-02  0.1186339E+00
        -11   -1    0    0    0    0  0.00000000000E+00  0.00000000000E+00  0.45593999997E+02  0.45594000000E+02  0.51100000000E-03 0.  1.
         11   -1    0    0    0    0 -0.00000000000E+00 -0.00000000000E+00 -0.45593999997E+02  0.45594000000E+02  0.51100000000E-03 0. -1.
    9900012    2    1    2    0    0  0.47085222750E+00 -0.97227790495E+00 -0.47583191777E+00  0.90007558490E+02  0.89999817462E+02 0.  0.
         12    1    1    2    0    0 -0.47085222750E+00  0.97227790495E+00  0.47583191777E+00  0.11804415100E+01  0.00000000000E+00 0. -1.
         11    1    3    3    0    0 -0.20883583468E+01 -0.16501524357E+02  0.36999156727E+00  0.16637260613E+02  0.51100000000E-03 0. -1.
        -11    1    3    3    0    0  0.16038934253E+02 -0.24655068035E+02 -0.77738440607E+01  0.30422893412E+02  0.51100000000E-03 0.  1.
         12    1    3    3    0    0 -0.13479723679E+02  0.40184314487E+02  0.69280205757E+01  0.42947404466E+02  0.00000000000E+00 0. -1.
</event>
<event>
 7    1  0.3352970E-015  0.9000776E+02  0.7816164E-02  0.1186339E+00
        -11   -1    0    0    0    0  0.00000000000E+00  0.00000000000E+00  0.45593999997E+02  0.45594000000E+02  0.51100000000E-03 0. -1.
         11   -1    0    0    0    0 -0.00000000000E+00 -0.00000000000E+00 -0.45593999997E+02  0.45594000000E+02  0.51100000000E-03 0.  1.
    9900012    2    1    2    0    0  0.13798885665E+00  0.75425850709E+00 -0.89722282336E+00  0.90007764593E+02  0.90000026286E+02 0.  0.
         12    1    1    2    0    0 -0.13798885665E+00 -0.75425850709E+00  0.89722282336E+00  0.11802354065E+01  0.00000000000E+00 0. -1.
         11    1    3    3    0    0 -0.94051744821E+01  0.41870891711E+01  0.40535838276E+02  0.41822759447E+02  0.51100000000E-03 0. -1.
        -11    1    3    3    0    0  0.96697647198E+01  0.95071745444E+00 -0.40189466076E+01  0.10514758462E+02  0.51100000000E-03 0.  1.
        -12    1    3    3    0    0 -0.12660138105E+00 -0.43835481185E+01 -0.37414114492E+02  0.37670246684E+02  0.00000000000E+00 0.  1.
</event>
<event>
 7    1  0.2468912E-015  0.9000773E+02  0.7816164E-02  0.1186339E+00
        -11   -1    0    0    0    0  0.00000000000E+00  0.00000000000E+00  0.45593999997E+02  0.45594000000E+02  0.51100000000E-03 0. -1.
         11   -1    0    0    0    0 -0.00000000000E+00 -0.00000000000E+00 -0.45593999997E+02  0.45594000000E+02  0.51100000000E-03 0.  1.
    9900012    2    1    2    0    0  0.11905241551E+00 -0.77946406325E+00 -0.87824128954E+00  0.90007726529E+02  0.89999987719E+02 0.  0.
         12    1    1    2    0    0 -0.11905241551E+00  0.77946406325E+00  0.87824128954E+00  0.11802734709E+01  0.00000000000E+00 0. -1.
         11    1    3    3    0    0 -0.44726124322E+01  0.87597015093E+01 -0.60626839661E+01  0.11553907116E+02  0.51100000000E-03 0. -1.
        -11    1    3    3    0    0  0.16115984310E+02 -0.32036134223E+02 -0.21407614631E+02  0.41765114757E+02  0.51100000000E-03 0.  1.
         12    1    3    3    0    0 -0.11524319463E+02  0.22496968650E+02  0.26592057308E+02  0.36688704656E+02  0.00000000000E+00 0. -1.
</event>
<event>
 7    1  0.2468912E-015  0.9000783E+02  0.7816164E-02  0.1186339E+00
        -11   -1    0    0    0    0  0.00000000000E+00  0.00000000000E+00  0.45593999997E+02  0.45594000000E+02  0.51100000000E-03 0.  1.
         11   -1    0    0    0    0 -0.00000000000E+00 -0.00000000000E+00 -0.45593999997E+02  0.45594000000E+02  0.51100000000E-03 0. -1.
    9900012    2    1    2    0    0  0.63186405824E+00  0.79941717319E+00 -0.59538328647E+00  0.90007829986E+02  0.90000092541E+02 0.  0.
         12    1    1    2    0    0 -0.63186405824E+00 -0.79941717319E+00  0.59538328647E+00  0.11801700143E+01  0.00000000000E+00 0. -1.
         11    1    3    3    0    0 -0.34810536200E+02  0.94844427250E+01  0.56151417694E+01  0.36513804262E+02  0.51100000000E-03 0. -1.
        -11    1    3    3    0    0 -0.29475868083E+01  0.65430505465E+01  0.71070331161E+01  0.10099985070E+02  0.51100000000E-03 0.  1.
        -12    1    3    3    0    0  0.38389987066E+02 -0.15228076098E+02 -0.13317558172E+02  0.43394040654E+02  0.00000000000E+00 0.  1.
</event>
<event>
 7    1  0.2468912E-015  0.9000770E+02  0.7816164E-02  0.1186339E+00
        -11   -1    0    0    0    0  0.00000000000E+00  0.00000000000E+00  0.45593999997E+02  0.45594000000E+02  0.51100000000E-03 0.  1.
         11   -1    0    0    0    0 -0.00000000000E+00 -0.00000000000E+00 -0.45593999997E+02  0.45594000000E+02  0.51100000000E-03 0. -1.
    9900012    2    1    2    0    0  0.10255153435E+01  0.51771220803E+00  0.27093771851E+00  0.90007697116E+02  0.89999957918E+02 0.  0.
         12    1    1    2    0    0 -0.10255153435E+01 -0.51771220803E+00 -0.27093771851E+00  0.11803028837E+01  0.00000000000E+00 0. -1.
         11    1    3    3    0    0  0.75835909265E+01  0.64720530699E+01  0.17123721901E+01  0.10115855923E+02  0.51100000000E-03 0. -1.
        -11    1    3    3    0    0  0.77499518313E+01  0.35241224414E+02  0.20590119548E+01  0.36142014084E+02  0.51100000000E-03 0.  1.
         12    1    3    3    0    0 -0.14308027414E+02 -0.41195565276E+02 -0.35004464264E+01  0.43749827109E+02  0.00000000000E+00 0. -1.
</event>
<event>
 7    1  0.2468912E-015  0.9000739E+02  0.7816164E-02  0.1186340E+00
        -11   -1    0    0    0    0  0.00000000000E+00  0.00000000000E+00  0.45593999997E+02  0.45594000000E+02  0.51100000000E-03 0. -1.
         11   -1    0    0    0    0 -0.00000000000E+00 -0.00000000000E+00 -0.45593999997E+02  0.45594000000E+02  0.51100000000E-03 0.  1.
    9900012    2    1    2    0    0 -0.95881211435E+00  0.16714177331E+00 -0.66827677718E+00  0.90007385375E+02  0.89999642061E+02 0.  0.
         12    1    1    2    0    0  0.95881211435E+00 -0.16714177331E+00  0.66827677718E+00  0.11806146255E+01  0.00000000000E+00 0. -1.
         11    1    3    3    0    0 -0.35008012199E+01  0.53441098031E+01 -0.68243485329E+01  0.93480934917E+01  0.51100000000E-03 0. -1.
        -11    1    3    3    0    0  0.71234770487E+01 -0.17363196507E+02 -0.33786199282E+02  0.38648826378E+02  0.51100000000E-03 0.  1.
         12    1    3    3    0    0 -0.45814879432E+01  0.12186228477E+02  0.39942271038E+02  0.42010465505E+02  0.00000000000E+00 0. -1.
</event>
<event>
 7    1  0.2468912E-015  0.9000759E+02  0.7816164E-02  0.1186339E+00
        -11   -1    0    0    0    0  0.00000000000E+00  0.00000000000E+00  0.45593999997E+02  0.45594000000E+02  0.51100000000E-03 0.  1.
         11   -1    0    0    0    0 -0.00000000000E+00 -0.00000000000E+00 -0.45593999997E+02  0.45594000000E+02  0.51100000000E-03 0. -1.
    9900012    2    1    2    0    0 -0.95542219324E+00 -0.68335023750E+00  0.11646401544E+00  0.90007592028E+02  0.89999851442E+02 0.  0.
         12    1    1    2    0    0  0.95542219324E+00  0.68335023750E+00 -0.11646401544E+00  0.11804079724E+01  0.00000000000E+00 0. -1.
         11    1    3    3    0    0  0.21683624829E+02 -0.43756818697E+01 -0.27987772912E+02  0.35674102797E+02  0.51100000000E-03 0. -1.
        -11    1    3    3    0    0  0.24730855539E+01 -0.85677773575E+01 -0.56160622967E+01  0.10538648727E+02  0.51100000000E-03 0.  1.
        -12    1    3    3    0    0 -0.25112132576E+02  0.12260108990E+02  0.33720299224E+02  0.43794840504E+02  0.00000000000E+00 0.  1.
</event>
<event>
 7    1  0.2468912E-015  0.9000769E+02  0.7816164E-02  0.1186339E+00
        -11   -1    0    0    0    0  0.00000000000E+00  0.00000000000E+00  0.45593999997E+02  0.45594000000E+02  0.51100000000E-03 0. -1.
         11   -1    0    0    0    0 -0.00000000000E+00 -0.00000000000E+00 -0.45593999997E+02  0.45594000000E+02  0.51100000000E-03 0.  1.
    9900012    2    1    2    0    0  0.87448054701E+00  0.69755918041E+00 -0.37658347483E+00  0.90007694891E+02  0.89999955663E+02 0.  0.
         12    1    1    2    0    0 -0.87448054701E+00 -0.69755918041E+00  0.37658347483E+00  0.11803051092E+01  0.00000000000E+00 0. -1.
         11    1    3    3    0    0 -0.27382617432E+02 -0.26526793218E+02  0.30392407384E+01  0.38245463527E+02  0.51100000000E-03 0. -1.
        -11    1    3    3    0    0 -0.73223307759E+01  0.50769474044E+01  0.29201585743E+01  0.93765265050E+01  0.51100000000E-03 0.  1.
        -12    1    3    3    0    0  0.35579428755E+02  0.22147404994E+02 -0.63359827875E+01  0.42385704859E+02  0.00000000000E+00 0.  1.
</event>
<event>
 7    1  0.2468912E-015  0.9000778E+02  0.7816164E-02  0.1186339E+00
        -11   -1    0    0    0    0  0.00000000000E+00  0.00000000000E+00  0.45593999997E+02  0.45594000000E+02  0.51100000000E-03 0. -1.
         11   -1    0    0    0    0 -0.00000000000E+00 -0.00000000000E+00 -0.45593999997E+02  0.45594000000E+02  0.51100000000E-03 0.  1.
    9900012    2    1    2    0    0  0.50989949137E+00  0.10111539480E+01 -0.33241067103E+00  0.90007776863E+02  0.90000038718E+02 0.  0.
         12    1    1    2    0    0 -0.50989949137E+00 -0.10111539480E+01  0.33241067103E+00  0.11802231366E+01  0.00000000000E+00 0. -1.
         11    1    3    3    0    0  0.97429896794E+01 -0.41820449944E+01  0.67284443512E+00  0.10623938447E+02  0.51100000000E-03 0. -1.
        -11    1    3    3    0    0  0.28484251832E+02  0.23269734086E+02  0.50374733685E+01  0.37124240936E+02  0.51100000000E-03 0.  1.
         12    1    3    3    0    0 -0.37717342020E+02 -0.18076535144E+02 -0.60427284747E+01  0.42259597481E+02  0.00000000000E+00 0. -1.
</event>
<event>
 7    1  0.2468912E-015  0.9000765E+02  0.7816164E-02  0.1186339E+00
        -11   -1    0    0    0    0  0.00000000000E+00  0.00000000000E+00  0.45593999997E+02  0.45594000000E+02  0.51100000000E-03 0. -1.
         11   -1    0    0    0    0 -0.00000000000E+00 -0.00000000000E+00 -0.45593999997E+02  0.45594000000E+02  0.51100000000E-03 0.  1.
    9900012    2    1    2    0    0 -0.10811482784E+01  0.36742920099E+00 -0.29887940024E+00  0.90007654833E+02  0.89999915077E+02 0.  0.
         12    1    1    2    0    0  0.10811482784E+01 -0.36742920099E+00  0.29887940024E+00  0.11803451671E+01  0.00000000000E+00 0. -1.
         11    1    3    3    0    0 -0.24198801439E+02  0.28997314919E+02  0.63872307022E+01  0.38304346750E+02  0.51100000000E-03 0. -1.
        -11    1    3    3    0    0 -0.22795664081E+01  0.41586295635E+01  0.66231527898E+01  0.81459668544E+01  0.51100000000E-03 0.  1.
        -12    1    3    3    0    0  0.25397219569E+02 -0.32788515281E+02 -0.13309262892E+02  0.43557341229E+02  0.00000000000E+00 0.  1.
</event>
<event>
 7    1  0.2468912E-015  0.9000747E+02  0.7816164E-02  0.1186340E+00
        -11   -1    0    0    0    0  0.00000000000E+00  0.00000000000E+00  0.45593999997E+02  0.45594000000E+02  0.51100000000E-03 0. -1.
         11   -1    0    0    0    0 -0.00000000000E+00 -0.00000000000E+00 -0.45593999997E+02  0.45594000000E+02  0.51100000000E-03 0.  1.
    9900012    2    1    2    0    0 -0.11613297058E+01  0.17421053391E+00 -0.12088328191E+00  0.90007470981E+02  0.89999728798E+02 0.  0.
         12    1    1    2    0    0  0.11613297058E+01 -0.17421053391E+00  0.12088328191E+00  0.11805290185E+01  0.00000000000E+00 0. -1.
         11    1    3    3    0    0  0.40206752954E+01 -0.43690152610E+01 -0.71703329698E+01  0.93095541967E+01  0.51100000000E-03 0. -1.
        -11    1    3    3    0    0  0.17875593363E+02  0.22754321720E+02 -0.24260480858E+02  0.37760653156E+02  0.51100000000E-03 0.  1.
         12    1    3    3    0    0 -0.23057598365E+02 -0.18211095925E+02  0.31309930546E+02  0.42937263629E+02  0.00000000000E+00 0. -1.
</event>
<event>
 7    1  0.2468912E-015  0.9000806E+02  0.7816164E-02  0.1186338E+00
        -11   -1    0    0    0    0  0.00000000000E+00  0.00000000000E+00  0.45593999997E+02  0.45594000000E+02  0.51100000000E-03 0.  1.
         11   -1    0    0    0    0 -0.00000000000E+00 -0.00000000000E+00 -0.45593999997E+02  0.45594000000E+02  0.51100000000E-03 0. -1.
    9900012    2    1    2    0    0  0.93602454947E+00  0.51204128053E+00  0.50392429401E+00  0.90008055966E+02  0.90000321504E+02 0.  0.
         12    1    1    2    0    0 -0.93602454947E+00 -0.51204128053E+00 -0.50392429401E+00  0.11799440344E+01  0.00000000000E+00 0. -1.
         11    1    3    3    0    0  0.78691587641E+01  0.37481742845E+01  0.58870223897E+01  0.10518056047E+02  0.51100000000E-03 0. -1.
        -11    1    3    3    0    0  0.28507561941E+02  0.21581978677E+02  0.91677851445E+00  0.35767350678E+02  0.51100000000E-03 0.  1.
         12    1    3    3    0    0 -0.35440696155E+02 -0.24818111681E+02 -0.62998766102E+01  0.43722649241E+02  0.00000000000E+00 0. -1.
</event>
<event>
 7    1  0.2468912E-015  0.9000755E+02  0.7816164E-02  0.1186339E+00
        -11   -1    0    0    0    0  0.00000000000E+00  0.00000000000E+00  0.45593999997E+02  0.45594000000E+02  0.51100000000E-03 0. -1.
         11   -1    0    0    0    0 -0.00000000000E+00 -0.00000000000E+00 -0.45593999997E+02  0.45594000000E+02  0.51100000000E-03 0.  1.
    9900012    2    1    2    0    0  0.56716490067E+00 -0.10162233007E+01  0.19769251134E+00  0.90007547481E+02  0.89999806307E+02 0.  0.
         12    1    1    2    0    0 -0.56716490067E+00  0.10162233007E+01 -0.19769251134E+00  0.11804525194E+01  0.00000000000E+00 0. -1.
         11    1    3    3    0    0 -0.25855535065E+01 -0.37761597654E+01  0.38618942343E+02  0.38889165297E+02  0.51100000000E-03 0. -1.
        -11    1    3    3    0    0 -0.42736928202E+00  0.10314372721E+02  0.14102092657E+01  0.10419098789E+02  0.51100000000E-03 0.  1.
        -12    1    3    3    0    0  0.35800876892E+01 -0.75544362567E+01 -0.39831459098E+02  0.40699283395E+02  0.00000000000E+00 0.  1.
</event>
<event>
 7    1  0.2468912E-015  0.9000762E+02  0.7816164E-02  0.1186339E+00
        -11   -1    0    0    0    0  0.00000000000E+00  0.00000000000E+00  0.45593999997E+02  0.45594000000E+02  0.51100000000E-03 0.  1.
         11   -1    0    0    0    0 -0.00000000000E+00 -0.00000000000E+00 -0.45593999997E+02  0.45594000000E+02  0.51100000000E-03 0. -1.
    9900012    2    1    2    0    0 -0.74957411589E+00  0.37087458801E-01  0.91108149047E+00  0.90007616030E+02  0.89999875761E+02 0.  0.
         12    1    1    2    0    0  0.74957411589E+00 -0.37087458801E-01 -0.91108149047E+00  0.11803839702E+01  0.00000000000E+00 0. -1.
         11    1    3    3    0    0  0.27898928146E+01 -0.37088053347E+02  0.11732377059E+02  0.38999434287E+02  0.51100000000E-03 0. -1.
        -11    1    3    3    0    0  0.20054739421E+01  0.18828936315E+01  0.95415060439E+01  0.99301335342E+01  0.51100000000E-03 0.  1.
        -12    1    3    3    0    0 -0.55449408726E+01  0.35242247174E+02 -0.20362801613E+02  0.41078048209E+02  0.00000000000E+00 0.  1.
</event>
<event>
 7    1  0.2468912E-015  0.9000774E+02  0.7816164E-02  0.1186339E+00
        -11   -1    0    0    0    0  0.00000000000E+00  0.00000000000E+00  0.45593999997E+02  0.45594000000E+02  0.51100000000E-03 0. -1.
         11   -1    0    0    0    0 -0.00000000000E+00 -0.00000000000E+00 -0.45593999997E+02  0.45594000000E+02  0.51100000000E-03 0.  1.
    9900012    2    1    2    0    0 -0.84264478036E+00  0.77047107599E+00 -0.29890152176E+00  0.90007738154E+02  0.89999999498E+02 0.  0.
         12    1    1    2    0    0  0.84264478036E+00 -0.77047107599E+00  0.29890152176E+00  0.11802618457E+01  0.00000000000E+00 0. -1.
         11    1    3    3    0    0 -0.82440462245E+01  0.35492573153E+01  0.13418614705E+01  0.90753577400E+01  0.51100000000E-03 0. -1.
        -11    1    3    3    0    0 -0.17650321443E+02 -0.26586207289E+02 -0.23860632829E+02  0.39845828694E+02  0.51100000000E-03 0.  1.
         12    1    3    3    0    0  0.25051722887E+02  0.23807421050E+02  0.22219869837E+02  0.41086551720E+02  0.00000000000E+00 0. -1.
</event>
<event>
 7    1  0.2468912E-015  0.9000774E+02  0.7816164E-02  0.1186339E+00
        -11   -1    0    0    0    0  0.00000000000E+00  0.00000000000E+00  0.45593999997E+02  0.45594000000E+02  0.51100000000E-03 0.  1.
         11   -1    0    0    0    0 -0.00000000000E+00 -0.00000000000E+00 -0.45593999997E+02  0.45594000000E+02  0.51100000000E-03 0. -1.
    9900012    2    1    2    0    0  0.31676230050E+00  0.81251723424E+00  0.79529736068E+00  0.90007737104E+02  0.89999998434E+02 0.  0.
         12    1    1    2    0    0 -0.31676230050E+00 -0.81251723424E+00 -0.79529736068E+00  0.11802628957E+01  0.00000000000E+00 0. -1.
         11    1    3    3    0    0 -0.24269703917E+02  0.17598539143E+01 -0.30565897927E+02  0.39069038002E+02  0.51100000000E-03 0. -1.
        -11    1    3    3    0    0 -0.43166052079E+01 -0.77054773161E+01  0.17349855708E+01  0.90009797456E+01  0.51100000000E-03 0.  1.
        -12    1    3    3    0    0  0.28903071425E+02  0.67581406361E+01  0.29626209717E+02  0.41937719357E+02  0.00000000000E+00 0.  1.
</event>
<event>
 7    1  0.2468912E-015  0.9000773E+02  0.7816164E-02  0.1186339E+00
        -11   -1    0    0    0    0  0.00000000000E+00  0.00000000000E+00  0.45593999997E+02  0.45594000000E+02  0.51100000000E-03 0.  1.
         11   -1    0    0    0    0 -0.00000000000E+00 -0.00000000000E+00 -0.45593999997E+02  0.45594000000E+02  0.51100000000E-03 0. -1.
    9900012    2    1    2    0    0  0.64171787178E-03  0.40911709711E+00  0.11070969668E+01  0.90007728461E+02  0.89999989677E+02 0.  0.
         12    1    1    2    0    0 -0.64171787178E-03 -0.40911709711E+00 -0.11070969668E+01  0.11802715386E+01  0.00000000000E+00 0. -1.
         11    1    3    3    0    0 -0.33730885447E+02  0.13089879017E+02  0.13373615431E+01  0.36206437299E+02  0.51100000000E-03 0. -1.
        -11    1    3    3    0    0  0.11293244982E+02  0.41485426019E+01 -0.17221599003E+02  0.21007885672E+02  0.51100000000E-03 0.  1.
        -12    1    3    3    0    0  0.22438282183E+02 -0.16829304522E+02  0.16991334427E+02  0.32793405490E+02  0.00000000000E+00 0.  1.
</event>
<event>
 7    1  0.2468912E-015  0.9000748E+02  0.7816164E-02  0.1186340E+00
        -11   -1    0    0    0    0  0.00000000000E+00  0.00000000000E+00  0.45593999997E+02  0.45594000000E+02  0.51100000000E-03 0.  1.
         11   -1    0    0    0    0 -0.00000000000E+00 -0.00000000000E+00 -0.45593999997E+02  0.45594000000E+02  0.51100000000E-03 0. -1.
    9900012    2    1    2    0    0  0.10670863685E+01  0.85386823386E-01  0.49766695388E+00  0.90007476123E+02  0.89999734007E+02 0.  0.
         12    1    1    2    0    0 -0.10670863685E+01 -0.85386823386E-01 -0.49766695388E+00  0.11805238771E+01  0.00000000000E+00 0. -1.
         11    1    3    3    0    0  0.84414747355E+01  0.71311231778E+01  0.12931890193E+01  0.11125814648E+02  0.51100000000E-03 0. -1.
        -11    1    3    3    0    0 -0.10272771149E+02  0.31581559123E+02  0.15755306070E+02  0.36758051817E+02  0.51100000000E-03 0.  1.
         12    1    3    3    0    0  0.28983827821E+01 -0.38627295477E+02 -0.16550828136E+02  0.42123609658E+02  0.00000000000E+00 0. -1.
</event>
<event>
 7    1  0.2468912E-015  0.9000774E+02  0.7816164E-02  0.1186339E+00
        -11   -1    0    0    0    0  0.00000000000E+00  0.00000000000E+00  0.45593999997E+02  0.45594000000E+02  0.51100000000E-03 0.  1.
         11   -1    0    0    0    0 -0.00000000000E+00 -0.00000000000E+00 -0.45593999997E+02  0.45594000000E+02  0.51100000000E-03 0. -1.
    9900012    2    1    2    0    0 -0.11440975562E+01  0.22119478303E+00  0.18745004555E+00  0.90007735678E+02  0.89999996989E+02 0.  0.
         12    1    1    2    0    0  0.11440975562E+01 -0.22119478303E+00 -0.18745004555E+00  0.11802643219E+01  0.00000000000E+00 0. -1.
         11    1    3    3    0    0 -0.22657524003E+02 -0.19315995887E+02 -0.27582480462E+02  0.40586504158E+02  0.51100000000E-03 0. -1.
        -11    1    3    3    0    0  0.66662531893E+01  0.21946345563E+01 -0.56072598663E+01  0.89831350813E+01  0.51100000000E-03 0.  1.
        -12    1    3    3    0    0  0.14847173258E+02  0.17342556114E+02  0.33377190374E+02  0.40438096439E+02  0.00000000000E+00 0.  1.
</event>
<event>
 7    1  0.2468912E-015  0.9000768E+02  0.7816164E-02  0.1186339E+00
        -11   -1    0    0    0    0  0.00000000000E+00  0.00000000000E+00  0.45593999997E+02  0.45594000000E+02  0.51100000000E-03 0. -1.
         11   -1    0    0    0    0 -0.00000000000E+00 -0.00000000000E+00 -0.45593999997E+02  0.45594000000E+02  0.51100000000E-03 0.  1.
    9900012    2    1    2    0    0 -0.42848927066E+00 -0.10366818204E+01 -0.36719804902E+00  0.90007683661E+02  0.89999944286E+02 0.  0.
         12    1    1    2    0    0  0.42848927066E+00  0.10366818204E+01  0.36719804902E+00  0.11803163385E+01  0.00000000000E+00 0. -1.
         11    1    3    3    0    0  0.19519579419E+01  0.81025711928E+01 -0.10088462361E+01  0.83952111784E+01  0.51100000000E-03 0. -1.
        -11    1    3    3    0    0  0.29791777489E+02  0.20644665639E+02 -0.75187339872E+01  0.37017341698E+02  0.51100000000E-03 0.  1.
         12    1    3    3    0    0 -0.32172224702E+02 -0.29783918652E+02  0.81603821743E+01  0.44595130786E+02  0.00000000000E+00 0. -1.
</event>
<event>
 7    1  0.2468912E-015  0.9000706E+02  0.7816164E-02  0.1186340E+00
        -11   -1    0    0    0    0  0.00000000000E+00  0.00000000000E+00  0.45593999997E+02  0.45594000000E+02  0.51100000000E-03 0. -1.
         11   -1    0    0    0    0 -0.00000000000E+00 -0.00000000000E+00 -0.45593999997E+02  0.45594000000E+02  0.51100000000E-03 0.  1.
    9900012    2    1    2    0    0 -0.76673882657E+00 -0.70758531525E+00 -0.55322661516E+00  0.90007057540E+02  0.89999309897E+02 0.  0.
         12    1    1    2    0    0  0.76673882657E+00  0.70758531525E+00  0.55322661516E+00  0.11809424602E+01  0.00000000000E+00 0. -1.
         11    1    3    3    0    0 -0.21998896871E+01  0.13340491862E+02 -0.15894544866E+02  0.20867314022E+02  0.51100000000E-03 0. -1.
        -11    1    3    3    0    0 -0.16847816769E+02  0.92892240272E+01 -0.16708649416E+02  0.25481710666E+02  0.51100000000E-03 0.  1.
         12    1    3    3    0    0  0.18280967630E+02 -0.23337301204E+02  0.32049967667E+02  0.43658032851E+02  0.00000000000E+00 0. -1.
</event>
<event>
 7    1  0.2468912E-015  0.9000777E+02  0.7816164E-02  0.1186339E+00
        -11   -1    0    0    0    0  0.00000000000E+00  0.00000000000E+00  0.45593999997E+02  0.45594000000E+02  0.51100000000E-03 0.  1.
         11   -1    0    0    0    0 -0.00000000000E+00 -0.00000000000E+00 -0.45593999997E+02  0.45594000000E+02  0.51100000000E-03 0. -1.
    9900012    2    1    2    0    0  0.88023368678E+00 -0.53724017715E+00  0.57402087976E+00  0.90007771920E+02  0.90000033709E+02 0.  0.
         12    1    1    2    0    0 -0.88023368678E+00  0.53724017715E+00 -0.57402087976E+00  0.11802280804E+01  0.00000000000E+00 0. -1.
         11    1    3    3    0    0 -0.16559862926E+02 -0.44946528122E+01 -0.39337255782E+02  0.42916787587E+02  0.51100000000E-03 0. -1.
        -11    1    3    3    0    0  0.28223894380E+01  0.70469530918E+01  0.49269450321E+01  0.90498739012E+01  0.51100000000E-03 0.  1.
        -12    1    3    3    0    0  0.14617707175E+02 -0.30895404568E+01  0.34984331630E+02  0.38041110432E+02  0.00000000000E+00 0.  1.
</event>
<event>
 7    1  0.2468912E-015  0.9000777E+02  0.7816164E-02  0.1186339E+00
        -11   -1    0    0    0    0  0.00000000000E+00  0.00000000000E+00  0.45593999997E+02  0.45594000000E+02  0.51100000000E-03 0. -1.
         11   -1    0    0    0    0 -0.00000000000E+00 -0.00000000000E+00 -0.45593999997E+02  0.45594000000E+02  0.51100000000E-03 0.  1.
    9900012    2    1    2    0    0 -0.63178125578E+00  0.62020148720E+00  0.78047881889E+00  0.90007769249E+02  0.90000031003E+02 0.  0.
         12    1    1    2    0    0  0.63178125578E+00 -0.62020148720E+00 -0.78047881889E+00  0.11802307514E+01  0.00000000000E+00 0. -1.
         11    1    3    3    0    0  0.59691668054E+01  0.81998729126E+01 -0.19674930475E+01  0.10331500244E+02  0.51100000000E-03 0. -1.
        -11    1    3    3    0    0  0.33849133003E+01 -0.30609297420E+01 -0.37594942244E+02  0.37870920394E+02  0.51100000000E-03 0.  1.
         12    1    3    3    0    0 -0.99858613615E+01 -0.45187416833E+01  0.40342914110E+02  0.41805348610E+02  0.00000000000E+00 0. -1.
</event>
<event>
 7    1  0.2468912E-015  0.9000780E+02  0.7816164E-02  0.1186339E+00
        -11   -1    0    0    0    0  0.00000000000E+00  0.00000000000E+00  0.45593999997E+02  0.45594000000E+02  0.51100000000E-03 0. -1.
         11   -1    0    0    0    0 -0.00000000000E+00 -0.00000000000E+00 -0.45593999997E+02  0.45594000000E+02  0.51100000000E-03 0.  1.
    9900012    2    1    2    0    0  0.10119175418E+01 -0.57949153387E+00 -0.18190664409E+00  0.90007797654E+02  0.90000059783E+02 0.  0.
         12    1    1    2    0    0 -0.10119175418E+01  0.57949153387E+00  0.18190664409E+00  0.11802023456E+01  0.00000000000E+00 0. -1.
         11    1    3    3    0    0  0.18970880635E+01 -0.72479407149E+00 -0.89918589755E+01  0.92183402879E+01  0.51100000000E-03 0. -1.
        -11    1    3    3    0    0  0.17343887790E+02 -0.12547034500E+02 -0.29534224737E+02  0.36476142196E+02  0.51100000000E-03 0.  1.
         12    1    3    3    0    0 -0.18229058312E+02  0.12692337037E+02  0.38344177068E+02  0.44313315171E+02  0.00000000000E+00 0. -1.
</event>
<event>
 7    1  0.2468912E-015  0.9000773E+02  0.7816164E-02  0.1186339E+00
        -11   -1    0    0    0    0  0.00000000000E+00  0.00000000000E+00  0.45593999997E+02  0.45594000000E+02  0.51100000000E-03 0.  1.
         11   -1    0    0    0    0 -0.00000000000E+00 -0.00000000000E+00 -0.45593999997E+02  0.45594000000E+02  0.51100000000E-03 0. -1.
    9900012    2    1    2    0    0 -0.68800152770E+00 -0.95657672592E+00 -0.68182962151E-01  0.90007731365E+02  0.89999992619E+02 0.  0.
         12    1    1    2    0    0  0.68800152770E+00  0.95657672592E+00  0.68182962151E-01  0.11802686351E+01  0.00000000000E+00 0. -1.
         11    1    3    3    0    0 -0.70438230305E+01 -0.79553178587E+01 -0.17679219829E+02  0.20626617249E+02  0.51100000000E-03 0. -1.
        -11    1    3    3    0    0  0.12368929907E+02 -0.28261184152E+02  0.39897094941E+01  0.31106313488E+02  0.51100000000E-03 0.  1.
         12    1    3    3    0    0 -0.60131084042E+01  0.35259925284E+02  0.13621327373E+02  0.38274800628E+02  0.00000000000E+00 0. -1.
</event>
<event>
 7    1  0.2468912E-015  0.9000789E+02  0.7816164E-02  0.1186339E+00
        -11   -1    0    0    0    0  0.00000000000E+00  0.00000000000E+00  0.45593999997E+02  0.45594000000E+02  0.51100000000E-03 0. -1.
         11   -1    0    0    0    0 -0.00000000000E+00 -0.00000000000E+00 -0.45593999997E+02  0.45594000000E+02  0.51100000000E-03 0.  1.
    9900012    2    1    2    0    0  0.53107616177E+00  0.24647390720E+00  0.10246326718E+01  0.90007888400E+02  0.90000151727E+02 0.  0.
         12    1    1    2    0    0 -0.53107616177E+00 -0.24647390720E+00 -0.10246326718E+01  0.11801116000E+01  0.00000000000E+00 0. -1.
         11    1    3    3    0    0 -0.45604754899E+01  0.36854266693E+01 -0.10316137750E+02  0.11866044192E+02  0.51100000000E-03 0. -1.
        -11    1    3    3    0    0  0.18086915169E+02 -0.17054452797E+02 -0.26218554254E+02  0.36130367393E+02  0.51100000000E-03 0.  1.
         12    1    3    3    0    0 -0.12995363517E+02  0.13615500034E+02  0.37559324676E+02  0.42011476815E+02  0.00000000000E+00 0. -1.
</event>
<event>
 7    1  0.2468912E-015  0.9000795E+02  0.7816164E-02  0.1186339E+00
        -11   -1    0    0    0    0  0.00000000000E+00  0.00000000000E+00  0.45593999997E+02  0.45594000000E+02  0.51100000000E-03 0. -1.
         11   -1    0    0    0    0 -0.00000000000E+00 -0.00000000000E+00 -0.45593999997E+02  0.45594000000E+02  0.51100000000E-03 0.  1.
    9900012    2    1    2    0    0 -0.42136970349E-01 -0.19373660079E+00 -0.11632777868E+01  0.90007947203E+02  0.90000211306E+02 0.  0.
         12    1    1    2    0    0  0.42136970349E-01  0.19373660079E+00  0.11632777868E+01  0.11800527971E+01  0.00000000000E+00 0. -1.
         11    1    3    3    0    0  0.38637098753E+01 -0.38004717092E+02 -0.12863278844E+02  0.40308196662E+02  0.51100000000E-03 0. -1.
        -11    1    3    3    0    0  0.45463471623E+01 -0.97202392118E+00  0.87358179433E+01  0.98958889657E+01  0.51100000000E-03 0.  1.
        -12    1    3    3    0    0 -0.84521940079E+01  0.38783004412E+02  0.29641831141E+01  0.39803861575E+02  0.00000000000E+00 0.  1.
</event>
<event>
 7    1  0.2468912E-015  0.9000783E+02  0.7816164E-02  0.1186339E+00
        -11   -1    0    0    0    0  0.00000000000E+00  0.00000000000E+00  0.45593999997E+02  0.45594000000E+02  0.51100000000E-03 0. -1.
         11   -1    0    0    0    0 -0.00000000000E+00 -0.00000000000E+00 -0.45593999997E+02  0.45594000000E+02  0.51100000000E-03 0.  1.
    9900012    2    1    2    0    0 -0.23254282919E+00 -0.11333120274E+01  0.23310793609E+00  0.90007825594E+02  0.90000088092E+02 0.  0.
         12    1    1    2    0    0  0.23254282919E+00  0.11333120274E+01 -0.23310793609E+00  0.11801744060E+01  0.00000000000E+00 0. -1.
         11    1    3    3    0    0  0.24432547455E+02  0.18579549070E+02  0.30924392623E+02  0.43571402068E+02  0.51100000000E-03 0.  1.
        -11    1    3    3    0    0 -0.12780939761E+02 -0.12167099061E+02 -0.72178026809E+01  0.19065345435E+02  0.51100000000E-03 0. -1.
        -12    1    3    3    0    0 -0.11884150524E+02 -0.75457620361E+01 -0.23473482006E+02  0.27371078091E+02  0.00000000000E+00 0.  1.
</event>
<event>
 7    1  0.2468912E-015  0.9000766E+02  0.7816164E-02  0.1186339E+00
        -11   -1    0    0    0    0  0.00000000000E+00  0.00000000000E+00  0.45593999997E+02  0.45594000000E+02  0.51100000000E-03 0.  1.
         11   -1    0    0    0    0 -0.00000000000E+00 -0.00000000000E+00 -0.45593999997E+02  0.45594000000E+02  0.51100000000E-03 0. -1.
    9900012    2    1    2    0    0 -0.10541454777E+01 -0.22582746429E+00  0.48060163271E+00  0.90007661633E+02  0.89999921966E+02 0.  0.
         12    1    1    2    0    0  0.10541454777E+01  0.22582746429E+00 -0.48060163271E+00  0.11803383673E+01  0.00000000000E+00 0. -1.
         11    1    3    3    0    0  0.10288082676E+02 -0.16367565992E+01 -0.37247432747E+01  0.11063332682E+02  0.51100000000E-03 0. -1.
        -11    1    3    3    0    0 -0.12650834495E+02 -0.51197042117E+01  0.40140517020E+02  0.42397123623E+02  0.51100000000E-03 0.  1.
         12    1    3    3    0    0  0.13086063416E+01  0.65306333466E+01 -0.35935172113E+02  0.36547205327E+02  0.00000000000E+00 0. -1.
</event>
<event>
 7    1  0.2468912E-015  0.9000776E+02  0.7816164E-02  0.1186339E+00
        -11   -1    0    0    0    0  0.00000000000E+00  0.00000000000E+00  0.45593999997E+02  0.45594000000E+02  0.51100000000E-03 0.  1.
         11   -1    0    0    0    0 -0.00000000000E+00 -0.00000000000E+00 -0.45593999997E+02  0.45594000000E+02  0.51100000000E-03 0. -1.
    9900012    2    1    2    0    0  0.47622314338E-01  0.55210232135E+00  0.10420597105E+01  0.90007757102E+02  0.90000018696E+02 0.  0.
         12    1    1    2    0    0 -0.47622314338E-01 -0.55210232135E+00 -0.10420597105E+01  0.11802428980E+01  0.00000000000E+00 0. -1.
         11    1    3    3    0    0 -0.21258781449E+01 -0.78420117530E+01 -0.40936034040E+02  0.41734582655E+02  0.51100000000E-03 0. -1.
        -11    1    3    3    0    0  0.30663533026E+01  0.85513524471E+01  0.34238766735E+01  0.97082996960E+01  0.51100000000E-03 0.  1.
        -12    1    3    3    0    0 -0.89285284332E+00 -0.15723837272E+00  0.38554217077E+02  0.38564874751E+02  0.00000000000E+00 0.  1.
</event>
<event>
 7    1  0.2468912E-015  0.9000764E+02  0.7816164E-02  0.1186339E+00
        -11   -1    0    0    0    0  0.00000000000E+00  0.00000000000E+00  0.45593999997E+02  0.45594000000E+02  0.51100000000E-03 0. -1.
         11   -1    0    0    0    0 -0.00000000000E+00 -0.00000000000E+00 -0.45593999997E+02  0.45594000000E+02  0.51100000000E-03 0.  1.
    9900012    2    1    2    0    0  0.53700806266E+00  0.10211068057E+01 -0.24943481557E+00  0.90007637981E+02  0.89999898003E+02 0.  0.
         12    1    1    2    0    0 -0.53700806266E+00 -0.10211068057E+01  0.24943481557E+00  0.11803620187E+01  0.00000000000E+00 0. -1.
         11    1    3    3    0    0  0.17894872493E+02 -0.19034360168E+02  0.82075718438E+01  0.27384257602E+02  0.51100000000E-03 0. -1.
        -11    1    3    3    0    0  0.11019834278E+02  0.15601227022E+01 -0.23161273528E+02  0.25696601372E+02  0.51100000000E-03 0.  1.
         12    1    3    3    0    0 -0.28377698709E+02  0.18495344272E+02  0.14704266869E+02  0.36926779008E+02  0.00000000000E+00 0. -1.
</event>
<event>
 7    1  0.2468912E-015  0.9000774E+02  0.7816164E-02  0.1186339E+00
        -11   -1    0    0    0    0  0.00000000000E+00  0.00000000000E+00  0.45593999997E+02  0.45594000000E+02  0.51100000000E-03 0. -1.
         11   -1    0    0    0    0 -0.00000000000E+00 -0.00000000000E+00 -0.45593999997E+02  0.45594000000E+02  0.51100000000E-03 0.  1.
    9900012    2    1    2    0    0  0.52511289251E+00  0.95936927189E+00 -0.44372468677E+00  0.90007735391E+02  0.89999996698E+02 0.  0.
         12    1    1    2    0    0 -0.52511289251E+00 -0.95936927189E+00  0.44372468677E+00  0.11802646091E+01  0.00000000000E+00 0. -1.
         11    1    3    3    0    0  0.16275252001E+01 -0.10660495674E+02  0.16825058280E+01  0.10914478110E+02  0.51100000000E-03 0. -1.
        -11    1    3    3    0    0  0.32207628694E+02 -0.14950400201E+02  0.51094935718E+01  0.35874123503E+02  0.51100000000E-03 0.  1.
         12    1    3    3    0    0 -0.33310041002E+02  0.26570265147E+02 -0.72357240865E+01  0.43219133778E+02  0.00000000000E+00 0. -1.
</event>
<event>
 7    1  0.2468912E-015  0.9000758E+02  0.7816164E-02  0.1186339E+00
        -11   -1    0    0    0    0  0.00000000000E+00  0.00000000000E+00  0.45593999997E+02  0.45594000000E+02  0.51100000000E-03 0.  1.
         11   -1    0    0    0    0 -0.00000000000E+00 -0.00000000000E+00 -0.45593999997E+02  0.45594000000E+02  0.51100000000E-03 0. -1.
    9900012    2    1    2    0    0  0.99029588004E+00 -0.74910897771E-01 -0.63803079517E+00  0.90007584451E+02  0.89999843766E+02 0.  0.
         12    1    1    2    0    0 -0.99029588004E+00  0.74910897771E-01  0.63803079517E+00  0.11804155490E+01  0.00000000000E+00 0. -1.
         11    1    3    3    0    0 -0.33207942281E+01 -0.27165626668E+02 -0.20799466813E+02  0.34374652966E+02  0.51100000000E-03 0. -1.
        -11    1    3    3    0    0  0.51354373435E+01 -0.78765616614E+01 -0.66881561954E+01  0.11538820298E+02  0.51100000000E-03 0.  1.
        -12    1    3    3    0    0 -0.82434723542E+00  0.34967277431E+02  0.26849592214E+02  0.44094111187E+02  0.00000000000E+00 0.  1.
</event>
<event>
 7    1  0.2468912E-015  0.9000782E+02  0.7816164E-02  0.1186339E+00
        -11   -1    0    0    0    0  0.00000000000E+00  0.00000000000E+00  0.45593999997E+02  0.45594000000E+02  0.51100000000E-03 0.  1.
         11   -1    0    0    0    0 -0.00000000000E+00 -0.00000000000E+00 -0.45593999997E+02  0.45594000000E+02  0.51100000000E-03 0. -1.
    9900012    2    1    2    0    0  0.11345972879E+01 -0.63981988690E-01 -0.31847020901E+00  0.90007818669E+02  0.90000081075E+02 0.  0.
         12    1    1    2    0    0 -0.11345972879E+01  0.63981988690E-01  0.31847020901E+00  0.11801813312E+01  0.00000000000E+00 0. -1.
         11    1    3    3    0    0 -0.15033283918E+02  0.36984125451E+02 -0.13244961890E+02  0.42062503212E+02  0.51100000000E-03 0. -1.
        -11    1    3    3    0    0  0.10800898062E+02 -0.26181115546E+01  0.11951677435E+01  0.11177760655E+02  0.51100000000E-03 0.  1.
        -12    1    3    3    0    0  0.53669831437E+01 -0.34429995885E+02  0.11731323938E+02  0.36767554801E+02  0.00000000000E+00 0.  1.
</event>
<event>
 7    1  0.2468912E-015  0.9000773E+02  0.7816164E-02  0.1186339E+00
        -11   -1    0    0    0    0  0.00000000000E+00  0.00000000000E+00  0.45593999997E+02  0.45594000000E+02  0.51100000000E-03 0. -1.
         11   -1    0    0    0    0 -0.00000000000E+00 -0.00000000000E+00 -0.45593999997E+02  0.45594000000E+02  0.51100000000E-03 0.  1.
    9900012    2    1    2    0    0  0.97785560145E+00 -0.64359589956E+00  0.15042130937E+00  0.90007727222E+02  0.89999988422E+02 0.  0.
         12    1    1    2    0    0 -0.97785560145E+00  0.64359589956E+00 -0.15042130937E+00  0.11802727776E+01  0.00000000000E+00 0. -1.
         11    1    3    3    0    0  0.73799414161E+01  0.38415332387E+01 -0.50058853378E+01  0.97097786383E+01  0.51100000000E-03 0. -1.
        -11    1    3    3    0    0  0.21052866458E+02 -0.27939686369E+02 -0.15976604319E+02  0.38459084055E+02  0.51100000000E-03 0.  1.
         12    1    3    3    0    0 -0.27454952273E+02  0.23454557231E+02  0.21132910966E+02  0.41838864529E+02  0.00000000000E+00 0. -1.
</event>
<event>
 7    1  0.2468912E-015  0.9000774E+02  0.7816164E-02  0.1186339E+00
        -11   -1    0    0    0    0  0.00000000000E+00  0.00000000000E+00  0.45593999997E+02  0.45594000000E+02  0.51100000000E-03 0. -1.
         11   -1    0    0    0    0 -0.00000000000E+00 -0.00000000000E+00 -0.45593999997E+02  0.45594000000E+02  0.51100000000E-03 0.  1.
    9900012    2    1    2    0    0 -0.86541335713E+00  0.78742079565E+00  0.15503836958E+00  0.90007742111E+02  0.90000003507E+02 0.  0.
         12    1    1    2    0    0  0.86541335713E+00 -0.78742079565E+00 -0.15503836958E+00  0.11802578888E+01  0.00000000000E+00 0. -1.
         11    1    3    3    0    0  0.28656528682E+02  0.10087740843E+02  0.11948789218E+02  0.32645561956E+02  0.51100000000E-03 0. -1.
        -11    1    3    3    0    0 -0.13662880123E+02 -0.10540683674E+02  0.17153814244E+02  0.24331741593E+02  0.51100000000E-03 0.  1.
        -12    1    3    3    0    0 -0.15859061916E+02  0.12403636269E+01 -0.28947565093E+02  0.33030438562E+02  0.00000000000E+00 0.  1.
</event>
<event>
 7    1  0.2468912E-015  0.9000778E+02  0.7816164E-02  0.1186339E+00
        -11   -1    0    0    0    0  0.00000000000E+00  0.00000000000E+00  0.45593999997E+02  0.45594000000E+02  0.51100000000E-03 0. -1.
         11   -1    0    0    0    0 -0.00000000000E+00 -0.00000000000E+00 -0.45593999997E+02  0.45594000000E+02  0.51100000000E-03 0.  1.
    9900012    2    1    2    0    0  0.81477383696E-01  0.57533923726E+00 -0.10272568209E+01  0.90007783758E+02  0.90000045703E+02 0.  0.
         12    1    1    2    0    0 -0.81477383696E-01 -0.57533923726E+00  0.10272568209E+01  0.11802162421E+01  0.00000000000E+00 0. -1.
         11    1    3    3    0    0  0.18528844585E+02  0.22323913272E+02  0.24191521548E+02  0.37774394774E+02  0.51100000000E-03 0. -1.
        -11    1    3    3    0    0  0.25615529300E+01 -0.12660379620E+01  0.76543902650E+01  0.81703179941E+01  0.51100000000E-03 0.  1.
        -12    1    3    3    0    0 -0.21008920132E+02 -0.20482536073E+02 -0.32873168634E+02  0.44063070990E+02  0.00000000000E+00 0.  1.
</event>
<event>
 7    1  0.2468912E-015  0.9000779E+02  0.7816164E-02  0.1186339E+00
        -11   -1    0    0    0    0  0.00000000000E+00  0.00000000000E+00  0.45593999997E+02  0.45594000000E+02  0.51100000000E-03 0.  1.
         11   -1    0    0    0    0 -0.00000000000E+00 -0.00000000000E+00 -0.45593999997E+02  0.45594000000E+02  0.51100000000E-03 0. -1.
    9900012    2    1    2    0    0 -0.28007929310E+00 -0.36480240110E+00  0.10869064683E+01  0.90007792021E+02  0.90000054076E+02 0.  0.
         12    1    1    2    0    0  0.28007929310E+00  0.36480240110E+00 -0.10869064683E+01  0.11802079788E+01  0.00000000000E+00 0. -1.
         11    1    3    3    0    0  0.37268866955E+01  0.61705148738E+01  0.54871924877E+01  0.90594823201E+01  0.51100000000E-03 0. -1.
        -11    1    3    3    0    0 -0.23698350027E+02 -0.15229026988E+02  0.29501332045E+02  0.40790484794E+02  0.51100000000E-03 0.  1.
         12    1    3    3    0    0  0.19691384039E+02  0.86937097132E+01 -0.33901618064E+02  0.40157824908E+02  0.00000000000E+00 0. -1.
</event>
<event>
 7    1  0.2468912E-015  0.9000798E+02  0.7816164E-02  0.1186339E+00
        -11   -1    0    0    0    0  0.00000000000E+00  0.00000000000E+00  0.45593999997E+02  0.45594000000E+02  0.51100000000E-03 0.  1.
         11   -1    0    0    0    0 -0.00000000000E+00 -0.00000000000E+00 -0.45593999997E+02  0.45594000000E+02  0.51100000000E-03 0. -1.
    9900012    2    1    2    0    0 -0.74686914556E+00 -0.24526795317E+00  0.88003900515E+00  0.90007983670E+02  0.90000248254E+02 0.  0.
         12    1    1    2    0    0  0.74686914556E+00  0.24526795317E+00 -0.88003900515E+00  0.11800163304E+01  0.00000000000E+00 0. -1.
         11    1    3    3    0    0  0.78716048721E+01  0.33663421513E+01 -0.24658962545E+01  0.89092686199E+01  0.51100000000E-03 0. -1.
        -11    1    3    3    0    0 -0.49341989029E+01  0.32049490238E+02  0.23429462945E+02  0.40005698063E+02  0.51100000000E-03 0.  1.
         12    1    3    3    0    0 -0.36842751147E+01 -0.35661100343E+02 -0.20083527685E+02  0.41093016987E+02  0.00000000000E+00 0. -1.
</event>
<event>
 7    1  0.2468912E-015  0.9000833E+02  0.7816164E-02  0.1186338E+00
        -11   -1    0    0    0    0  0.00000000000E+00  0.00000000000E+00  0.45593999997E+02  0.45594000000E+02  0.51100000000E-03 0. -1.
         11   -1    0    0    0    0 -0.00000000000E+00 -0.00000000000E+00 -0.45593999997E+02  0.45594000000E+02  0.51100000000E-03 0.  1.
    9900012    2    1    2    0    0 -0.57196072465E+00  0.10088190026E+01 -0.21623246793E+00  0.90008334229E+02  0.90000603439E+02 0.  0.
         12    1    1    2    0    0  0.57196072465E+00 -0.10088190026E+01  0.21623246793E+00  0.11796657708E+01  0.00000000000E+00 0. -1.
         11    1    3    3    0    0 -0.71860179304E+01 -0.38176052200E+01 -0.36149458157E+01  0.89039764613E+01  0.51100000000E-03 0. -1.
        -11    1    3    3    0    0 -0.32612957200E+02  0.10586470774E+02 -0.14963497098E+02  0.37411022259E+02  0.51100000000E-03 0.  1.
         12    1    3    3    0    0  0.39227014406E+02 -0.57600465518E+01  0.18362210445E+02  0.43693335509E+02  0.00000000000E+00 0. -1.
</event>
<event>
 7    1  0.2468912E-015  0.9000765E+02  0.7816164E-02  0.1186339E+00
        -11   -1    0    0    0    0  0.00000000000E+00  0.00000000000E+00  0.45593999997E+02  0.45594000000E+02  0.51100000000E-03 0.  1.
         11   -1    0    0    0    0 -0.00000000000E+00 -0.00000000000E+00 -0.45593999997E+02  0.45594000000E+02  0.51100000000E-03 0. -1.
    9900012    2    1    2    0    0  0.39766319787E+00  0.43359074493E+00 -0.10232777387E+01  0.90007646543E+02  0.89999906677E+02 0.  0.
         12    1    1    2    0    0 -0.39766319787E+00 -0.43359074493E+00  0.10232777387E+01  0.11803534570E+01  0.00000000000E+00 0. -1.
         11    1    3    3    0    0  0.27256829917E+02  0.98874524907E+01 -0.15994387922E+02  0.33113697153E+02  0.51100000000E-03 0. -1.
        -11    1    3    3    0    0  0.45588113423E+01  0.14081393574E+02 -0.21730364611E+00  0.14802554745E+02  0.51100000000E-03 0.  1.
        -12    1    3    3    0    0 -0.31417978062E+02 -0.23535255320E+02  0.15188413830E+02  0.42091394645E+02  0.00000000000E+00 0.  1.
</event>
<event>
 7    1  0.2468912E-015  0.9000757E+02  0.7816164E-02  0.1186339E+00
        -11   -1    0    0    0    0  0.00000000000E+00  0.00000000000E+00  0.45593999997E+02  0.45594000000E+02  0.51100000000E-03 0.  1.
         11   -1    0    0    0    0 -0.00000000000E+00 -0.00000000000E+00 -0.45593999997E+02  0.45594000000E+02  0.51100000000E-03 0. -1.
    9900012    2    1    2    0    0  0.32117834154E+00  0.94812890518E+00 -0.62554131427E+00  0.90007573855E+02  0.89999833030E+02 0.  0.
         12    1    1    2    0    0 -0.32117834154E+00 -0.94812890518E+00  0.62554131427E+00  0.11804261450E+01  0.00000000000E+00 0. -1.
         11    1    3    3    0    0  0.38062862553E+02 -0.73895398384E+01  0.18511805009E+02  0.42965960128E+02  0.51100000000E-03 0. -1.
        -11    1    3    3    0    0 -0.21231831567E+01  0.15802522950E+01 -0.90232315394E+01  0.94033936272E+01  0.51100000000E-03 0.  1.
        -12    1    3    3    0    0 -0.35618501055E+02  0.67574164485E+01 -0.10114114784E+02  0.37638220100E+02  0.00000000000E+00 0.  1.
</event>
<event>
 7    1  0.2468912E-015  0.9000772E+02  0.7816164E-02  0.1186339E+00
        -11   -1    0    0    0    0  0.00000000000E+00  0.00000000000E+00  0.45593999997E+02  0.45594000000E+02  0.51100000000E-03 0.  1.
         11   -1    0    0    0    0 -0.00000000000E+00 -0.00000000000E+00 -0.45593999997E+02  0.45594000000E+02  0.51100000000E-03 0. -1.
    9900012    2    1    2    0    0  0.19873924301E+00  0.37884680993E+00  0.11000129410E+01  0.90007724328E+02  0.89999985489E+02 0.  0.
         12    1    1    2    0    0 -0.19873924301E+00 -0.37884680993E+00 -0.11000129410E+01  0.11802756723E+01  0.00000000000E+00 0. -1.
         11    1    3    3    0    0  0.57513860878E+01  0.12278857597E+02  0.48995397725E+01  0.14417152148E+02  0.51100000000E-03 0. -1.
        -11    1    3    3    0    0  0.23391454943E+02 -0.24996228496E+02  0.16383493495E+02  0.37952476372E+02  0.51100000000E-03 0.  1.
         12    1    3    3    0    0 -0.28944101787E+02  0.13096217710E+02 -0.20183020327E+02  0.37638095808E+02  0.00000000000E+00 0. -1.
</event>
<event>
 7    1  0.2468912E-015  0.9000775E+02  0.7816164E-02  0.1186339E+00
        -11   -1    0    0    0    0  0.00000000000E+00  0.00000000000E+00  0.45593999997E+02  0.45594000000E+02  0.51100000000E-03 0.  1.
         11   -1    0    0    0    0 -0.00000000000E+00 -0.00000000000E+00 -0.45593999997E+02  0.45594000000E+02  0.51100000000E-03 0. -1.
    9900012    2    1    2    0    0 -0.82303031597E+00 -0.28104093791E+00  0.79789521584E+00  0.90007745923E+02  0.90000007370E+02 0.  0.
         12    1    1    2    0    0  0.82303031597E+00  0.28104093791E+00 -0.79789521584E+00  0.11802540766E+01  0.00000000000E+00 0. -1.
         11    1    3    3    0    0  0.82077298309E+01  0.30927485231E+01 -0.19834000714E-02  0.87710846877E+01  0.51100000000E-03 0. -1.
        -11    1    3    3    0    0 -0.43013453017E+01  0.37587245088E+02  0.96948160128E+01  0.39054987165E+02  0.51100000000E-03 0.  1.
         12    1    3    3    0    0 -0.47294148452E+01 -0.40961034549E+02 -0.88949373969E+01  0.42181674070E+02  0.00000000000E+00 0. -1.
</event>
<event>
 7    1  0.2468912E-015  0.9000751E+02  0.7816164E-02  0.1186340E+00
        -11   -1    0    0    0    0  0.00000000000E+00  0.00000000000E+00  0.45593999997E+02  0.45594000000E+02  0.51100000000E-03 0. -1.
         11   -1    0    0    0    0 -0.00000000000E+00 -0.00000000000E+00 -0.45593999997E+02  0.45594000000E+02  0.51100000000E-03 0.  1.
    9900012    2    1    2    0    0  0.32115332751E+00 -0.10266815576E+01 -0.48616237970E+00  0.90007505045E+02  0.89999763311E+02 0.  0.
         12    1    1    2    0    0 -0.32115332751E+00  0.10266815576E+01  0.48616237970E+00  0.11804949555E+01  0.00000000000E+00 0. -1.
         11    1    3    3    0    0  0.56217200400E+01  0.27532418363E+01  0.32913852685E+02  0.33503817330E+02  0.51100000000E-03 0. -1.
        -11    1    3    3    0    0  0.32662664623E+01 -0.64460402330E+01  0.99151429242E+01  0.12269066418E+02  0.51100000000E-03 0.  1.
        -12    1    3    3    0    0 -0.85668331748E+01  0.26661168391E+01 -0.43315157989E+02  0.44234621297E+02  0.00000000000E+00 0.  1.
</event>
<event>
 7    1  0.2468912E-015  0.9000759E+02  0.7816164E-02  0.1186339E+00
        -11   -1    0    0    0    0  0.00000000000E+00  0.00000000000E+00  0.45593999997E+02  0.45594000000E+02  0.51100000000E-03 0.  1.
         11   -1    0    0    0    0 -0.00000000000E+00 -0.00000000000E+00 -0.45593999997E+02  0.45594000000E+02  0.51100000000E-03 0. -1.
    9900012    2    1    2    0    0 -0.11622809006E+01  0.20196963866E+00  0.41042033446E-01  0.90007587752E+02  0.89999847110E+02 0.  0.
         12    1    1    2    0    0  0.11622809006E+01 -0.20196963866E+00 -0.41042033446E-01  0.11804122480E+01  0.00000000000E+00 0. -1.
         11    1    3    3    0    0 -0.42985319082E+00 -0.27397078166E+02 -0.26462494832E+02  0.38092627880E+02  0.51100000000E-03 0. -1.
        -11    1    3    3    0    0 -0.42173589406E+01 -0.78647564577E+01  0.40832139362E+01  0.98139261706E+01  0.51100000000E-03 0.  1.
        -12    1    3    3    0    0  0.34849312309E+01  0.35463804263E+02  0.22420322929E+02  0.42101033701E+02  0.00000000000E+00 0.  1.
</event>
<event>
 7    1  0.2468912E-015  0.9000782E+02  0.7816164E-02  0.1186339E+00
        -11   -1    0    0    0    0  0.00000000000E+00  0.00000000000E+00  0.45593999997E+02  0.45594000000E+02  0.51100000000E-03 0.  1.
         11   -1    0    0    0    0 -0.00000000000E+00 -0.00000000000E+00 -0.45593999997E+02  0.45594000000E+02  0.51100000000E-03 0. -1.
    9900012    2    1    2    0    0 -0.45603101740E+00  0.31527019828E+00  0.10418572405E+01  0.90007819465E+02  0.90000081881E+02 0.  0.
         12    1    1    2    0    0  0.45603101740E+00 -0.31527019828E+00 -0.10418572405E+01  0.11801805354E+01  0.00000000000E+00 0. -1.
         11    1    3    3    0    0 -0.20562461356E+00  0.24295875035E+02 -0.22338730061E+02  0.33005312999E+02  0.51100000000E-03 0. -1.
        -11    1    3    3    0    0 -0.10425796572E+02  0.96792881236E+01 -0.92410382744E+00  0.14256220428E+02  0.51100000000E-03 0.  1.
        -12    1    3    3    0    0  0.10175390169E+02 -0.33659892960E+02  0.24304691129E+02  0.42746286038E+02  0.00000000000E+00 0.  1.
</event>
<event>
 7    1  0.2468912E-015  0.9000759E+02  0.7816164E-02  0.1186339E+00
        -11   -1    0    0    0    0  0.00000000000E+00  0.00000000000E+00  0.45593999997E+02  0.45594000000E+02  0.51100000000E-03 0. -1.
         11   -1    0    0    0    0 -0.00000000000E+00 -0.00000000000E+00 -0.45593999997E+02  0.45594000000E+02  0.51100000000E-03 0.  1.
    9900012    2    1    2    0    0 -0.24346833236E-01 -0.84483453759E+00 -0.82402747019E+00  0.90007593529E+02  0.89999852964E+02 0.  0.
         12    1    1    2    0    0  0.24346833236E-01  0.84483453759E+00  0.82402747019E+00  0.11804064706E+01  0.00000000000E+00 0. -1.
         11    1    3    3    0    0 -0.28409097769E+01  0.81236838762E+01  0.12199880486E+02  0.14929905968E+02  0.51100000000E-03 0. -1.
        -11    1    3    3    0    0 -0.10928989249E+02  0.26921549870E+02 -0.20970372736E+02  0.35832515769E+02  0.51100000000E-03 0.  1.
         12    1    3    3    0    0  0.13745552192E+02 -0.35890068284E+02  0.79464647798E+01  0.39245171792E+02  0.00000000000E+00 0. -1.
</event>
<event>
 7    1  0.2468912E-015  0.9000779E+02  0.7816164E-02  0.1186339E+00
        -11   -1    0    0    0    0  0.00000000000E+00  0.00000000000E+00  0.45593999997E+02  0.45594000000E+02  0.51100000000E-03 0.  1.
         11   -1    0    0    0    0 -0.00000000000E+00 -0.00000000000E+00 -0.45593999997E+02  0.45594000000E+02  0.51100000000E-03 0. -1.
    9900012    2    1    2    0    0  0.98969816930E+00 -0.47896848841E-01  0.64116825940E+00  0.90007790988E+02  0.90000053029E+02 0.  0.
         12    1    1    2    0    0 -0.98969816930E+00  0.47896848841E-01 -0.64116825940E+00  0.11802090117E+01  0.00000000000E+00 0. -1.
         11    1    3    3    0    0  0.33712358626E+02 -0.54220276479E+01  0.17784468267E+02  0.38499465188E+02  0.51100000000E-03 0. -1.
        -11    1    3    3    0    0  0.67214854724E+00  0.27485759107E+01  0.87330036888E+01  0.91799676958E+01  0.51100000000E-03 0.  1.
        -12    1    3    3    0    0 -0.33394809004E+02  0.26255548884E+01 -0.25876303697E+02  0.42328358105E+02  0.00000000000E+00 0.  1.
</event>
<event>
 7    1  0.2955384E-015  0.9000769E+02  0.7816164E-02  0.1186339E+00
        -11   -1    0    0    0    0  0.00000000000E+00  0.00000000000E+00  0.45593999997E+02  0.45594000000E+02  0.51100000000E-03 0.  1.
         11   -1    0    0    0    0 -0.00000000000E+00 -0.00000000000E+00 -0.45593999997E+02  0.45594000000E+02  0.51100000000E-03 0. -1.
    9900012    2    1    2    0    0  0.37333416848E+00  0.75575518605E+00  0.82618342044E+00  0.90007693537E+02  0.89999954292E+02 0.  0.
         12    1    1    2    0    0 -0.37333416848E+00 -0.75575518605E+00 -0.82618342044E+00  0.11803064631E+01  0.00000000000E+00 0. -1.
         11    1    3    3    0    0  0.45761000890E+01  0.32218570689E+02 -0.20744575451E+02  0.38591636402E+02  0.51100000000E-03 0. -1.
        -11    1    3    3    0    0  0.78050512278E+01  0.43249093848E+01  0.42349840121E+01  0.98771835915E+01  0.51100000000E-03 0.  1.
        -12    1    3    3    0    0 -0.12007817148E+02 -0.35787724888E+02  0.17335774859E+02  0.41538873544E+02  0.00000000000E+00 0.  1.
</event>
<event>
 7    1  0.2468912E-015  0.9000793E+02  0.7816164E-02  0.1186339E+00
        -11   -1    0    0    0    0  0.00000000000E+00  0.00000000000E+00  0.45593999997E+02  0.45594000000E+02  0.51100000000E-03 0.  1.
         11   -1    0    0    0    0 -0.00000000000E+00 -0.00000000000E+00 -0.45593999997E+02  0.45594000000E+02  0.51100000000E-03 0. -1.
    9900012    2    1    2    0    0 -0.80276406402E+00 -0.83602623522E+00  0.22178491710E+00  0.90007932816E+02  0.90000196729E+02 0.  0.
         12    1    1    2    0    0  0.80276406402E+00  0.83602623522E+00 -0.22178491710E+00  0.11800671836E+01  0.00000000000E+00 0. -1.
         11    1    3    3    0    0  0.74368588940E+01 -0.50060604556E+01 -0.17695312526E+01  0.91377651868E+01  0.51100000000E-03 0. -1.
        -11    1    3    3    0    0 -0.29408695402E+02 -0.28567509693E+02 -0.48613928560E+01  0.41286887944E+02  0.51100000000E-03 0.  1.
         12    1    3    3    0    0  0.21169072444E+02  0.32737543914E+02  0.68527090257E+01  0.39583279685E+02  0.00000000000E+00 0. -1.
</event>
<event>
 7    1  0.2468912E-015  0.9000792E+02  0.7816164E-02  0.1186339E+00
        -11   -1    0    0    0    0  0.00000000000E+00  0.00000000000E+00  0.45593999997E+02  0.45594000000E+02  0.51100000000E-03 0. -1.
         11   -1    0    0    0    0 -0.00000000000E+00 -0.00000000000E+00 -0.45593999997E+02  0.45594000000E+02  0.51100000000E-03 0.  1.
    9900012    2    1    2    0    0 -0.92854262714E+00  0.71321663284E+00  0.14738931209E+00  0.90007918229E+02  0.90000181950E+02 0.  0.
         12    1    1    2    0    0  0.92854262714E+00 -0.71321663284E+00 -0.14738931209E+00  0.11800817705E+01  0.00000000000E+00 0. -1.
         11    1    3    3    0    0 -0.33583495592E+01 -0.40437335257E+01 -0.10019532845E+02  0.11314651178E+02  0.51100000000E-03 0. -1.
        -11    1    3    3    0    0 -0.30852067314E+02 -0.11412429128E+02 -0.12625562833E+02  0.35234903622E+02  0.51100000000E-03 0.  1.
         12    1    3    3    0    0  0.33281874246E+02  0.16169379287E+02  0.22792484990E+02  0.43458363429E+02  0.00000000000E+00 0. -1.
</event>
<event>
 7    1  0.2468912E-015  0.9000796E+02  0.7816164E-02  0.1186339E+00
        -11   -1    0    0    0    0  0.00000000000E+00  0.00000000000E+00  0.45593999997E+02  0.45594000000E+02  0.51100000000E-03 0.  1.
         11   -1    0    0    0    0 -0.00000000000E+00 -0.00000000000E+00 -0.45593999997E+02  0.45594000000E+02  0.51100000000E-03 0. -1.
    9900012    2    1    2    0    0 -0.41745901724E+00  0.10997405319E+01 -0.93813355626E-01  0.90007956690E+02  0.90000220918E+02 0.  0.
         12    1    1    2    0    0  0.41745901724E+00 -0.10997405319E+01  0.93813355626E-01  0.11800433104E+01  0.00000000000E+00 0. -1.
         11    1    3    3    0    0  0.24350410523E+02 -0.31236617566E+02  0.35383700440E+01  0.39764165180E+02  0.51100000000E-03 0. -1.
        -11    1    3    3    0    0  0.64232814063E+01  0.58386320069E+01  0.20639325201E+01  0.89223307182E+01  0.51100000000E-03 0.  1.
        -12    1    3    3    0    0 -0.31191150947E+02  0.26497726091E+02 -0.56961159197E+01  0.41321460792E+02  0.00000000000E+00 0.  1.
</event>
<event>
 7    1  0.2468912E-015  0.9000774E+02  0.7816164E-02  0.1186339E+00
        -11   -1    0    0    0    0  0.00000000000E+00  0.00000000000E+00  0.45593999997E+02  0.45594000000E+02  0.51100000000E-03 0. -1.
         11   -1    0    0    0    0 -0.00000000000E+00 -0.00000000000E+00 -0.45593999997E+02  0.45594000000E+02  0.51100000000E-03 0.  1.
    9900012    2    1    2    0    0  0.99968726456E+00  0.22916184423E+00 -0.58405169338E+00  0.90007743181E+02  0.90000004591E+02 0.  0.
         12    1    1    2    0    0 -0.99968726456E+00 -0.22916184423E+00  0.58405169338E+00  0.11802568188E+01  0.00000000000E+00 0. -1.
         11    1    3    3    0    0  0.46601666123E+01 -0.22190236208E+02  0.98627960937E+01  0.24726473321E+02  0.51100000000E-03 0. -1.
        -11    1    3    3    0    0  0.15327375007E+01 -0.16500925501E+02 -0.18879181938E+02  0.25120775019E+02  0.51100000000E-03 0.  1.
         12    1    3    3    0    0 -0.51932168485E+01  0.38920323553E+02  0.84323341508E+01  0.40160494842E+02  0.00000000000E+00 0. -1.
</event>
<event>
 7    1  0.2468912E-015  0.9000779E+02  0.7816164E-02  0.1186339E+00
        -11   -1    0    0    0    0  0.00000000000E+00  0.00000000000E+00  0.45593999997E+02  0.45594000000E+02  0.51100000000E-03 0.  1.
         11   -1    0    0    0    0 -0.00000000000E+00 -0.00000000000E+00 -0.45593999997E+02  0.45594000000E+02  0.51100000000E-03 0. -1.
    9900012    2    1    2    0    0 -0.23797271300E+00  0.73140908721E-01  0.11536562421E+01  0.90007786744E+02  0.90000048729E+02 0.  0.
         12    1    1    2    0    0  0.23797271300E+00 -0.73140908721E-01 -0.11536562421E+01  0.11802132560E+01  0.00000000000E+00 0. -1.
         11    1    3    3    0    0 -0.15544132429E+02  0.19449377140E+01 -0.32710554207E+02  0.36268211872E+02  0.51100000000E-03 0. -1.
        -11    1    3    3    0    0 -0.21174955497E+01 -0.55038937108E+01 -0.70087153761E+01  0.91596247122E+01  0.51100000000E-03 0.  1.
        -12    1    3    3    0    0  0.17423655265E+02  0.36320969055E+01  0.40872925825E+02  0.44579950159E+02  0.00000000000E+00 0.  1.
</event>
<event>
 7    1  0.2468912E-015  0.9000778E+02  0.7816164E-02  0.1186339E+00
        -11   -1    0    0    0    0  0.00000000000E+00  0.00000000000E+00  0.45593999997E+02  0.45594000000E+02  0.51100000000E-03 0. -1.
         11   -1    0    0    0    0 -0.00000000000E+00 -0.00000000000E+00 -0.45593999997E+02  0.45594000000E+02  0.51100000000E-03 0.  1.
    9900012    2    1    2    0    0 -0.75175972900E+00 -0.66944460996E+00 -0.61612573439E+00  0.90007784047E+02  0.90000045996E+02 0.  0.
         12    1    1    2    0    0  0.75175972900E+00  0.66944460996E+00  0.61612573439E+00  0.11802159533E+01  0.00000000000E+00 0. -1.
         11    1    3    3    0    0  0.26729350826E+02 -0.19400790941E+02  0.19695608111E+02  0.38454724857E+02  0.51100000000E-03 0. -1.
        -11    1    3    3    0    0  0.73106343457E+01  0.91755505530E+00 -0.72617604433E+01  0.10345068720E+02  0.51100000000E-03 0.  1.
        -12    1    3    3    0    0 -0.34791744900E+02  0.17813791276E+02 -0.13049973402E+02  0.41207990470E+02  0.00000000000E+00 0.  1.
</event>
<event>
 7    1  0.2468912E-015  0.9000780E+02  0.7816164E-02  0.1186339E+00
        -11   -1    0    0    0    0  0.00000000000E+00  0.00000000000E+00  0.45593999997E+02  0.45594000000E+02  0.51100000000E-03 0.  1.
         11   -1    0    0    0    0 -0.00000000000E+00 -0.00000000000E+00 -0.45593999997E+02  0.45594000000E+02  0.51100000000E-03 0. -1.
    9900012    2    1    2    0    0 -0.10357567348E+01 -0.21653973799E+00 -0.52268644939E+00  0.90007795528E+02  0.90000057629E+02 0.  0.
         12    1    1    2    0    0  0.10357567348E+01  0.21653973799E+00  0.52268644939E+00  0.11802044722E+01  0.00000000000E+00 0. -1.
         11    1    3    3    0    0  0.75239565364E+01  0.29183987963E+01 -0.36788968566E+02  0.37663711738E+02  0.51100000000E-03 0. -1.
        -11    1    3    3    0    0  0.36357397607E+01  0.44515796798E+01 -0.56352861212E+01  0.80493238960E+01  0.51100000000E-03 0.  1.
        -12    1    3    3    0    0 -0.12195453032E+02 -0.75865182141E+01  0.41901568238E+02  0.44294759894E+02  0.00000000000E+00 0.  1.
</event>
<event>
 7    1  0.2468912E-015  0.9000780E+02  0.7816164E-02  0.1186339E+00
        -11   -1    0    0    0    0  0.00000000000E+00  0.00000000000E+00  0.45593999997E+02  0.45594000000E+02  0.51100000000E-03 0. -1.
         11   -1    0    0    0    0 -0.00000000000E+00 -0.00000000000E+00 -0.45593999997E+02  0.45594000000E+02  0.51100000000E-03 0.  1.
    9900012    2    1    2    0    0  0.60067406123E+00  0.39899014587E-01 -0.10151251645E+01  0.90007796476E+02  0.90000058589E+02 0.  0.
         12    1    1    2    0    0 -0.60067406123E+00 -0.39899014587E-01  0.10151251645E+01  0.11802035243E+01  0.00000000000E+00 0. -1.
         11    1    3    3    0    0 -0.25293707902E+01  0.84299734149E+01  0.13122208180E+01  0.88985443813E+01  0.51100000000E-03 0. -1.
        -11    1    3    3    0    0 -0.26813238490E+02  0.24601313499E+02 -0.33564270072E+01  0.36543672321E+02  0.51100000000E-03 0.  1.
         12    1    3    3    0    0  0.29943283341E+02 -0.32991387900E+02  0.10290810248E+01  0.44565579773E+02  0.00000000000E+00 0. -1.
</event>
<event>
 7    1  0.2468912E-015  0.9000831E+02  0.7816164E-02  0.1186338E+00
        -11   -1    0    0    0    0  0.00000000000E+00  0.00000000000E+00  0.45593999997E+02  0.45594000000E+02  0.51100000000E-03 0.  1.
         11   -1    0    0    0    0 -0.00000000000E+00 -0.00000000000E+00 -0.45593999997E+02  0.45594000000E+02  0.51100000000E-03 0. -1.
    9900012    2    1    2    0    0 -0.46605819821E+00 -0.10616995555E+01  0.21735491941E+00  0.90008313876E+02  0.90000582817E+02 0.  0.
         12    1    1    2    0    0  0.46605819821E+00  0.10616995555E+01 -0.21735491941E+00  0.11796861240E+01  0.00000000000E+00 0. -1.
         11    1    3    3    0    0  0.16728030180E+01 -0.44248573517E+01 -0.84734113897E+01  0.97044491529E+01  0.51100000000E-03 0. -1.
        -11    1    3    3    0    0 -0.35643484727E+02  0.17839824546E+01  0.24434021084E+02  0.43251150082E+02  0.51100000000E-03 0.  1.
         12    1    3    3    0    0  0.33504623510E+02  0.15791753416E+01 -0.15743254775E+02  0.37052714641E+02  0.00000000000E+00 0. -1.
</event>
<event>
 7    1  0.2468912E-015  0.9000779E+02  0.7816164E-02  0.1186339E+00
        -11   -1    0    0    0    0  0.00000000000E+00  0.00000000000E+00  0.45593999997E+02  0.45594000000E+02  0.51100000000E-03 0. -1.
         11   -1    0    0    0    0 -0.00000000000E+00 -0.00000000000E+00 -0.45593999997E+02  0.45594000000E+02  0.51100000000E-03 0.  1.
    9900012    2    1    2    0    0 -0.16810727074E-01 -0.73410542998E+00 -0.92395472397E+00  0.90007794207E+02  0.90000056290E+02 0.  0.
         12    1    1    2    0    0  0.16810727074E-01  0.73410542998E+00  0.92395472397E+00  0.11802057934E+01  0.00000000000E+00 0. -1.
         11    1    3    3    0    0  0.52372495533E+01 -0.23448068693E+01 -0.85469788432E+01  0.10294549516E+02  0.51100000000E-03 0. -1.
        -11    1    3    3    0    0  0.28302225635E+02  0.11023684127E+02 -0.19026372954E+02  0.35840486264E+02  0.51100000000E-03 0.  1.
         12    1    3    3    0    0 -0.33556285915E+02 -0.94129826874E+01  0.26649397073E+02  0.43872758426E+02  0.00000000000E+00 0. -1.
</event>
<event>
 7    1  0.2468912E-015  0.9000798E+02  0.7816164E-02  0.1186339E+00
        -11   -1    0    0    0    0  0.00000000000E+00  0.00000000000E+00  0.45593999997E+02  0.45594000000E+02  0.51100000000E-03 0.  1.
         11   -1    0    0    0    0 -0.00000000000E+00 -0.00000000000E+00 -0.45593999997E+02  0.45594000000E+02  0.51100000000E-03 0. -1.
    9900012    2    1    2    0    0  0.13312926765E+00  0.93155365261E+00  0.71198418142E+00  0.90007984286E+02  0.90000248879E+02 0.  0.
         12    1    1    2    0    0 -0.13312926765E+00 -0.93155365261E+00 -0.71198418142E+00  0.11800157135E+01  0.00000000000E+00 0. -1.
         11    1    3    3    0    0 -0.17742963605E+02  0.11617646065E+02  0.30661426771E+02  0.37281437063E+02  0.51100000000E-03 0. -1.
        -11    1    3    3    0    0  0.43502065407E+01 -0.68265080769E+01  0.85284124699E+01  0.11758372719E+02  0.51100000000E-03 0.  1.
        -12    1    3    3    0    0  0.13525886332E+02 -0.38595843359E+01 -0.38477855059E+02  0.40968174505E+02  0.00000000000E+00 0.  1.
</event>
<event>
 7    1  0.2468912E-015  0.9000776E+02  0.7816164E-02  0.1186339E+00
        -11   -1    0    0    0    0  0.00000000000E+00  0.00000000000E+00  0.45593999997E+02  0.45594000000E+02  0.51100000000E-03 0.  1.
         11   -1    0    0    0    0 -0.00000000000E+00 -0.00000000000E+00 -0.45593999997E+02  0.45594000000E+02  0.51100000000E-03 0. -1.
    9900012    2    1    2    0    0  0.96645443766E-01 -0.47951969935E+00 -0.10741007353E+01  0.90007757706E+02  0.90000019307E+02 0.  0.
         12    1    1    2    0    0 -0.96645443766E-01  0.47951969935E+00  0.10741007353E+01  0.11802422944E+01  0.00000000000E+00 0. -1.
         11    1    3    3    0    0  0.28603232354E+02 -0.26629196909E+02 -0.12358018942E+02  0.40987554959E+02  0.51100000000E-03 0. -1.
        -11    1    3    3    0    0 -0.58180499639E+01 -0.34087999198E+01 -0.49603876741E+01  0.83710852591E+01  0.51100000000E-03 0.  1.
        -12    1    3    3    0    0 -0.22688536946E+02  0.29558477129E+02  0.16244305881E+02  0.40649117487E+02  0.00000000000E+00 0.  1.
</event>
<event>
 7    1  0.2468912E-015  0.9000773E+02  0.7816164E-02  0.1186339E+00
        -11   -1    0    0    0    0  0.00000000000E+00  0.00000000000E+00  0.45593999997E+02  0.45594000000E+02  0.51100000000E-03 0.  1.
         11   -1    0    0    0    0 -0.00000000000E+00 -0.00000000000E+00 -0.45593999997E+02  0.45594000000E+02  0.51100000000E-03 0. -1.
    9900012    2    1    2    0    0 -0.90764456967E+00 -0.56388699162E+00  0.50125950037E+00  0.90007725332E+02  0.89999986507E+02 0.  0.
         12    1    1    2    0    0  0.90764456967E+00  0.56388699162E+00 -0.50125950037E+00  0.11802746676E+01  0.00000000000E+00 0. -1.
         11    1    3    3    0    0 -0.10351688069E+02  0.77016950817E+01  0.24486404763E-01  0.12902486305E+02  0.51100000000E-03 0. -1.
        -11    1    3    3    0    0 -0.12199466680E+02  0.15842468395E+02  0.28128452392E+02  0.34511166691E+02  0.51100000000E-03 0.  1.
         12    1    3    3    0    0  0.21643510179E+02 -0.24108050468E+02 -0.27651679297E+02  0.42594072336E+02  0.00000000000E+00 0. -1.
</event>
<event>
 7    1  0.2468912E-015  0.9000771E+02  0.7816164E-02  0.1186339E+00
        -11   -1    0    0    0    0  0.00000000000E+00  0.00000000000E+00  0.45593999997E+02  0.45594000000E+02  0.51100000000E-03 0. -1.
         11   -1    0    0    0    0 -0.00000000000E+00 -0.00000000000E+00 -0.45593999997E+02  0.45594000000E+02  0.51100000000E-03 0.  1.
    9900012    2    1    2    0    0 -0.10307106027E+01  0.45326813714E+00 -0.35394331699E+00  0.90007706722E+02  0.89999967651E+02 0.  0.
         12    1    1    2    0    0  0.10307106027E+01 -0.45326813714E+00  0.35394331699E+00  0.11802932781E+01  0.00000000000E+00 0. -1.
         11    1    3    3    0    0 -0.15210494544E+01  0.47772563747E+01  0.83030889216E+01  0.96993327509E+01  0.51100000000E-03 0. -1.
        -11    1    3    3    0    0  0.15722193174E+02  0.34535984628E+02 -0.16208180254E+01  0.37980898406E+02  0.51100000000E-03 0.  1.
         12    1    3    3    0    0 -0.15231854322E+02 -0.38859972866E+02 -0.70362142132E+01  0.42327475565E+02  0.00000000000E+00 0. -1.
</event>
<event>
 7    1  0.2468912E-015  0.9000774E+02  0.7816164E-02  0.1186339E+00
        -11   -1    0    0    0    0  0.00000000000E+00  0.00000000000E+00  0.45593999997E+02  0.45594000000E+02  0.51100000000E-03 0.  1.
         11   -1    0    0    0    0 -0.00000000000E+00 -0.00000000000E+00 -0.45593999997E+02  0.45594000000E+02  0.51100000000E-03 0. -1.
    9900012    2    1    2    0    0  0.77794336714E+00 -0.13700234677E+00  0.87695196120E+00  0.90007741440E+02  0.90000002827E+02 0.  0.
         12    1    1    2    0    0 -0.77794336714E+00  0.13700234677E+00 -0.87695196120E+00  0.11802585597E+01  0.00000000000E+00 0. -1.
         11    1    3    3    0    0 -0.42443054634E+01 -0.14222898254E+01 -0.20561714966E+02  0.21043316274E+02  0.51100000000E-03 0. -1.
        -11    1    3    3    0    0  0.14625256910E+02  0.26383862883E+02  0.28156036027E+02  0.41264618323E+02  0.51100000000E-03 0.  1.
         12    1    3    3    0    0 -0.96030080793E+01 -0.25098575405E+02 -0.67173690998E+01  0.27699806843E+02  0.00000000000E+00 0. -1.
</event>
<event>
 7    1  0.2468912E-015  0.9000769E+02  0.7816164E-02  0.1186339E+00
        -11   -1    0    0    0    0  0.00000000000E+00  0.00000000000E+00  0.45593999997E+02  0.45594000000E+02  0.51100000000E-03 0.  1.
         11   -1    0    0    0    0 -0.00000000000E+00 -0.00000000000E+00 -0.45593999997E+02  0.45594000000E+02  0.51100000000E-03 0. -1.
    9900012    2    1    2    0    0 -0.19615821589E+00 -0.10960226705E+01  0.39163383617E+00  0.90007694615E+02  0.89999955384E+02 0.  0.
         12    1    1    2    0    0  0.19615821589E+00  0.10960226705E+01 -0.39163383617E+00  0.11803053849E+01  0.00000000000E+00 0. -1.
         11    1    3    3    0    0  0.31031092912E+02  0.16867220061E+02 -0.62857539427E+01  0.35873981418E+02  0.51100000000E-03 0. -1.
        -11    1    3    3    0    0  0.76070217431E+01  0.26349250241E+00 -0.56721896279E+01  0.94926257450E+01  0.51100000000E-03 0.  1.
        -12    1    3    3    0    0 -0.38834272871E+02 -0.18226735234E+02  0.12349577407E+02  0.44641087452E+02  0.00000000000E+00 0.  1.
</event>
<event>
 7    1  0.2468912E-015  0.9000764E+02  0.7816164E-02  0.1186339E+00
        -11   -1    0    0    0    0  0.00000000000E+00  0.00000000000E+00  0.45593999997E+02  0.45594000000E+02  0.51100000000E-03 0.  1.
         11   -1    0    0    0    0 -0.00000000000E+00 -0.00000000000E+00 -0.45593999997E+02  0.45594000000E+02  0.51100000000E-03 0. -1.
    9900012    2    1    2    0    0 -0.48936134778E+00 -0.83321349163E+00  0.67788450590E+00  0.90007641303E+02  0.89999901368E+02 0.  0.
         12    1    1    2    0    0  0.48936134778E+00  0.83321349163E+00 -0.67788450590E+00  0.11803586975E+01  0.00000000000E+00 0. -1.
         11    1    3    3    0    0  0.84912068274E+01  0.19914356363E+01  0.68735261326E+01  0.11104583335E+02  0.51100000000E-03 0. -1.
        -11    1    3    3    0    0 -0.18328661697E+01 -0.30760932942E+02  0.22551135477E+02  0.38185705511E+02  0.51100000000E-03 0.  1.
         12    1    3    3    0    0 -0.71477020055E+01  0.27936283814E+02 -0.28746777103E+02  0.40717352457E+02  0.00000000000E+00 0. -1.
</event>
<event>
 7    1  0.2468912E-015  0.9000775E+02  0.7816164E-02  0.1186339E+00
        -11   -1    0    0    0    0  0.00000000000E+00  0.00000000000E+00  0.45593999997E+02  0.45594000000E+02  0.51100000000E-03 0.  1.
         11   -1    0    0    0    0 -0.00000000000E+00 -0.00000000000E+00 -0.45593999997E+02  0.45594000000E+02  0.51100000000E-03 0. -1.
    9900012    2    1    2    0    0 -0.16479818544E+00 -0.10821660498E+01  0.44131434154E+00  0.90007745727E+02  0.90000007170E+02 0.  0.
         12    1    1    2    0    0  0.16479818544E+00  0.10821660498E+01 -0.44131434154E+00  0.11802542731E+01  0.00000000000E+00 0. -1.
         11    1    3    3    0    0 -0.29159310672E+02  0.18936280985E+02  0.12483332115E+02  0.36941598739E+02  0.51100000000E-03 0. -1.
        -11    1    3    3    0    0 -0.37682805730E+01  0.78249022848E+01 -0.21357963272E+01  0.89437497984E+01  0.51100000000E-03 0.  1.
        -12    1    3    3    0    0  0.32762793060E+02 -0.27843349320E+02 -0.99062214466E+01  0.44122397190E+02  0.00000000000E+00 0.  1.
</event>
<event>
 7    1  0.2468912E-015  0.9000771E+02  0.7816164E-02  0.1186339E+00
        -11   -1    0    0    0    0  0.00000000000E+00  0.00000000000E+00  0.45593999997E+02  0.45594000000E+02  0.51100000000E-03 0. -1.
         11   -1    0    0    0    0 -0.00000000000E+00 -0.00000000000E+00 -0.45593999997E+02  0.45594000000E+02  0.51100000000E-03 0.  1.
    9900012    2    1    2    0    0  0.90194058777E+00 -0.59680163825E+00  0.47267767937E+00  0.90007706304E+02  0.89999967228E+02 0.  0.
         12    1    1    2    0    0 -0.90194058777E+00  0.59680163825E+00 -0.47267767937E+00  0.11802936956E+01  0.00000000000E+00 0. -1.
         11    1    3    3    0    0 -0.61880275316E+01 -0.29038282216E+01 -0.80216700505E+01  0.10539027172E+02  0.51100000000E-03 0. -1.
        -11    1    3    3    0    0 -0.74233814905E+01  0.13457827667E+02 -0.31740942709E+02  0.35266232612E+02  0.51100000000E-03 0.  1.
         12    1    3    3    0    0  0.14513349610E+02 -0.11150801084E+02  0.40235290439E+02  0.44202446521E+02  0.00000000000E+00 0. -1.
</event>
<event>
 7    1  0.2468912E-015  0.9000766E+02  0.7816164E-02  0.1186339E+00
        -11   -1    0    0    0    0  0.00000000000E+00  0.00000000000E+00  0.45593999997E+02  0.45594000000E+02  0.51100000000E-03 0.  1.
         11   -1    0    0    0    0 -0.00000000000E+00 -0.00000000000E+00 -0.45593999997E+02  0.45594000000E+02  0.51100000000E-03 0. -1.
    9900012    2    1    2    0    0 -0.78366629689E+00  0.29146465033E+00  0.83313911176E+00  0.90007658826E+02  0.89999919123E+02 0.  0.
         12    1    1    2    0    0  0.78366629689E+00 -0.29146465033E+00 -0.83313911176E+00  0.11803411739E+01  0.00000000000E+00 0. -1.
         11    1    3    3    0    0 -0.27948373395E-01  0.82696648913E+00  0.85227984759E+01  0.85628703603E+01  0.51100000000E-03 0. -1.
        -11    1    3    3    0    0  0.72188562591E+01 -0.25098420398E+02  0.27415627067E+02  0.37863692370E+02  0.51100000000E-03 0.  1.
         12    1    3    3    0    0 -0.79745741826E+01  0.24562918559E+02 -0.35105286431E+02  0.43581096096E+02  0.00000000000E+00 0. -1.
</event>
<event>
 7    1  0.2468912E-015  0.9000776E+02  0.7816164E-02  0.1186339E+00
        -11   -1    0    0    0    0  0.00000000000E+00  0.00000000000E+00  0.45593999997E+02  0.45594000000E+02  0.51100000000E-03 0.  1.
         11   -1    0    0    0    0 -0.00000000000E+00 -0.00000000000E+00 -0.45593999997E+02  0.45594000000E+02  0.51100000000E-03 0. -1.
    9900012    2    1    2    0    0 -0.81964826443E-01  0.79511595210E+00  0.86834927385E+00  0.90007763553E+02  0.90000025232E+02 0.  0.
         12    1    1    2    0    0  0.81964826443E-01 -0.79511595210E+00 -0.86834927385E+00  0.11802364473E+01  0.00000000000E+00 0. -1.
         11    1    3    3    0    0  0.80570169099E+00  0.55790714746E+01  0.79699711969E+01  0.97619483135E+01  0.51100000000E-03 0. -1.
        -11    1    3    3    0    0 -0.28106746682E+02 -0.11757327417E+02  0.23666082378E+02  0.38578587487E+02  0.51100000000E-03 0.  1.
         12    1    3    3    0    0  0.27219080165E+02  0.69733718947E+01 -0.30767704302E+02  0.41667227753E+02  0.00000000000E+00 0. -1.
</event>
<event>
 7    1  0.2468912E-015  0.9000769E+02  0.7816164E-02  0.1186339E+00
        -11   -1    0    0    0    0  0.00000000000E+00  0.00000000000E+00  0.45593999997E+02  0.45594000000E+02  0.51100000000E-03 0. -1.
         11   -1    0    0    0    0 -0.00000000000E+00 -0.00000000000E+00 -0.45593999997E+02  0.45594000000E+02  0.51100000000E-03 0.  1.
    9900012    2    1    2    0    0 -0.98242872640E+00  0.56704840912E+00  0.32622124343E+00  0.90007690549E+02  0.89999951264E+02 0.  0.
         12    1    1    2    0    0  0.98242872640E+00 -0.56704840912E+00 -0.32622124343E+00  0.11803094511E+01  0.00000000000E+00 0. -1.
         11    1    3    3    0    0  0.24031225573E+02  0.27573391362E+01  0.26234586217E+02  0.35684117418E+02  0.51100000000E-03 0. -1.
        -11    1    3    3    0    0  0.49762292059E+01  0.58431827923E+01  0.60458181627E+01  0.97702384705E+01  0.51100000000E-03 0.  1.
        -12    1    3    3    0    0 -0.29989883505E+02 -0.80334735194E+01 -0.31954183136E+02  0.44553334660E+02  0.00000000000E+00 0.  1.
</event>
<event>
 7    1  0.2468912E-015  0.9000781E+02  0.7816164E-02  0.1186339E+00
        -11   -1    0    0    0    0  0.00000000000E+00  0.00000000000E+00  0.45593999997E+02  0.45594000000E+02  0.51100000000E-03 0. -1.
         11   -1    0    0    0    0 -0.00000000000E+00 -0.00000000000E+00 -0.45593999997E+02  0.45594000000E+02  0.51100000000E-03 0.  1.
    9900012    2    1    2    0    0  0.48954284330E+00  0.59315078350E+00 -0.89518963575E+00  0.90007811654E+02  0.90000073968E+02 0.  0.
         12    1    1    2    0    0 -0.48954284330E+00 -0.59315078350E+00  0.89518963575E+00  0.11801883457E+01  0.00000000000E+00 0. -1.
         11    1    3    3    0    0 -0.17386707898E+02  0.30765364995E+02  0.21966656582E+02  0.41609365490E+02  0.51100000000E-03 0. -1.
        -11    1    3    3    0    0 -0.17224200832E+01  0.33415193297E+01 -0.12321042521E+01  0.39560793120E+01  0.51100000000E-03 0.  1.
        -12    1    3    3    0    0  0.19598670824E+02 -0.33513733541E+02 -0.21629741966E+02  0.44442366853E+02  0.00000000000E+00 0.  1.
</event>
<event>
 7    1  0.2468912E-015  0.9000770E+02  0.7816164E-02  0.1186339E+00
        -11   -1    0    0    0    0  0.00000000000E+00  0.00000000000E+00  0.45593999997E+02  0.45594000000E+02  0.51100000000E-03 0.  1.
         11   -1    0    0    0    0 -0.00000000000E+00 -0.00000000000E+00 -0.45593999997E+02  0.45594000000E+02  0.51100000000E-03 0. -1.
    9900012    2    1    2    0    0  0.78950702399E+00 -0.72035861604E+00  0.50086090830E+00  0.90007703628E+02  0.89999964516E+02 0.  0.
         12    1    1    2    0    0 -0.78950702399E+00  0.72035861604E+00 -0.50086090830E+00  0.11802963721E+01  0.00000000000E+00 0. -1.
         11    1    3    3    0    0 -0.34022444088E+02 -0.11860457143E+02 -0.25672263298E+01  0.36121846528E+02  0.51100000000E-03 0. -1.
        -11    1    3    3    0    0 -0.79619244103E+01 -0.15469511760E+01  0.44447970812E+01  0.92488658554E+01  0.51100000000E-03 0.  1.
        -12    1    3    3    0    0  0.42773875522E+02  0.12687049703E+02 -0.13767098431E+01  0.44636991244E+02  0.00000000000E+00 0.  1.
</event>
<event>
 7    1  0.2468912E-015  0.9000772E+02  0.7816164E-02  0.1186339E+00
        -11   -1    0    0    0    0  0.00000000000E+00  0.00000000000E+00  0.45593999997E+02  0.45594000000E+02  0.51100000000E-03 0. -1.
         11   -1    0    0    0    0 -0.00000000000E+00 -0.00000000000E+00 -0.45593999997E+02  0.45594000000E+02  0.51100000000E-03 0.  1.
    9900012    2    1    2    0    0  0.11720679255E+01  0.13407133912E+00 -0.36734810125E-01  0.90007717071E+02  0.89999978136E+02 0.  0.
         12    1    1    2    0    0 -0.11720679255E+01 -0.13407133912E+00  0.36734810125E-01  0.11802829289E+01  0.00000000000E+00 0. -1.
         11    1    3    3    0    0 -0.10194261972E+01  0.78494261907E+01 -0.67631698758E+01  0.10411204941E+02  0.51100000000E-03 0. -1.
        -11    1    3    3    0    0 -0.17520696465E+02 -0.67842438693E+01 -0.31442254475E+02  0.36628078522E+02  0.51100000000E-03 0.  1.
         12    1    3    3    0    0  0.19712190587E+02 -0.93111098224E+00  0.38168689541E+02  0.42968433608E+02  0.00000000000E+00 0. -1.
</event>
<event>
 7    1  0.2468912E-015  0.9000775E+02  0.7816164E-02  0.1186339E+00
        -11   -1    0    0    0    0  0.00000000000E+00  0.00000000000E+00  0.45593999997E+02  0.45594000000E+02  0.51100000000E-03 0.  1.
         11   -1    0    0    0    0 -0.00000000000E+00 -0.00000000000E+00 -0.45593999997E+02  0.45594000000E+02  0.51100000000E-03 0. -1.
    9900012    2    1    2    0    0  0.18045319557E+00 -0.32981680109E+00  0.11187710356E+01  0.90007749557E+02  0.90000011051E+02 0.  0.
         12    1    1    2    0    0 -0.18045319557E+00  0.32981680109E+00 -0.11187710356E+01  0.11802504430E+01  0.00000000000E+00 0. -1.
         11    1    3    3    0    0  0.28052144878E+02  0.22754499296E+02 -0.15817380610E+02  0.39431961656E+02  0.51100000000E-03 0. -1.
        -11    1    3    3    0    0 -0.11897930549E+02  0.62022888095E+01  0.93799034021E+01  0.16371063677E+02  0.51100000000E-03 0.  1.
        -12    1    3    3    0    0 -0.15973761133E+02 -0.29286604906E+02  0.75562482436E+01  0.34204724223E+02  0.00000000000E+00 0.  1.
</event>
<event>
 7    1  0.2930364E-015  0.9000769E+02  0.7816164E-02  0.1186339E+00
        -11   -1    0    0    0    0  0.00000000000E+00  0.00000000000E+00  0.45593999997E+02  0.45594000000E+02  0.51100000000E-03 0.  1.
         11   -1    0    0    0    0 -0.00000000000E+00 -0.00000000000E+00 -0.45593999997E+02  0.45594000000E+02  0.51100000000E-03 0. -1.
    9900012    2    1    2    0    0 -0.85173403279E+00 -0.12718259282E+00  0.80715975312E+00  0.90007689388E+02  0.89999950088E+02 0.  0.
         12    1    1    2    0    0  0.85173403279E+00  0.12718259282E+00 -0.80715975312E+00  0.11803106123E+01  0.00000000000E+00 0. -1.
         11    1    3    3    0    0  0.13408366312E+02  0.76887348531E+01 -0.35097464579E+02  0.38350136257E+02  0.51100000000E-03 0. -1.
        -11    1    3    3    0    0  0.80790156325E+01 -0.54971572024E+01  0.56890951138E+00  0.97884058554E+01  0.51100000000E-03 0.  1.
        -12    1    3    3    0    0 -0.22339115977E+02 -0.23187602436E+01  0.35335714821E+02  0.41869147275E+02  0.00000000000E+00 0.  1.
</event>
<event>
 7    1  0.2468912E-015  0.9000783E+02  0.7816164E-02  0.1186339E+00
        -11   -1    0    0    0    0  0.00000000000E+00  0.00000000000E+00  0.45593999997E+02  0.45594000000E+02  0.51100000000E-03 0.  1.
         11   -1    0    0    0    0 -0.00000000000E+00 -0.00000000000E+00 -0.45593999997E+02  0.45594000000E+02  0.51100000000E-03 0. -1.
    9900012    2    1    2    0    0  0.64683744043E+00 -0.39249298758E+00 -0.90573573886E+00  0.90007827704E+02  0.90000090230E+02 0.  0.
         12    1    1    2    0    0 -0.64683744043E+00  0.39249298758E+00  0.90573573886E+00  0.11801722960E+01  0.00000000000E+00 0. -1.
         11    1    3    3    0    0 -0.19937774668E+02  0.84219035221E+01 -0.26351859544E+02  0.34100789131E+02  0.51100000000E-03 0. -1.
        -11    1    3    3    0    0 -0.13405442604E+02 -0.28118912735E+01  0.12484198098E+01  0.13753951295E+02  0.51100000000E-03 0.  1.
        -12    1    3    3    0    0  0.33990054712E+02 -0.60025052362E+01  0.24197703996E+02  0.42153087278E+02  0.00000000000E+00 0.  1.
</event>
<event>
 7    1  0.2913240E-015  0.9000804E+02  0.7816164E-02  0.1186338E+00
        -11   -1    0    0    0    0  0.00000000000E+00  0.00000000000E+00  0.45593999997E+02  0.45594000000E+02  0.51100000000E-03 0. -1.
         11   -1    0    0    0    0 -0.00000000000E+00 -0.00000000000E+00 -0.45593999997E+02  0.45594000000E+02  0.51100000000E-03 0.  1.
    9900012    2    1    2    0    0 -0.76683272377E+00 -0.48689739605E+00 -0.75313549417E+00  0.90008036198E+02  0.90000301476E+02 0.  0.
         12    1    1    2    0    0  0.76683272377E+00  0.48689739605E+00  0.75313549417E+00  0.11799638016E+01  0.00000000000E+00 0. -1.
         11    1    3    3    0    0 -0.14075567863E+02  0.22201380524E+02  0.24406167328E+02  0.35870376521E+02  0.51100000000E-03 0. -1.
        -11    1    3    3    0    0 -0.36594419383E+01  0.67920520504E+01  0.45656544177E+01  0.89648584416E+01  0.51100000000E-03 0.  1.
        -12    1    3    3    0    0  0.16968177078E+02 -0.29480329971E+02 -0.29724957240E+02  0.45172801235E+02  0.00000000000E+00 0.  1.
</event>
<event>
 7    1  0.2468912E-015  0.9000779E+02  0.7816164E-02  0.1186339E+00
        -11   -1    0    0    0    0  0.00000000000E+00  0.00000000000E+00  0.45593999997E+02  0.45594000000E+02  0.51100000000E-03 0.  1.
         11   -1    0    0    0    0 -0.00000000000E+00 -0.00000000000E+00 -0.45593999997E+02  0.45594000000E+02  0.51100000000E-03 0. -1.
    9900012    2    1    2    0    0 -0.93523969648E+00 -0.39929417995E+00 -0.59898974394E+00  0.90007789067E+02  0.90000051083E+02 0.  0.
         12    1    1    2    0    0  0.93523969648E+00  0.39929417995E+00  0.59898974394E+00  0.11802109326E+01  0.00000000000E+00 0. -1.
         11    1    3    3    0    0 -0.50852397554E+01  0.40098650985E+01 -0.47115620344E+01  0.80085890482E+01  0.51100000000E-03 0. -1.
        -11    1    3    3    0    0 -0.17950864120E+02  0.32894542947E+02  0.84780746403E+01  0.38420856683E+02  0.51100000000E-03 0.  1.
         12    1    3    3    0    0  0.22100864179E+02 -0.37303702226E+02 -0.43655023499E+01  0.43578343337E+02  0.00000000000E+00 0. -1.
</event>
<event>
 7    1  0.2468912E-015  0.9000779E+02  0.7816164E-02  0.1186339E+00
        -11   -1    0    0    0    0  0.00000000000E+00  0.00000000000E+00  0.45593999997E+02  0.45594000000E+02  0.51100000000E-03 0. -1.
         11   -1    0    0    0    0 -0.00000000000E+00 -0.00000000000E+00 -0.45593999997E+02  0.45594000000E+02  0.51100000000E-03 0.  1.
    9900012    2    1    2    0    0  0.10870487764E+01  0.39278400607E+00 -0.23860094899E+00  0.90007794624E+02  0.90000056713E+02 0.  0.
         12    1    1    2    0    0 -0.10870487764E+01 -0.39278400607E+00  0.23860094899E+00  0.11802053764E+01  0.00000000000E+00 0. -1.
         11    1    3    3    0    0  0.10402438825E+02  0.39266225066E+01  0.31441748858E+02  0.33349852613E+02  0.51100000000E-03 0. -1.
        -11    1    3    3    0    0  0.48204542815E+01 -0.71525735774E+01  0.95815565966E+01  0.12891947694E+02  0.51100000000E-03 0.  1.
        -12    1    3    3    0    0 -0.14135844330E+02  0.36187350768E+01 -0.41261906403E+02  0.43765994317E+02  0.00000000000E+00 0.  1.
</event>
<event>
 7    1  0.2468912E-015  0.9000774E+02  0.7816164E-02  0.1186339E+00
        -11   -1    0    0    0    0  0.00000000000E+00  0.00000000000E+00  0.45593999997E+02  0.45594000000E+02  0.51100000000E-03 0. -1.
         11   -1    0    0    0    0 -0.00000000000E+00 -0.00000000000E+00 -0.45593999997E+02  0.45594000000E+02  0.51100000000E-03 0.  1.
    9900012    2    1    2    0    0 -0.68421364517E+00 -0.96128364791E+00 -0.28346007655E-01  0.90007738139E+02  0.89999999483E+02 0.  0.
         12    1    1    2    0    0  0.68421364517E+00  0.96128364791E+00  0.28346007655E-01  0.11802618608E+01  0.00000000000E+00 0. -1.
         11    1    3    3    0    0  0.15760105820E+01  0.61227332737E+01 -0.71611806581E+01  0.95527054165E+01  0.51100000000E-03 0. -1.
        -11    1    3    3    0    0 -0.66944088211E+01  0.20920944992E+02 -0.27820915240E+02  0.35447205445E+02  0.51100000000E-03 0.  1.
         12    1    3    3    0    0  0.44341845939E+01 -0.28004961913E+02  0.34953749891E+02  0.45007827277E+02  0.00000000000E+00 0. -1.
</event>
<event>
 7    1  0.2468912E-015  0.9000772E+02  0.7816164E-02  0.1186339E+00
        -11   -1    0    0    0    0  0.00000000000E+00  0.00000000000E+00  0.45593999997E+02  0.45594000000E+02  0.51100000000E-03 0.  1.
         11   -1    0    0    0    0 -0.00000000000E+00 -0.00000000000E+00 -0.45593999997E+02  0.45594000000E+02  0.51100000000E-03 0. -1.
    9900012    2    1    2    0    0  0.26870746691E+00 -0.33313119992E+00  0.10999446886E+01  0.90007721043E+02  0.89999982160E+02 0.  0.
         12    1    1    2    0    0 -0.26870746691E+00  0.33313119992E+00 -0.10999446886E+01  0.11802789573E+01  0.00000000000E+00 0. -1.
         11    1    3    3    0    0 -0.60718142734E+01 -0.13359322549E+02 -0.32650921321E+02  0.35796942480E+02  0.51100000000E-03 0. -1.
        -11    1    3    3    0    0  0.13562752047E+01 -0.40274395384E+01 -0.78768014595E+01  0.89500700086E+01  0.51100000000E-03 0.  1.
        -12    1    3    3    0    0  0.49842465357E+01  0.17053630887E+02  0.41627667469E+02  0.45260708555E+02  0.00000000000E+00 0.  1.
</event>
<event>
 7    1  0.2468912E-015  0.9000778E+02  0.7816164E-02  0.1186339E+00
        -11   -1    0    0    0    0  0.00000000000E+00  0.00000000000E+00  0.45593999997E+02  0.45594000000E+02  0.51100000000E-03 0.  1.
         11   -1    0    0    0    0 -0.00000000000E+00 -0.00000000000E+00 -0.45593999997E+02  0.45594000000E+02  0.51100000000E-03 0. -1.
    9900012    2    1    2    0    0 -0.10692650326E-01  0.11793529340E+01 -0.44067657018E-01  0.90007775600E+02  0.90000037438E+02 0.  0.
         12    1    1    2    0    0  0.10692650326E-01 -0.11793529340E+01  0.44067657018E-01  0.11802243999E+01  0.00000000000E+00 0. -1.
         11    1    3    3    0    0 -0.40545850396E+02  0.42328183435E+01 -0.42595774578E+01  0.40988129206E+02  0.51100000000E-03 0. -1.
        -11    1    3    3    0    0  0.51896160701E+01  0.53225729834E+01 -0.77850148131E+01  0.10764216368E+02  0.51100000000E-03 0.  1.
        -12    1    3    3    0    0  0.35345541675E+02 -0.83760383929E+01  0.12000524614E+02  0.38255430026E+02  0.00000000000E+00 0.  1.
</event>
<event>
 7    1  0.2468912E-015  0.9000779E+02  0.7816164E-02  0.1186339E+00
        -11   -1    0    0    0    0  0.00000000000E+00  0.00000000000E+00  0.45593999997E+02  0.45594000000E+02  0.51100000000E-03 0. -1.
         11   -1    0    0    0    0 -0.00000000000E+00 -0.00000000000E+00 -0.45593999997E+02  0.45594000000E+02  0.51100000000E-03 0.  1.
    9900012    2    1    2    0    0  0.30229061089E+00 -0.30764417535E+00 -0.10985815194E+01  0.90007785652E+02  0.90000047623E+02 0.  0.
         12    1    1    2    0    0 -0.30229061089E+00  0.30764417535E+00  0.10985815194E+01  0.11802143478E+01  0.00000000000E+00 0. -1.
         11    1    3    3    0    0  0.89642956232E+01  0.35672866245E+01  0.32364354243E+02  0.33771815997E+02  0.51100000000E-03 0. -1.
        -11    1    3    3    0    0  0.59850050840E+01  0.35464046169E+01  0.86118465062E+01  0.11070734938E+02  0.51100000000E-03 0.  1.
        -12    1    3    3    0    0 -0.14647010096E+02 -0.74213354167E+01 -0.42074782269E+02  0.45165234717E+02  0.00000000000E+00 0.  1.
</event>
<event>
 7    1  0.2468912E-015  0.9000828E+02  0.7816164E-02  0.1186338E+00
        -11   -1    0    0    0    0  0.00000000000E+00  0.00000000000E+00  0.45593999997E+02  0.45594000000E+02  0.51100000000E-03 0. -1.
         11   -1    0    0    0    0 -0.00000000000E+00 -0.00000000000E+00 -0.45593999997E+02  0.45594000000E+02  0.51100000000E-03 0.  1.
    9900012    2    1    2    0    0  0.25704115216E+00 -0.11485347690E+01 -0.80818979254E-01  0.90008282247E+02  0.90000550771E+02 0.  0.
         12    1    1    2    0    0 -0.25704115216E+00  0.11485347690E+01  0.80818979254E-01  0.11797177531E+01  0.00000000000E+00 0. -1.
         11    1    3    3    0    0 -0.76480346210E+01  0.26991489953E+02  0.29299277326E+01  0.28206691409E+02  0.51100000000E-03 0. -1.
        -11    1    3    3    0    0 -0.73475598196E+01  0.75189241778E+01 -0.17487096864E+02  0.20403906810E+02  0.51100000000E-03 0.  1.
         12    1    3    3    0    0  0.15252635593E+02 -0.35658948900E+02  0.14476350152E+02  0.41397684028E+02  0.00000000000E+00 0. -1.
</event>
<event>
 7    1  0.2468912E-015  0.9000761E+02  0.7816164E-02  0.1186339E+00
        -11   -1    0    0    0    0  0.00000000000E+00  0.00000000000E+00  0.45593999997E+02  0.45594000000E+02  0.51100000000E-03 0. -1.
         11   -1    0    0    0    0 -0.00000000000E+00 -0.00000000000E+00 -0.45593999997E+02  0.45594000000E+02  0.51100000000E-03 0.  1.
    9900012    2    1    2    0    0  0.20589413745E+00  0.11573222078E+01 -0.10734342482E+00  0.90007614597E+02  0.89999874310E+02 0.  0.
         12    1    1    2    0    0 -0.20589413745E+00 -0.11573222078E+01  0.10734342482E+00  0.11803854029E+01  0.00000000000E+00 0. -1.
         11    1    3    3    0    0 -0.14413161298E+02 -0.61095837026E+01 -0.12277012262E+02  0.19894503310E+02  0.51100000000E-03 0. -1.
        -11    1    3    3    0    0 -0.26204611471E+02  0.10188677578E+02  0.45363626110E+01  0.28479280172E+02  0.51100000000E-03 0.  1.
         12    1    3    3    0    0  0.40823666906E+02 -0.29217716679E+01  0.76333062266E+01  0.41633831115E+02  0.00000000000E+00 0. -1.
</event>
<event>
 7    1  0.2468912E-015  0.9000774E+02  0.7816164E-02  0.1186339E+00
        -11   -1    0    0    0    0  0.00000000000E+00  0.00000000000E+00  0.45593999997E+02  0.45594000000E+02  0.51100000000E-03 0.  1.
         11   -1    0    0    0    0 -0.00000000000E+00 -0.00000000000E+00 -0.45593999997E+02  0.45594000000E+02  0.51100000000E-03 0. -1.
    9900012    2    1    2    0    0 -0.10631241922E+01  0.50867298078E+00  0.63467793943E-01  0.90007741804E+02  0.90000003195E+02 0.  0.
         12    1    1    2    0    0  0.10631241922E+01 -0.50867298078E+00 -0.63467793943E-01  0.11802581965E+01  0.00000000000E+00 0. -1.
         11    1    3    3    0    0  0.18176566083E+02 -0.12200959834E+02 -0.31093349352E+02  0.38026929269E+02  0.51100000000E-03 0. -1.
        -11    1    3    3    0    0  0.97390643478E+01  0.17185219656E+01  0.36495762744E+01  0.10541446739E+02  0.51100000000E-03 0.  1.
        -12    1    3    3    0    0 -0.28978754623E+02  0.10991110849E+02  0.27507240871E+02  0.41439365796E+02  0.00000000000E+00 0.  1.
</event>
<event>
 7    1  0.2468912E-015  0.9000775E+02  0.7816164E-02  0.1186339E+00
        -11   -1    0    0    0    0  0.00000000000E+00  0.00000000000E+00  0.45593999997E+02  0.45594000000E+02  0.51100000000E-03 0. -1.
         11   -1    0    0    0    0 -0.00000000000E+00 -0.00000000000E+00 -0.45593999997E+02  0.45594000000E+02  0.51100000000E-03 0.  1.
    9900012    2    1    2    0    0  0.99444357538E+00 -0.10480478893E+00 -0.62696754826E+00  0.90007749868E+02  0.90000011366E+02 0.  0.
         12    1    1    2    0    0 -0.99444357538E+00  0.10480478893E+00  0.62696754826E+00  0.11802501324E+01  0.00000000000E+00 0. -1.
         11    1    3    3    0    0 -0.24119857223E+02  0.26529859641E+02  0.50592194260E+01  0.36210449686E+02  0.51100000000E-03 0. -1.
        -11    1    3    3    0    0 -0.10505278308E+01  0.73796036088E+01  0.57177335768E+01  0.93943938422E+01  0.51100000000E-03 0.  1.
        -12    1    3    3    0    0  0.26164828629E+02 -0.34014268039E+02 -0.11403920551E+02  0.44402906339E+02  0.00000000000E+00 0.  1.
</event>
<event>
 7    1  0.2468912E-015  0.9000773E+02  0.7816164E-02  0.1186339E+00
        -11   -1    0    0    0    0  0.00000000000E+00  0.00000000000E+00  0.45593999997E+02  0.45594000000E+02  0.51100000000E-03 0. -1.
         11   -1    0    0    0    0 -0.00000000000E+00 -0.00000000000E+00 -0.45593999997E+02  0.45594000000E+02  0.51100000000E-03 0.  1.
    9900012    2    1    2    0    0 -0.11466565481E+01 -0.14833078775E+00 -0.23708327681E+00  0.90007732343E+02  0.89999993610E+02 0.  0.
         12    1    1    2    0    0  0.11466565481E+01  0.14833078775E+00  0.23708327681E+00  0.11802676570E+01  0.00000000000E+00 0. -1.
         11    1    3    3    0    0  0.13410046558E+02  0.67606187941E+01  0.69097006999E+01  0.16531160855E+02  0.51100000000E-03 0. -1.
        -11    1    3    3    0    0 -0.70609713143E+01  0.32132248339E+02 -0.74027078794E+01  0.33721488452E+02  0.51100000000E-03 0.  1.
         12    1    3    3    0    0 -0.74957317923E+01 -0.39041197921E+02  0.25592390267E+00  0.39755083036E+02  0.00000000000E+00 0. -1.
</event>
<event>
 7    1  0.2468912E-015  0.9000769E+02  0.7816164E-02  0.1186339E+00
        -11   -1    0    0    0    0  0.00000000000E+00  0.00000000000E+00  0.45593999997E+02  0.45594000000E+02  0.51100000000E-03 0. -1.
         11   -1    0    0    0    0 -0.00000000000E+00 -0.00000000000E+00 -0.45593999997E+02  0.45594000000E+02  0.51100000000E-03 0.  1.
    9900012    2    1    2    0    0  0.37966779627E+00 -0.56174072615E+00 -0.96614178651E+00  0.90007690621E+02  0.89999951337E+02 0.  0.
         12    1    1    2    0    0 -0.37966779627E+00  0.56174072615E+00  0.96614178651E+00  0.11803093792E+01  0.00000000000E+00 0. -1.
         11    1    3    3    0    0 -0.16526491871E+01 -0.27939785362E+02 -0.51499985773E+01  0.28458484518E+02  0.51100000000E-03 0. -1.
        -11    1    3    3    0    0 -0.15242920151E+01 -0.16412535436E+02  0.60922631397E+01  0.17573003614E+02  0.51100000000E-03 0.  1.
        -12    1    3    3    0    0  0.35566089984E+01  0.43790580072E+02 -0.19084063489E+01  0.43976202490E+02  0.00000000000E+00 0.  1.
</event>
<event>
 7    1  0.2468912E-015  0.9000775E+02  0.7816164E-02  0.1186339E+00
        -11   -1    0    0    0    0  0.00000000000E+00  0.00000000000E+00  0.45593999997E+02  0.45594000000E+02  0.51100000000E-03 0.  1.
         11   -1    0    0    0    0 -0.00000000000E+00 -0.00000000000E+00 -0.45593999997E+02  0.45594000000E+02  0.51100000000E-03 0. -1.
    9900012    2    1    2    0    0  0.32858045927E+00  0.11297414732E+01  0.93286856263E-01  0.90007752843E+02  0.90000014380E+02 0.  0.
         12    1    1    2    0    0 -0.32858045927E+00 -0.11297414732E+01 -0.93286856263E-01  0.11802471572E+01  0.00000000000E+00 0. -1.
         11    1    3    3    0    0 -0.90967577930E+01 -0.36758506743E+01 -0.38082584547E+02  0.39326150670E+02  0.51100000000E-03 0. -1.
        -11    1    3    3    0    0 -0.16073308591E+01 -0.11380573220E+02  0.58820661655E+01  0.12911222326E+02  0.51100000000E-03 0.  1.
        -12    1    3    3    0    0  0.11032669111E+02  0.16186165368E+02  0.32293805238E+02  0.37770379847E+02  0.00000000000E+00 0.  1.
</event>
<event>
 7    1  0.2468912E-015  0.9000750E+02  0.7816164E-02  0.1186340E+00
        -11   -1    0    0    0    0  0.00000000000E+00  0.00000000000E+00  0.45593999997E+02  0.45594000000E+02  0.51100000000E-03 0. -1.
         11   -1    0    0    0    0 -0.00000000000E+00 -0.00000000000E+00 -0.45593999997E+02  0.45594000000E+02  0.51100000000E-03 0.  1.
    9900012    2    1    2    0    0  0.48602391739E+00 -0.17653548524E+00 -0.10612202114E+01  0.90007503341E+02  0.89999761584E+02 0.  0.
         12    1    1    2    0    0 -0.48602391739E+00  0.17653548524E+00  0.10612202114E+01  0.11804966595E+01  0.00000000000E+00 0. -1.
         11    1    3    3    0    0 -0.82913528079E+01  0.74779134310E+00 -0.37677812300E+01  0.91379373459E+01  0.51100000000E-03 0. -1.
        -11    1    3    3    0    0 -0.18568209220E+02 -0.93184568463E+01 -0.30586988451E+02  0.36975341708E+02  0.51100000000E-03 0.  1.
         12    1    3    3    0    0  0.27345585946E+02  0.83941300180E+01  0.33293549470E+02  0.43894224287E+02  0.00000000000E+00 0. -1.
</event>
<event>
 7    1  0.2468912E-015  0.9000769E+02  0.7816164E-02  0.1186339E+00
        -11   -1    0    0    0    0  0.00000000000E+00  0.00000000000E+00  0.45593999997E+02  0.45594000000E+02  0.51100000000E-03 0.  1.
         11   -1    0    0    0    0 -0.00000000000E+00 -0.00000000000E+00 -0.45593999997E+02  0.45594000000E+02  0.51100000000E-03 0. -1.
    9900012    2    1    2    0    0  0.92493849744E+00  0.70813798628E+00 -0.19018601921E+00  0.90007685909E+02  0.89999946563E+02 0.  0.
         12    1    1    2    0    0 -0.92493849744E+00 -0.70813798628E+00  0.19018601921E+00  0.11803140911E+01  0.00000000000E+00 0. -1.
         11    1    3    3    0    0 -0.31073060972E+02  0.22598655878E+02  0.74610943047E+01  0.39139523428E+02  0.51100000000E-03 0. -1.
        -11    1    3    3    0    0 -0.51411805288E+01 -0.92137400736E+01  0.12599841517E+01  0.10626020125E+02  0.51100000000E-03 0.  1.
        -12    1    3    3    0    0  0.37139179999E+02 -0.12676777818E+02 -0.89112644756E+01  0.40242142356E+02  0.00000000000E+00 0.  1.
</event>
<event>
 7    1  0.2468912E-015  0.9000775E+02  0.7816164E-02  0.1186339E+00
        -11   -1    0    0    0    0  0.00000000000E+00  0.00000000000E+00  0.45593999997E+02  0.45594000000E+02  0.51100000000E-03 0.  1.
         11   -1    0    0    0    0 -0.00000000000E+00 -0.00000000000E+00 -0.45593999997E+02  0.45594000000E+02  0.51100000000E-03 0. -1.
    9900012    2    1    2    0    0  0.21009016753E+00 -0.94967048898E+00  0.66856045324E+00  0.90007752146E+02  0.90000013675E+02 0.  0.
         12    1    1    2    0    0 -0.21009016753E+00  0.94967048898E+00 -0.66856045324E+00  0.11802478535E+01  0.00000000000E+00 0. -1.
         11    1    3    3    0    0  0.71308848059E+01  0.92208707116E+01  0.49510235794E+01  0.12664383504E+02  0.51100000000E-03 0. -1.
        -11    1    3    3    0    0  0.11682073206E+02  0.20637403986E+02  0.22338410434E+02  0.32578794616E+02  0.51100000000E-03 0.  1.
         12    1    3    3    0    0 -0.18602867844E+02 -0.30807945186E+02 -0.26620873561E+02  0.44764574026E+02  0.00000000000E+00 0. -1.
</event>
<event>
 7    1  0.2468912E-015  0.9000781E+02  0.7816164E-02  0.1186339E+00
        -11   -1    0    0    0    0  0.00000000000E+00  0.00000000000E+00  0.45593999997E+02  0.45594000000E+02  0.51100000000E-03 0.  1.
         11   -1    0    0    0    0 -0.00000000000E+00 -0.00000000000E+00 -0.45593999997E+02  0.45594000000E+02  0.51100000000E-03 0. -1.
    9900012    2    1    2    0    0  0.16525618307E-01  0.10381270452E+01  0.56113799994E+00  0.90007806493E+02  0.90000068739E+02 0.  0.
         12    1    1    2    0    0 -0.16525618307E-01 -0.10381270452E+01 -0.56113799994E+00  0.11801935066E+01  0.00000000000E+00 0. -1.
         11    1    3    3    0    0  0.35087169977E+02 -0.84286724868E+01  0.16867940991E+02  0.39833145124E+02  0.51100000000E-03 0. -1.
        -11    1    3    3    0    0  0.41848141192E+01  0.34871585659E+01 -0.78841404218E+01  0.95829335032E+01  0.51100000000E-03 0.  1.
        -12    1    3    3    0    0 -0.39255458478E+02  0.59796409660E+01 -0.84226625693E+01  0.40591727866E+02  0.00000000000E+00 0.  1.
</event>
<event>
 7    1  0.2468912E-015  0.9000788E+02  0.7816164E-02  0.1186339E+00
        -11   -1    0    0    0    0  0.00000000000E+00  0.00000000000E+00  0.45593999997E+02  0.45594000000E+02  0.51100000000E-03 0.  1.
         11   -1    0    0    0    0 -0.00000000000E+00 -0.00000000000E+00 -0.45593999997E+02  0.45594000000E+02  0.51100000000E-03 0. -1.
    9900012    2    1    2    0    0  0.21313800867E+00 -0.81835056510E+00  0.82314106491E+00  0.90007878536E+02  0.90000141732E+02 0.  0.
         12    1    1    2    0    0 -0.21313800867E+00  0.81835056510E+00 -0.82314106491E+00  0.11801214645E+01  0.00000000000E+00 0. -1.
         11    1    3    3    0    0  0.86403945372E+01 -0.12521517142E+02  0.14342860363E+02  0.20908430189E+02  0.51100000000E-03 0. -1.
        -11    1    3    3    0    0 -0.14496691652E+02 -0.13972445010E+02  0.18684387865E+02  0.27467974781E+02  0.51100000000E-03 0.  1.
         12    1    3    3    0    0  0.60694351239E+01  0.25675611587E+02 -0.32204107163E+02  0.41631473566E+02  0.00000000000E+00 0. -1.
</event>
<event>
 7    1  0.2468912E-015  0.9000776E+02  0.7816164E-02  0.1186339E+00
        -11   -1    0    0    0    0  0.00000000000E+00  0.00000000000E+00  0.45593999997E+02  0.45594000000E+02  0.51100000000E-03 0. -1.
         11   -1    0    0    0    0 -0.00000000000E+00 -0.00000000000E+00 -0.45593999997E+02  0.45594000000E+02  0.51100000000E-03 0.  1.
    9900012    2    1    2    0    0  0.67333707412E-01 -0.17706118776E+00 -0.11649414024E+01  0.90007757244E+02  0.90000018840E+02 0.  0.
         12    1    1    2    0    0 -0.67333707412E-01  0.17706118776E+00  0.11649414024E+01  0.11802427561E+01  0.00000000000E+00 0. -1.
         11    1    3    3    0    0 -0.12364273304E+02  0.14146193661E+02  0.32217503331E+02  0.37295543575E+02  0.51100000000E-03 0. -1.
        -11    1    3    3    0    0 -0.67832615575E+01 -0.92333294902E+01  0.24678871002E+01  0.11719960658E+02  0.51100000000E-03 0.  1.
        -12    1    3    3    0    0  0.19214868569E+02 -0.50899253587E+01 -0.35850331834E+02  0.40992253010E+02  0.00000000000E+00 0.  1.
</event>
<event>
 7    1  0.2468912E-015  0.9000767E+02  0.7816164E-02  0.1186339E+00
        -11   -1    0    0    0    0  0.00000000000E+00  0.00000000000E+00  0.45593999997E+02  0.45594000000E+02  0.51100000000E-03 0. -1.
         11   -1    0    0    0    0 -0.00000000000E+00 -0.00000000000E+00 -0.45593999997E+02  0.45594000000E+02  0.51100000000E-03 0.  1.
    9900012    2    1    2    0    0  0.55485464082E+00  0.64010491852E+00 -0.82193674668E+00  0.90007670387E+02  0.89999930836E+02 0.  0.
         12    1    1    2    0    0 -0.55485464082E+00 -0.64010491852E+00  0.82193674668E+00  0.11803296127E+01  0.00000000000E+00 0. -1.
         11    1    3    3    0    0  0.10175488180E+01 -0.12187113233E+01 -0.93031430765E+01  0.94376445286E+01  0.51100000000E-03 0. -1.
        -11    1    3    3    0    0  0.26218028635E+02 -0.18275766332E+02 -0.19102269560E+02  0.37232853277E+02  0.51100000000E-03 0.  1.
         12    1    3    3    0    0 -0.26680722812E+02  0.20134582574E+02  0.27583475889E+02  0.43337172582E+02  0.00000000000E+00 0. -1.
</event>
<event>
 7    1  0.2468912E-015  0.9000775E+02  0.7816164E-02  0.1186339E+00
        -11   -1    0    0    0    0  0.00000000000E+00  0.00000000000E+00  0.45593999997E+02  0.45594000000E+02  0.51100000000E-03 0. -1.
         11   -1    0    0    0    0 -0.00000000000E+00 -0.00000000000E+00 -0.45593999997E+02  0.45594000000E+02  0.51100000000E-03 0.  1.
    9900012    2    1    2    0    0  0.78498849980E+00  0.79403358094E+00  0.38247304958E+00  0.90007753455E+02  0.90000015001E+02 0.  0.
         12    1    1    2    0    0 -0.78498849980E+00 -0.79403358094E+00 -0.38247304958E+00  0.11802465446E+01  0.00000000000E+00 0. -1.
         11    1    3    3    0    0 -0.63299118398E+01 -0.86322489294E+01  0.26361742361E+01  0.11024197038E+02  0.51100000000E-03 0. -1.
        -11    1    3    3    0    0 -0.26307339370E+02 -0.10157995902E+02  0.19754180441E+02  0.34430925498E+02  0.51100000000E-03 0.  1.
         12    1    3    3    0    0  0.33422239710E+02  0.19584278412E+02 -0.22007881627E+02  0.44552630919E+02  0.00000000000E+00 0. -1.
</event>
<event>
 7    1  0.2468912E-015  0.9000752E+02  0.7816164E-02  0.1186339E+00
        -11   -1    0    0    0    0  0.00000000000E+00  0.00000000000E+00  0.45593999997E+02  0.45594000000E+02  0.51100000000E-03 0.  1.
         11   -1    0    0    0    0 -0.00000000000E+00 -0.00000000000E+00 -0.45593999997E+02  0.45594000000E+02  0.51100000000E-03 0. -1.
    9900012    2    1    2    0    0  0.12320833090E+00 -0.55405590307E+00 -0.10350701501E+01  0.90007521939E+02  0.89999780429E+02 0.  0.
         12    1    1    2    0    0 -0.12320833090E+00  0.55405590307E+00  0.10350701501E+01  0.11804780608E+01  0.00000000000E+00 0. -1.
         11    1    3    3    0    0  0.10428783542E+02  0.90896733930E+01 -0.79115221189E+00  0.13856681083E+02  0.51100000000E-03 0. -1.
        -11    1    3    3    0    0  0.27540751353E+01 -0.18990276465E+02 -0.33846600694E+02  0.38907684444E+02  0.51100000000E-03 0.  1.
         12    1    3    3    0    0 -0.13059650346E+02  0.93465471685E+01  0.33602682755E+02  0.37243156412E+02  0.00000000000E+00 0. -1.
</event>
<event>
 7    1  0.2468912E-015  0.9000777E+02  0.7816164E-02  0.1186339E+00
        -11   -1    0    0    0    0  0.00000000000E+00  0.00000000000E+00  0.45593999997E+02  0.45594000000E+02  0.51100000000E-03 0. -1.
         11   -1    0    0    0    0 -0.00000000000E+00 -0.00000000000E+00 -0.45593999997E+02  0.45594000000E+02  0.51100000000E-03 0.  1.
    9900012    2    1    2    0    0 -0.91721523221E+00 -0.56413637108E+00  0.48313447231E+00  0.90007765894E+02  0.90000027603E+02 0.  0.
         12    1    1    2    0    0  0.91721523221E+00  0.56413637108E+00 -0.48313447231E+00  0.11802341063E+01  0.00000000000E+00 0. -1.
         11    1    3    3    0    0  0.30537025836E+02  0.19245263632E+02  0.98536315879E+01  0.37416362395E+02  0.51100000000E-03 0. -1.
        -11    1    3    3    0    0 -0.20747422920E+01  0.97487568015E+01 -0.31585001275E+01  0.10455569715E+02  0.51100000000E-03 0.  1.
        -12    1    3    3    0    0 -0.29379498776E+02 -0.29558156805E+02 -0.62119969881E+01  0.42135833783E+02  0.00000000000E+00 0.  1.
</event>
<event>
 7    1  0.2468912E-015  0.9000774E+02  0.7816164E-02  0.1186339E+00
        -11   -1    0    0    0    0  0.00000000000E+00  0.00000000000E+00  0.45593999997E+02  0.45594000000E+02  0.51100000000E-03 0.  1.
         11   -1    0    0    0    0 -0.00000000000E+00 -0.00000000000E+00 -0.45593999997E+02  0.45594000000E+02  0.51100000000E-03 0. -1.
    9900012    2    1    2    0    0  0.69689607272E+00 -0.14546523551E+00  0.94137587495E+00  0.90007740364E+02  0.90000001737E+02 0.  0.
         12    1    1    2    0    0 -0.69689607272E+00  0.14546523551E+00 -0.94137587495E+00  0.11802596362E+01  0.00000000000E+00 0. -1.
         11    1    3    3    0    0  0.79921686663E+01 -0.55115072855E+00 -0.35193969019E+02  0.36094237528E+02  0.51100000000E-03 0. -1.
        -11    1    3    3    0    0 -0.79419486842E+01 -0.12188371847E+01 -0.70520534861E+01  0.10690723625E+02  0.51100000000E-03 0.  1.
        -12    1    3    3    0    0  0.64667609052E+00  0.16245226777E+01  0.43187398380E+02  0.43222779211E+02  0.00000000000E+00 0.  1.
</event>
<event>
 7    1  0.2468912E-015  0.9000669E+02  0.7816164E-02  0.1186341E+00
        -11   -1    0    0    0    0  0.00000000000E+00  0.00000000000E+00  0.45593999997E+02  0.45594000000E+02  0.51100000000E-03 0.  1.
         11   -1    0    0    0    0 -0.00000000000E+00 -0.00000000000E+00 -0.45593999997E+02  0.45594000000E+02  0.51100000000E-03 0. -1.
    9900012    2    1    2    0    0  0.47505611762E+00  0.79047683449E+00 -0.73820715617E+00  0.90006694897E+02  0.89998942464E+02 0.  0.
         12    1    1    2    0    0 -0.47505611762E+00 -0.79047683449E+00  0.73820715617E+00  0.11813051029E+01  0.00000000000E+00 0. -1.
         11    1    3    3    0    0 -0.43802381241E+01  0.82998827780E+01 -0.14434554084E+01  0.94951621329E+01  0.51100000000E-03 0. -1.
        -11    1    3    3    0    0 -0.30172392010E+02  0.10724921488E+02  0.18735931904E+02  0.37100300877E+02  0.51100000000E-03 0.  1.
         12    1    3    3    0    0  0.35027686252E+02 -0.18234327431E+02 -0.18030683652E+02  0.43411231888E+02  0.00000000000E+00 0. -1.
</event>
<event>
 7    1  0.2468912E-015  0.9000787E+02  0.7816164E-02  0.1186339E+00
        -11   -1    0    0    0    0  0.00000000000E+00  0.00000000000E+00  0.45593999997E+02  0.45594000000E+02  0.51100000000E-03 0. -1.
         11   -1    0    0    0    0 -0.00000000000E+00 -0.00000000000E+00 -0.45593999997E+02  0.45594000000E+02  0.51100000000E-03 0.  1.
    9900012    2    1    2    0    0  0.68002075122E+00 -0.90243666549E+00  0.34041642292E+00  0.90007871406E+02  0.90000134508E+02 0.  0.
         12    1    1    2    0    0 -0.68002075122E+00  0.90243666549E+00 -0.34041642292E+00  0.11801285940E+01  0.00000000000E+00 0. -1.
         11    1    3    3    0    0 -0.25308399458E+02 -0.14099596140E+02  0.21364089966E+02  0.35996361410E+02  0.51100000000E-03 0. -1.
        -11    1    3    3    0    0 -0.37333290820E+00 -0.10282471807E+02  0.36764592490E+01  0.10926342333E+02  0.51100000000E-03 0.  1.
        -12    1    3    3    0    0  0.26361753117E+02  0.23479631282E+02 -0.24700132792E+02  0.43085167662E+02  0.00000000000E+00 0.  1.
</event>
<event>
 7    1  0.2493232E-015  0.9000774E+02  0.7816164E-02  0.1186339E+00
        -11   -1    0    0    0    0  0.00000000000E+00  0.00000000000E+00  0.45593999997E+02  0.45594000000E+02  0.51100000000E-03 0.  1.
         11   -1    0    0    0    0 -0.00000000000E+00 -0.00000000000E+00 -0.45593999997E+02  0.45594000000E+02  0.51100000000E-03 0. -1.
    9900012    2    1    2    0    0 -0.45767346919E+00  0.19002981219E+00  0.10711857629E+01  0.90007739320E+02  0.90000000679E+02 0.  0.
         12    1    1    2    0    0  0.45767346919E+00 -0.19002981219E+00 -0.10711857629E+01  0.11802606799E+01  0.00000000000E+00 0. -1.
         11    1    3    3    0    0 -0.24731694394E+02 -0.24675016662E+02 -0.22759325455E+02  0.41695324082E+02  0.51100000000E-03 0. -1.
        -11    1    3    3    0    0  0.21996041315E+01 -0.30890534387E+01  0.89309898738E+01  0.97027362053E+01  0.51100000000E-03 0.  1.
        -12    1    3    3    0    0  0.22074416794E+02  0.27954099913E+02  0.14899521344E+02  0.38609679033E+02  0.00000000000E+00 0.  1.
</event>
<event>
 7    1  0.2468912E-015  0.9000763E+02  0.7816164E-02  0.1186339E+00
        -11   -1    0    0    0    0  0.00000000000E+00  0.00000000000E+00  0.45593999997E+02  0.45594000000E+02  0.51100000000E-03 0.  1.
         11   -1    0    0    0    0 -0.00000000000E+00 -0.00000000000E+00 -0.45593999997E+02  0.45594000000E+02  0.51100000000E-03 0. -1.
    9900012    2    1    2    0    0  0.10226695619E+01  0.36235903464E+00 -0.46489182844E+00  0.90007626536E+02  0.89999886406E+02 0.  0.
         12    1    1    2    0    0 -0.10226695619E+01 -0.36235903464E+00  0.46489182844E+00  0.11803734642E+01  0.00000000000E+00 0. -1.
         11    1    3    3    0    0 -0.50813239713E+01 -0.66830417323E+01 -0.36205449982E+02  0.37166080083E+02  0.51100000000E-03 0. -1.
        -11    1    3    3    0    0 -0.89535265763E+01 -0.11093840348E+02  0.76827276772E+01  0.16194543422E+02  0.51100000000E-03 0.  1.
        -12    1    3    3    0    0  0.15057520109E+02  0.18139241115E+02  0.28057830476E+02  0.36647003031E+02  0.00000000000E+00 0.  1.
</event>
<event>
 7    1  0.2468912E-015  0.9000777E+02  0.7816164E-02  0.1186339E+00
        -11   -1    0    0    0    0  0.00000000000E+00  0.00000000000E+00  0.45593999997E+02  0.45594000000E+02  0.51100000000E-03 0. -1.
         11   -1    0    0    0    0 -0.00000000000E+00 -0.00000000000E+00 -0.45593999997E+02  0.45594000000E+02  0.51100000000E-03 0.  1.
    9900012    2    1    2    0    0 -0.59338432971E+00 -0.95872727762E+00 -0.34883777360E+00  0.90007766655E+02  0.90000028375E+02 0.  0.
         12    1    1    2    0    0  0.59338432971E+00  0.95872727762E+00  0.34883777360E+00  0.11802333447E+01  0.00000000000E+00 0. -1.
         11    1    3    3    0    0 -0.98058093684E+00 -0.86929788880E+01  0.21526325806E+01  0.90090647800E+01  0.51100000000E-03 0. -1.
        -11    1    3    3    0    0  0.10572012421E+01 -0.13291151019E+02 -0.37702720750E+02  0.39990842978E+02  0.51100000000E-03 0.  1.
         12    1    3    3    0    0 -0.67000463500E+00  0.21025402630E+02  0.35201250395E+02  0.41007858898E+02  0.00000000000E+00 0. -1.
</event>
<event>
 7    1  0.2468912E-015  0.9000781E+02  0.7816164E-02  0.1186339E+00
        -11   -1    0    0    0    0  0.00000000000E+00  0.00000000000E+00  0.45593999997E+02  0.45594000000E+02  0.51100000000E-03 0. -1.
         11   -1    0    0    0    0 -0.00000000000E+00 -0.00000000000E+00 -0.45593999997E+02  0.45594000000E+02  0.51100000000E-03 0.  1.
    9900012    2    1    2    0    0  0.10343669941E+00  0.61068551687E-01 -0.11740608017E+01  0.90007810488E+02  0.90000072786E+02 0.  0.
         12    1    1    2    0    0 -0.10343669941E+00 -0.61068551687E-01  0.11740608017E+01  0.11801895123E+01  0.00000000000E+00 0. -1.
         11    1    3    3    0    0 -0.37287740911E+01 -0.21587840962E+01 -0.79424669829E+01  0.90358667007E+01  0.51100000000E-03 0. -1.
        -11    1    3    3    0    0 -0.72776994487E+01  0.34650170025E+02 -0.16981630556E+02  0.39267989109E+02  0.51100000000E-03 0.  1.
         12    1    3    3    0    0  0.11109910239E+02 -0.32430317378E+02  0.23750036738E+02  0.41703954678E+02  0.00000000000E+00 0. -1.
</event>
<event>
 7    1  0.2468912E-015  0.9000778E+02  0.7816164E-02  0.1186339E+00
        -11   -1    0    0    0    0  0.00000000000E+00  0.00000000000E+00  0.45593999997E+02  0.45594000000E+02  0.51100000000E-03 0.  1.
         11   -1    0    0    0    0 -0.00000000000E+00 -0.00000000000E+00 -0.45593999997E+02  0.45594000000E+02  0.51100000000E-03 0. -1.
    9900012    2    1    2    0    0 -0.95026705864E+00  0.56793655138E+00  0.40909936457E+00  0.90007778962E+02  0.90000040844E+02 0.  0.
         12    1    1    2    0    0  0.95026705864E+00 -0.56793655138E+00 -0.40909936457E+00  0.11802210383E+01  0.00000000000E+00 0. -1.
         11    1    3    3    0    0 -0.68210128623E+01 -0.36072563752E+02  0.80109807120E+01  0.37575682088E+02  0.51100000000E-03 0. -1.
        -11    1    3    3    0    0  0.61435646256E+01 -0.62517897087E+01 -0.31265339120E+01  0.93060988301E+01  0.51100000000E-03 0.  1.
        -12    1    3    3    0    0 -0.27281882200E+00  0.42892290012E+02 -0.44753474354E+01  0.43125998044E+02  0.00000000000E+00 0.  1.
</event>
<event>
 7    1  0.2468912E-015  0.9000776E+02  0.7816164E-02  0.1186339E+00
        -11   -1    0    0    0    0  0.00000000000E+00  0.00000000000E+00  0.45593999997E+02  0.45594000000E+02  0.51100000000E-03 0. -1.
         11   -1    0    0    0    0 -0.00000000000E+00 -0.00000000000E+00 -0.45593999997E+02  0.45594000000E+02  0.51100000000E-03 0.  1.
    9900012    2    1    2    0    0 -0.47916269006E+00 -0.80655506271E+00 -0.71612231449E+00  0.90007763108E+02  0.90000024781E+02 0.  0.
         12    1    1    2    0    0  0.47916269006E+00  0.80655506271E+00  0.71612231449E+00  0.11802368923E+01  0.00000000000E+00 0. -1.
         11    1    3    3    0    0 -0.50802361938E+01  0.79532216401E+01  0.19177988348E+01  0.96301862325E+01  0.51100000000E-03 0. -1.
        -11    1    3    3    0    0 -0.34291346975E+02  0.11398337705E+02 -0.51403214062E+01  0.36499883346E+02  0.51100000000E-03 0.  1.
         12    1    3    3    0    0  0.38892420479E+02 -0.20158114408E+02  0.25064002569E+01  0.43877693529E+02  0.00000000000E+00 0. -1.
</event>
<event>
 7    1  0.2468912E-015  0.9000772E+02  0.7816164E-02  0.1186339E+00
        -11   -1    0    0    0    0  0.00000000000E+00  0.00000000000E+00  0.45593999997E+02  0.45594000000E+02  0.51100000000E-03 0.  1.
         11   -1    0    0    0    0 -0.00000000000E+00 -0.00000000000E+00 -0.45593999997E+02  0.45594000000E+02  0.51100000000E-03 0. -1.
    9900012    2    1    2    0    0 -0.10674246469E+01  0.40491050661E+00 -0.29951590609E+00  0.90007721358E+02  0.89999982480E+02 0.  0.
         12    1    1    2    0    0  0.10674246469E+01 -0.40491050661E+00  0.29951590609E+00  0.11802786422E+01  0.00000000000E+00 0. -1.
         11    1    3    3    0    0  0.93617395607E+00 -0.39628562576E+02 -0.13146361917E+02  0.41762737283E+02  0.51100000000E-03 0. -1.
        -11    1    3    3    0    0  0.66375422504E+01  0.26865304643E+01  0.59193313597E+01  0.92904734577E+01  0.51100000000E-03 0.  1.
        -12    1    3    3    0    0 -0.86411408534E+01  0.37346942618E+02  0.69275146514E+01  0.38954510617E+02  0.00000000000E+00 0.  1.
</event>
<event>
 7    1  0.2468912E-015  0.9000719E+02  0.7816164E-02  0.1186340E+00
        -11   -1    0    0    0    0  0.00000000000E+00  0.00000000000E+00  0.45593999997E+02  0.45594000000E+02  0.51100000000E-03 0.  1.
         11   -1    0    0    0    0 -0.00000000000E+00 -0.00000000000E+00 -0.45593999997E+02  0.45594000000E+02  0.51100000000E-03 0. -1.
    9900012    2    1    2    0    0  0.58660160980E+00  0.97239894362E+00 -0.32348526259E+00  0.90007193551E+02  0.89999447704E+02 0.  0.
         12    1    1    2    0    0 -0.58660160980E+00 -0.97239894362E+00  0.32348526259E+00  0.11808064487E+01  0.00000000000E+00 0. -1.
         11    1    3    3    0    0 -0.32285762707E+01  0.82715346172E+01 -0.61006873846E+01  0.10773132158E+02  0.51100000000E-03 0. -1.
        -11    1    3    3    0    0 -0.18148646029E+02  0.20997603039E+02 -0.20756176003E+02  0.34656767429E+02  0.51100000000E-03 0.  1.
         12    1    3    3    0    0  0.21963823909E+02 -0.28296738713E+02  0.26533378125E+02  0.44577293965E+02  0.00000000000E+00 0. -1.
</event>
<event>
 7    1  0.2615874E-015  0.9000763E+02  0.7816164E-02  0.1186339E+00
        -11   -1    0    0    0    0  0.00000000000E+00  0.00000000000E+00  0.45593999997E+02  0.45594000000E+02  0.51100000000E-03 0.  1.
         11   -1    0    0    0    0 -0.00000000000E+00 -0.00000000000E+00 -0.45593999997E+02  0.45594000000E+02  0.51100000000E-03 0. -1.
    9900012    2    1    2    0    0  0.95109035551E+00  0.69228202064E+00  0.97233978382E-01  0.90007626454E+02  0.89999886324E+02 0.  0.
         12    1    1    2    0    0 -0.95109035551E+00 -0.69228202064E+00 -0.97233978382E-01  0.11803735455E+01  0.00000000000E+00 0. -1.
         11    1    3    3    0    0 -0.21948451534E+02  0.51166181168E+00 -0.28438886897E+02  0.35927240511E+02  0.51100000000E-03 0. -1.
        -11    1    3    3    0    0 -0.53291242206E+01 -0.50060851302E+01 -0.57969513578E+01  0.93308680516E+01  0.51100000000E-03 0.  1.
        -12    1    3    3    0    0  0.28228666110E+02  0.51867053391E+01  0.34333072233E+02  0.44749517892E+02  0.00000000000E+00 0.  1.
</event>
<event>
 7    1  0.2468912E-015  0.9000768E+02  0.7816164E-02  0.1186339E+00
        -11   -1    0    0    0    0  0.00000000000E+00  0.00000000000E+00  0.45593999997E+02  0.45594000000E+02  0.51100000000E-03 0. -1.
         11   -1    0    0    0    0 -0.00000000000E+00 -0.00000000000E+00 -0.45593999997E+02  0.45594000000E+02  0.51100000000E-03 0.  1.
    9900012    2    1    2    0    0  0.43388355939E+00  0.10108401215E+01 -0.42789890930E+00  0.90007682174E+02  0.89999942778E+02 0.  0.
         12    1    1    2    0    0 -0.43388355939E+00 -0.10108401215E+01  0.42789890930E+00  0.11803178263E+01  0.00000000000E+00 0. -1.
         11    1    3    3    0    0  0.96657569375E+01 -0.26284459183E+00 -0.47161934858E+00  0.96808248370E+01  0.51100000000E-03 0. -1.
        -11    1    3    3    0    0  0.29255539765E+02  0.37282753696E+01 -0.21177615641E+02  0.36308098940E+02  0.51100000000E-03 0.  1.
         12    1    3    3    0    0 -0.38487413143E+02 -0.24545906563E+01  0.21221336080E+02  0.44018758396E+02  0.00000000000E+00 0. -1.
</event>
<event>
 7    1  0.2755442E-015  0.9000784E+02  0.7816164E-02  0.1186339E+00
        -11   -1    0    0    0    0  0.00000000000E+00  0.00000000000E+00  0.45593999997E+02  0.45594000000E+02  0.51100000000E-03 0.  1.
         11   -1    0    0    0    0 -0.00000000000E+00 -0.00000000000E+00 -0.45593999997E+02  0.45594000000E+02  0.51100000000E-03 0. -1.
    9900012    2    1    2    0    0  0.99581408713E+00  0.38528812156E+00  0.50268066448E+00  0.90007838789E+02  0.90000101461E+02 0.  0.
         12    1    1    2    0    0 -0.99581408713E+00 -0.38528812156E+00 -0.50268066448E+00  0.11801612107E+01  0.00000000000E+00 0. -1.
         11    1    3    3    0    0  0.66576108704E+01 -0.28234773101E+02 -0.25775493291E+02  0.38805956363E+02  0.51100000000E-03 0. -1.
        -11    1    3    3    0    0 -0.85674180442E+01 -0.49844679458E+00 -0.36669962246E+01  0.93325217773E+01  0.51100000000E-03 0.  1.
        -12    1    3    3    0    0  0.29056212609E+01  0.29118508018E+02  0.29945170180E+02  0.41869360649E+02  0.00000000000E+00 0.  1.
</event>
<event>
 7    1  0.2468912E-015  0.9000882E+02  0.7816164E-02  0.1186337E+00
        -11   -1    0    0    0    0  0.00000000000E+00  0.00000000000E+00  0.45593999997E+02  0.45594000000E+02  0.51100000000E-03 0. -1.
         11   -1    0    0    0    0 -0.00000000000E+00 -0.00000000000E+00 -0.45593999997E+02  0.45594000000E+02  0.51100000000E-03 0.  1.
    9900012    2    1    2    0    0  0.23174717950E+00 -0.52930768370E+00  0.10279101216E+01  0.90008816979E+02  0.90001092556E+02 0.  0.
         12    1    1    2    0    0 -0.23174717950E+00  0.52930768370E+00 -0.10279101216E+01  0.11791830211E+01  0.00000000000E+00 0. -1.
         11    1    3    3    0    0 -0.14035862222E+02  0.14049942222E+02  0.31385590044E+02  0.37141103476E+02  0.51100000000E-03 0. -1.
        -11    1    3    3    0    0 -0.97743762016E+00 -0.32352068882E+01  0.87542145808E+01  0.93839342015E+01  0.51100000000E-03 0.  1.
        -12    1    3    3    0    0  0.15245047022E+02 -0.11344043017E+02 -0.39111894503E+02  0.43483779301E+02  0.00000000000E+00 0.  1.
</event>
<event>
 7    1  0.2468912E-015  0.9000770E+02  0.7816164E-02  0.1186339E+00
        -11   -1    0    0    0    0  0.00000000000E+00  0.00000000000E+00  0.45593999997E+02  0.45594000000E+02  0.51100000000E-03 0.  1.
         11   -1    0    0    0    0 -0.00000000000E+00 -0.00000000000E+00 -0.45593999997E+02  0.45594000000E+02  0.51100000000E-03 0. -1.
    9900012    2    1    2    0    0  0.46060994422E+00 -0.73038432154E+00  0.80466731675E+00  0.90007698230E+02  0.89999959047E+02 0.  0.
         12    1    1    2    0    0 -0.46060994422E+00  0.73038432154E+00 -0.80466731675E+00  0.11803017701E+01  0.00000000000E+00 0. -1.
         11    1    3    3    0    0  0.33023068945E+01 -0.35331134424E+02 -0.82406850328E+01  0.36429427399E+02  0.51100000000E-03 0. -1.
        -11    1    3    3    0    0  0.13879019725E+01 -0.89479861718E+01  0.14567129179E+01  0.91714088996E+01  0.51100000000E-03 0.  1.
        -12    1    3    3    0    0 -0.42295989228E+01  0.43548736275E+02  0.75886394317E+01  0.44406861931E+02  0.00000000000E+00 0.  1.
</event>
<event>
 7    1  0.2468912E-015  0.9000776E+02  0.7816164E-02  0.1186339E+00
        -11   -1    0    0    0    0  0.00000000000E+00  0.00000000000E+00  0.45593999997E+02  0.45594000000E+02  0.51100000000E-03 0.  1.
         11   -1    0    0    0    0 -0.00000000000E+00 -0.00000000000E+00 -0.45593999997E+02  0.45594000000E+02  0.51100000000E-03 0. -1.
    9900012    2    1    2    0    0  0.10068761117E+01 -0.25155927655E+00  0.56204569153E+00  0.90007755562E+02  0.90000017135E+02 0.  0.
         12    1    1    2    0    0 -0.10068761117E+01  0.25155927655E+00 -0.56204569153E+00  0.11802444379E+01  0.00000000000E+00 0. -1.
         11    1    3    3    0    0 -0.27859339647E+02 -0.37563868124E+01 -0.21924321426E+02  0.35650092815E+02  0.51100000000E-03 0. -1.
        -11    1    3    3    0    0 -0.87981793040E+01 -0.40839866110E+01 -0.26867756901E+00  0.97035608723E+01  0.51100000000E-03 0.  1.
        -12    1    3    3    0    0  0.37664395062E+02  0.75888141469E+01  0.22755044687E+02  0.44654101875E+02  0.00000000000E+00 0.  1.
</event>
<event>
 7    1  0.2468912E-015  0.9000772E+02  0.7816164E-02  0.1186339E+00
        -11   -1    0    0    0    0  0.00000000000E+00  0.00000000000E+00  0.45593999997E+02  0.45594000000E+02  0.51100000000E-03 0. -1.
         11   -1    0    0    0    0 -0.00000000000E+00 -0.00000000000E+00 -0.45593999997E+02  0.45594000000E+02  0.51100000000E-03 0.  1.
    9900012    2    1    2    0    0  0.85711375397E+00 -0.66709086348E+00 -0.46195524123E+00  0.90007721706E+02  0.89999982832E+02 0.  0.
         12    1    1    2    0    0 -0.85711375397E+00  0.66709086348E+00  0.46195524123E+00  0.11802782944E+01  0.00000000000E+00 0. -1.
         11    1    3    3    0    0 -0.16293778082E+01  0.55678057829E+01 -0.44747103351E+01  0.73265521306E+01  0.51100000000E-03 0. -1.
        -11    1    3    3    0    0  0.18354533557E+02  0.33941167012E+02 -0.38408334406E+01  0.38776845179E+02  0.51100000000E-03 0.  1.
         12    1    3    3    0    0 -0.15868041995E+02 -0.40176063658E+02  0.78535885345E+01  0.43904324396E+02  0.00000000000E+00 0. -1.
</event>
<event>
 7    1  0.2468912E-015  0.9000776E+02  0.7816164E-02  0.1186339E+00
        -11   -1    0    0    0    0  0.00000000000E+00  0.00000000000E+00  0.45593999997E+02  0.45594000000E+02  0.51100000000E-03 0.  1.
         11   -1    0    0    0    0 -0.00000000000E+00 -0.00000000000E+00 -0.45593999997E+02  0.45594000000E+02  0.51100000000E-03 0. -1.
    9900012    2    1    2    0    0  0.42784276016E+00 -0.62941055299E+00  0.90208141129E+00  0.90007763607E+02  0.90000025286E+02 0.  0.
         12    1    1    2    0    0 -0.42784276016E+00  0.62941055299E+00 -0.90208141129E+00  0.11802363934E+01  0.00000000000E+00 0. -1.
         11    1    3    3    0    0  0.79276352716E+01  0.79067016427E+01 -0.47871122186E+01  0.12177018335E+02  0.51100000000E-03 0. -1.
        -11    1    3    3    0    0  0.21525243210E+02  0.24929687273E+02 -0.14076540966E+01  0.32966754362E+02  0.51100000000E-03 0.  1.
         12    1    3    3    0    0 -0.29025035722E+02 -0.33465799469E+02  0.70968477264E+01  0.44863990910E+02  0.00000000000E+00 0. -1.
</event>
<event>
 7    1  0.2468912E-015  0.9000773E+02  0.7816164E-02  0.1186339E+00
        -11   -1    0    0    0    0  0.00000000000E+00  0.00000000000E+00  0.45593999997E+02  0.45594000000E+02  0.51100000000E-03 0. -1.
         11   -1    0    0    0    0 -0.00000000000E+00 -0.00000000000E+00 -0.45593999997E+02  0.45594000000E+02  0.51100000000E-03 0.  1.
    9900012    2    1    2    0    0 -0.31019555174E+00 -0.10212801120E+01 -0.50378562123E+00  0.90007731260E+02  0.89999992512E+02 0.  0.
         12    1    1    2    0    0  0.31019555174E+00  0.10212801120E+01  0.50378562123E+00  0.11802687404E+01  0.00000000000E+00 0. -1.
         11    1    3    3    0    0 -0.61743441315E+01  0.43183418021E+01  0.12119124674E+01  0.76314699412E+01  0.51100000000E-03 0. -1.
        -11    1    3    3    0    0 -0.36743516267E+02 -0.13091819991E+02 -0.21735313225E+01  0.39066686281E+02  0.51100000000E-03 0.  1.
         12    1    3    3    0    0  0.42607664846E+02  0.77521980765E+01  0.45783323386E+00  0.43309575038E+02  0.00000000000E+00 0. -1.
</event>
<event>
 7    1  0.2468912E-015  0.9000775E+02  0.7816164E-02  0.1186339E+00
        -11   -1    0    0    0    0  0.00000000000E+00  0.00000000000E+00  0.45593999997E+02  0.45594000000E+02  0.51100000000E-03 0. -1.
         11   -1    0    0    0    0 -0.00000000000E+00 -0.00000000000E+00 -0.45593999997E+02  0.45594000000E+02  0.51100000000E-03 0.  1.
    9900012    2    1    2    0    0 -0.97097373831E+00 -0.67063543267E+00 -0.20911234108E-01  0.90007754617E+02  0.90000016178E+02 0.  0.
         12    1    1    2    0    0  0.97097373831E+00  0.67063543267E+00  0.20911234108E-01  0.11802453829E+01  0.00000000000E+00 0. -1.
         11    1    3    3    0    0 -0.38140805980E+02  0.13791106408E+02  0.16771051682E+02  0.43888311331E+02  0.51100000000E-03 0. -1.
        -11    1    3    3    0    0  0.22985024475E+01 -0.34271968043E+01 -0.72135673301E+01  0.83104960937E+01  0.51100000000E-03 0.  1.
        -12    1    3    3    0    0  0.34871329794E+02 -0.11034545036E+02 -0.95783955863E+01  0.37808947192E+02  0.00000000000E+00 0.  1.
</event>
<event>
 7    1  0.2468912E-015  0.9000790E+02  0.7816164E-02  0.1186339E+00
        -11   -1    0    0    0    0  0.00000000000E+00  0.00000000000E+00  0.45593999997E+02  0.45594000000E+02  0.51100000000E-03 0.  1.
         11   -1    0    0    0    0 -0.00000000000E+00 -0.00000000000E+00 -0.45593999997E+02  0.45594000000E+02  0.51100000000E-03 0. -1.
    9900012    2    1    2    0    0 -0.11103231267E+01  0.39976284209E+00 -0.19721938282E-02  0.90007901841E+02  0.90000165345E+02 0.  0.
         12    1    1    2    0    0  0.11103231267E+01 -0.39976284209E+00  0.19721938282E-02  0.11800981592E+01  0.00000000000E+00 0. -1.
         11    1    3    3    0    0 -0.93281757400E+01  0.39477757440E+02 -0.62098156577E+01  0.41037422018E+02  0.51100000000E-03 0. -1.
        -11    1    3    3    0    0  0.12516090431E+01  0.39132070775E+00 -0.67285091891E+01  0.68551070935E+01  0.51100000000E-03 0.  1.
        -12    1    3    3    0    0  0.69662435701E+01 -0.39469315306E+02  0.12936352653E+02  0.42115372729E+02  0.00000000000E+00 0.  1.
</event>
<event>
 7    1  0.2468912E-015  0.9000792E+02  0.7816164E-02  0.1186339E+00
        -11   -1    0    0    0    0  0.00000000000E+00  0.00000000000E+00  0.45593999997E+02  0.45594000000E+02  0.51100000000E-03 0.  1.
         11   -1    0    0    0    0 -0.00000000000E+00 -0.00000000000E+00 -0.45593999997E+02  0.45594000000E+02  0.51100000000E-03 0. -1.
    9900012    2    1    2    0    0 -0.34021980817E+00 -0.11210971859E+01  0.14135071839E+00  0.90007920154E+02  0.90000183900E+02 0.  0.
         12    1    1    2    0    0  0.34021980817E+00  0.11210971859E+01 -0.14135071839E+00  0.11800798463E+01  0.00000000000E+00 0. -1.
         11    1    3    3    0    0  0.50324820271E+01 -0.38515487776E+00  0.68021323998E+01  0.84701372526E+01  0.51100000000E-03 0. -1.
        -11    1    3    3    0    0  0.25662119250E+02  0.98289171461E+01  0.24123373889E+02  0.36566229567E+02  0.51100000000E-03 0.  1.
         12    1    3    3    0    0 -0.31034821086E+02 -0.10564859454E+02 -0.30784155570E+02  0.44971553334E+02  0.00000000000E+00 0. -1.
</event>
<event>
 7    1  0.2468912E-015  0.9000776E+02  0.7816164E-02  0.1186339E+00
        -11   -1    0    0    0    0  0.00000000000E+00  0.00000000000E+00  0.45593999997E+02  0.45594000000E+02  0.51100000000E-03 0. -1.
         11   -1    0    0    0    0 -0.00000000000E+00 -0.00000000000E+00 -0.45593999997E+02  0.45594000000E+02  0.51100000000E-03 0.  1.
    9900012    2    1    2    0    0 -0.57712048755E+00 -0.10253423684E+01  0.92532912143E-01  0.90007763850E+02  0.90000025533E+02 0.  0.
         12    1    1    2    0    0  0.57712048755E+00  0.10253423684E+01 -0.92532912143E-01  0.11802361499E+01  0.00000000000E+00 0. -1.
         11    1    3    3    0    0 -0.11844337486E-01  0.20922315235E+02  0.21322157892E+02  0.29872693761E+02  0.51100000000E-03 0. -1.
        -11    1    3    3    0    0  0.10041683065E+02  0.47522902106E+01  0.11902484056E+02  0.16281547469E+02  0.51100000000E-03 0.  1.
        -12    1    3    3    0    0 -0.10606959215E+02 -0.26699947814E+02 -0.33132109036E+02  0.43853522620E+02  0.00000000000E+00 0.  1.
</event>
<event>
 7    1  0.2468912E-015  0.9000766E+02  0.7816164E-02  0.1186339E+00
        -11   -1    0    0    0    0  0.00000000000E+00  0.00000000000E+00  0.45593999997E+02  0.45594000000E+02  0.51100000000E-03 0. -1.
         11   -1    0    0    0    0 -0.00000000000E+00 -0.00000000000E+00 -0.45593999997E+02  0.45594000000E+02  0.51100000000E-03 0.  1.
    9900012    2    1    2    0    0 -0.11109861381E+01  0.36916870822E+00  0.15038428761E+00  0.90007664807E+02  0.89999925182E+02 0.  0.
         12    1    1    2    0    0  0.11109861381E+01 -0.36916870822E+00 -0.15038428761E+00  0.11803351931E+01  0.00000000000E+00 0. -1.
         11    1    3    3    0    0 -0.26815280764E+01  0.56278570637E+01 -0.60184890168E+01  0.86651934924E+01  0.51100000000E-03 0. -1.
        -11    1    3    3    0    0 -0.81470791232E+01  0.36234118598E+02 -0.45037266116E+01  0.37410824670E+02  0.51100000000E-03 0.  1.
         12    1    3    3    0    0  0.97176210615E+01 -0.41492806953E+02  0.10672599916E+02  0.43931646645E+02  0.00000000000E+00 0. -1.
</event>
<event>
 7    1  0.2468912E-015  0.9000766E+02  0.7816164E-02  0.1186339E+00
        -11   -1    0    0    0    0  0.00000000000E+00  0.00000000000E+00  0.45593999997E+02  0.45594000000E+02  0.51100000000E-03 0. -1.
         11   -1    0    0    0    0 -0.00000000000E+00 -0.00000000000E+00 -0.45593999997E+02  0.45594000000E+02  0.51100000000E-03 0.  1.
    9900012    2    1    2    0    0  0.95402883225E+00  0.68364743392E+00 -0.12512525949E+00  0.90007660575E+02  0.89999920895E+02 0.  0.
         12    1    1    2    0    0 -0.95402883225E+00 -0.68364743392E+00  0.12512525949E+00  0.11803394246E+01  0.00000000000E+00 0. -1.
         11    1    3    3    0    0  0.48950226313E+00 -0.24318587366E+02  0.22014656250E+02  0.32806682155E+02  0.51100000000E-03 0. -1.
        -11    1    3    3    0    0 -0.78839060777E+01 -0.22971997296E+01  0.10828868160E+02  0.13590345379E+02  0.51100000000E-03 0.  1.
        -12    1    3    3    0    0  0.83484326468E+01  0.27299434530E+02 -0.32968649669E+02  0.43610633042E+02  0.00000000000E+00 0.  1.
</event>
<event>
 7    1  0.2468912E-015  0.9000808E+02  0.7816164E-02  0.1186338E+00
        -11   -1    0    0    0    0  0.00000000000E+00  0.00000000000E+00  0.45593999997E+02  0.45594000000E+02  0.51100000000E-03 0.  1.
         11   -1    0    0    0    0 -0.00000000000E+00 -0.00000000000E+00 -0.45593999997E+02  0.45594000000E+02  0.51100000000E-03 0. -1.
    9900012    2    1    2    0    0  0.23506841764E+00 -0.14857722706E+00  0.11466805222E+01  0.90008081116E+02  0.90000346986E+02 0.  0.
         12    1    1    2    0    0 -0.23506841764E+00  0.14857722706E+00 -0.11466805222E+01  0.11799188843E+01  0.00000000000E+00 0. -1.
         11    1    3    3    0    0  0.16083408019E+02  0.31956127109E+02  0.78444089429E+01  0.36625193859E+02  0.51100000000E-03 0. -1.
        -11    1    3    3    0    0  0.63792286805E+01  0.43880013368E+01  0.48304236274E+01  0.91259030770E+01  0.51100000000E-03 0.  1.
        -12    1    3    3    0    0 -0.22227568282E+02 -0.36492705673E+02 -0.11528152048E+02  0.44256984180E+02  0.00000000000E+00 0.  1.
</event>
<event>
 7    1  0.2468912E-015  0.9000778E+02  0.7816164E-02  0.1186339E+00
        -11   -1    0    0    0    0  0.00000000000E+00  0.00000000000E+00  0.45593999997E+02  0.45594000000E+02  0.51100000000E-03 0.  1.
         11   -1    0    0    0    0 -0.00000000000E+00 -0.00000000000E+00 -0.45593999997E+02  0.45594000000E+02  0.51100000000E-03 0. -1.
    9900012    2    1    2    0    0 -0.58560546600E-01  0.10249464433E+01 -0.58220640717E+00  0.90007784405E+02  0.90000046360E+02 0.  0.
         12    1    1    2    0    0  0.58560546600E-01 -0.10249464433E+01  0.58220640717E+00  0.11802155946E+01  0.00000000000E+00 0. -1.
         11    1    3    3    0    0  0.13986163490E+02  0.13210733826E+02 -0.30467967680E+02  0.36033780154E+02  0.51100000000E-03 0. -1.
        -11    1    3    3    0    0 -0.20995357387E+01  0.14565699163E+01 -0.99140847942E+01  0.10238101572E+02  0.51100000000E-03 0.  1.
        -12    1    3    3    0    0 -0.11945188298E+02 -0.13642357299E+02  0.39799846067E+02  0.43735902679E+02  0.00000000000E+00 0.  1.
</event>
<event>
 7    1  0.2468912E-015  0.9000662E+02  0.7816164E-02  0.1186341E+00
        -11   -1    0    0    0    0  0.00000000000E+00  0.00000000000E+00  0.45593999997E+02  0.45594000000E+02  0.51100000000E-03 0.  1.
         11   -1    0    0    0    0 -0.00000000000E+00 -0.00000000000E+00 -0.45593999997E+02  0.45594000000E+02  0.51100000000E-03 0. -1.
    9900012    2    1    2    0    0 -0.81550503472E+00  0.71185645734E+00  0.47316029747E+00  0.90006615751E+02  0.89998862271E+02 0.  0.
         12    1    1    2    0    0  0.81550503472E+00 -0.71185645734E+00 -0.47316029747E+00  0.11813842494E+01  0.00000000000E+00 0. -1.
         11    1    3    3    0    0  0.24936126080E+02  0.84072879870E+01 -0.32133545210E+02  0.41533812770E+02  0.51100000000E-03 0. -1.
        -11    1    3    3    0    0  0.93090241706E+00 -0.75354519171E+01  0.19676166564E+01  0.78435406847E+01  0.51100000000E-03 0.  1.
        -12    1    3    3    0    0 -0.26682533532E+02 -0.15997961261E+00  0.30639088851E+02  0.40629262296E+02  0.00000000000E+00 0.  1.
</event>
<event>
 7    1  0.2468912E-015  0.9000762E+02  0.7816164E-02  0.1186339E+00
        -11   -1    0    0    0    0  0.00000000000E+00  0.00000000000E+00  0.45593999997E+02  0.45594000000E+02  0.51100000000E-03 0.  1.
         11   -1    0    0    0    0 -0.00000000000E+00 -0.00000000000E+00 -0.45593999997E+02  0.45594000000E+02  0.51100000000E-03 0. -1.
    9900012    2    1    2    0    0  0.51686843308E+00  0.69911344738E+00 -0.79837059505E+00  0.90007615234E+02  0.89999874955E+02 0.  0.
         12    1    1    2    0    0 -0.51686843308E+00 -0.69911344738E+00  0.79837059505E+00  0.11803847663E+01  0.00000000000E+00 0. -1.
         11    1    3    3    0    0 -0.23495452001E+02  0.13860207855E+02 -0.22341505637E+02  0.35260239660E+02  0.51100000000E-03 0. -1.
        -11    1    3    3    0    0 -0.11541269641E+02 -0.41455722389E+01  0.10656945894E+00  0.12263687513E+02  0.51100000000E-03 0.  1.
        -12    1    3    3    0    0  0.35553590075E+02 -0.90155221691E+01  0.21436565583E+02  0.42483688060E+02  0.00000000000E+00 0.  1.
</event>
<event>
 7    1  0.2468912E-015  0.9000773E+02  0.7816164E-02  0.1186339E+00
        -11   -1    0    0    0    0  0.00000000000E+00  0.00000000000E+00  0.45593999997E+02  0.45594000000E+02  0.51100000000E-03 0.  1.
         11   -1    0    0    0    0 -0.00000000000E+00 -0.00000000000E+00 -0.45593999997E+02  0.45594000000E+02  0.51100000000E-03 0. -1.
    9900012    2    1    2    0    0 -0.57248289026E+00  0.87093226844E+00  0.55386527142E+00  0.90007734600E+02  0.89999995897E+02 0.  0.
         12    1    1    2    0    0  0.57248289026E+00 -0.87093226844E+00 -0.55386527142E+00  0.11802654001E+01  0.00000000000E+00 0. -1.
         11    1    3    3    0    0  0.25585775581E+02 -0.30167441042E+02 -0.29482430294E+00  0.39557468736E+02  0.51100000000E-03 0. -1.
        -11    1    3    3    0    0  0.11044678878E+01  0.14565718257E+01  0.91865938170E+01  0.93666940282E+01  0.51100000000E-03 0.  1.
        -12    1    3    3    0    0 -0.27262726359E+02  0.29581801485E+02 -0.83379042426E+01  0.41083571836E+02  0.00000000000E+00 0.  1.
</event>
<event>
 7    1  0.2468912E-015  0.9000767E+02  0.7816164E-02  0.1186339E+00
        -11   -1    0    0    0    0  0.00000000000E+00  0.00000000000E+00  0.45593999997E+02  0.45594000000E+02  0.51100000000E-03 0.  1.
         11   -1    0    0    0    0 -0.00000000000E+00 -0.00000000000E+00 -0.45593999997E+02  0.45594000000E+02  0.51100000000E-03 0. -1.
    9900012    2    1    2    0    0 -0.10690732114E+01 -0.45661326684E+00  0.20434764785E+00  0.90007673279E+02  0.89999933766E+02 0.  0.
         12    1    1    2    0    0  0.10690732114E+01  0.45661326684E+00 -0.20434764785E+00  0.11803267208E+01  0.00000000000E+00 0. -1.
         11    1    3    3    0    0  0.34471732721E+02  0.16391975438E+02  0.70721620580E+01  0.38820261359E+02  0.51100000000E-03 0. -1.
        -11    1    3    3    0    0  0.54215074587E+00  0.55583879138E+01 -0.66876668830E+01  0.87128922999E+01  0.51100000000E-03 0.  1.
        -12    1    3    3    0    0 -0.36082956678E+02 -0.22406976618E+02 -0.18014752715E+00  0.42474519620E+02  0.00000000000E+00 0.  1.
</event>
<event>
 7    1  0.2468912E-015  0.9000846E+02  0.7816164E-02  0.1186338E+00
        -11   -1    0    0    0    0  0.00000000000E+00  0.00000000000E+00  0.45593999997E+02  0.45594000000E+02  0.51100000000E-03 0.  1.
         11   -1    0    0    0    0 -0.00000000000E+00 -0.00000000000E+00 -0.45593999997E+02  0.45594000000E+02  0.51100000000E-03 0. -1.
    9900012    2    1    2    0    0 -0.94934651762E+00 -0.60925142454E+00 -0.34478643534E+00  0.90008456107E+02  0.90000726925E+02 0.  0.
         12    1    1    2    0    0  0.94934651762E+00  0.60925142454E+00  0.34478643534E+00  0.11795438927E+01  0.00000000000E+00 0. -1.
         11    1    3    3    0    0  0.38410932187E+01 -0.86693040534E+01 -0.19098562649E+01  0.96725581465E+01  0.51100000000E-03 0. -1.
        -11    1    3    3    0    0 -0.34664064632E+02  0.19324996793E+01  0.24232633058E+02  0.42338545523E+02  0.51100000000E-03 0.  1.
         12    1    3    3    0    0  0.29873624896E+02  0.61275529495E+01 -0.22667563228E+02  0.37997352438E+02  0.00000000000E+00 0. -1.
</event>
<event>
 7    1  0.2468912E-015  0.9000782E+02  0.7816164E-02  0.1186339E+00
        -11   -1    0    0    0    0  0.00000000000E+00  0.00000000000E+00  0.45593999997E+02  0.45594000000E+02  0.51100000000E-03 0. -1.
         11   -1    0    0    0    0 -0.00000000000E+00 -0.00000000000E+00 -0.45593999997E+02  0.45594000000E+02  0.51100000000E-03 0.  1.
    9900012    2    1    2    0    0  0.10172672610E+01 -0.35737564132E+00 -0.47986097931E+00  0.90007823493E+02  0.90000085963E+02 0.  0.
         12    1    1    2    0    0 -0.10172672610E+01  0.35737564132E+00  0.47986097931E+00  0.11801765074E+01  0.00000000000E+00 0. -1.
         11    1    3    3    0    0  0.32088569334E+01  0.85975305581E+00  0.94915311999E+01  0.10056097798E+02  0.51100000000E-03 0. -1.
        -11    1    3    3    0    0  0.14447230175E+02  0.15885141915E+02 -0.37690203653E+02  0.43377547707E+02  0.51100000000E-03 0.  1.
         12    1    3    3    0    0 -0.16638819847E+02 -0.17102270612E+02  0.27718811474E+02  0.36574177988E+02  0.00000000000E+00 0. -1.
</event>
<event>
 7    1  0.2468912E-015  0.9000797E+02  0.7816164E-02  0.1186339E+00
        -11   -1    0    0    0    0  0.00000000000E+00  0.00000000000E+00  0.45593999997E+02  0.45594000000E+02  0.51100000000E-03 0.  1.
         11   -1    0    0    0    0 -0.00000000000E+00 -0.00000000000E+00 -0.45593999997E+02  0.45594000000E+02  0.51100000000E-03 0. -1.
    9900012    2    1    2    0    0 -0.46154230301E+00 -0.57019900219E+00  0.92429562905E+00  0.90007970081E+02  0.90000234486E+02 0.  0.
         12    1    1    2    0    0  0.46154230301E+00  0.57019900219E+00 -0.92429562905E+00  0.11800299189E+01  0.00000000000E+00 0. -1.
         11    1    3    3    0    0  0.61775618122E+01  0.81724720963E+01  0.55915077026E+01  0.11671183691E+02  0.51100000000E-03 0. -1.
        -11    1    3    3    0    0 -0.12989187405E+02  0.31872225877E+02  0.79733491917E+01  0.35328912655E+02  0.51100000000E-03 0.  1.
         12    1    3    3    0    0  0.63500832893E+01 -0.40614896975E+02 -0.12640561265E+02  0.43007873735E+02  0.00000000000E+00 0. -1.
</event>
<event>
 7    1  0.2468912E-015  0.9000781E+02  0.7816164E-02  0.1186339E+00
        -11   -1    0    0    0    0  0.00000000000E+00  0.00000000000E+00  0.45593999997E+02  0.45594000000E+02  0.51100000000E-03 0.  1.
         11   -1    0    0    0    0 -0.00000000000E+00 -0.00000000000E+00 -0.45593999997E+02  0.45594000000E+02  0.51100000000E-03 0. -1.
    9900012    2    1    2    0    0 -0.45171344484E+00 -0.97866685124E-02  0.10902779195E+01  0.90007810711E+02  0.90000073013E+02 0.  0.
         12    1    1    2    0    0  0.45171344484E+00  0.97866685124E-02 -0.10902779195E+01  0.11801892886E+01  0.00000000000E+00 0. -1.
         11    1    3    3    0    0 -0.67495008027E+01 -0.21236866798E+02  0.11761507380E+02  0.25197089685E+02  0.51100000000E-03 0. -1.
        -11    1    3    3    0    0 -0.31392286015E+00  0.20766825258E+02  0.22711657328E+02  0.30776272642E+02  0.51100000000E-03 0.  1.
         12    1    3    3    0    0  0.66117102180E+01  0.46025487143E+00 -0.33382886789E+02  0.34034448385E+02  0.00000000000E+00 0. -1.
</event>
<event>
 7    1  0.2468912E-015  0.9000774E+02  0.7816164E-02  0.1186339E+00
        -11   -1    0    0    0    0  0.00000000000E+00  0.00000000000E+00  0.45593999997E+02  0.45594000000E+02  0.51100000000E-03 0.  1.
         11   -1    0    0    0    0 -0.00000000000E+00 -0.00000000000E+00 -0.45593999997E+02  0.45594000000E+02  0.51100000000E-03 0. -1.
    9900012    2    1    2    0    0 -0.81697215503E+00 -0.15355349944E+00  0.83785280652E+00  0.90007737527E+02  0.89999998863E+02 0.  0.
         12    1    1    2    0    0  0.81697215503E+00  0.15355349944E+00 -0.83785280652E+00  0.11802624728E+01  0.00000000000E+00 0. -1.
         11    1    3    3    0    0 -0.97891292104E+01 -0.12119134522E+02  0.11926409929E+01  0.15624431671E+02  0.51100000000E-03 0. -1.
        -11    1    3    3    0    0  0.28027089518E+02 -0.11178223968E+02  0.21699304119E+02  0.37166251324E+02  0.51100000000E-03 0.  1.
         12    1    3    3    0    0 -0.19054932463E+02  0.23143804991E+02 -0.22054092306E+02  0.37217054532E+02  0.00000000000E+00 0. -1.
</event>
<event>
 7    1  0.2468912E-015  0.9000675E+02  0.7816164E-02  0.1186341E+00
        -11   -1    0    0    0    0  0.00000000000E+00  0.00000000000E+00  0.45593999997E+02  0.45594000000E+02  0.51100000000E-03 0.  1.
         11   -1    0    0    0    0 -0.00000000000E+00 -0.00000000000E+00 -0.45593999997E+02  0.45594000000E+02  0.51100000000E-03 0. -1.
    9900012    2    1    2    0    0  0.30992073430E+00  0.33480476032E+00  0.10895954624E+01  0.90006745006E+02  0.89998993235E+02 0.  0.
         12    1    1    2    0    0 -0.30992073430E+00 -0.33480476032E+00 -0.10895954624E+01  0.11812549939E+01  0.00000000000E+00 0. -1.
         11    1    3    3    0    0  0.17195265600E+02  0.99423934706E+01 -0.27064486032E+02  0.33571040368E+02  0.51100000000E-03 0. -1.
        -11    1    3    3    0    0  0.91554651864E+01  0.86715978599E+01 -0.17997417169E+01  0.12738061969E+02  0.51100000000E-03 0.  1.
        -12    1    3    3    0    0 -0.26040810052E+02 -0.18279186570E+02  0.29953823211E+02  0.43697642669E+02  0.00000000000E+00 0.  1.
</event>
<event>
 7    1  0.2468912E-015  0.9000773E+02  0.7816164E-02  0.1186339E+00
        -11   -1    0    0    0    0  0.00000000000E+00  0.00000000000E+00  0.45593999997E+02  0.45594000000E+02  0.51100000000E-03 0. -1.
         11   -1    0    0    0    0 -0.00000000000E+00 -0.00000000000E+00 -0.45593999997E+02  0.45594000000E+02  0.51100000000E-03 0.  1.
    9900012    2    1    2    0    0 -0.10151703683E+00 -0.11393117129E+01  0.29104255142E+00  0.90007727720E+02  0.89999988926E+02 0.  0.
         12    1    1    2    0    0  0.10151703683E+00  0.11393117129E+01 -0.29104255142E+00  0.11802722798E+01  0.00000000000E+00 0. -1.
         11    1    3    3    0    0  0.76465495450E+01  0.39604746106E+01 -0.56652802885E+01  0.10307787352E+02  0.51100000000E-03 0. -1.
        -11    1    3    3    0    0  0.20127680882E+02  0.16165939055E+02 -0.22731834132E+02  0.34397636641E+02  0.51100000000E-03 0.  1.
         12    1    3    3    0    0 -0.27875747464E+02 -0.21265725379E+02  0.28688156972E+02  0.45302303727E+02  0.00000000000E+00 0. -1.
</event>
<event>
 7    1  0.2468912E-015  0.9000761E+02  0.7816164E-02  0.1186339E+00
        -11   -1    0    0    0    0  0.00000000000E+00  0.00000000000E+00  0.45593999997E+02  0.45594000000E+02  0.51100000000E-03 0.  1.
         11   -1    0    0    0    0 -0.00000000000E+00 -0.00000000000E+00 -0.45593999997E+02  0.45594000000E+02  0.51100000000E-03 0. -1.
    9900012    2    1    2    0    0  0.19149244603E-01 -0.59198373605E+00  0.10210379040E+01  0.90007606066E+02  0.89999865666E+02 0.  0.
         12    1    1    2    0    0 -0.19149244603E-01  0.59198373605E+00 -0.10210379040E+01  0.11803939337E+01  0.00000000000E+00 0. -1.
         11    1    3    3    0    0 -0.20275930809E+02  0.94849651963E+01 -0.26134171562E+02  0.34410359754E+02  0.51100000000E-03 0. -1.
        -11    1    3    3    0    0  0.99647231392E+00  0.70980391163E+01 -0.87833018187E+01  0.11336732663E+02  0.51100000000E-03 0.  1.
        -12    1    3    3    0    0  0.19298607740E+02 -0.17174988049E+02  0.35938511284E+02  0.44260513649E+02  0.00000000000E+00 0.  1.
</event>
<event>
 7    1  0.2468912E-015  0.9000773E+02  0.7816164E-02  0.1186339E+00
        -11   -1    0    0    0    0  0.00000000000E+00  0.00000000000E+00  0.45593999997E+02  0.45594000000E+02  0.51100000000E-03 0.  1.
         11   -1    0    0    0    0 -0.00000000000E+00 -0.00000000000E+00 -0.45593999997E+02  0.45594000000E+02  0.51100000000E-03 0. -1.
    9900012    2    1    2    0    0  0.37045586997E+00  0.27643808575E-01  0.11202871971E+01  0.90007726669E+02  0.89999987861E+02 0.  0.
         12    1    1    2    0    0 -0.37045586997E+00 -0.27643808575E-01 -0.11202871971E+01  0.11802733309E+01  0.00000000000E+00 0. -1.
         11    1    3    3    0    0  0.35886393964E+02 -0.78390219818E+01  0.10721108682E+02  0.38265202325E+02  0.51100000000E-03 0. -1.
        -11    1    3    3    0    0  0.49659823597E+01  0.34267821841E+01  0.56402614870E+01  0.82593199984E+01  0.51100000000E-03 0.  1.
        -12    1    3    3    0    0 -0.40481920453E+02  0.44398836063E+01 -0.15241082971E+02  0.43483204346E+02  0.00000000000E+00 0.  1.
</event>
<event>
 7    1  0.2468912E-015  0.9000787E+02  0.7816164E-02  0.1186339E+00
        -11   -1    0    0    0    0  0.00000000000E+00  0.00000000000E+00  0.45593999997E+02  0.45594000000E+02  0.51100000000E-03 0.  1.
         11   -1    0    0    0    0 -0.00000000000E+00 -0.00000000000E+00 -0.45593999997E+02  0.45594000000E+02  0.51100000000E-03 0. -1.
    9900012    2    1    2    0    0 -0.31629793180E+00  0.58271221015E-01  0.11354571541E+01  0.90007871674E+02  0.90000134780E+02 0.  0.
         12    1    1    2    0    0  0.31629793180E+00 -0.58271221015E-01 -0.11354571541E+01  0.11801283259E+01  0.00000000000E+00 0. -1.
         11    1    3    3    0    0 -0.29084716136E+02  0.18290197205E+01 -0.29079423801E+02  0.41168907135E+02  0.51100000000E-03 0. -1.
        -11    1    3    3    0    0  0.69023303562E+01  0.89127208488E+01  0.17815730800E+01  0.11412833135E+02  0.51100000000E-03 0.  1.
        -12    1    3    3    0    0  0.21866087848E+02 -0.10683469348E+02  0.28433307875E+02  0.37426131403E+02  0.00000000000E+00 0.  1.
</event>
<event>
 7    1  0.2468912E-015  0.9000771E+02  0.7816164E-02  0.1186339E+00
        -11   -1    0    0    0    0  0.00000000000E+00  0.00000000000E+00  0.45593999997E+02  0.45594000000E+02  0.51100000000E-03 0. -1.
         11   -1    0    0    0    0 -0.00000000000E+00 -0.00000000000E+00 -0.45593999997E+02  0.45594000000E+02  0.51100000000E-03 0.  1.
    9900012    2    1    2    0    0  0.64770790045E+00 -0.16369192707E+00 -0.97301786589E+00  0.90007710062E+02  0.89999971034E+02 0.  0.
         12    1    1    2    0    0 -0.64770790045E+00  0.16369192707E+00  0.97301786589E+00  0.11802899384E+01  0.00000000000E+00 0. -1.
         11    1    3    3    0    0  0.33210950079E+01 -0.34957899252E+02  0.33560993303E+01  0.35275314246E+02  0.51100000000E-03 0. -1.
        -11    1    3    3    0    0  0.34380130514E+01 -0.76501199481E+01  0.63745610707E+01  0.10534671237E+02  0.51100000000E-03 0.  1.
        -12    1    3    3    0    0 -0.61114001588E+01  0.42444327273E+02 -0.10703678267E+02  0.44197724579E+02  0.00000000000E+00 0.  1.
</event>
<event>
 7    1  0.2468912E-015  0.9000770E+02  0.7816164E-02  0.1186339E+00
        -11   -1    0    0    0    0  0.00000000000E+00  0.00000000000E+00  0.45593999997E+02  0.45594000000E+02  0.51100000000E-03 0. -1.
         11   -1    0    0    0    0 -0.00000000000E+00 -0.00000000000E+00 -0.45593999997E+02  0.45594000000E+02  0.51100000000E-03 0.  1.
    9900012    2    1    2    0    0  0.54199627785E-01  0.69203348858E+00  0.95460291986E+00  0.90007697207E+02  0.89999958010E+02 0.  0.
         12    1    1    2    0    0 -0.54199627785E-01 -0.69203348858E+00 -0.95460291986E+00  0.11803027932E+01  0.00000000000E+00 0. -1.
         11    1    3    3    0    0  0.25551666105E+02  0.48718630433E+01  0.14155091299E+02  0.29614005136E+02  0.51100000000E-03 0. -1.
        -11    1    3    3    0    0  0.81367492151E+01 -0.15516080655E+02  0.77727284878E+01  0.19166918247E+02  0.51100000000E-03 0.  1.
        -12    1    3    3    0    0 -0.33634215692E+02  0.11336251100E+02 -0.20973216867E+02  0.41226773824E+02  0.00000000000E+00 0.  1.
</event>
<event>
 7    1  0.2468912E-015  0.9000768E+02  0.7816164E-02  0.1186339E+00
        -11   -1    0    0    0    0  0.00000000000E+00  0.00000000000E+00  0.45593999997E+02  0.45594000000E+02  0.51100000000E-03 0.  1.
         11   -1    0    0    0    0 -0.00000000000E+00 -0.00000000000E+00 -0.45593999997E+02  0.45594000000E+02  0.51100000000E-03 0. -1.
    9900012    2    1    2    0    0 -0.52995485048E+00 -0.10536849276E+01 -0.45272148727E-01  0.90007680705E+02  0.89999941290E+02 0.  0.
         12    1    1    2    0    0  0.52995485048E+00  0.10536849276E+01  0.45272148727E-01  0.11803192948E+01  0.00000000000E+00 0. -1.
         11    1    3    3    0    0 -0.77210142618E+01  0.15507976950E+01  0.39577391897E+00  0.78851551651E+01  0.51100000000E-03 0. -1.
        -11    1    3    3    0    0  0.12634996272E+02 -0.19436677629E+02  0.35306479780E+02  0.42237129196E+02  0.51100000000E-03 0.  1.
         12    1    3    3    0    0 -0.54439368605E+01  0.16832195007E+02 -0.35747525847E+02  0.39885396344E+02  0.00000000000E+00 0. -1.
</event>
<event>
 7    1  0.2468912E-015  0.9000773E+02  0.7816164E-02  0.1186339E+00
        -11   -1    0    0    0    0  0.00000000000E+00  0.00000000000E+00  0.45593999997E+02  0.45594000000E+02  0.51100000000E-03 0.  1.
         11   -1    0    0    0    0 -0.00000000000E+00 -0.00000000000E+00 -0.45593999997E+02  0.45594000000E+02  0.51100000000E-03 0. -1.
    9900012    2    1    2    0    0 -0.24454992497E+00 -0.11053153462E+00  0.11493493345E+01  0.90007734869E+02  0.89999996170E+02 0.  0.
         12    1    1    2    0    0  0.24454992497E+00  0.11053153462E+00 -0.11493493345E+01  0.11802651306E+01  0.00000000000E+00 0. -1.
         11    1    3    3    0    0  0.19646440908E+02 -0.35682233436E+02  0.10520075854E+01  0.40746915755E+02  0.51100000000E-03 0. -1.
        -11    1    3    3    0    0 -0.88981955709E+01 -0.23138082561E+01 -0.30514030253E+01  0.96872418029E+01  0.51100000000E-03 0.  1.
        -12    1    3    3    0    0 -0.10992795262E+02  0.37885510157E+02  0.31487447744E+01  0.39573577311E+02  0.00000000000E+00 0.  1.
</event>
<event>
 7    1  0.2468912E-015  0.9000778E+02  0.7816164E-02  0.1186339E+00
        -11   -1    0    0    0    0  0.00000000000E+00  0.00000000000E+00  0.45593999997E+02  0.45594000000E+02  0.51100000000E-03 0.  1.
         11   -1    0    0    0    0 -0.00000000000E+00 -0.00000000000E+00 -0.45593999997E+02  0.45594000000E+02  0.51100000000E-03 0. -1.
    9900012    2    1    2    0    0 -0.16587916706E+00  0.11464126809E+01  0.22614568090E+00  0.90007779765E+02  0.90000041658E+02 0.  0.
         12    1    1    2    0    0  0.16587916706E+00 -0.11464126809E+01 -0.22614568090E+00  0.11802202346E+01  0.00000000000E+00 0. -1.
         11    1    3    3    0    0  0.13589367645E+01 -0.97355052690E+01 -0.20586530779E+01  0.10043148148E+02  0.51100000000E-03 0. -1.
        -11    1    3    3    0    0  0.14196398977E+02  0.33303242747E+02  0.25321713646E+02  0.44179553004E+02  0.51100000000E-03 0.  1.
         12    1    3    3    0    0 -0.15721214908E+02 -0.22421324797E+02 -0.23036914887E+02  0.35785078613E+02  0.00000000000E+00 0. -1.
</event>
<event>
 7    1  0.2468912E-015  0.9000771E+02  0.7816164E-02  0.1186339E+00
        -11   -1    0    0    0    0  0.00000000000E+00  0.00000000000E+00  0.45593999997E+02  0.45594000000E+02  0.51100000000E-03 0.  1.
         11   -1    0    0    0    0 -0.00000000000E+00 -0.00000000000E+00 -0.45593999997E+02  0.45594000000E+02  0.51100000000E-03 0. -1.
    9900012    2    1    2    0    0 -0.10528765692E+01 -0.52435106479E+00 -0.97881224295E-01  0.90007714508E+02  0.89999975539E+02 0.  0.
         12    1    1    2    0    0  0.10528765692E+01  0.52435106479E+00  0.97881224295E-01  0.11802854922E+01  0.00000000000E+00 0. -1.
         11    1    3    3    0    0 -0.38936950206E+01 -0.18645424318E-01  0.80516606372E+01  0.89437379122E+01  0.51100000000E-03 0. -1.
        -11    1    3    3    0    0 -0.35205236777E+02  0.33930334643E+01  0.12608375643E+02  0.37548535380E+02  0.51100000000E-03 0.  1.
         12    1    3    3    0    0  0.38046055228E+02 -0.38987391048E+01 -0.20757917504E+02  0.43515441215E+02  0.00000000000E+00 0. -1.
</event>
<event>
 7    1  0.2468912E-015  0.9000778E+02  0.7816164E-02  0.1186339E+00
        -11   -1    0    0    0    0  0.00000000000E+00  0.00000000000E+00  0.45593999997E+02  0.45594000000E+02  0.51100000000E-03 0.  1.
         11   -1    0    0    0    0 -0.00000000000E+00 -0.00000000000E+00 -0.45593999997E+02  0.45594000000E+02  0.51100000000E-03 0. -1.
    9900012    2    1    2    0    0  0.16228293241E+00 -0.11686892711E+01  0.27413747020E-01  0.90007778887E+02  0.90000040768E+02 0.  0.
         12    1    1    2    0    0 -0.16228293241E+00  0.11686892711E+01 -0.27413747020E-01  0.11802211132E+01  0.00000000000E+00 0. -1.
         11    1    3    3    0    0  0.39094901461E+01 -0.43995652860E+00  0.81281370230E+01  0.90301875216E+01  0.51100000000E-03 0. -1.
        -11    1    3    3    0    0 -0.10375322053E+02 -0.36308588650E+01  0.35303073019E+02  0.36974821280E+02  0.51100000000E-03 0.  1.
         12    1    3    3    0    0  0.66281148392E+01  0.29021261225E+01 -0.43403796295E+02  0.44002770085E+02  0.00000000000E+00 0. -1.
</event>
<event>
 7    1  0.2468912E-015  0.9000774E+02  0.7816164E-02  0.1186339E+00
        -11   -1    0    0    0    0  0.00000000000E+00  0.00000000000E+00  0.45593999997E+02  0.45594000000E+02  0.51100000000E-03 0. -1.
         11   -1    0    0    0    0 -0.00000000000E+00 -0.00000000000E+00 -0.45593999997E+02  0.45594000000E+02  0.51100000000E-03 0.  1.
    9900012    2    1    2    0    0  0.56817022200E+00  0.10275175783E+01  0.12000532208E+00  0.90007741108E+02  0.90000002491E+02 0.  0.
         12    1    1    2    0    0 -0.56817022200E+00 -0.10275175783E+01 -0.12000532208E+00  0.11802588920E+01  0.00000000000E+00 0. -1.
         11    1    3    3    0    0  0.24604139960E+01 -0.79931083355E+01 -0.14228593472E+01  0.84833924156E+01  0.51100000000E-03 0. -1.
        -11    1    3    3    0    0  0.19380470582E+02  0.35695065437E+01 -0.34259996514E+02  0.39523301713E+02  0.51100000000E-03 0.  1.
         12    1    3    3    0    0 -0.21272714356E+02  0.54511193700E+01  0.35802861183E+02  0.42001046979E+02  0.00000000000E+00 0. -1.
</event>
<event>
 7    1  0.2468912E-015  0.9000770E+02  0.7816164E-02  0.1186339E+00
        -11   -1    0    0    0    0  0.00000000000E+00  0.00000000000E+00  0.45593999997E+02  0.45594000000E+02  0.51100000000E-03 0.  1.
         11   -1    0    0    0    0 -0.00000000000E+00 -0.00000000000E+00 -0.45593999997E+02  0.45594000000E+02  0.51100000000E-03 0. -1.
    9900012    2    1    2    0    0 -0.90129620763E+00 -0.13585236277E+00  0.74987657681E+00  0.90007701055E+02  0.89999961909E+02 0.  0.
         12    1    1    2    0    0  0.90129620763E+00  0.13585236277E+00 -0.74987657681E+00  0.11802989447E+01  0.00000000000E+00 0. -1.
         11    1    3    3    0    0 -0.12253886979E+02 -0.29160325181E+02 -0.29888451372E+02  0.43517833544E+02  0.51100000000E-03 0. -1.
        -11    1    3    3    0    0  0.69608810724E+01  0.17291950311E+01  0.46611786050E+01  0.85539796007E+01  0.51100000000E-03 0.  1.
        -12    1    3    3    0    0  0.43917096985E+01  0.27295277787E+02  0.25977149343E+02  0.37935887910E+02  0.00000000000E+00 0.  1.
</event>
<event>
 7    1  0.2468912E-015  0.9000776E+02  0.7816164E-02  0.1186339E+00
        -11   -1    0    0    0    0  0.00000000000E+00  0.00000000000E+00  0.45593999997E+02  0.45594000000E+02  0.51100000000E-03 0.  1.
         11   -1    0    0    0    0 -0.00000000000E+00 -0.00000000000E+00 -0.45593999997E+02  0.45594000000E+02  0.51100000000E-03 0. -1.
    9900012    2    1    2    0    0  0.83501738735E+00  0.38949071460E+00 -0.73757358471E+00  0.90007757717E+02  0.90000019319E+02 0.  0.
         12    1    1    2    0    0 -0.83501738735E+00 -0.38949071460E+00  0.73757358471E+00  0.11802422831E+01  0.00000000000E+00 0. -1.
         11    1    3    3    0    0  0.31191321125E+02  0.26298440292E+02 -0.39291901182E+01  0.40987132256E+02  0.51100000000E-03 0. -1.
        -11    1    3    3    0    0  0.40920591605E+01 -0.93797682786E+01  0.34854897002E+01  0.10810811248E+02  0.51100000000E-03 0.  1.
        -12    1    3    3    0    0 -0.34448362898E+02 -0.16529181298E+02 -0.29387316668E+00  0.38209814213E+02  0.00000000000E+00 0.  1.
</event>
<event>
 7    1  0.2468912E-015  0.9000763E+02  0.7816164E-02  0.1186339E+00
        -11   -1    0    0    0    0  0.00000000000E+00  0.00000000000E+00  0.45593999997E+02  0.45594000000E+02  0.51100000000E-03 0.  1.
         11   -1    0    0    0    0 -0.00000000000E+00 -0.00000000000E+00 -0.45593999997E+02  0.45594000000E+02  0.51100000000E-03 0. -1.
    9900012    2    1    2    0    0  0.10884231394E-01  0.11803144806E+01 -0.13526079520E-02  0.90007634561E+02  0.89999894537E+02 0.  0.
         12    1    1    2    0    0 -0.10884231394E-01 -0.11803144806E+01  0.13526079520E-02  0.11803654389E+01  0.00000000000E+00 0. -1.
         11    1    3    3    0    0 -0.65215146706E+01  0.13425568558E+02  0.44597508326E+01  0.15577721992E+02  0.51100000000E-03 0. -1.
        -11    1    3    3    0    0  0.33435811339E+02 -0.52357958758E+01  0.18322892172E+02  0.38485002483E+02  0.51100000000E-03 0.  1.
         12    1    3    3    0    0 -0.26903412437E+02 -0.70094582014E+01 -0.22783995612E+02  0.35944910086E+02  0.00000000000E+00 0. -1.
</event>
<event>
 7    1  0.2468912E-015  0.9000812E+02  0.7816164E-02  0.1186338E+00
        -11   -1    0    0    0    0  0.00000000000E+00  0.00000000000E+00  0.45593999997E+02  0.45594000000E+02  0.51100000000E-03 0. -1.
         11   -1    0    0    0    0 -0.00000000000E+00 -0.00000000000E+00 -0.45593999997E+02  0.45594000000E+02  0.51100000000E-03 0.  1.
    9900012    2    1    2    0    0  0.65183010937E+00  0.16628995145E+00 -0.96931711678E+00  0.90008122671E+02  0.90000389089E+02 0.  0.
         12    1    1    2    0    0 -0.65183010937E+00 -0.16628995145E+00  0.96931711678E+00  0.11798773294E+01  0.00000000000E+00 0. -1.
         11    1    3    3    0    0  0.45888455656E+01 -0.55542170093E+01  0.28550999670E+01  0.77497371758E+01  0.51100000000E-03 0. -1.
        -11    1    3    3    0    0  0.58367709931E+01 -0.36171956060E+02  0.82933481012E+01  0.37566712976E+02  0.51100000000E-03 0.  1.
         12    1    3    3    0    0 -0.97737864494E+01  0.41892463020E+02 -0.12117765185E+02  0.44691672519E+02  0.00000000000E+00 0. -1.
</event>
<event>
 7    1  0.2468912E-015  0.9000771E+02  0.7816164E-02  0.1186339E+00
        -11   -1    0    0    0    0  0.00000000000E+00  0.00000000000E+00  0.45593999997E+02  0.45594000000E+02  0.51100000000E-03 0. -1.
         11   -1    0    0    0    0 -0.00000000000E+00 -0.00000000000E+00 -0.45593999997E+02  0.45594000000E+02  0.51100000000E-03 0.  1.
    9900012    2    1    2    0    0  0.47127548460E+00  0.65161376849E+00 -0.86393208211E+00  0.90007712015E+02  0.89999973013E+02 0.  0.
         12    1    1    2    0    0 -0.47127548460E+00 -0.65161376849E+00  0.86393208211E+00  0.11802879853E+01  0.00000000000E+00 0. -1.
         11    1    3    3    0    0  0.10356582566E+02  0.35209263421E+02 -0.14739975494E+02  0.39550194828E+02  0.51100000000E-03 0. -1.
        -11    1    3    3    0    0 -0.27641153537E+01  0.59663793684E+01  0.52589324272E+01  0.84198804618E+01  0.51100000000E-03 0.  1.
        -12    1    3    3    0    0 -0.71211917281E+01 -0.40524029021E+02  0.86171109847E+01  0.42037636725E+02  0.00000000000E+00 0.  1.
</event>
<event>
 7    1  0.2468912E-015  0.9000771E+02  0.7816164E-02  0.1186339E+00
        -11   -1    0    0    0    0  0.00000000000E+00  0.00000000000E+00  0.45593999997E+02  0.45594000000E+02  0.51100000000E-03 0. -1.
         11   -1    0    0    0    0 -0.00000000000E+00 -0.00000000000E+00 -0.45593999997E+02  0.45594000000E+02  0.51100000000E-03 0.  1.
    9900012    2    1    2    0    0 -0.12082376759E-01  0.88606832764E-01 -0.11768953048E+01  0.90007712021E+02  0.89999973020E+02 0.  0.
         12    1    1    2    0    0  0.12082376759E-01 -0.88606832764E-01  0.11768953048E+01  0.11802879789E+01  0.00000000000E+00 0. -1.
         11    1    3    3    0    0  0.98450704758E+01 -0.42751136317E+00 -0.17150016756E+01  0.10002470177E+02  0.51100000000E-03 0. -1.
        -11    1    3    3    0    0  0.11615980818E+02 -0.35895712405E+02  0.60417112563E+00  0.37733250621E+02  0.51100000000E-03 0.  1.
         12    1    3    3    0    0 -0.21473133670E+02  0.36411830601E+02 -0.66064754789E-01  0.42271991222E+02  0.00000000000E+00 0. -1.
</event>
<event>
 7    1  0.2468912E-015  0.9000770E+02  0.7816164E-02  0.1186339E+00
        -11   -1    0    0    0    0  0.00000000000E+00  0.00000000000E+00  0.45593999997E+02  0.45594000000E+02  0.51100000000E-03 0. -1.
         11   -1    0    0    0    0 -0.00000000000E+00 -0.00000000000E+00 -0.45593999997E+02  0.45594000000E+02  0.51100000000E-03 0.  1.
    9900012    2    1    2    0    0 -0.82261179962E+00  0.51971465906E+00 -0.66806922321E+00  0.90007699197E+02  0.89999960026E+02 0.  0.
         12    1    1    2    0    0  0.82261179962E+00 -0.51971465906E+00  0.66806922321E+00  0.11803008035E+01  0.00000000000E+00 0. -1.
         11    1    3    3    0    0  0.77018197432E+01 -0.71223616110E+01 -0.13091388028E+02  0.16775890529E+02  0.51100000000E-03 0. -1.
        -11    1    3    3    0    0  0.61377394734E+01 -0.24853416978E+02  0.24654633932E+02  0.35541738223E+02  0.51100000000E-03 0.  1.
         12    1    3    3    0    0 -0.14662171016E+02  0.32495493248E+02 -0.12231315127E+02  0.37690070445E+02  0.00000000000E+00 0. -1.
</event>
<event>
 7    1  0.3465644E-015  0.9000763E+02  0.7816164E-02  0.1186339E+00
        -11   -1    0    0    0    0  0.00000000000E+00  0.00000000000E+00  0.45593999997E+02  0.45594000000E+02  0.51100000000E-03 0. -1.
         11   -1    0    0    0    0 -0.00000000000E+00 -0.00000000000E+00 -0.45593999997E+02  0.45594000000E+02  0.51100000000E-03 0.  1.
    9900012    2    1    2    0    0  0.44511246284E+00  0.72803316764E+00 -0.81554840164E+00  0.90007628621E+02  0.89999888518E+02 0.  0.
         12    1    1    2    0    0 -0.44511246284E+00 -0.72803316764E+00  0.81554840164E+00  0.11803713793E+01  0.00000000000E+00 0. -1.
         11    1    3    3    0    0  0.31331577223E+02  0.19465512622E+02  0.12756632414E+02  0.39029547572E+02  0.51100000000E-03 0. -1.
        -11    1    3    3    0    0 -0.18327692453E+01  0.88281663828E+01 -0.14369491964E+01  0.91301910190E+01  0.51100000000E-03 0.  1.
        -12    1    3    3    0    0 -0.29053695514E+02 -0.27565645837E+02 -0.12135231619E+02  0.41847890029E+02  0.00000000000E+00 0.  1.
</event>
<event>
 7    1  0.3721879E-015  0.9000774E+02  0.7816164E-02  0.1186339E+00
        -11   -1    0    0    0    0  0.00000000000E+00  0.00000000000E+00  0.45593999997E+02  0.45594000000E+02  0.51100000000E-03 0. -1.
         11   -1    0    0    0    0 -0.00000000000E+00 -0.00000000000E+00 -0.45593999997E+02  0.45594000000E+02  0.51100000000E-03 0.  1.
    9900012    2    1    2    0    0 -0.63461730706E+00 -0.39142552617E+00 -0.91490451032E+00  0.90007744379E+02  0.90000005804E+02 0.  0.
         12    1    1    2    0    0  0.63461730706E+00  0.39142552617E+00  0.91490451032E+00  0.11802556214E+01  0.00000000000E+00 0. -1.
         11    1    3    3    0    0  0.28142123150E+01  0.34993734990E+02  0.10623609088E+02  0.36678908787E+02  0.51100000000E-03 0. -1.
        -11    1    3    3    0    0  0.31443504197E+01  0.77826051697E+01 -0.20863559647E+01  0.86492059903E+01  0.51100000000E-03 0.  1.
        -12    1    3    3    0    0 -0.65931800418E+01 -0.43167765686E+02 -0.94521576332E+01  0.44679629601E+02  0.00000000000E+00 0.  1.
</event>
<event>
 7    1  0.2468912E-015  0.9000779E+02  0.7816164E-02  0.1186339E+00
        -11   -1    0    0    0    0  0.00000000000E+00  0.00000000000E+00  0.45593999997E+02  0.45594000000E+02  0.51100000000E-03 0.  1.
         11   -1    0    0    0    0 -0.00000000000E+00 -0.00000000000E+00 -0.45593999997E+02  0.45594000000E+02  0.51100000000E-03 0. -1.
    9900012    2    1    2    0    0  0.94405835410E+00  0.44770333285E+00 -0.54882774469E+00  0.90007789704E+02  0.90000051728E+02 0.  0.
         12    1    1    2    0    0 -0.94405835410E+00 -0.44770333285E+00  0.54882774469E+00  0.11802102963E+01  0.00000000000E+00 0. -1.
         11    1    3    3    0    0  0.25400944920E+02 -0.22299422993E+02 -0.11018125632E+02  0.35550968501E+02  0.51100000000E-03 0. -1.
        -11    1    3    3    0    0  0.75640966755E+01 -0.17134263240E+01 -0.70847249276E+01  0.10504509310E+02  0.51100000000E-03 0.  1.
        -12    1    3    3    0    0 -0.32020983242E+02  0.24460552649E+02  0.17554022815E+02  0.43952311892E+02  0.00000000000E+00 0.  1.
</event>
<event>
 7    1  0.2468912E-015  0.9000771E+02  0.7816164E-02  0.1186339E+00
        -11   -1    0    0    0    0  0.00000000000E+00  0.00000000000E+00  0.45593999997E+02  0.45594000000E+02  0.51100000000E-03 0.  1.
         11   -1    0    0    0    0 -0.00000000000E+00 -0.00000000000E+00 -0.45593999997E+02  0.45594000000E+02  0.51100000000E-03 0. -1.
    9900012    2    1    2    0    0 -0.52763898843E+00  0.10544682825E+01  0.52758116351E-01  0.90007707799E+02  0.89999968742E+02 0.  0.
         12    1    1    2    0    0  0.52763898843E+00 -0.10544682825E+01 -0.52758116351E-01  0.11802922010E+01  0.00000000000E+00 0. -1.
         11    1    3    3    0    0 -0.25219603848E+02  0.77516170462E+01  0.54280587933E+01  0.26936588641E+02  0.51100000000E-03 0. -1.
        -11    1    3    3    0    0 -0.22962854280E+01 -0.26148391701E+02  0.76556849550E+01  0.27342655828E+02  0.51100000000E-03 0.  1.
        -12    1    3    3    0    0  0.26988250288E+02  0.19451242937E+02 -0.13030985632E+02  0.35728463330E+02  0.00000000000E+00 0.  1.
</event>
<event>
 7    1  0.2468912E-015  0.9000782E+02  0.7816164E-02  0.1186339E+00
        -11   -1    0    0    0    0  0.00000000000E+00  0.00000000000E+00  0.45593999997E+02  0.45594000000E+02  0.51100000000E-03 0.  1.
         11   -1    0    0    0    0 -0.00000000000E+00 -0.00000000000E+00 -0.45593999997E+02  0.45594000000E+02  0.51100000000E-03 0. -1.
    9900012    2    1    2    0    0 -0.11276472367E+01 -0.31659597059E+00  0.14488956906E+00  0.90007824468E+02  0.90000086951E+02 0.  0.
         12    1    1    2    0    0  0.11276472367E+01  0.31659597059E+00 -0.14488956906E+00  0.11801755319E+01  0.00000000000E+00 0. -1.
         11    1    3    3    0    0 -0.61009110476E+01 -0.51895267230E+01  0.30460730157E+01  0.85691810751E+01  0.51100000000E-03 0. -1.
        -11    1    3    3    0    0 -0.36109305316E+02 -0.22334624823E+01  0.10455351472E+02  0.37658792595E+02  0.51100000000E-03 0.  1.
         12    1    3    3    0    0  0.41082569127E+02  0.71063932347E+01 -0.13356534919E+02  0.43779850798E+02  0.00000000000E+00 0. -1.
</event>
<event>
 7    1  0.2468912E-015  0.9000761E+02  0.7816164E-02  0.1186339E+00
        -11   -1    0    0    0    0  0.00000000000E+00  0.00000000000E+00  0.45593999997E+02  0.45594000000E+02  0.51100000000E-03 0.  1.
         11   -1    0    0    0    0 -0.00000000000E+00 -0.00000000000E+00 -0.45593999997E+02  0.45594000000E+02  0.51100000000E-03 0. -1.
    9900012    2    1    2    0    0 -0.55563181056E+00  0.46420178158E+00  0.93225487131E+00  0.90007614831E+02  0.89999874546E+02 0.  0.
         12    1    1    2    0    0  0.55563181056E+00 -0.46420178158E+00 -0.93225487131E+00  0.11803851693E+01  0.00000000000E+00 0. -1.
         11    1    3    3    0    0 -0.36309066006E+02 -0.11420654206E+02 -0.92787274185E+01  0.39177473112E+02  0.51100000000E-03 0. -1.
        -11    1    3    3    0    0  0.38905302135E+01 -0.56127517028E+01 -0.77115145597E+01  0.10300808904E+02  0.51100000000E-03 0.  1.
        -12    1    3    3    0    0  0.31862903981E+02  0.17497607691E+02  0.17922496850E+02  0.40529332814E+02  0.00000000000E+00 0.  1.
</event>
<event>
 7    1  0.3501260E-015  0.9000773E+02  0.7816164E-02  0.1186339E+00
        -11   -1    0    0    0    0  0.00000000000E+00  0.00000000000E+00  0.45593999997E+02  0.45594000000E+02  0.51100000000E-03 0.  1.
         11   -1    0    0    0    0 -0.00000000000E+00 -0.00000000000E+00 -0.45593999997E+02  0.45594000000E+02  0.51100000000E-03 0. -1.
    9900012    2    1    2    0    0 -0.39248644721E+00  0.32803921885E+00  0.10636679936E+01  0.90007726752E+02  0.89999987945E+02 0.  0.
         12    1    1    2    0    0  0.39248644721E+00 -0.32803921885E+00 -0.10636679936E+01  0.11802732484E+01  0.00000000000E+00 0. -1.
         11    1    3    3    0    0 -0.59847448861E+01 -0.65066607138E+01 -0.35619905172E+02  0.36700564705E+02  0.51100000000E-03 0. -1.
        -11    1    3    3    0    0  0.51156346739E+01  0.88337338114E+00 -0.72792535898E+01  0.89407829486E+01  0.51100000000E-03 0.  1.
        -12    1    3    3    0    0  0.47662376498E+00  0.59513265516E+01  0.43962826755E+02  0.44366379098E+02  0.00000000000E+00 0.  1.
</event>
<event>
 7    1  0.2468912E-015  0.9000774E+02  0.7816164E-02  0.1186339E+00
        -11   -1    0    0    0    0  0.00000000000E+00  0.00000000000E+00  0.45593999997E+02  0.45594000000E+02  0.51100000000E-03 0.  1.
         11   -1    0    0    0    0 -0.00000000000E+00 -0.00000000000E+00 -0.45593999997E+02  0.45594000000E+02  0.51100000000E-03 0. -1.
    9900012    2    1    2    0    0 -0.52204114128E+00 -0.99162595913E+00 -0.37037302544E+00  0.90007735125E+02  0.89999996429E+02 0.  0.
         12    1    1    2    0    0  0.52204114128E+00  0.99162595913E+00  0.37037302544E+00  0.11802648745E+01  0.00000000000E+00 0. -1.
         11    1    3    3    0    0  0.36920792585E+01  0.62113124936E+01  0.70104707456E+01  0.10067698470E+02  0.51100000000E-03 0. -1.
        -11    1    3    3    0    0  0.36732107046E+02 -0.76881718474E+01  0.31454113569E+01  0.37659650653E+02  0.51100000000E-03 0.  1.
         12    1    3    3    0    0 -0.40946227446E+02  0.48523339468E+00 -0.10526255128E+02  0.42280386003E+02  0.00000000000E+00 0. -1.
</event>
<event>
 7    1  0.2468912E-015  0.9000834E+02  0.7816164E-02  0.1186338E+00
        -11   -1    0    0    0    0  0.00000000000E+00  0.00000000000E+00  0.45593999997E+02  0.45594000000E+02  0.51100000000E-03 0.  1.
         11   -1    0    0    0    0 -0.00000000000E+00 -0.00000000000E+00 -0.45593999997E+02  0.45594000000E+02  0.51100000000E-03 0. -1.
    9900012    2    1    2    0    0 -0.10867686651E+01 -0.45849795795E+00  0.17536668747E-01  0.90008341556E+02  0.90000610863E+02 0.  0.
         12    1    1    2    0    0  0.10867686651E+01  0.45849795795E+00 -0.17536668747E-01  0.11796584437E+01  0.00000000000E+00 0. -1.
         11    1    3    3    0    0 -0.33402744490E+01 -0.14437354064E+01 -0.87900621268E+01  0.95135165828E+01  0.51100000000E-03 0. -1.
        -11    1    3    3    0    0 -0.81662426738E+01 -0.29950091908E+02  0.28692274880E+02  0.42272238676E+02  0.51100000000E-03 0.  1.
         12    1    3    3    0    0  0.10419748458E+02  0.30935329356E+02 -0.19884676084E+02  0.38222586297E+02  0.00000000000E+00 0. -1.
</event>
<event>
 7    1  0.2468912E-015  0.9000770E+02  0.7816164E-02  0.1186339E+00
        -11   -1    0    0    0    0  0.00000000000E+00  0.00000000000E+00  0.45593999997E+02  0.45594000000E+02  0.51100000000E-03 0.  1.
         11   -1    0    0    0    0 -0.00000000000E+00 -0.00000000000E+00 -0.45593999997E+02  0.45594000000E+02  0.51100000000E-03 0. -1.
    9900012    2    1    2    0    0  0.37542758237E+00 -0.10539592726E+01 -0.37594427046E+00  0.90007699143E+02  0.89999959972E+02 0.  0.
         12    1    1    2    0    0 -0.37542758237E+00  0.10539592726E+01  0.37594427046E+00  0.11803008567E+01  0.00000000000E+00 0. -1.
         11    1    3    3    0    0 -0.33839705056E+01  0.16345994575E+01  0.83128129998E+01  0.91228302626E+01  0.51100000000E-03 0. -1.
        -11    1    3    3    0    0 -0.31873429208E+02 -0.12228961087E+02  0.14740573566E+02  0.37185312800E+02  0.51100000000E-03 0.  1.
         12    1    3    3    0    0  0.35632827296E+02  0.95404023566E+01 -0.23429330836E+02  0.43699556081E+02  0.00000000000E+00 0. -1.
</event>
<event>
 7    1  0.2468912E-015  0.9000774E+02  0.7816164E-02  0.1186339E+00
        -11   -1    0    0    0    0  0.00000000000E+00  0.00000000000E+00  0.45593999997E+02  0.45594000000E+02  0.51100000000E-03 0. -1.
         11   -1    0    0    0    0 -0.00000000000E+00 -0.00000000000E+00 -0.45593999997E+02  0.45594000000E+02  0.51100000000E-03 0.  1.
    9900012    2    1    2    0    0  0.93696188268E+00  0.67743647588E+00  0.23706625882E+00  0.90007738097E+02  0.89999999440E+02 0.  0.
         12    1    1    2    0    0 -0.93696188268E+00 -0.67743647588E+00 -0.23706625882E+00  0.11802619029E+01  0.00000000000E+00 0. -1.
         11    1    3    3    0    0  0.20629572622E+02  0.24199696330E+02 -0.31144422417E+02  0.44510443909E+02  0.51100000000E-03 0. -1.
        -11    1    3    3    0    0 -0.25556508016E+00 -0.79453737781E+01  0.62386510614E+01  0.10105198925E+02  0.51100000000E-03 0.  1.
        -12    1    3    3    0    0 -0.19437045659E+02 -0.15576886076E+02  0.25142837615E+02  0.35392095263E+02  0.00000000000E+00 0.  1.
</event>
<event>
 7    1  0.2468912E-015  0.9000780E+02  0.7816164E-02  0.1186339E+00
        -11   -1    0    0    0    0  0.00000000000E+00  0.00000000000E+00  0.45593999997E+02  0.45594000000E+02  0.51100000000E-03 0.  1.
         11   -1    0    0    0    0 -0.00000000000E+00 -0.00000000000E+00 -0.45593999997E+02  0.45594000000E+02  0.51100000000E-03 0. -1.
    9900012    2    1    2    0    0  0.98221125880E+00  0.29075398501E+00  0.58616834976E+00  0.90007800792E+02  0.90000062962E+02 0.  0.
         12    1    1    2    0    0 -0.98221125880E+00 -0.29075398501E+00 -0.58616834976E+00  0.11801992082E+01  0.00000000000E+00 0. -1.
         11    1    3    3    0    0 -0.11362537281E+02  0.32492506873E+02 -0.17998725319E+02  0.38843588528E+02  0.51100000000E-03 0. -1.
        -11    1    3    3    0    0  0.41918684871E+01 -0.19651295007E+01 -0.85527674355E+01  0.97253959526E+01  0.51100000000E-03 0.  1.
        -12    1    3    3    0    0  0.81528800526E+01 -0.30236623388E+02  0.27137661105E+02  0.41438816311E+02  0.00000000000E+00 0.  1.
</event>
<event>
 7    1  0.2468912E-015  0.9000768E+02  0.7816164E-02  0.1186339E+00
        -11   -1    0    0    0    0  0.00000000000E+00  0.00000000000E+00  0.45593999997E+02  0.45594000000E+02  0.51100000000E-03 0.  1.
         11   -1    0    0    0    0 -0.00000000000E+00 -0.00000000000E+00 -0.45593999997E+02  0.45594000000E+02  0.51100000000E-03 0. -1.
    9900012    2    1    2    0    0 -0.10396155479E+01  0.53538045298E+00  0.16037895400E+00  0.90007680498E+02  0.89999941081E+02 0.  0.
         12    1    1    2    0    0  0.10396155479E+01 -0.53538045298E+00 -0.16037895400E+00  0.11803195016E+01  0.00000000000E+00 0. -1.
         11    1    3    3    0    0 -0.10093781977E+02 -0.23662506438E+01  0.19855663663E+01  0.10555853862E+02  0.51100000000E-03 0. -1.
        -11    1    3    3    0    0  0.15685239599E+02  0.22481117229E+02  0.30546462796E+02  0.41042828396E+02  0.51100000000E-03 0.  1.
         12    1    3    3    0    0 -0.66310731704E+01 -0.19579486133E+02 -0.32371650208E+02  0.38408998240E+02  0.00000000000E+00 0. -1.
</event>
<event>
 7    1  0.2468912E-015  0.9000746E+02  0.7816164E-02  0.1186340E+00
        -11   -1    0    0    0    0  0.00000000000E+00  0.00000000000E+00  0.45593999997E+02  0.45594000000E+02  0.51100000000E-03 0. -1.
         11   -1    0    0    0    0 -0.00000000000E+00 -0.00000000000E+00 -0.45593999997E+02  0.45594000000E+02  0.51100000000E-03 0.  1.
    9900012    2    1    2    0    0 -0.22408814066E+00 -0.10972179701E+01  0.37358205199E+00  0.90007463546E+02  0.89999721265E+02 0.  0.
         12    1    1    2    0    0  0.22408814066E+00  0.10972179701E+01 -0.37358205199E+00  0.11805364536E+01  0.00000000000E+00 0. -1.
         11    1    3    3    0    0  0.23803142841E+01 -0.67467810043E+01  0.74289802175E+01  0.10313811000E+02  0.51100000000E-03 0. -1.
        -11    1    3    3    0    0 -0.19187236263E+02  0.26420467925E+02  0.22721554899E+02  0.39780148542E+02  0.51100000000E-03 0.  1.
         12    1    3    3    0    0  0.16582833838E+02 -0.20770904891E+02 -0.29776953064E+02  0.39913504004E+02  0.00000000000E+00 0. -1.
</event>
<event>
 7    1  0.2693487E-015  0.9000772E+02  0.7816164E-02  0.1186339E+00
        -11   -1    0    0    0    0  0.00000000000E+00  0.00000000000E+00  0.45593999997E+02  0.45594000000E+02  0.51100000000E-03 0. -1.
         11   -1    0    0    0    0 -0.00000000000E+00 -0.00000000000E+00 -0.45593999997E+02  0.45594000000E+02  0.51100000000E-03 0.  1.
    9900012    2    1    2    0    0  0.20174947681E+00  0.79466490046E+00 -0.84903187493E+00  0.90007724490E+02  0.89999985653E+02 0.  0.
         12    1    1    2    0    0 -0.20174947681E+00 -0.79466490046E+00  0.84903187493E+00  0.11802755102E+01  0.00000000000E+00 0. -1.
         11    1    3    3    0    0  0.15819907079E+02 -0.19442880046E+02  0.24764163140E+02  0.35235760539E+02  0.51100000000E-03 0. -1.
        -11    1    3    3    0    0  0.10731661531E+01 -0.95351975723E+01  0.31887514143E+01  0.10111370539E+02  0.51100000000E-03 0.  1.
        -12    1    3    3    0    0 -0.16691323756E+02  0.29772742518E+02 -0.28801946429E+02  0.44660593412E+02  0.00000000000E+00 0.  1.
</event>
<event>
 7    1  0.2468912E-015  0.9000773E+02  0.7816164E-02  0.1186339E+00
        -11   -1    0    0    0    0  0.00000000000E+00  0.00000000000E+00  0.45593999997E+02  0.45594000000E+02  0.51100000000E-03 0. -1.
         11   -1    0    0    0    0 -0.00000000000E+00 -0.00000000000E+00 -0.45593999997E+02  0.45594000000E+02  0.51100000000E-03 0.  1.
    9900012    2    1    2    0    0 -0.95351004628E+00 -0.66427370385E+00 -0.20638783739E+00  0.90007730157E+02  0.89999991395E+02 0.  0.
         12    1    1    2    0    0  0.95351004628E+00  0.66427370385E+00  0.20638783739E+00  0.11802698426E+01  0.00000000000E+00 0. -1.
         11    1    3    3    0    0 -0.17320998607E+01  0.64344150169E+01 -0.70175614023E+01  0.96771914745E+01  0.51100000000E-03 0. -1.
        -11    1    3    3    0    0 -0.27050680634E+02  0.52270582725E+01 -0.24351395083E+02  0.36770258412E+02  0.51100000000E-03 0.  1.
         12    1    3    3    0    0  0.27829270448E+02 -0.12325746993E+02  0.31162568648E+02  0.43560280271E+02  0.00000000000E+00 0. -1.
</event>
<event>
 7    1  0.2468912E-015  0.9000786E+02  0.7816164E-02  0.1186339E+00
        -11   -1    0    0    0    0  0.00000000000E+00  0.00000000000E+00  0.45593999997E+02  0.45594000000E+02  0.51100000000E-03 0. -1.
         11   -1    0    0    0    0 -0.00000000000E+00 -0.00000000000E+00 -0.45593999997E+02  0.45594000000E+02  0.51100000000E-03 0.  1.
    9900012    2    1    2    0    0 -0.11250607633E+01 -0.30594520507E+00 -0.18268958937E+00  0.90007856078E+02  0.90000118979E+02 0.  0.
         12    1    1    2    0    0  0.11250607633E+01  0.30594520507E+00  0.18268958937E+00  0.11801439216E+01  0.00000000000E+00 0. -1.
         11    1    3    3    0    0  0.48496000952E+01 -0.50133610353E+01  0.69641174636E+01  0.98565380465E+01  0.51100000000E-03 0. -1.
        -11    1    3    3    0    0  0.19739668517E+02 -0.41404710920E+01 -0.35522303305E+02  0.40848892842E+02  0.51100000000E-03 0.  1.
         12    1    3    3    0    0 -0.25714329376E+02  0.88478869222E+01  0.28375496252E+02  0.39302425190E+02  0.00000000000E+00 0. -1.
</event>
<event>
 7    1  0.2468912E-015  0.9000766E+02  0.7816164E-02  0.1186339E+00
        -11   -1    0    0    0    0  0.00000000000E+00  0.00000000000E+00  0.45593999997E+02  0.45594000000E+02  0.51100000000E-03 0. -1.
         11   -1    0    0    0    0 -0.00000000000E+00 -0.00000000000E+00 -0.45593999997E+02  0.45594000000E+02  0.51100000000E-03 0.  1.
    9900012    2    1    2    0    0  0.63115625575E+00  0.61752934665E-01 -0.99550154463E+00  0.90007663197E+02  0.89999923551E+02 0.  0.
         12    1    1    2    0    0 -0.63115625575E+00 -0.61752934665E-01  0.99550154463E+00  0.11803368034E+01  0.00000000000E+00 0. -1.
         11    1    3    3    0    0 -0.90147077309E+01 -0.36987297182E+02 -0.18827773467E+02  0.42471286327E+02  0.51100000000E-03 0. -1.
        -11    1    3    3    0    0  0.89632968665E+01  0.22268953517E+01  0.36674582974E+01  0.99373036710E+01  0.51100000000E-03 0.  1.
        -12    1    3    3    0    0  0.68256712012E+00  0.34822154765E+02  0.14164813625E+02  0.37599073198E+02  0.00000000000E+00 0.  1.
</event>
<event>
 7    1  0.2468912E-015  0.9000774E+02  0.7816164E-02  0.1186339E+00
        -11   -1    0    0    0    0  0.00000000000E+00  0.00000000000E+00  0.45593999997E+02  0.45594000000E+02  0.51100000000E-03 0.  1.
         11   -1    0    0    0    0 -0.00000000000E+00 -0.00000000000E+00 -0.45593999997E+02  0.45594000000E+02  0.51100000000E-03 0. -1.
    9900012    2    1    2    0    0  0.67304863005E+00 -0.91375520188E+00  0.32415926771E+00  0.90007736361E+02  0.89999997681E+02 0.  0.
         12    1    1    2    0    0 -0.67304863005E+00  0.91375520188E+00 -0.32415926771E+00  0.11802636393E+01  0.00000000000E+00 0. -1.
         11    1    3    3    0    0  0.61631383639E+00  0.32414829821E+01  0.90140550885E+01  0.95989709900E+01  0.51100000000E-03 0. -1.
        -11    1    3    3    0    0  0.28932731458E+02  0.23712850227E+02  0.55680671423E+01  0.37820703159E+02  0.51100000000E-03 0.  1.
         12    1    3    3    0    0 -0.28875996664E+02 -0.27868088411E+02 -0.14257962963E+02  0.42588062211E+02  0.00000000000E+00 0. -1.
</event>
<event>
 7    1  0.2468912E-015  0.9000774E+02  0.7816164E-02  0.1186339E+00
        -11   -1    0    0    0    0  0.00000000000E+00  0.00000000000E+00  0.45593999997E+02  0.45594000000E+02  0.51100000000E-03 0. -1.
         11   -1    0    0    0    0 -0.00000000000E+00 -0.00000000000E+00 -0.45593999997E+02  0.45594000000E+02  0.51100000000E-03 0.  1.
    9900012    2    1    2    0    0  0.33483220901E+00 -0.38080025424E+00 -0.10657790523E+01  0.90007743066E+02  0.90000004474E+02 0.  0.
         12    1    1    2    0    0 -0.33483220901E+00  0.38080025424E+00  0.10657790523E+01  0.11802569340E+01  0.00000000000E+00 0. -1.
         11    1    3    3    0    0 -0.53085576376E+01 -0.22567838846E+01 -0.48494716888E+01  0.75359958609E+01  0.51100000000E-03 0. -1.
        -11    1    3    3    0    0 -0.20559615705E+02 -0.20877414886E+02 -0.24111952237E+02  0.37946679581E+02  0.51100000000E-03 0.  1.
         12    1    3    3    0    0  0.26203005552E+02  0.22753398517E+02  0.27895644874E+02  0.44525067624E+02  0.00000000000E+00 0. -1.
</event>
<event>
 7    1  0.2468912E-015  0.9000771E+02  0.7816164E-02  0.1186339E+00
        -11   -1    0    0    0    0  0.00000000000E+00  0.00000000000E+00  0.45593999997E+02  0.45594000000E+02  0.51100000000E-03 0. -1.
         11   -1    0    0    0    0 -0.00000000000E+00 -0.00000000000E+00 -0.45593999997E+02  0.45594000000E+02  0.51100000000E-03 0.  1.
    9900012    2    1    2    0    0  0.81263313954E+00 -0.44453848196E+00  0.73149922731E+00  0.90007712662E+02  0.89999973669E+02 0.  0.
         12    1    1    2    0    0 -0.81263313954E+00  0.44453848196E+00 -0.73149922731E+00  0.11802873383E+01  0.00000000000E+00 0. -1.
         11    1    3    3    0    0 -0.51072489300E+00 -0.26695758552E+01  0.42493664228E+02  0.42580499938E+02  0.51100000000E-03 0. -1.
        -11    1    3    3    0    0  0.15769739979E+01  0.63149068501E+01 -0.11509758422E+01  0.66098140039E+01  0.51100000000E-03 0.  1.
        -12    1    3    3    0    0 -0.25361596537E+00 -0.40898694769E+01 -0.40611189159E+02  0.40817398720E+02  0.00000000000E+00 0.  1.
</event>
<event>
 7    1  0.2468912E-015  0.9000770E+02  0.7816164E-02  0.1186339E+00
        -11   -1    0    0    0    0  0.00000000000E+00  0.00000000000E+00  0.45593999997E+02  0.45594000000E+02  0.51100000000E-03 0. -1.
         11   -1    0    0    0    0 -0.00000000000E+00 -0.00000000000E+00 -0.45593999997E+02  0.45594000000E+02  0.51100000000E-03 0.  1.
    9900012    2    1    2    0    0 -0.73627941693E+00  0.91982011416E+00 -0.70166915267E-01  0.90007703504E+02  0.89999964390E+02 0.  0.
         12    1    1    2    0    0  0.73627941693E+00 -0.91982011416E+00  0.70166915267E-01  0.11802964959E+01  0.00000000000E+00 0. -1.
         11    1    3    3    0    0  0.39271350688E+01 -0.55296913661E+01 -0.35260501074E+01  0.76441419449E+01  0.51100000000E-03 0. -1.
        -11    1    3    3    0    0 -0.19596019518E+02  0.23992396223E+02 -0.29085760530E+02  0.42492593747E+02  0.51100000000E-03 0.  1.
         12    1    3    3    0    0  0.14932605032E+02 -0.17542884743E+02  0.32541643722E+02  0.39870967812E+02  0.00000000000E+00 0. -1.
</event>
<event>
 7    1  0.2468912E-015  0.9000775E+02  0.7816164E-02  0.1186339E+00
        -11   -1    0    0    0    0  0.00000000000E+00  0.00000000000E+00  0.45593999997E+02  0.45594000000E+02  0.51100000000E-03 0. -1.
         11   -1    0    0    0    0 -0.00000000000E+00 -0.00000000000E+00 -0.45593999997E+02  0.45594000000E+02  0.51100000000E-03 0.  1.
    9900012    2    1    2    0    0  0.80400261153E+00 -0.36392172646E+00 -0.78366673143E+00  0.90007748854E+02  0.90000010339E+02 0.  0.
         12    1    1    2    0    0 -0.80400261153E+00  0.36392172646E+00  0.78366673143E+00  0.11802511463E+01  0.00000000000E+00 0. -1.
         11    1    3    3    0    0 -0.84144802680E+01 -0.24516229628E+00  0.56896478554E+01  0.10160495840E+02  0.51100000000E-03 0. -1.
        -11    1    3    3    0    0 -0.19179006345E+02 -0.12912753814E+02 -0.32067776444E+02  0.39533729671E+02  0.51100000000E-03 0.  1.
         12    1    3    3    0    0  0.28397489224E+02  0.12793994384E+02  0.25594461857E+02  0.40313523342E+02  0.00000000000E+00 0. -1.
</event>
<event>
 7    1  0.2468912E-015  0.9000762E+02  0.7816164E-02  0.1186339E+00
        -11   -1    0    0    0    0  0.00000000000E+00  0.00000000000E+00  0.45593999997E+02  0.45594000000E+02  0.51100000000E-03 0.  1.
         11   -1    0    0    0    0 -0.00000000000E+00 -0.00000000000E+00 -0.45593999997E+02  0.45594000000E+02  0.51100000000E-03 0. -1.
    9900012    2    1    2    0    0  0.63022374183E+00 -0.18610028120E+00  0.98054728735E+00  0.90007623678E+02  0.89999883510E+02 0.  0.
         12    1    1    2    0    0 -0.63022374183E+00  0.18610028120E+00 -0.98054728735E+00  0.11803763223E+01  0.00000000000E+00 0. -1.
         11    1    3    3    0    0  0.20098875218E+02 -0.33606586797E+02 -0.77802426889E+00  0.39165964602E+02  0.51100000000E-03 0. -1.
        -11    1    3    3    0    0 -0.30940960317E+01 -0.40981863767E+01 -0.72902836377E+01  0.89172191635E+01  0.51100000000E-03 0.  1.
        -12    1    3    3    0    0 -0.16374555445E+02  0.37518672892E+02  0.90488551939E+01  0.41924439912E+02  0.00000000000E+00 0.  1.
</event>
<event>
 7    1  0.2468912E-015  0.9000773E+02  0.7816164E-02  0.1186339E+00
        -11   -1    0    0    0    0  0.00000000000E+00  0.00000000000E+00  0.45593999997E+02  0.45594000000E+02  0.51100000000E-03 0. -1.
         11   -1    0    0    0    0 -0.00000000000E+00 -0.00000000000E+00 -0.45593999997E+02  0.45594000000E+02  0.51100000000E-03 0.  1.
    9900012    2    1    2    0    0 -0.93492177788E+00 -0.42573256252E+00 -0.58112560923E+00  0.90007731421E+02  0.89999992675E+02 0.  0.
         12    1    1    2    0    0  0.93492177788E+00  0.42573256252E+00  0.58112560923E+00  0.11802685793E+01  0.00000000000E+00 0. -1.
         11    1    3    3    0    0 -0.47972217916E+01 -0.95367854752E+00 -0.11099724325E+02  0.12129580374E+02  0.51100000000E-03 0. -1.
        -11    1    3    3    0    0  0.12311885714E+02 -0.15085532575E+02 -0.28784186371E+02  0.34751765541E+02  0.51100000000E-03 0.  1.
         12    1    3    3    0    0 -0.84495857001E+01  0.15613478560E+02  0.39302785087E+02  0.43126385506E+02  0.00000000000E+00 0. -1.
</event>
<event>
 7    1  0.2468912E-015  0.9000783E+02  0.7816164E-02  0.1186339E+00
        -11   -1    0    0    0    0  0.00000000000E+00  0.00000000000E+00  0.45593999997E+02  0.45594000000E+02  0.51100000000E-03 0.  1.
         11   -1    0    0    0    0 -0.00000000000E+00 -0.00000000000E+00 -0.45593999997E+02  0.45594000000E+02  0.51100000000E-03 0. -1.
    9900012    2    1    2    0    0 -0.12620742078E+00  0.10503378748E+01 -0.52313671191E+00  0.90007826291E+02  0.90000088798E+02 0.  0.
         12    1    1    2    0    0  0.12620742078E+00 -0.10503378748E+01  0.52313671191E+00  0.11801737091E+01  0.00000000000E+00 0. -1.
         11    1    3    3    0    0 -0.56545365088E+01 -0.65475801233E+01  0.22427790356E+01  0.89372616983E+01  0.51100000000E-03 0. -1.
        -11    1    3    3    0    0 -0.24627179326E+01 -0.10845337448E+02  0.35850674103E+02  0.37536078083E+02  0.51100000000E-03 0.  1.
         12    1    3    3    0    0  0.79910470206E+01  0.18443255446E+02 -0.38616589851E+02  0.43534486509E+02  0.00000000000E+00 0. -1.
</event>
<event>
 7    1  0.2468912E-015  0.9000778E+02  0.7816164E-02  0.1186339E+00
        -11   -1    0    0    0    0  0.00000000000E+00  0.00000000000E+00  0.45593999997E+02  0.45594000000E+02  0.51100000000E-03 0.  1.
         11   -1    0    0    0    0 -0.00000000000E+00 -0.00000000000E+00 -0.45593999997E+02  0.45594000000E+02  0.51100000000E-03 0. -1.
    9900012    2    1    2    0    0  0.40484949810E-01  0.10078230817E+01  0.61283931825E+00  0.90007780349E+02  0.90000042249E+02 0.  0.
         12    1    1    2    0    0 -0.40484949810E-01 -0.10078230817E+01 -0.61283931825E+00  0.11802196512E+01  0.00000000000E+00 0. -1.
         11    1    3    3    0    0  0.11464943613E+01 -0.73629628389E+01 -0.27889287845E+01  0.79564938957E+01  0.51100000000E-03 0. -1.
        -11    1    3    3    0    0  0.38822282616E+02  0.83641228438E+01  0.11427204543E+02  0.41324438077E+02  0.51100000000E-03 0.  1.
         12    1    3    3    0    0 -0.39928292027E+02  0.66630767136E-02 -0.80254364406E+01  0.40726848376E+02  0.00000000000E+00 0. -1.
</event>
<event>
 7    1  0.2468912E-015  0.9000769E+02  0.7816164E-02  0.1186339E+00
        -11   -1    0    0    0    0  0.00000000000E+00  0.00000000000E+00  0.45593999997E+02  0.45594000000E+02  0.51100000000E-03 0. -1.
         11   -1    0    0    0    0 -0.00000000000E+00 -0.00000000000E+00 -0.45593999997E+02  0.45594000000E+02  0.51100000000E-03 0.  1.
    9900012    2    1    2    0    0 -0.10685750920E+01 -0.39204285535E+00 -0.31236666251E+00  0.90007693574E+02  0.89999954329E+02 0.  0.
         12    1    1    2    0    0  0.10685750920E+01  0.39204285535E+00  0.31236666251E+00  0.11803064261E+01  0.00000000000E+00 0. -1.
         11    1    3    3    0    0 -0.67815726308E+01  0.47655567708E+01  0.19662868615E+00  0.82908939074E+01  0.51100000000E-03 0. -1.
        -11    1    3    3    0    0 -0.37833990777E+02 -0.24023512278E+01  0.23984256649E+01  0.37985978933E+02  0.51100000000E-03 0.  1.
         12    1    3    3    0    0  0.43546988316E+02 -0.27552483983E+01 -0.29074210135E+01  0.43730820734E+02  0.00000000000E+00 0. -1.
</event>
<event>
 7    1  0.2468912E-015  0.9000747E+02  0.7816164E-02  0.1186340E+00
        -11   -1    0    0    0    0  0.00000000000E+00  0.00000000000E+00  0.45593999997E+02  0.45594000000E+02  0.51100000000E-03 0.  1.
         11   -1    0    0    0    0 -0.00000000000E+00 -0.00000000000E+00 -0.45593999997E+02  0.45594000000E+02  0.51100000000E-03 0. -1.
    9900012    2    1    2    0    0 -0.61482170118E-01 -0.69627087893E+00  0.95135936193E+00  0.90007467142E+02  0.89999724908E+02 0.  0.
         12    1    1    2    0    0  0.61482170118E-01  0.69627087893E+00 -0.95135936193E+00  0.11805328583E+01  0.00000000000E+00 0. -1.
         11    1    3    3    0    0 -0.29919826565E+02  0.27239284027E+01 -0.26528650689E+02  0.40079734471E+02  0.51100000000E-03 0. -1.
        -11    1    3    3    0    0 -0.10499782011E+01 -0.46627136287E+01 -0.36715014338E+01  0.60268794285E+01  0.51100000000E-03 0.  1.
        -12    1    3    3    0    0  0.30908322596E+02  0.12425143471E+01  0.31151511485E+02  0.43900853242E+02  0.00000000000E+00 0.  1.
</event>
<event>
 7    1  0.2468912E-015  0.9000809E+02  0.7816164E-02  0.1186338E+00
        -11   -1    0    0    0    0  0.00000000000E+00  0.00000000000E+00  0.45593999997E+02  0.45594000000E+02  0.51100000000E-03 0.  1.
         11   -1    0    0    0    0 -0.00000000000E+00 -0.00000000000E+00 -0.45593999997E+02  0.45594000000E+02  0.51100000000E-03 0. -1.
    9900012    2    1    2    0    0  0.13907421219E-01 -0.86915927047E+00  0.79784193934E+00  0.90008091947E+02  0.90000357960E+02 0.  0.
         12    1    1    2    0    0 -0.13907421219E-01  0.86915927047E+00 -0.79784193934E+00  0.11799080532E+01  0.00000000000E+00 0. -1.
         11    1    3    3    0    0  0.11997206806E+01  0.79379723570E+01  0.21323163604E+01  0.83064738713E+01  0.51100000000E-03 0. -1.
        -11    1    3    3    0    0  0.30748625261E+02  0.10730338541E+01  0.24600159211E+02  0.39392857101E+02  0.51100000000E-03 0.  1.
         12    1    3    3    0    0 -0.31934438520E+02 -0.98801654816E+01 -0.25934633632E+02  0.42308760975E+02  0.00000000000E+00 0. -1.
</event>
<event>
 7    1  0.2477778E-015  0.9000739E+02  0.7816164E-02  0.1186340E+00
        -11   -1    0    0    0    0  0.00000000000E+00  0.00000000000E+00  0.45593999997E+02  0.45594000000E+02  0.51100000000E-03 0.  1.
         11   -1    0    0    0    0 -0.00000000000E+00 -0.00000000000E+00 -0.45593999997E+02  0.45594000000E+02  0.51100000000E-03 0. -1.
    9900012    2    1    2    0    0  0.53409698907E+00  0.10528831780E+01  0.25302404620E-02  0.90007394654E+02  0.89999651463E+02 0.  0.
         12    1    1    2    0    0 -0.53409698907E+00 -0.10528831780E+01 -0.25302404620E-02  0.11806053458E+01  0.00000000000E+00 0. -1.
         11    1    3    3    0    0  0.33900446484E+02 -0.15543776005E+02  0.57601401523E+00  0.37298539337E+02  0.51100000000E-03 0. -1.
        -11    1    3    3    0    0  0.39805520134E+01 -0.24677106876E+01  0.85937435271E+01  0.97870740489E+01  0.51100000000E-03 0.  1.
        -12    1    3    3    0    0 -0.37346901508E+02  0.19064369871E+02 -0.91672273019E+01  0.42921781268E+02  0.00000000000E+00 0.  1.
</event>
<event>
 7    1  0.2468912E-015  0.9000775E+02  0.7816164E-02  0.1186339E+00
        -11   -1    0    0    0    0  0.00000000000E+00  0.00000000000E+00  0.45593999997E+02  0.45594000000E+02  0.51100000000E-03 0.  1.
         11   -1    0    0    0    0 -0.00000000000E+00 -0.00000000000E+00 -0.45593999997E+02  0.45594000000E+02  0.51100000000E-03 0. -1.
    9900012    2    1    2    0    0 -0.46036957782E+00 -0.98102789553E+00 -0.46759146556E+00  0.90007746782E+02  0.90000008239E+02 0.  0.
         12    1    1    2    0    0  0.46036957782E+00  0.98102789553E+00  0.46759146556E+00  0.11802532180E+01  0.00000000000E+00 0. -1.
         11    1    3    3    0    0  0.19643582739E+02  0.33658992883E+02  0.73393744709E+01  0.39656835005E+02  0.51100000000E-03 0. -1.
        -11    1    3    3    0    0 -0.90555261808E+01 -0.39808370737E-01  0.66739524290E+01  0.11249256882E+02  0.51100000000E-03 0.  1.
        -12    1    3    3    0    0 -0.11048426137E+02 -0.34600212408E+02 -0.14480918365E+02  0.39101654894E+02  0.00000000000E+00 0.  1.
</event>
<event>
 7    1  0.2468912E-015  0.9000812E+02  0.7816164E-02  0.1186338E+00
        -11   -1    0    0    0    0  0.00000000000E+00  0.00000000000E+00  0.45593999997E+02  0.45594000000E+02  0.51100000000E-03 0.  1.
         11   -1    0    0    0    0 -0.00000000000E+00 -0.00000000000E+00 -0.45593999997E+02  0.45594000000E+02  0.51100000000E-03 0. -1.
    9900012    2    1    2    0    0 -0.65673133418E+00  0.76409507784E+00  0.61399414398E+00  0.90008116047E+02  0.90000382378E+02 0.  0.
         12    1    1    2    0    0  0.65673133418E+00 -0.76409507784E+00 -0.61399414398E+00  0.11798839528E+01  0.00000000000E+00 0. -1.
         11    1    3    3    0    0 -0.51435488471E+01  0.31407941974E+02 -0.19523458444E+02  0.37337385335E+02  0.51100000000E-03 0. -1.
        -11    1    3    3    0    0 -0.41953430502E+01  0.74819172173E+01 -0.23280366551E+00  0.85810364388E+01  0.51100000000E-03 0.  1.
        -12    1    3    3    0    0  0.86821605632E+01 -0.38125764113E+02  0.20370256254E+02  0.44089694273E+02  0.00000000000E+00 0.  1.
</event>
<event>
 7    1  0.2468912E-015  0.9000778E+02  0.7816164E-02  0.1186339E+00
        -11   -1    0    0    0    0  0.00000000000E+00  0.00000000000E+00  0.45593999997E+02  0.45594000000E+02  0.51100000000E-03 0.  1.
         11   -1    0    0    0    0 -0.00000000000E+00 -0.00000000000E+00 -0.45593999997E+02  0.45594000000E+02  0.51100000000E-03 0. -1.
    9900012    2    1    2    0    0  0.33255366770E+00  0.38216044388E+00  0.10659657949E+01  0.90007778994E+02  0.90000040877E+02 0.  0.
         12    1    1    2    0    0 -0.33255366770E+00 -0.38216044388E+00 -0.10659657949E+01  0.11802210058E+01  0.00000000000E+00 0. -1.
         11    1    3    3    0    0  0.11368186577E+01  0.13859695872E+02  0.33081222172E+00  0.13910174813E+02  0.51100000000E-03 0. -1.
        -11    1    3    3    0    0 -0.19931149926E+02  0.95018328498E+01 -0.27299935835E+02  0.35111565925E+02  0.51100000000E-03 0.  1.
         12    1    3    3    0    0  0.19126884936E+02 -0.22979368278E+02  0.28035089408E+02  0.40986038256E+02  0.00000000000E+00 0. -1.
</event>
<event>
 7    1  0.2468912E-015  0.9000778E+02  0.7816164E-02  0.1186339E+00
        -11   -1    0    0    0    0  0.00000000000E+00  0.00000000000E+00  0.45593999997E+02  0.45594000000E+02  0.51100000000E-03 0.  1.
         11   -1    0    0    0    0 -0.00000000000E+00 -0.00000000000E+00 -0.45593999997E+02  0.45594000000E+02  0.51100000000E-03 0. -1.
    9900012    2    1    2    0    0 -0.84053704514E+00 -0.74073591839E+00 -0.37112781741E+00  0.90007776258E+02  0.90000038104E+02 0.  0.
         12    1    1    2    0    0  0.84053704514E+00  0.74073591839E+00  0.37112781741E+00  0.11802237423E+01  0.00000000000E+00 0. -1.
         11    1    3    3    0    0  0.51649701186E+01  0.72657399436E+01  0.52936011531E+00  0.89301800456E+01  0.51100000000E-03 0. -1.
        -11    1    3    3    0    0  0.88745454349E+01 -0.15816165070E+02  0.36122256235E+02  0.40419376913E+02  0.51100000000E-03 0.  1.
         12    1    3    3    0    0 -0.14880052599E+02  0.78096892085E+01 -0.37022744168E+02  0.40658219299E+02  0.00000000000E+00 0. -1.
</event>
<event>
 7    1  0.2468912E-015  0.9000778E+02  0.7816164E-02  0.1186339E+00
        -11   -1    0    0    0    0  0.00000000000E+00  0.00000000000E+00  0.45593999997E+02  0.45594000000E+02  0.51100000000E-03 0.  1.
         11   -1    0    0    0    0 -0.00000000000E+00 -0.00000000000E+00 -0.45593999997E+02  0.45594000000E+02  0.51100000000E-03 0. -1.
    9900012    2    1    2    0    0 -0.48603615671E+00  0.57114522484E+00  0.91130690292E+00  0.90007780408E+02  0.90000042310E+02 0.  0.
         12    1    1    2    0    0  0.48603615671E+00 -0.57114522484E+00 -0.91130690292E+00  0.11802195918E+01  0.00000000000E+00 0. -1.
         11    1    3    3    0    0  0.16611147183E+01 -0.15054689176E+01 -0.43335343265E+02  0.43393291128E+02  0.51100000000E-03 0. -1.
        -11    1    3    3    0    0  0.54361696631E+01  0.10272664679E+01  0.91493070097E+01  0.10691914516E+02  0.51100000000E-03 0.  1.
        -12    1    3    3    0    0 -0.75833205382E+01  0.10493476746E+01  0.35097343158E+02  0.35922574764E+02  0.00000000000E+00 0.  1.
</event>
<event>
 7    1  0.2468912E-015  0.9000771E+02  0.7816164E-02  0.1186339E+00
        -11   -1    0    0    0    0  0.00000000000E+00  0.00000000000E+00  0.45593999997E+02  0.45594000000E+02  0.51100000000E-03 0. -1.
         11   -1    0    0    0    0 -0.00000000000E+00 -0.00000000000E+00 -0.45593999997E+02  0.45594000000E+02  0.51100000000E-03 0.  1.
    9900012    2    1    2    0    0 -0.35592540376E+00 -0.61276285871E+00 -0.94388765944E+00  0.90007709727E+02  0.89999970696E+02 0.  0.
         12    1    1    2    0    0  0.35592540376E+00  0.61276285871E+00  0.94388765944E+00  0.11802902726E+01  0.00000000000E+00 0. -1.
         11    1    3    3    0    0 -0.43468834735E+01 -0.30564614212E+02  0.28181873421E+02  0.41800825681E+02  0.51100000000E-03 0. -1.
        -11    1    3    3    0    0  0.22600334019E+01  0.76475740168E+01  0.34502079711E+01  0.86889052605E+01  0.51100000000E-03 0.  1.
        -12    1    3    3    0    0  0.17309246678E+01  0.22304277336E+02 -0.32575969051E+02  0.39517978786E+02  0.00000000000E+00 0.  1.
</event>
<event>
 7    1  0.2468912E-015  0.9000752E+02  0.7816164E-02  0.1186339E+00
        -11   -1    0    0    0    0  0.00000000000E+00  0.00000000000E+00  0.45593999997E+02  0.45594000000E+02  0.51100000000E-03 0.  1.
         11   -1    0    0    0    0 -0.00000000000E+00 -0.00000000000E+00 -0.45593999997E+02  0.45594000000E+02  0.51100000000E-03 0. -1.
    9900012    2    1    2    0    0 -0.71160562253E+00 -0.76495571178E+00 -0.54954698031E+00  0.90007516334E+02  0.89999774749E+02 0.  0.
         12    1    1    2    0    0  0.71160562253E+00  0.76495571178E+00  0.54954698031E+00  0.11804836664E+01  0.00000000000E+00 0. -1.
         11    1    3    3    0    0 -0.26713748370E+02  0.16066889688E+02  0.14092846957E+02  0.34210782391E+02  0.51100000000E-03 0. -1.
        -11    1    3    3    0    0 -0.32952160644E+01  0.21276418860E+01 -0.20096876405E+02  0.20476077515E+02  0.51100000000E-03 0.  1.
        -12    1    3    3    0    0  0.29297358812E+02 -0.18959487286E+02  0.54544824672E+01  0.35320656427E+02  0.00000000000E+00 0.  1.
</event>
<event>
 7    1  0.2468912E-015  0.9000771E+02  0.7816164E-02  0.1186339E+00
        -11   -1    0    0    0    0  0.00000000000E+00  0.00000000000E+00  0.45593999997E+02  0.45594000000E+02  0.51100000000E-03 0. -1.
         11   -1    0    0    0    0 -0.00000000000E+00 -0.00000000000E+00 -0.45593999997E+02  0.45594000000E+02  0.51100000000E-03 0.  1.
    9900012    2    1    2    0    0  0.11446681981E+01 -0.33193151661E-01  0.28584664926E+00  0.90007713858E+02  0.89999974881E+02 0.  0.
         12    1    1    2    0    0 -0.11446681981E+01  0.33193151661E-01 -0.28584664926E+00  0.11802861415E+01  0.00000000000E+00 0. -1.
         11    1    3    3    0    0  0.63472575702E+00 -0.13369130296E+01  0.39508059985E+02  0.39535768833E+02  0.51100000000E-03 0. -1.
        -11    1    3    3    0    0 -0.79254443704E+01  0.49436383437E+01  0.83175066260E+00  0.93778482589E+01  0.51100000000E-03 0.  1.
        -12    1    3    3    0    0  0.84353868114E+01 -0.36399184658E+01 -0.40053963998E+02  0.41094096766E+02  0.00000000000E+00 0.  1.
</event>
<event>
 7    1  0.2468912E-015  0.9000771E+02  0.7816164E-02  0.1186339E+00
        -11   -1    0    0    0    0  0.00000000000E+00  0.00000000000E+00  0.45593999997E+02  0.45594000000E+02  0.51100000000E-03 0. -1.
         11   -1    0    0    0    0 -0.00000000000E+00 -0.00000000000E+00 -0.45593999997E+02  0.45594000000E+02  0.51100000000E-03 0.  1.
    9900012    2    1    2    0    0  0.68261142596E+00 -0.41581899992E+00 -0.86846176263E+00  0.90007707819E+02  0.89999968762E+02 0.  0.
         12    1    1    2    0    0 -0.68261142596E+00  0.41581899992E+00  0.86846176263E+00  0.11802921811E+01  0.00000000000E+00 0. -1.
         11    1    3    3    0    0 -0.49844084883E+00  0.17947606400E+02 -0.13465721089E+02  0.22443053792E+02  0.51100000000E-03 0. -1.
        -11    1    3    3    0    0 -0.26315337090E+02 -0.17055891384E+00  0.20853226834E+02  0.33576526416E+02  0.51100000000E-03 0.  1.
         12    1    3    3    0    0  0.27496389365E+02 -0.18192866486E+02 -0.82559675071E+01  0.33988127612E+02  0.00000000000E+00 0. -1.
</event>
<event>
 7    1  0.2468912E-015  0.9000774E+02  0.7816164E-02  0.1186339E+00
        -11   -1    0    0    0    0  0.00000000000E+00  0.00000000000E+00  0.45593999997E+02  0.45594000000E+02  0.51100000000E-03 0. -1.
         11   -1    0    0    0    0 -0.00000000000E+00 -0.00000000000E+00 -0.45593999997E+02  0.45594000000E+02  0.51100000000E-03 0.  1.
    9900012    2    1    2    0    0 -0.10499943990E+01  0.48157467575E+00 -0.24208060583E+00  0.90007743491E+02  0.90000004906E+02 0.  0.
         12    1    1    2    0    0  0.10499943990E+01 -0.48157467575E+00  0.24208060583E+00  0.11802565086E+01  0.00000000000E+00 0. -1.
         11    1    3    3    0    0  0.98803760182E+01 -0.12427519209E+01  0.33876766566E+02  0.35310077539E+02  0.51100000000E-03 0. -1.
        -11    1    3    3    0    0  0.78702599658E+01 -0.12539979289E+01  0.62092864107E+01  0.10102907538E+02  0.51100000000E-03 0.  1.
        -12    1    3    3    0    0 -0.18800630383E+02  0.29783245255E+01 -0.40328133582E+02  0.44594758414E+02  0.00000000000E+00 0.  1.
</event>
<event>
 7    1  0.2468912E-015  0.9000774E+02  0.7816164E-02  0.1186339E+00
        -11   -1    0    0    0    0  0.00000000000E+00  0.00000000000E+00  0.45593999997E+02  0.45594000000E+02  0.51100000000E-03 0.  1.
         11   -1    0    0    0    0 -0.00000000000E+00 -0.00000000000E+00 -0.45593999997E+02  0.45594000000E+02  0.51100000000E-03 0. -1.
    9900012    2    1    2    0    0 -0.50916294317E+00 -0.13545161691E+00  0.10561337619E+01  0.90007740467E+02  0.90000001841E+02 0.  0.
         12    1    1    2    0    0  0.50916294317E+00  0.13545161691E+00 -0.10561337619E+01  0.11802595334E+01  0.00000000000E+00 0. -1.
         11    1    3    3    0    0 -0.32998227367E+02  0.12830369878E+02  0.17460036318E+02  0.39475996112E+02  0.51100000000E-03 0. -1.
        -11    1    3    3    0    0 -0.48525421841E+01 -0.60830559107E+01  0.24229410585E+01  0.81499311957E+01  0.51100000000E-03 0.  1.
        -12    1    3    3    0    0  0.37341606608E+02 -0.68827655838E+01 -0.18826843614E+02  0.42381813159E+02  0.00000000000E+00 0.  1.
</event>
<event>
 7    1  0.2468912E-015  0.9000774E+02  0.7816164E-02  0.1186339E+00
        -11   -1    0    0    0    0  0.00000000000E+00  0.00000000000E+00  0.45593999997E+02  0.45594000000E+02  0.51100000000E-03 0.  1.
         11   -1    0    0    0    0 -0.00000000000E+00 -0.00000000000E+00 -0.45593999997E+02  0.45594000000E+02  0.51100000000E-03 0. -1.
    9900012    2    1    2    0    0  0.67001305200E+00  0.54808166730E+00 -0.80231714490E+00  0.90007735705E+02  0.89999997017E+02 0.  0.
         12    1    1    2    0    0 -0.67001305200E+00 -0.54808166730E+00  0.80231714490E+00  0.11802642945E+01  0.00000000000E+00 0. -1.
         11    1    3    3    0    0 -0.70420249914E+01 -0.11282616260E+02 -0.20638586944E+01  0.13459088328E+02  0.51100000000E-03 0. -1.
        -11    1    3    3    0    0  0.13759822903E+02 -0.23731400399E+02  0.21799564764E+02  0.35039022751E+02  0.51100000000E-03 0.  1.
         12    1    3    3    0    0 -0.60477848593E+01  0.35562098326E+02 -0.20538023215E+02  0.41509624626E+02  0.00000000000E+00 0. -1.
</event>
<event>
 7    1  0.2468912E-015  0.9000775E+02  0.7816164E-02  0.1186339E+00
        -11   -1    0    0    0    0  0.00000000000E+00  0.00000000000E+00  0.45593999997E+02  0.45594000000E+02  0.51100000000E-03 0. -1.
         11   -1    0    0    0    0 -0.00000000000E+00 -0.00000000000E+00 -0.45593999997E+02  0.45594000000E+02  0.51100000000E-03 0.  1.
    9900012    2    1    2    0    0 -0.27188621069E+00  0.11271263403E+01  0.22060316475E+00  0.90007745089E+02  0.90000006524E+02 0.  0.
         12    1    1    2    0    0  0.27188621069E+00 -0.11271263403E+01 -0.22060316475E+00  0.11802549110E+01  0.00000000000E+00 0. -1.
         11    1    3    3    0    0  0.27384900014E+01  0.82643794593E+01  0.28870315217E+01  0.91724722188E+01  0.51100000000E-03 0. -1.
        -11    1    3    3    0    0 -0.38586519037E+02 -0.19032505190E+02 -0.46195344040E+01  0.43272344558E+02  0.51100000000E-03 0.  1.
         12    1    3    3    0    0  0.35576142825E+02  0.11895252071E+02  0.19531060470E+01  0.37562928312E+02  0.00000000000E+00 0. -1.
</event>
<event>
 7    1  0.2468912E-015  0.9000744E+02  0.7816164E-02  0.1186340E+00
        -11   -1    0    0    0    0  0.00000000000E+00  0.00000000000E+00  0.45593999997E+02  0.45594000000E+02  0.51100000000E-03 0.  1.
         11   -1    0    0    0    0 -0.00000000000E+00 -0.00000000000E+00 -0.45593999997E+02  0.45594000000E+02  0.51100000000E-03 0. -1.
    9900012    2    1    2    0    0  0.19684692032E+00 -0.11622349394E+01  0.64633645281E-01  0.90007442389E+02  0.89999699828E+02 0.  0.
         12    1    1    2    0    0 -0.19684692032E+00  0.11622349394E+01 -0.64633645281E-01  0.11805576108E+01  0.00000000000E+00 0. -1.
         11    1    3    3    0    0 -0.16205810349E+02 -0.14153325242E+02 -0.30522432912E+02  0.37343859142E+02  0.51100000000E-03 0. -1.
        -11    1    3    3    0    0 -0.84408908755E+01 -0.25797759508E+01 -0.17662932785E+01  0.90013151781E+01  0.51100000000E-03 0.  1.
        -12    1    3    3    0    0  0.24843548145E+02  0.15570866254E+02  0.32353359836E+02  0.43662268069E+02  0.00000000000E+00 0.  1.
</event>
<event>
 7    1  0.2468912E-015  0.9000772E+02  0.7816164E-02  0.1186339E+00
        -11   -1    0    0    0    0  0.00000000000E+00  0.00000000000E+00  0.45593999997E+02  0.45594000000E+02  0.51100000000E-03 0.  1.
         11   -1    0    0    0    0 -0.00000000000E+00 -0.00000000000E+00 -0.45593999997E+02  0.45594000000E+02  0.51100000000E-03 0. -1.
    9900012    2    1    2    0    0  0.49476731333E+00 -0.10333203659E+01  0.28374872170E+00  0.90007720791E+02  0.89999981906E+02 0.  0.
         12    1    1    2    0    0 -0.49476731333E+00  0.10333203659E+01 -0.28374872170E+00  0.11802792085E+01  0.00000000000E+00 0. -1.
         11    1    3    3    0    0  0.92678373161E+01 -0.17016241375E+00 -0.48199449019E+01  0.10447661599E+02  0.51100000000E-03 0. -1.
        -11    1    3    3    0    0  0.33365615220E+02  0.82907538886E+01  0.10863165406E+02  0.36055640917E+02  0.51100000000E-03 0.  1.
         12    1    3    3    0    0 -0.42138685223E+02 -0.91539118408E+01 -0.57594717822E+01  0.43504418276E+02  0.00000000000E+00 0. -1.
</event>
<event>
 7    1  0.2468912E-015  0.9000770E+02  0.7816164E-02  0.1186339E+00
        -11   -1    0    0    0    0  0.00000000000E+00  0.00000000000E+00  0.45593999997E+02  0.45594000000E+02  0.51100000000E-03 0.  1.
         11   -1    0    0    0    0 -0.00000000000E+00 -0.00000000000E+00 -0.45593999997E+02  0.45594000000E+02  0.51100000000E-03 0. -1.
    9900012    2    1    2    0    0  0.78688807142E+00  0.85937436282E+00 -0.18810292129E+00  0.90007703494E+02  0.89999964380E+02 0.  0.
         12    1    1    2    0    0 -0.78688807142E+00 -0.85937436282E+00  0.18810292129E+00  0.11802965057E+01  0.00000000000E+00 0. -1.
         11    1    3    3    0    0  0.21412684736E+02  0.14982743089E+02 -0.27821898305E+02  0.38171241579E+02  0.51100000000E-03 0. -1.
        -11    1    3    3    0    0 -0.33577100364E+01  0.95476001406E+01 -0.18288194294E+01  0.10284720020E+02  0.51100000000E-03 0.  1.
        -12    1    3    3    0    0 -0.17268086628E+02 -0.23670968867E+02  0.29462614813E+02  0.41551741895E+02  0.00000000000E+00 0.  1.
</event>
<event>
 7    1  0.2515111E-015  0.9000777E+02  0.7816164E-02  0.1186339E+00
        -11   -1    0    0    0    0  0.00000000000E+00  0.00000000000E+00  0.45593999997E+02  0.45594000000E+02  0.51100000000E-03 0.  1.
         11   -1    0    0    0    0 -0.00000000000E+00 -0.00000000000E+00 -0.45593999997E+02  0.45594000000E+02  0.51100000000E-03 0. -1.
    9900012    2    1    2    0    0 -0.19711027315E+00  0.95557233487E+00  0.66404972867E+00  0.90007774179E+02  0.90000035998E+02 0.  0.
         12    1    1    2    0    0  0.19711027315E+00 -0.95557233487E+00 -0.66404972867E+00  0.11802258212E+01  0.00000000000E+00 0. -1.
         11    1    3    3    0    0 -0.21998559060E+02  0.19417957936E+01 -0.33448847758E+02  0.40081574173E+02  0.51100000000E-03 0. -1.
        -11    1    3    3    0    0  0.85192480971E+01 -0.24546421845E+01 -0.38606884258E+01  0.96699416635E+01  0.51100000000E-03 0.  1.
        -12    1    3    3    0    0  0.13282200689E+02  0.14684187258E+01  0.37973585912E+02  0.40256258342E+02  0.00000000000E+00 0.  1.
</event>
<event>
 7    1  0.2468912E-015  0.9000772E+02  0.7816164E-02  0.1186339E+00
        -11   -1    0    0    0    0  0.00000000000E+00  0.00000000000E+00  0.45593999997E+02  0.45594000000E+02  0.51100000000E-03 0.  1.
         11   -1    0    0    0    0 -0.00000000000E+00 -0.00000000000E+00 -0.45593999997E+02  0.45594000000E+02  0.51100000000E-03 0. -1.
    9900012    2    1    2    0    0 -0.11517299034E+01  0.24035603298E+00 -0.93821086248E-01  0.90007722410E+02  0.89999983546E+02 0.  0.
         12    1    1    2    0    0  0.11517299034E+01 -0.24035603298E+00  0.93821086248E-01  0.11802775899E+01  0.00000000000E+00 0. -1.
         11    1    3    3    0    0  0.36318390751E+02  0.17212123910E+02 -0.39886369537E+00  0.40192559122E+02  0.51100000000E-03 0. -1.
        -11    1    3    3    0    0  0.20804242150E+01 -0.92567656336E+01 -0.62733823570E+00  0.95083872677E+01  0.51100000000E-03 0.  1.
        -12    1    3    3    0    0 -0.39550544870E+02 -0.77150022437E+01  0.93238084482E+00  0.40306776020E+02  0.00000000000E+00 0.  1.
</event>
<event>
 7    1  0.2468912E-015  0.9000771E+02  0.7816164E-02  0.1186339E+00
        -11   -1    0    0    0    0  0.00000000000E+00  0.00000000000E+00  0.45593999997E+02  0.45594000000E+02  0.51100000000E-03 0.  1.
         11   -1    0    0    0    0 -0.00000000000E+00 -0.00000000000E+00 -0.45593999997E+02  0.45594000000E+02  0.51100000000E-03 0. -1.
    9900012    2    1    2    0    0 -0.22239314970E+00  0.36179529587E+00  0.11012434450E+01  0.90007706954E+02  0.89999967886E+02 0.  0.
         12    1    1    2    0    0  0.22239314970E+00 -0.36179529587E+00 -0.11012434450E+01  0.11802930459E+01  0.00000000000E+00 0. -1.
         11    1    3    3    0    0 -0.14666412608E+01  0.58480782524E+00  0.98219199142E+01  0.99480223081E+01  0.51100000000E-03 0. -1.
        -11    1    3    3    0    0 -0.12527195765E+02  0.33816010096E+02  0.11865095580E+02  0.37963583418E+02  0.51100000000E-03 0.  1.
         12    1    3    3    0    0  0.13771443876E+02 -0.34039022626E+02 -0.20585772049E+02  0.42096101228E+02  0.00000000000E+00 0. -1.
</event>
<event>
 7    1  0.2468912E-015  0.9000850E+02  0.7816164E-02  0.1186338E+00
        -11   -1    0    0    0    0  0.00000000000E+00  0.00000000000E+00  0.45593999997E+02  0.45594000000E+02  0.51100000000E-03 0. -1.
         11   -1    0    0    0    0 -0.00000000000E+00 -0.00000000000E+00 -0.45593999997E+02  0.45594000000E+02  0.51100000000E-03 0.  1.
    9900012    2    1    2    0    0  0.21283637844E+00  0.95999867388E+00  0.65139535452E+00  0.90008503207E+02  0.90000774646E+02 0.  0.
         12    1    1    2    0    0 -0.21283637844E+00 -0.95999867388E+00 -0.65139535452E+00  0.11794967934E+01  0.00000000000E+00 0. -1.
         11    1    3    3    0    0  0.20084118096E+02  0.49082264593E+01 -0.16106630630E+02  0.26208510778E+02  0.51100000000E-03 0. -1.
        -11    1    3    3    0    0 -0.26182553544E+02  0.15902163770E+02 -0.77873030383E+01  0.31607704939E+02  0.51100000000E-03 0.  1.
         12    1    3    3    0    0  0.63112718262E+01 -0.19850391555E+02  0.24545329023E+02  0.32192287490E+02  0.00000000000E+00 0. -1.
</event>
<event>
 7    1  0.2468912E-015  0.9000683E+02  0.7816164E-02  0.1186341E+00
        -11   -1    0    0    0    0  0.00000000000E+00  0.00000000000E+00  0.45593999997E+02  0.45594000000E+02  0.51100000000E-03 0.  1.
         11   -1    0    0    0    0 -0.00000000000E+00 -0.00000000000E+00 -0.45593999997E+02  0.45594000000E+02  0.51100000000E-03 0. -1.
    9900012    2    1    2    0    0  0.42949346164E-01 -0.10825353908E+01  0.47057024121E+00  0.90006829449E+02  0.89999078793E+02 0.  0.
         12    1    1    2    0    0 -0.42949346164E-01  0.10825353908E+01 -0.47057024121E+00  0.11811705510E+01  0.00000000000E+00 0. -1.
         11    1    3    3    0    0 -0.80544542926E+01  0.53985576149E+01 -0.37517466111E+01  0.10396838999E+02  0.51100000000E-03 0. -1.
        -11    1    3    3    0    0 -0.32213166299E+02  0.10768059453E+02  0.99469435355E+01  0.35391819300E+02  0.51100000000E-03 0.  1.
         12    1    3    3    0    0  0.40310569938E+02 -0.17249152459E+02 -0.57246266832E+01  0.44218171151E+02  0.00000000000E+00 0. -1.
</event>
<event>
 7    1  0.2468912E-015  0.9000768E+02  0.7816164E-02  0.1186339E+00
        -11   -1    0    0    0    0  0.00000000000E+00  0.00000000000E+00  0.45593999997E+02  0.45594000000E+02  0.51100000000E-03 0. -1.
         11   -1    0    0    0    0 -0.00000000000E+00 -0.00000000000E+00 -0.45593999997E+02  0.45594000000E+02  0.51100000000E-03 0.  1.
    9900012    2    1    2    0    0 -0.94091115855E+00 -0.42431168625E+00 -0.57254795697E+00  0.90007675732E+02  0.89999936251E+02 0.  0.
         12    1    1    2    0    0  0.94091115855E+00  0.42431168625E+00  0.57254795697E+00  0.11803242683E+01  0.00000000000E+00 0. -1.
         11    1    3    3    0    0  0.44283942189E+01 -0.17777900292E+02  0.25883316870E+02  0.31711362421E+02  0.51100000000E-03 0. -1.
        -11    1    3    3    0    0 -0.17809233763E+02  0.31348373766E+01  0.73898787358E+01  0.19534746494E+02  0.51100000000E-03 0.  1.
        -12    1    3    3    0    0  0.12439928386E+02  0.14218751229E+02 -0.33845743563E+02  0.38761566816E+02  0.00000000000E+00 0.  1.
</event>
<event>
 7    1  0.2468912E-015  0.9000774E+02  0.7816164E-02  0.1186339E+00
        -11   -1    0    0    0    0  0.00000000000E+00  0.00000000000E+00  0.45593999997E+02  0.45594000000E+02  0.51100000000E-03 0.  1.
         11   -1    0    0    0    0 -0.00000000000E+00 -0.00000000000E+00 -0.45593999997E+02  0.45594000000E+02  0.51100000000E-03 0. -1.
    9900012    2    1    2    0    0  0.35284692411E+00 -0.48338092032E+00  0.10172799074E+01  0.90007738810E+02  0.90000000163E+02 0.  0.
         12    1    1    2    0    0 -0.35284692411E+00  0.48338092032E+00 -0.10172799074E+01  0.11802611897E+01  0.00000000000E+00 0. -1.
         11    1    3    3    0    0  0.39481556503E+01 -0.20084685542E+02 -0.32416320804E+02  0.38337975704E+02  0.51100000000E-03 0. -1.
        -11    1    3    3    0    0  0.14763905658E+01 -0.94428954147E+01  0.53579477907E+01  0.10956988989E+02  0.51100000000E-03 0.  1.
        -12    1    3    3    0    0 -0.50716992920E+01  0.29044200036E+02  0.28075652920E+02  0.40712774118E+02  0.00000000000E+00 0.  1.
</event>
<event>
 7    1  0.2468912E-015  0.9000774E+02  0.7816164E-02  0.1186339E+00
        -11   -1    0    0    0    0  0.00000000000E+00  0.00000000000E+00  0.45593999997E+02  0.45594000000E+02  0.51100000000E-03 0.  1.
         11   -1    0    0    0    0 -0.00000000000E+00 -0.00000000000E+00 -0.45593999997E+02  0.45594000000E+02  0.51100000000E-03 0. -1.
    9900012    2    1    2    0    0  0.47586259224E-01  0.11654156659E+01  0.18045241234E+00  0.90007736809E+02  0.89999998135E+02 0.  0.
         12    1    1    2    0    0 -0.47586259224E-01 -0.11654156659E+01 -0.18045241234E+00  0.11802631908E+01  0.00000000000E+00 0. -1.
         11    1    3    3    0    0  0.37794907504E+02  0.23022349799E+01 -0.18239802385E+02  0.42029105515E+02  0.51100000000E-03 0. -1.
        -11    1    3    3    0    0 -0.18512487208E+01 -0.74503114306E+01  0.48856884293E+01  0.90996820784E+01  0.51100000000E-03 0.  1.
        -12    1    3    3    0    0 -0.35896072524E+02  0.63134921167E+01  0.13534566368E+02  0.38878949215E+02  0.00000000000E+00 0.  1.
</event>
<event>
 7    1  0.2468912E-015  0.9000770E+02  0.7816164E-02  0.1186339E+00
        -11   -1    0    0    0    0  0.00000000000E+00  0.00000000000E+00  0.45593999997E+02  0.45594000000E+02  0.51100000000E-03 0.  1.
         11   -1    0    0    0    0 -0.00000000000E+00 -0.00000000000E+00 -0.45593999997E+02  0.45594000000E+02  0.51100000000E-03 0. -1.
    9900012    2    1    2    0    0 -0.98697352043E+00 -0.55759201725E+00  0.32876392256E+00  0.90007698638E+02  0.89999959460E+02 0.  0.
         12    1    1    2    0    0  0.98697352043E+00  0.55759201725E+00 -0.32876392256E+00  0.11803013617E+01  0.00000000000E+00 0. -1.
         11    1    3    3    0    0  0.11890446961E+02 -0.54377839622E+01 -0.40026255521E+02  0.42107640098E+02  0.51100000000E-03 0. -1.
        -11    1    3    3    0    0 -0.29635340817E+01 -0.73254414122E+01  0.54000611163E+01  0.95710650640E+01  0.51100000000E-03 0.  1.
        -12    1    3    3    0    0 -0.99138863997E+01  0.12205633357E+02  0.34954958327E+02  0.38328993476E+02  0.00000000000E+00 0.  1.
</event>
<event>
 7    1  0.2468912E-015  0.9000780E+02  0.7816164E-02  0.1186339E+00
        -11   -1    0    0    0    0  0.00000000000E+00  0.00000000000E+00  0.45593999997E+02  0.45594000000E+02  0.51100000000E-03 0. -1.
         11   -1    0    0    0    0 -0.00000000000E+00 -0.00000000000E+00 -0.45593999997E+02  0.45594000000E+02  0.51100000000E-03 0.  1.
    9900012    2    1    2    0    0 -0.77751613582E+00  0.42455972693E+00 -0.77979732059E+00  0.90007802489E+02  0.90000064682E+02 0.  0.
         12    1    1    2    0    0  0.77751613582E+00 -0.42455972693E+00  0.77979732059E+00  0.11801975108E+01  0.00000000000E+00 0. -1.
         11    1    3    3    0    0  0.25644941386E+02 -0.20813009425E+02  0.16254623208E+02  0.36811100988E+02  0.51100000000E-03 0. -1.
        -11    1    3    3    0    0 -0.32370281491E+01 -0.53715242796E+01  0.78244166985E+01  0.10027617925E+02  0.51100000000E-03 0.  1.
        -12    1    3    3    0    0 -0.23185429373E+02  0.26609093432E+02 -0.24858837227E+02  0.43169083576E+02  0.00000000000E+00 0.  1.
</event>
<event>
 7    1  0.2468912E-015  0.9000769E+02  0.7816164E-02  0.1186339E+00
        -11   -1    0    0    0    0  0.00000000000E+00  0.00000000000E+00  0.45593999997E+02  0.45594000000E+02  0.51100000000E-03 0.  1.
         11   -1    0    0    0    0 -0.00000000000E+00 -0.00000000000E+00 -0.45593999997E+02  0.45594000000E+02  0.51100000000E-03 0. -1.
    9900012    2    1    2    0    0 -0.64847399980E+00 -0.91989704570E+00  0.35554288331E+00  0.90007686548E+02  0.89999947210E+02 0.  0.
         12    1    1    2    0    0  0.64847399980E+00  0.91989704570E+00 -0.35554288331E+00  0.11803134520E+01  0.00000000000E+00 0. -1.
         11    1    3    3    0    0  0.31472602934E+02  0.15078669126E+02 -0.17826614166E+02  0.39187742611E+02  0.51100000000E-03 0. -1.
        -11    1    3    3    0    0  0.56143311562E+01 -0.27168517668E+01  0.68008920242E+01  0.92278995682E+01  0.51100000000E-03 0.  1.
        -12    1    3    3    0    0 -0.37735408090E+02 -0.13281714405E+02  0.11381265025E+02  0.41592044369E+02  0.00000000000E+00 0.  1.
</event>
<event>
 7    1  0.2468912E-015  0.9000773E+02  0.7816164E-02  0.1186339E+00
        -11   -1    0    0    0    0  0.00000000000E+00  0.00000000000E+00  0.45593999997E+02  0.45594000000E+02  0.51100000000E-03 0. -1.
         11   -1    0    0    0    0 -0.00000000000E+00 -0.00000000000E+00 -0.45593999997E+02  0.45594000000E+02  0.51100000000E-03 0.  1.
    9900012    2    1    2    0    0 -0.49870523188E+00 -0.87284322740E+00 -0.61844316389E+00  0.90007731321E+02  0.89999992574E+02 0.  0.
         12    1    1    2    0    0  0.49870523188E+00  0.87284322740E+00  0.61844316389E+00  0.11802686791E+01  0.00000000000E+00 0. -1.
         11    1    3    3    0    0  0.15466522125E+01 -0.82666103489E+01  0.38486615351E+01  0.92488472579E+01  0.51100000000E-03 0. -1.
        -11    1    3    3    0    0 -0.39081948738E+02 -0.63025735927E+01  0.56690845971E+01  0.39990744823E+02  0.51100000000E-03 0.  1.
         12    1    3    3    0    0  0.37036591294E+02  0.13696340714E+02 -0.10136189296E+02  0.40768139240E+02  0.00000000000E+00 0. -1.
</event>
<event>
 7    1  0.2468912E-015  0.9000770E+02  0.7816164E-02  0.1186339E+00
        -11   -1    0    0    0    0  0.00000000000E+00  0.00000000000E+00  0.45593999997E+02  0.45594000000E+02  0.51100000000E-03 0. -1.
         11   -1    0    0    0    0 -0.00000000000E+00 -0.00000000000E+00 -0.45593999997E+02  0.45594000000E+02  0.51100000000E-03 0.  1.
    9900012    2    1    2    0    0  0.18609662665E+00  0.19656134696E+00 -0.11488468639E+01  0.90007696042E+02  0.89999956829E+02 0.  0.
         12    1    1    2    0    0 -0.18609662665E+00 -0.19656134696E+00  0.11488468639E+01  0.11803039585E+01  0.00000000000E+00 0. -1.
         11    1    3    3    0    0  0.36428140805E+02  0.12839721084E+01 -0.19184401674E+02  0.41191009878E+02  0.51100000000E-03 0. -1.
        -11    1    3    3    0    0  0.13360042010E+01 -0.55397969022E+01  0.77190876941E+01  0.95947158391E+01  0.51100000000E-03 0.  1.
        -12    1    3    3    0    0 -0.37578048380E+02  0.44523861407E+01  0.10316467116E+02  0.39221970324E+02  0.00000000000E+00 0.  1.
</event>
<event>
 7    1  0.2468912E-015  0.9000775E+02  0.7816164E-02  0.1186339E+00
        -11   -1    0    0    0    0  0.00000000000E+00  0.00000000000E+00  0.45593999997E+02  0.45594000000E+02  0.51100000000E-03 0. -1.
         11   -1    0    0    0    0 -0.00000000000E+00 -0.00000000000E+00 -0.45593999997E+02  0.45594000000E+02  0.51100000000E-03 0.  1.
    9900012    2    1    2    0    0 -0.80126373387E+00  0.84447673643E-01 -0.86246481937E+00  0.90007745559E+02  0.90000007000E+02 0.  0.
         12    1    1    2    0    0  0.80126373387E+00 -0.84447673643E-01  0.86246481937E+00  0.11802544410E+01  0.00000000000E+00 0. -1.
         11    1    3    3    0    0  0.79699123069E+01  0.12837951714E+01  0.33754325995E+01  0.87499244407E+01  0.51100000000E-03 0. -1.
        -11    1    3    3    0    0 -0.16708531961E+02  0.37255114511E+02 -0.86783284909E+01  0.41742448217E+02  0.51100000000E-03 0.  1.
         12    1    3    3    0    0  0.79373559201E+01 -0.38454462009E+02  0.44404310720E+01  0.39515372901E+02  0.00000000000E+00 0. -1.
</event>
<event>
 7    1  0.2468912E-015  0.9000769E+02  0.7816164E-02  0.1186339E+00
        -11   -1    0    0    0    0  0.00000000000E+00  0.00000000000E+00  0.45593999997E+02  0.45594000000E+02  0.51100000000E-03 0.  1.
         11   -1    0    0    0    0 -0.00000000000E+00 -0.00000000000E+00 -0.45593999997E+02  0.45594000000E+02  0.51100000000E-03 0. -1.
    9900012    2    1    2    0    0  0.94426605017E+00  0.36249206188E+00 -0.60834468372E+00  0.90007694055E+02  0.89999954817E+02 0.  0.
         12    1    1    2    0    0 -0.94426605017E+00 -0.36249206188E+00  0.60834468372E+00  0.11803059445E+01  0.00000000000E+00 0. -1.
         11    1    3    3    0    0 -0.62012892897E+00  0.55855128676E+01 -0.82394108247E+01  0.99734850921E+01  0.51100000000E-03 0. -1.
        -11    1    3    3    0    0  0.54627843397E+01  0.36574023733E+02  0.89035036215E+01  0.38036477252E+02  0.51100000000E-03 0.  1.
         12    1    3    3    0    0 -0.38983893605E+01 -0.41797044538E+02 -0.12724374805E+01  0.41997731711E+02  0.00000000000E+00 0. -1.
</event>
<event>
 7    1  0.2468912E-015  0.9000774E+02  0.7816164E-02  0.1186339E+00
        -11   -1    0    0    0    0  0.00000000000E+00  0.00000000000E+00  0.45593999997E+02  0.45594000000E+02  0.51100000000E-03 0.  1.
         11   -1    0    0    0    0 -0.00000000000E+00 -0.00000000000E+00 -0.45593999997E+02  0.45594000000E+02  0.51100000000E-03 0. -1.
    9900012    2    1    2    0    0 -0.10110099565E+01 -0.60894519829E+00  0.79483706947E-02  0.90007737926E+02  0.89999999267E+02 0.  0.
         12    1    1    2    0    0  0.10110099565E+01  0.60894519829E+00 -0.79483706947E-02  0.11802620740E+01  0.00000000000E+00 0. -1.
         11    1    3    3    0    0 -0.47006785510E+01 -0.80530584170E+01  0.72973761582E+01  0.11840600819E+02  0.51100000000E-03 0. -1.
        -11    1    3    3    0    0 -0.28346886376E+02  0.27311169183E+02 -0.91936288442E+01  0.40422379209E+02  0.51100000000E-03 0.  1.
         12    1    3    3    0    0  0.32036554970E+02 -0.19867055965E+02  0.19042010566E+01  0.37744757897E+02  0.00000000000E+00 0. -1.
</event>
<event>
 7    1  0.2468912E-015  0.9000777E+02  0.7816164E-02  0.1186339E+00
        -11   -1    0    0    0    0  0.00000000000E+00  0.00000000000E+00  0.45593999997E+02  0.45594000000E+02  0.51100000000E-03 0.  1.
         11   -1    0    0    0    0 -0.00000000000E+00 -0.00000000000E+00 -0.45593999997E+02  0.45594000000E+02  0.51100000000E-03 0. -1.
    9900012    2    1    2    0    0 -0.31516446763E+00  0.11168287381E+01  0.21516786017E+00  0.90007774479E+02  0.90000036302E+02 0.  0.
         12    1    1    2    0    0  0.31516446763E+00 -0.11168287381E+01 -0.21516786017E+00  0.11802255208E+01  0.00000000000E+00 0. -1.
         11    1    3    3    0    0  0.18728605661E+01 -0.33263765328E+01  0.10847345745E+02  0.11499447704E+02  0.51100000000E-03 0. -1.
        -11    1    3    3    0    0  0.63020309306E+01  0.39351733149E+02 -0.14423020457E+02  0.42382756104E+02  0.51100000000E-03 0.  1.
         12    1    3    3    0    0 -0.84900559643E+01 -0.34908527878E+02  0.37908425728E+01  0.36125570671E+02  0.00000000000E+00 0. -1.
</event>
<event>
 7    1  0.2468912E-015  0.9000769E+02  0.7816164E-02  0.1186339E+00
        -11   -1    0    0    0    0  0.00000000000E+00  0.00000000000E+00  0.45593999997E+02  0.45594000000E+02  0.51100000000E-03 0.  1.
         11   -1    0    0    0    0 -0.00000000000E+00 -0.00000000000E+00 -0.45593999997E+02  0.45594000000E+02  0.51100000000E-03 0. -1.
    9900012    2    1    2    0    0 -0.83337073545E+00 -0.23159533189E+00  0.80310587617E+00  0.90007694011E+02  0.89999954771E+02 0.  0.
         12    1    1    2    0    0  0.83337073545E+00  0.23159533189E+00 -0.80310587617E+00  0.11803059895E+01  0.00000000000E+00 0. -1.
         11    1    3    3    0    0  0.39205668478E+01  0.86907040865E+01 -0.10989152158E+01  0.95972286020E+01  0.51100000000E-03 0. -1.
        -11    1    3    3    0    0  0.13024636084E+01 -0.24519593514E+02 -0.33335403954E+02  0.41402367500E+02  0.51100000000E-03 0.  1.
         12    1    3    3    0    0 -0.60564011917E+01  0.15597294096E+02  0.35237425046E+02  0.39008097908E+02  0.00000000000E+00 0. -1.
</event>
<event>
 7    1  0.2468912E-015  0.9000772E+02  0.7816164E-02  0.1186339E+00
        -11   -1    0    0    0    0  0.00000000000E+00  0.00000000000E+00  0.45593999997E+02  0.45594000000E+02  0.51100000000E-03 0.  1.
         11   -1    0    0    0    0 -0.00000000000E+00 -0.00000000000E+00 -0.45593999997E+02  0.45594000000E+02  0.51100000000E-03 0. -1.
    9900012    2    1    2    0    0  0.50749131641E-01 -0.10959081642E+01 -0.43528042483E+00  0.90007720700E+02  0.89999981813E+02 0.  0.
         12    1    1    2    0    0 -0.50749131641E-01  0.10959081642E+01  0.43528042483E+00  0.11802793004E+01  0.00000000000E+00 0. -1.
         11    1    3    3    0    0  0.99125636194E+01 -0.71952389389E+00 -0.37812707241E+02  0.39097026246E+02  0.51100000000E-03 0. -1.
        -11    1    3    3    0    0  0.80874489410E+01  0.69880437152E+01  0.24638044253E+01  0.10968587778E+02  0.51100000000E-03 0.  1.
        -12    1    3    3    0    0 -0.17949263429E+02 -0.73644279854E+01  0.34913622391E+02  0.39942106675E+02  0.00000000000E+00 0.  1.
</event>
<event>
 7    1  0.2468912E-015  0.9000781E+02  0.7816164E-02  0.1186339E+00
        -11   -1    0    0    0    0  0.00000000000E+00  0.00000000000E+00  0.45593999997E+02  0.45594000000E+02  0.51100000000E-03 0. -1.
         11   -1    0    0    0    0 -0.00000000000E+00 -0.00000000000E+00 -0.45593999997E+02  0.45594000000E+02  0.51100000000E-03 0.  1.
    9900012    2    1    2    0    0 -0.34872621384E+00 -0.57364345817E+00 -0.97065157737E+00  0.90007813034E+02  0.90000075366E+02 0.  0.
         12    1    1    2    0    0  0.34872621384E+00  0.57364345817E+00  0.97065157737E+00  0.11801869657E+01  0.00000000000E+00 0. -1.
         11    1    3    3    0    0  0.19898275893E+02 -0.37801624876E+01  0.21136077676E+02  0.29273960984E+02  0.51100000000E-03 0. -1.
        -11    1    3    3    0    0  0.27783981477E+01 -0.15130731668E+00  0.15915319182E+02  0.16156725383E+02  0.51100000000E-03 0.  1.
        -12    1    3    3    0    0 -0.23025400254E+02  0.33578263461E+01 -0.38022048435E+02  0.44577126667E+02  0.00000000000E+00 0.  1.
</event>
<event>
 7    1  0.2468912E-015  0.9000779E+02  0.7816164E-02  0.1186339E+00
        -11   -1    0    0    0    0  0.00000000000E+00  0.00000000000E+00  0.45593999997E+02  0.45594000000E+02  0.51100000000E-03 0.  1.
         11   -1    0    0    0    0 -0.00000000000E+00 -0.00000000000E+00 -0.45593999997E+02  0.45594000000E+02  0.51100000000E-03 0. -1.
    9900012    2    1    2    0    0 -0.68438516485E+00 -0.84211613275E+00  0.46406871775E+00  0.90007787134E+02  0.90000049124E+02 0.  0.
         12    1    1    2    0    0  0.68438516485E+00  0.84211613275E+00 -0.46406871775E+00  0.11802128663E+01  0.00000000000E+00 0. -1.
         11    1    3    3    0    0 -0.84568487896E+01  0.27833117480E+01  0.45954780988E+01  0.10019158396E+02  0.51100000000E-03 0. -1.
        -11    1    3    3    0    0 -0.27516578124E+02  0.20807075139E+02  0.79442656973E+01  0.35400675209E+02  0.51100000000E-03 0.  1.
         12    1    3    3    0    0  0.35289041749E+02 -0.24432503020E+02 -0.12075675078E+02  0.44587953530E+02  0.00000000000E+00 0. -1.
</event>
<event>
 7    1  0.2468912E-015  0.9000771E+02  0.7816164E-02  0.1186339E+00
        -11   -1    0    0    0    0  0.00000000000E+00  0.00000000000E+00  0.45593999997E+02  0.45594000000E+02  0.51100000000E-03 0.  1.
         11   -1    0    0    0    0 -0.00000000000E+00 -0.00000000000E+00 -0.45593999997E+02  0.45594000000E+02  0.51100000000E-03 0. -1.
    9900012    2    1    2    0    0  0.98722433377E+00 -0.57821303810E+00  0.29009025745E+00  0.90007705732E+02  0.89999966647E+02 0.  0.
         12    1    1    2    0    0 -0.98722433377E+00  0.57821303810E+00 -0.29009025745E+00  0.11802942684E+01  0.00000000000E+00 0. -1.
         11    1    3    3    0    0  0.37123656449E+01  0.42777768380E+01 -0.19267878419E+02  0.20083131539E+02  0.51100000000E-03 0. -1.
        -11    1    3    3    0    0 -0.20412211449E+02  0.12145121578E+02  0.33986028597E+02  0.41463387397E+02  0.51100000000E-03 0.  1.
         12    1    3    3    0    0  0.17687070138E+02 -0.17001111455E+02 -0.14428059920E+02  0.28461186796E+02  0.00000000000E+00 0. -1.
</event>
<event>
 7    1  0.2468912E-015  0.9000777E+02  0.7816164E-02  0.1186339E+00
        -11   -1    0    0    0    0  0.00000000000E+00  0.00000000000E+00  0.45593999997E+02  0.45594000000E+02  0.51100000000E-03 0.  1.
         11   -1    0    0    0    0 -0.00000000000E+00 -0.00000000000E+00 -0.45593999997E+02  0.45594000000E+02  0.51100000000E-03 0. -1.
    9900012    2    1    2    0    0 -0.50354371631E+00 -0.87161923850E+00  0.61617059677E+00  0.90007770118E+02  0.90000031883E+02 0.  0.
         12    1    1    2    0    0  0.50354371631E+00  0.87161923850E+00 -0.61617059677E+00  0.11802298825E+01  0.00000000000E+00 0. -1.
         11    1    3    3    0    0 -0.10218817108E+02 -0.18390995410E+02 -0.36068625332E+02  0.41756420690E+02  0.51100000000E-03 0. -1.
        -11    1    3    3    0    0 -0.20961529847E+01 -0.51294444340E+01  0.43520718679E+01  0.70459624851E+01  0.51100000000E-03 0.  1.
        -12    1    3    3    0    0  0.11811426377E+02  0.22648820606E+02  0.32332724061E+02  0.41205386942E+02  0.00000000000E+00 0.  1.
</event>
<event>
 7    1  0.2468912E-015  0.9000773E+02  0.7816164E-02  0.1186339E+00
        -11   -1    0    0    0    0  0.00000000000E+00  0.00000000000E+00  0.45593999997E+02  0.45594000000E+02  0.51100000000E-03 0.  1.
         11   -1    0    0    0    0 -0.00000000000E+00 -0.00000000000E+00 -0.45593999997E+02  0.45594000000E+02  0.51100000000E-03 0. -1.
    9900012    2    1    2    0    0  0.14388103866E+00  0.94167011546E+00  0.69683999311E+00  0.90007732939E+02  0.89999994214E+02 0.  0.
         12    1    1    2    0    0 -0.14388103866E+00 -0.94167011546E+00 -0.69683999311E+00  0.11802670611E+01  0.00000000000E+00 0. -1.
         11    1    3    3    0    0 -0.47482474810E-01  0.66783811387E+01 -0.44560525286E+01  0.80286632523E+01  0.51100000000E-03 0. -1.
        -11    1    3    3    0    0 -0.13782117366E+02  0.31030677294E+02  0.20608234735E+02  0.39718371461E+02  0.51100000000E-03 0.  1.
         12    1    3    3    0    0  0.13973480879E+02 -0.36767388317E+02 -0.15455342213E+02  0.42260698225E+02  0.00000000000E+00 0. -1.
</event>
<event>
 7    1  0.2468912E-015  0.9000775E+02  0.7816164E-02  0.1186339E+00
        -11   -1    0    0    0    0  0.00000000000E+00  0.00000000000E+00  0.45593999997E+02  0.45594000000E+02  0.51100000000E-03 0. -1.
         11   -1    0    0    0    0 -0.00000000000E+00 -0.00000000000E+00 -0.45593999997E+02  0.45594000000E+02  0.51100000000E-03 0.  1.
    9900012    2    1    2    0    0  0.79263510654E-01 -0.11221188320E+01 -0.35715509131E+00  0.90007748698E+02  0.90000010181E+02 0.  0.
         12    1    1    2    0    0 -0.79263510654E-01  0.11221188320E+01  0.35715509131E+00  0.11802513023E+01  0.00000000000E+00 0. -1.
         11    1    3    3    0    0  0.12342791529E+02  0.34966670636E+02  0.19717341216E+02  0.41997453529E+02  0.51100000000E-03 0. -1.
        -11    1    3    3    0    0  0.17581957492E+01 -0.70506640555E+01  0.35000516964E+01  0.80655736345E+01  0.51100000000E-03 0.  1.
        -12    1    3    3    0    0 -0.14021723768E+02 -0.29038125412E+02 -0.23574548003E+02  0.39944721534E+02  0.00000000000E+00 0.  1.
</event>
<event>
 7    1  0.2468912E-015  0.9000784E+02  0.7816164E-02  0.1186339E+00
        -11   -1    0    0    0    0  0.00000000000E+00  0.00000000000E+00  0.45593999997E+02  0.45594000000E+02  0.51100000000E-03 0. -1.
         11   -1    0    0    0    0 -0.00000000000E+00 -0.00000000000E+00 -0.45593999997E+02  0.45594000000E+02  0.51100000000E-03 0.  1.
    9900012    2    1    2    0    0 -0.65911745005E+00  0.35334399247E+00 -0.91296133778E+00  0.90007836370E+02  0.90000099010E+02 0.  0.
         12    1    1    2    0    0  0.65911745005E+00 -0.35334399247E+00  0.91296133778E+00  0.11801636303E+01  0.00000000000E+00 0. -1.
         11    1    3    3    0    0  0.21750328060E+02 -0.18750570223E+02 -0.28201627406E+02  0.40249129717E+02  0.51100000000E-03 0. -1.
        -11    1    3    3    0    0  0.54180321875E+01 -0.11465555125E+01  0.95519366023E+01  0.11041247912E+02  0.51100000000E-03 0.  1.
        -12    1    3    3    0    0 -0.27827477698E+02  0.20250469728E+02  0.17736729465E+02  0.38717458741E+02  0.00000000000E+00 0.  1.
</event>
<event>
 7    1  0.2468912E-015  0.9000791E+02  0.7816164E-02  0.1186339E+00
        -11   -1    0    0    0    0  0.00000000000E+00  0.00000000000E+00  0.45593999997E+02  0.45594000000E+02  0.51100000000E-03 0. -1.
         11   -1    0    0    0    0 -0.00000000000E+00 -0.00000000000E+00 -0.45593999997E+02  0.45594000000E+02  0.51100000000E-03 0.  1.
    9900012    2    1    2    0    0 -0.93029482885E+00 -0.64620509719E-01  0.72318337912E+00  0.90007907428E+02  0.90000171006E+02 0.  0.
         12    1    1    2    0    0  0.93029482885E+00  0.64620509719E-01 -0.72318337912E+00  0.11800925721E+01  0.00000000000E+00 0. -1.
         11    1    3    3    0    0 -0.27733972248E+02 -0.27022951873E+02  0.20163373387E+02  0.43657470966E+02  0.51100000000E-03 0. -1.
        -11    1    3    3    0    0  0.22892090721E+01  0.12435952184E+01 -0.89279446019E+01  0.93002796904E+01  0.51100000000E-03 0.  1.
        -12    1    3    3    0    0  0.24514468347E+02  0.25714736145E+02 -0.10512245406E+02  0.37050156771E+02  0.00000000000E+00 0.  1.
</event>
<event>
 7    1  0.2468912E-015  0.9000770E+02  0.7816164E-02  0.1186339E+00
        -11   -1    0    0    0    0  0.00000000000E+00  0.00000000000E+00  0.45593999997E+02  0.45594000000E+02  0.51100000000E-03 0.  1.
         11   -1    0    0    0    0 -0.00000000000E+00 -0.00000000000E+00 -0.45593999997E+02  0.45594000000E+02  0.51100000000E-03 0. -1.
    9900012    2    1    2    0    0  0.11383470959E+01 -0.29162337961E+00  0.11058448738E+00  0.90007700362E+02  0.89999961207E+02 0.  0.
         12    1    1    2    0    0 -0.11383470959E+01  0.29162337961E+00 -0.11058448738E+00  0.11802996379E+01  0.00000000000E+00 0. -1.
         11    1    3    3    0    0 -0.15154308020E+02  0.30028981093E+02 -0.10957340138E+02  0.35375924867E+02  0.51100000000E-03 0. -1.
        -11    1    3    3    0    0 -0.31554974538E+01  0.75714225732E+01 -0.44125741623E+01  0.93142050096E+01  0.51100000000E-03 0.  1.
        -12    1    3    3    0    0  0.19448152570E+02 -0.37892027046E+02  0.15480498788E+02  0.45317570486E+02  0.00000000000E+00 0.  1.
</event>
<event>
 7    1  0.2468912E-015  0.9000775E+02  0.7816164E-02  0.1186339E+00
        -11   -1    0    0    0    0  0.00000000000E+00  0.00000000000E+00  0.45593999997E+02  0.45594000000E+02  0.51100000000E-03 0. -1.
         11   -1    0    0    0    0 -0.00000000000E+00 -0.00000000000E+00 -0.45593999997E+02  0.45594000000E+02  0.51100000000E-03 0.  1.
    9900012    2    1    2    0    0 -0.87297421665E+00  0.76701904880E+00 -0.20636687436E+00  0.90007750242E+02  0.90000011745E+02 0.  0.
         12    1    1    2    0    0  0.87297421665E+00 -0.76701904880E+00  0.20636687436E+00  0.11802497579E+01  0.00000000000E+00 0. -1.
         11    1    3    3    0    0 -0.28046289874E+01  0.66095874452E+01 -0.63086854512E+01  0.95578293737E+01  0.51100000000E-03 0. -1.
        -11    1    3    3    0    0 -0.14673261270E+02 -0.10044894147E+02 -0.33152800556E+02  0.37620641671E+02  0.51100000000E-03 0.  1.
         12    1    3    3    0    0  0.16604916041E+02  0.42023257502E+01  0.39255119133E+02  0.42829279198E+02  0.00000000000E+00 0. -1.
</event>
<event>
 7    1  0.2468912E-015  0.9000737E+02  0.7816164E-02  0.1186340E+00
        -11   -1    0    0    0    0  0.00000000000E+00  0.00000000000E+00  0.45593999997E+02  0.45594000000E+02  0.51100000000E-03 0. -1.
         11   -1    0    0    0    0 -0.00000000000E+00 -0.00000000000E+00 -0.45593999997E+02  0.45594000000E+02  0.51100000000E-03 0.  1.
    9900012    2    1    2    0    0  0.40927137001E+00 -0.15049934123E+00 -0.10971437091E+01  0.90007374139E+02  0.89999630677E+02 0.  0.
         12    1    1    2    0    0 -0.40927137001E+00  0.15049934123E+00  0.10971437091E+01  0.11806258613E+01  0.00000000000E+00 0. -1.
         11    1    3    3    0    0 -0.86551654235E+01 -0.12199645239E+01  0.31152928262E+01  0.92792915463E+01  0.51100000000E-03 0. -1.
        -11    1    3    3    0    0 -0.16750448051E+02  0.26116713198E+02 -0.24408459422E+02  0.39476994690E+02  0.51100000000E-03 0.  1.
         12    1    3    3    0    0  0.25814884844E+02 -0.25047248015E+02  0.20196022887E+02  0.41251087902E+02  0.00000000000E+00 0. -1.
</event>
<event>
 7    1  0.2468912E-015  0.9000778E+02  0.7816164E-02  0.1186339E+00
        -11   -1    0    0    0    0  0.00000000000E+00  0.00000000000E+00  0.45593999997E+02  0.45594000000E+02  0.51100000000E-03 0.  1.
         11   -1    0    0    0    0 -0.00000000000E+00 -0.00000000000E+00 -0.45593999997E+02  0.45594000000E+02  0.51100000000E-03 0. -1.
    9900012    2    1    2    0    0  0.56981432115E+00 -0.99715664059E+00 -0.27186276520E+00  0.90007780067E+02  0.90000041964E+02 0.  0.
         12    1    1    2    0    0 -0.56981432115E+00  0.99715664059E+00  0.27186276520E+00  0.11802199327E+01  0.00000000000E+00 0. -1.
         11    1    3    3    0    0  0.32419725083E+01  0.73831334263E+01 -0.47970150915E+01  0.93825582324E+01  0.51100000000E-03 0. -1.
        -11    1    3    3    0    0  0.28707168858E+00  0.34441360383E+02  0.13106592148E+02  0.36852034858E+02  0.51100000000E-03 0.  1.
         12    1    3    3    0    0 -0.29592298757E+01 -0.42821650450E+02 -0.85814398218E+01  0.43773186977E+02  0.00000000000E+00 0. -1.
</event>
<event>
 7    1  0.2468912E-015  0.9000894E+02  0.7816164E-02  0.1186337E+00
        -11   -1    0    0    0    0  0.00000000000E+00  0.00000000000E+00  0.45593999997E+02  0.45594000000E+02  0.51100000000E-03 0.  1.
         11   -1    0    0    0    0 -0.00000000000E+00 -0.00000000000E+00 -0.45593999997E+02  0.45594000000E+02  0.51100000000E-03 0. -1.
    9900012    2    1    2    0    0 -0.31595194021E+00  0.10541909873E+01  0.42311708925E+00  0.90008944303E+02  0.90001221559E+02 0.  0.
         12    1    1    2    0    0  0.31595194021E+00 -0.10541909873E+01 -0.42311708925E+00  0.11790556973E+01  0.00000000000E+00 0. -1.
         11    1    3    3    0    0  0.34110229682E+01  0.76140821356E-01  0.95947326924E+01  0.10183308441E+02  0.51100000000E-03 0. -1.
        -11    1    3    3    0    0 -0.21026716495E+02  0.69649986336E+00  0.30208329795E+02  0.36812377102E+02  0.51100000000E-03 0.  1.
         12    1    3    3    0    0  0.17299741587E+02  0.28155030255E+00 -0.39379945398E+02  0.43013258759E+02  0.00000000000E+00 0. -1.
</event>
<event>
 7    1  0.2468912E-015  0.9000761E+02  0.7816164E-02  0.1186339E+00
        -11   -1    0    0    0    0  0.00000000000E+00  0.00000000000E+00  0.45593999997E+02  0.45594000000E+02  0.51100000000E-03 0. -1.
         11   -1    0    0    0    0 -0.00000000000E+00 -0.00000000000E+00 -0.45593999997E+02  0.45594000000E+02  0.51100000000E-03 0.  1.
    9900012    2    1    2    0    0  0.37155957941E+00 -0.10825063938E+01 -0.28887178515E+00  0.90007608742E+02  0.89999868377E+02 0.  0.
         12    1    1    2    0    0 -0.37155957941E+00  0.10825063938E+01  0.28887178515E+00  0.11803912580E+01  0.00000000000E+00 0. -1.
         11    1    3    3    0    0 -0.35814843915E+02 -0.16161940870E+02 -0.83320167049E+01  0.40166327688E+02  0.51100000000E-03 0. -1.
        -11    1    3    3    0    0  0.55453656937E+01 -0.87331770729E+01  0.24834336831E+01  0.10638933480E+02  0.51100000000E-03 0.  1.
        -12    1    3    3    0    0  0.30641037801E+02  0.23812611549E+02  0.55597112366E+01  0.39202347574E+02  0.00000000000E+00 0.  1.
</event>
<event>
 7    1  0.2468912E-015  0.9000775E+02  0.7816164E-02  0.1186339E+00
        -11   -1    0    0    0    0  0.00000000000E+00  0.00000000000E+00  0.45593999997E+02  0.45594000000E+02  0.51100000000E-03 0.  1.
         11   -1    0    0    0    0 -0.00000000000E+00 -0.00000000000E+00 -0.45593999997E+02  0.45594000000E+02  0.51100000000E-03 0. -1.
    9900012    2    1    2    0    0  0.94969360092E+00  0.68601035142E+00  0.14305905231E+00  0.90007748319E+02  0.90000009797E+02 0.  0.
         12    1    1    2    0    0 -0.94969360092E+00 -0.68601035142E+00 -0.14305905231E+00  0.11802516809E+01  0.00000000000E+00 0. -1.
         11    1    3    3    0    0  0.16745258722E+02  0.16154187807E+02 -0.31711351269E+02  0.39331555689E+02  0.51100000000E-03 0. -1.
        -11    1    3    3    0    0  0.13946373737E+01  0.90008677375E+01  0.45472153281E+01  0.10180265268E+02  0.51100000000E-03 0.  1.
        -12    1    3    3    0    0 -0.17190202495E+02 -0.24469045193E+02  0.27307194993E+02  0.40495927361E+02  0.00000000000E+00 0.  1.
</event>
<event>
 7    1  0.2468912E-015  0.9000782E+02  0.7816164E-02  0.1186339E+00
        -11   -1    0    0    0    0  0.00000000000E+00  0.00000000000E+00  0.45593999997E+02  0.45594000000E+02  0.51100000000E-03 0. -1.
         11   -1    0    0    0    0 -0.00000000000E+00 -0.00000000000E+00 -0.45593999997E+02  0.45594000000E+02  0.51100000000E-03 0.  1.
    9900012    2    1    2    0    0  0.37148368669E-01 -0.91784214071E+00 -0.74094637774E+00  0.90007823856E+02  0.90000086331E+02 0.  0.
         12    1    1    2    0    0 -0.37148368669E-01  0.91784214071E+00  0.74094637774E+00  0.11801761442E+01  0.00000000000E+00 0. -1.
         11    1    3    3    0    0 -0.93384673439E+01  0.35970815891E+02 -0.16961434085E+01  0.37201928323E+02  0.51100000000E-03 0. -1.
        -11    1    3    3    0    0 -0.26117324317E+01  0.49843969806E+01  0.68375249101E+01  0.88553433989E+01  0.51100000000E-03 0.  1.
        -12    1    3    3    0    0  0.11987348144E+02 -0.41873055013E+02 -0.58823278793E+01  0.43950552134E+02  0.00000000000E+00 0.  1.
</event>
<event>
 7    1  0.2468912E-015  0.9000775E+02  0.7816164E-02  0.1186339E+00
        -11   -1    0    0    0    0  0.00000000000E+00  0.00000000000E+00  0.45593999997E+02  0.45594000000E+02  0.51100000000E-03 0.  1.
         11   -1    0    0    0    0 -0.00000000000E+00 -0.00000000000E+00 -0.45593999997E+02  0.45594000000E+02  0.51100000000E-03 0. -1.
    9900012    2    1    2    0    0 -0.68749367453E+00  0.91181700729E+00  0.29820889121E+00  0.90007751573E+02  0.90000013093E+02 0.  0.
         12    1    1    2    0    0  0.68749367453E+00 -0.91181700729E+00 -0.29820889121E+00  0.11802484273E+01  0.00000000000E+00 0. -1.
         11    1    3    3    0    0  0.90650395305E+01 -0.63138211794E+00 -0.23883131864E+00  0.90901389279E+01  0.51100000000E-03 0. -1.
        -11    1    3    3    0    0 -0.36153132807E+01 -0.37523819899E+02  0.12309461033E+02  0.39656404036E+02  0.51100000000E-03 0.  1.
         12    1    3    3    0    0 -0.61372199244E+01  0.39067019024E+02 -0.11772420823E+02  0.41261208609E+02  0.00000000000E+00 0. -1.
</event>
<event>
 7    1  0.2468912E-015  0.9000762E+02  0.7816164E-02  0.1186339E+00
        -11   -1    0    0    0    0  0.00000000000E+00  0.00000000000E+00  0.45593999997E+02  0.45594000000E+02  0.51100000000E-03 0. -1.
         11   -1    0    0    0    0 -0.00000000000E+00 -0.00000000000E+00 -0.45593999997E+02  0.45594000000E+02  0.51100000000E-03 0.  1.
    9900012    2    1    2    0    0 -0.10985389431E+01 -0.28437987883E+00  0.32500104760E+00  0.90007624888E+02  0.89999884736E+02 0.  0.
         12    1    1    2    0    0  0.10985389431E+01  0.28437987883E+00 -0.32500104760E+00  0.11803751124E+01  0.00000000000E+00 0. -1.
         11    1    3    3    0    0  0.13740152603E+01  0.81195526245E+01  0.35003633874E+02  0.35959274706E+02  0.51100000000E-03 0. -1.
        -11    1    3    3    0    0  0.68168574082E+01 -0.10317595698E+01  0.75275137016E+01  0.10207719409E+02  0.51100000000E-03 0.  1.
        -12    1    3    3    0    0 -0.92894116117E+01 -0.73721729336E+01 -0.42206146528E+02  0.43840630773E+02  0.00000000000E+00 0.  1.
</event>
<event>
 7    1  0.2468912E-015  0.9000796E+02  0.7816164E-02  0.1186339E+00
        -11   -1    0    0    0    0  0.00000000000E+00  0.00000000000E+00  0.45593999997E+02  0.45594000000E+02  0.51100000000E-03 0.  1.
         11   -1    0    0    0    0 -0.00000000000E+00 -0.00000000000E+00 -0.45593999997E+02  0.45594000000E+02  0.51100000000E-03 0. -1.
    9900012    2    1    2    0    0 -0.11276421191E+01  0.34365946555E+00  0.52964188819E-01  0.90007964500E+02  0.90000228831E+02 0.  0.
         12    1    1    2    0    0  0.11276421191E+01 -0.34365946555E+00 -0.52964188819E-01  0.11800355005E+01  0.00000000000E+00 0. -1.
         11    1    3    3    0    0  0.13990607624E+02 -0.72349411686E+01  0.16876464451E+02  0.23084551719E+02  0.51100000000E-03 0.  1.
        -11    1    3    3    0    0 -0.37443480920E+02  0.95855315278E+01 -0.21202396368E+02  0.44084444989E+02  0.51100000000E-03 0. -1.
         12    1    3    3    0    0  0.22325231176E+02 -0.20069308936E+01  0.43788961050E+01  0.22838967792E+02  0.00000000000E+00 0. -1.
</event>
<event>
 7    1  0.2468912E-015  0.9000776E+02  0.7816164E-02  0.1186339E+00
        -11   -1    0    0    0    0  0.00000000000E+00  0.00000000000E+00  0.45593999997E+02  0.45594000000E+02  0.51100000000E-03 0.  1.
         11   -1    0    0    0    0 -0.00000000000E+00 -0.00000000000E+00 -0.45593999997E+02  0.45594000000E+02  0.51100000000E-03 0. -1.
    9900012    2    1    2    0    0 -0.90274776726E-01  0.64026824556E+00  0.98735279775E+00  0.90007763367E+02  0.90000025044E+02 0.  0.
         12    1    1    2    0    0  0.90274776726E-01 -0.64026824556E+00 -0.98735279775E+00  0.11802366325E+01  0.00000000000E+00 0. -1.
         11    1    3    3    0    0  0.46581706728E+01 -0.51229595526E+01  0.37295494376E+01  0.78646556099E+01  0.51100000000E-03 0. -1.
        -11    1    3    3    0    0  0.38274063423E+02  0.98178330914E+00 -0.59093345014E+01  0.38740005987E+02  0.51100000000E-03 0.  1.
         12    1    3    3    0    0 -0.43022508872E+02  0.47814444890E+01  0.31671378615E+01  0.43403101771E+02  0.00000000000E+00 0. -1.
</event>
<event>
 7    1  0.2468912E-015  0.9000776E+02  0.7816164E-02  0.1186339E+00
        -11   -1    0    0    0    0  0.00000000000E+00  0.00000000000E+00  0.45593999997E+02  0.45594000000E+02  0.51100000000E-03 0. -1.
         11   -1    0    0    0    0 -0.00000000000E+00 -0.00000000000E+00 -0.45593999997E+02  0.45594000000E+02  0.51100000000E-03 0.  1.
    9900012    2    1    2    0    0  0.82356428330E+00  0.84306050719E+00  0.62950402976E-01  0.90007757694E+02  0.90000019296E+02 0.  0.
         12    1    1    2    0    0 -0.82356428330E+00 -0.84306050719E+00 -0.62950402976E-01  0.11802423059E+01  0.00000000000E+00 0. -1.
         11    1    3    3    0    0  0.56777912702E+01  0.55089358336E+01  0.54933569630E+01  0.96313373272E+01  0.51100000000E-03 0. -1.
        -11    1    3    3    0    0 -0.23330338218E+02  0.31415146253E+02  0.19247165340E+01  0.39178063116E+02  0.51100000000E-03 0.  1.
         12    1    3    3    0    0  0.18476111231E+02 -0.36081021580E+02 -0.73551230941E+01  0.41198357251E+02  0.00000000000E+00 0. -1.
</event>
<event>
 7    1  0.2468912E-015  0.9000756E+02  0.7816164E-02  0.1186339E+00
        -11   -1    0    0    0    0  0.00000000000E+00  0.00000000000E+00  0.45593999997E+02  0.45594000000E+02  0.51100000000E-03 0.  1.
         11   -1    0    0    0    0 -0.00000000000E+00 -0.00000000000E+00 -0.45593999997E+02  0.45594000000E+02  0.51100000000E-03 0. -1.
    9900012    2    1    2    0    0  0.11121358536E+01  0.20497700799E+00 -0.33848964140E+00  0.90007560689E+02  0.89999819689E+02 0.  0.
         12    1    1    2    0    0 -0.11121358536E+01 -0.20497700799E+00  0.33848964140E+00  0.11804393115E+01  0.00000000000E+00 0. -1.
         11    1    3    3    0    0 -0.60265657905E+01 -0.71055049886E+01  0.35926044940E+01  0.99857149810E+01  0.51100000000E-03 0. -1.
        -11    1    3    3    0    0  0.23010404157E+02  0.22254108238E+02  0.27207016096E+02  0.42011257516E+02  0.51100000000E-03 0.  1.
         12    1    3    3    0    0 -0.15871702513E+02 -0.14943626242E+02 -0.31138110231E+02  0.38010588192E+02  0.00000000000E+00 0. -1.
</event>
<event>
 7    1  0.2468912E-015  0.9000778E+02  0.7816164E-02  0.1186339E+00
        -11   -1    0    0    0    0  0.00000000000E+00  0.00000000000E+00  0.45593999997E+02  0.45594000000E+02  0.51100000000E-03 0.  1.
         11   -1    0    0    0    0 -0.00000000000E+00 -0.00000000000E+00 -0.45593999997E+02  0.45594000000E+02  0.51100000000E-03 0. -1.
    9900012    2    1    2    0    0 -0.27533579731E+00 -0.57516008667E-01  0.11462083804E+01  0.90007783264E+02  0.90000045203E+02 0.  0.
         12    1    1    2    0    0  0.27533579731E+00  0.57516008667E-01 -0.11462083804E+01  0.11802167360E+01  0.00000000000E+00 0. -1.
         11    1    3    3    0    0 -0.96945265703E+00 -0.33115019264E+02 -0.22610848614E+02  0.40109784525E+02  0.51100000000E-03 0. -1.
        -11    1    3    3    0    0  0.94907203828E+01  0.82050841033E+00  0.12462447307E+01  0.96072958540E+01  0.51100000000E-03 0.  1.
        -12    1    3    3    0    0 -0.87966035231E+01  0.32236994845E+02  0.22510812264E+02  0.40290702885E+02  0.00000000000E+00 0.  1.
</event>
<event>
 7    1  0.2468912E-015  0.9000772E+02  0.7816164E-02  0.1186339E+00
        -11   -1    0    0    0    0  0.00000000000E+00  0.00000000000E+00  0.45593999997E+02  0.45594000000E+02  0.51100000000E-03 0.  1.
         11   -1    0    0    0    0 -0.00000000000E+00 -0.00000000000E+00 -0.45593999997E+02  0.45594000000E+02  0.51100000000E-03 0. -1.
    9900012    2    1    2    0    0  0.11799421625E+01  0.28179946187E-01 -0.19775972783E-02  0.90007719725E+02  0.89999980826E+02 0.  0.
         12    1    1    2    0    0 -0.11799421625E+01 -0.28179946187E-01  0.19775972783E-02  0.11802802748E+01  0.00000000000E+00 0. -1.
         11    1    3    3    0    0 -0.20550119113E+02  0.16979963639E+02 -0.26396057646E+02  0.37515042586E+02  0.51100000000E-03 0. -1.
        -11    1    3    3    0    0 -0.23425646506E+01  0.72752623442E+01  0.14385415387E+02  0.16289789055E+02  0.51100000000E-03 0.  1.
        -12    1    3    3    0    0  0.24072625926E+02 -0.24227046037E+02  0.12008664662E+02  0.36202888084E+02  0.00000000000E+00 0.  1.
</event>
<event>
 7    1  0.2468912E-015  0.9000771E+02  0.7816164E-02  0.1186339E+00
        -11   -1    0    0    0    0  0.00000000000E+00  0.00000000000E+00  0.45593999997E+02  0.45594000000E+02  0.51100000000E-03 0.  1.
         11   -1    0    0    0    0 -0.00000000000E+00 -0.00000000000E+00 -0.45593999997E+02  0.45594000000E+02  0.51100000000E-03 0. -1.
    9900012    2    1    2    0    0 -0.81323734832E+00 -0.85539670174E+00 -0.40333625015E-02  0.90007714115E+02  0.89999975141E+02 0.  0.
         12    1    1    2    0    0  0.81323734832E+00  0.85539670174E+00  0.40333625015E-02  0.11802858849E+01  0.00000000000E+00 0. -1.
         11    1    3    3    0    0  0.29555565868E+02 -0.21670507637E+02 -0.62687679868E+01  0.37181175713E+02  0.51100000000E-03 0. -1.
        -11    1    3    3    0    0  0.83430141844E+01 -0.37332463614E-01 -0.40432006383E+00  0.83528889834E+01  0.51100000000E-03 0.  1.
        -12    1    3    3    0    0 -0.38711817401E+02  0.20852443399E+02  0.66690546881E+01  0.44473649419E+02  0.00000000000E+00 0.  1.
</event>
<event>
 7    1  0.2468912E-015  0.9000796E+02  0.7816164E-02  0.1186339E+00
        -11   -1    0    0    0    0  0.00000000000E+00  0.00000000000E+00  0.45593999997E+02  0.45594000000E+02  0.51100000000E-03 0.  1.
         11   -1    0    0    0    0 -0.00000000000E+00 -0.00000000000E+00 -0.45593999997E+02  0.45594000000E+02  0.51100000000E-03 0. -1.
    9900012    2    1    2    0    0  0.75682083720E+00  0.37482050776E+00  0.82414835593E+00  0.90007962414E+02  0.90000226717E+02 0.  0.
         12    1    1    2    0    0 -0.75682083720E+00 -0.37482050776E+00 -0.82414835593E+00  0.11800375864E+01  0.00000000000E+00 0. -1.
         11    1    3    3    0    0 -0.22820852906E+02 -0.19566315464E+01 -0.37034688849E+02  0.43545239841E+02  0.51100000000E-03 0. -1.
        -11    1    3    3    0    0  0.10860456369E+01  0.35415442197E+01  0.98316418861E+01  0.10506341562E+02  0.51100000000E-03 0.  1.
        -12    1    3    3    0    0  0.22491628106E+02 -0.12100921655E+01  0.28027195319E+02  0.35956381011E+02  0.00000000000E+00 0.  1.
</event>
<event>
 7    1  0.2516269E-015  0.9000803E+02  0.7816164E-02  0.1186338E+00
        -11   -1    0    0    0    0  0.00000000000E+00  0.00000000000E+00  0.45593999997E+02  0.45594000000E+02  0.51100000000E-03 0. -1.
         11   -1    0    0    0    0 -0.00000000000E+00 -0.00000000000E+00 -0.45593999997E+02  0.45594000000E+02  0.51100000000E-03 0.  1.
    9900012    2    1    2    0    0  0.12215010963E+00 -0.32317804242E+00 -0.11282599464E+01  0.90008027457E+02  0.90000292619E+02 0.  0.
         12    1    1    2    0    0 -0.12215010963E+00  0.32317804242E+00  0.11282599464E+01  0.11799725434E+01  0.00000000000E+00 0. -1.
         11    1    3    3    0    0  0.17952537765E+02 -0.10175478734E+01  0.36220355738E+02  0.40438140238E+02  0.51100000000E-03 0. -1.
        -11    1    3    3    0    0  0.57415605278E+01  0.57553889521E+01 -0.64448020686E+01  0.10374270733E+02  0.51100000000E-03 0.  1.
        -12    1    3    3    0    0 -0.23571948183E+02 -0.50610191211E+01 -0.30903813616E+02  0.39195616485E+02  0.00000000000E+00 0.  1.
</event>
<event>
 7    1  0.2468912E-015  0.9000799E+02  0.7816164E-02  0.1186339E+00
        -11   -1    0    0    0    0  0.00000000000E+00  0.00000000000E+00  0.45593999997E+02  0.45594000000E+02  0.51100000000E-03 0.  1.
         11   -1    0    0    0    0 -0.00000000000E+00 -0.00000000000E+00 -0.45593999997E+02  0.45594000000E+02  0.51100000000E-03 0. -1.
    9900012    2    1    2    0    0  0.95810492815E+00  0.15515203658E+00  0.67110503429E+00  0.90007991875E+02  0.90000256567E+02 0.  0.
         12    1    1    2    0    0 -0.95810492815E+00 -0.15515203658E+00 -0.67110503429E+00  0.11800081249E+01  0.00000000000E+00 0. -1.
         11    1    3    3    0    0 -0.47754308094E+01  0.98388887622E+01  0.83250024158E+00  0.10968205341E+02  0.51100000000E-03 0. -1.
        -11    1    3    3    0    0 -0.33587576914E+02  0.27398629285E+01  0.12437417475E+02  0.35921045719E+02  0.51100000000E-03 0.  1.
         12    1    3    3    0    0  0.39321112652E+02 -0.12423599654E+02 -0.12598812682E+02  0.43118740815E+02  0.00000000000E+00 0. -1.
</event>
<event>
 7    1  0.3456678E-015  0.9000884E+02  0.7816164E-02  0.1186337E+00
        -11   -1    0    0    0    0  0.00000000000E+00  0.00000000000E+00  0.45593999997E+02  0.45594000000E+02  0.51100000000E-03 0. -1.
         11   -1    0    0    0    0 -0.00000000000E+00 -0.00000000000E+00 -0.45593999997E+02  0.45594000000E+02  0.51100000000E-03 0.  1.
    9900012    2    1    2    0    0  0.19055201505E-02 -0.11387069785E+01  0.30619203365E+00  0.90008843193E+02  0.90001119116E+02 0.  0.
         12    1    1    2    0    0 -0.19055201505E-02  0.11387069785E+01 -0.30619203365E+00  0.11791568070E+01  0.00000000000E+00 0. -1.
         11    1    3    3    0    0  0.25903426598E+02  0.28041315770E+02  0.43133199511E+01  0.38417543244E+02  0.51100000000E-03 0. -1.
        -11    1    3    3    0    0  0.80860131711E+01 -0.56668505083E+01  0.11573674477E+01  0.99416449020E+01  0.51100000000E-03 0.  1.
        -12    1    3    3    0    0 -0.33987534249E+02 -0.23513172241E+02 -0.51644953651E+01  0.41649655047E+02  0.00000000000E+00 0.  1.
</event>
<event>
 7    1  0.2468912E-015  0.9000749E+02  0.7816164E-02  0.1186340E+00
        -11   -1    0    0    0    0  0.00000000000E+00  0.00000000000E+00  0.45593999997E+02  0.45594000000E+02  0.51100000000E-03 0. -1.
         11   -1    0    0    0    0 -0.00000000000E+00 -0.00000000000E+00 -0.45593999997E+02  0.45594000000E+02  0.51100000000E-03 0.  1.
    9900012    2    1    2    0    0  0.16298386919E+00 -0.53131648499E+00 -0.10415051475E+01  0.90007494210E+02  0.89999752333E+02 0.  0.
         12    1    1    2    0    0 -0.16298386919E+00  0.53131648499E+00  0.10415051475E+01  0.11805057904E+01  0.00000000000E+00 0. -1.
         11    1    3    3    0    0  0.14120666334E+01  0.73657222213E+01  0.66791107162E+01  0.10042824117E+02  0.51100000000E-03 0. -1.
        -11    1    3    3    0    0  0.36080935628E+02 -0.16068131903E+02 -0.12559088817E+02  0.41445741529E+02  0.51100000000E-03 0.  1.
         12    1    3    3    0    0 -0.37330018392E+02  0.81710931970E+01  0.48384729537E+01  0.38518928564E+02  0.00000000000E+00 0. -1.
</event>
<event>
 7    1  0.2468912E-015  0.9000788E+02  0.7816164E-02  0.1186339E+00
        -11   -1    0    0    0    0  0.00000000000E+00  0.00000000000E+00  0.45593999997E+02  0.45594000000E+02  0.51100000000E-03 0.  1.
         11   -1    0    0    0    0 -0.00000000000E+00 -0.00000000000E+00 -0.45593999997E+02  0.45594000000E+02  0.51100000000E-03 0. -1.
    9900012    2    1    2    0    0 -0.14301473663E-01 -0.11704234518E+01  0.15026668948E+00  0.90007883198E+02  0.90000146456E+02 0.  0.
         12    1    1    2    0    0  0.14301473663E-01  0.11704234518E+01 -0.15026668948E+00  0.11801168021E+01  0.00000000000E+00 0. -1.
         11    1    3    3    0    0 -0.19573085713E+01  0.74061632188E+01 -0.42319891434E+02  0.43007621670E+02  0.51100000000E-03 0. -1.
        -11    1    3    3    0    0 -0.25558314676E+01 -0.86812437513E+01  0.75334731480E+01  0.11774951613E+02  0.51100000000E-03 0.  1.
        -12    1    3    3    0    0  0.44988385653E+01  0.10465708065E+00  0.34936684975E+02  0.35225309915E+02  0.00000000000E+00 0.  1.
</event>
<event>
 7    1  0.2468912E-015  0.9000774E+02  0.7816164E-02  0.1186339E+00
        -11   -1    0    0    0    0  0.00000000000E+00  0.00000000000E+00  0.45593999997E+02  0.45594000000E+02  0.51100000000E-03 0.  1.
         11   -1    0    0    0    0 -0.00000000000E+00 -0.00000000000E+00 -0.45593999997E+02  0.45594000000E+02  0.51100000000E-03 0. -1.
    9900012    2    1    2    0    0 -0.10730291217E+01  0.25045135097E+00  0.42296552840E+00  0.90007738498E+02  0.89999999846E+02 0.  0.
         12    1    1    2    0    0  0.10730291217E+01 -0.25045135097E+00 -0.42296552840E+00  0.11802615021E+01  0.00000000000E+00 0. -1.
         11    1    3    3    0    0 -0.81802791312E+01  0.19292798629E+01  0.60663657015E+01  0.10365321053E+02  0.51100000000E-03 0. -1.
        -11    1    3    3    0    0 -0.24300552736E+02 -0.14069037317E+02  0.22266792394E+02  0.35836639325E+02  0.51100000000E-03 0.  1.
         12    1    3    3    0    0  0.31407802745E+02  0.12390208805E+02 -0.27910192568E+02  0.43805778120E+02  0.00000000000E+00 0. -1.
</event>
<event>
 7    1  0.2468912E-015  0.9000781E+02  0.7816164E-02  0.1186339E+00
        -11   -1    0    0    0    0  0.00000000000E+00  0.00000000000E+00  0.45593999997E+02  0.45594000000E+02  0.51100000000E-03 0.  1.
         11   -1    0    0    0    0 -0.00000000000E+00 -0.00000000000E+00 -0.45593999997E+02  0.45594000000E+02  0.51100000000E-03 0. -1.
    9900012    2    1    2    0    0 -0.11275680985E+01 -0.19448866949E+00 -0.28914360175E+00  0.90007813709E+02  0.90000076050E+02 0.  0.
         12    1    1    2    0    0  0.11275680985E+01  0.19448866949E+00  0.28914360175E+00  0.11801862912E+01  0.00000000000E+00 0. -1.
         11    1    3    3    0    0 -0.16575206369E+02 -0.30123074115E+02 -0.24464742737E+02  0.42197875513E+02  0.51100000000E-03 0. -1.
        -11    1    3    3    0    0 -0.24364908706E+01 -0.27176344512E+00  0.94236642110E+01  0.97373400144E+01  0.51100000000E-03 0.  1.
        -12    1    3    3    0    0  0.17884129141E+02  0.30200348891E+02  0.14751934925E+02  0.38072598182E+02  0.00000000000E+00 0.  1.
</event>
<event>
 7    1  0.2468912E-015  0.9000780E+02  0.7816164E-02  0.1186339E+00
        -11   -1    0    0    0    0  0.00000000000E+00  0.00000000000E+00  0.45593999997E+02  0.45594000000E+02  0.51100000000E-03 0. -1.
         11   -1    0    0    0    0 -0.00000000000E+00 -0.00000000000E+00 -0.45593999997E+02  0.45594000000E+02  0.51100000000E-03 0.  1.
    9900012    2    1    2    0    0  0.39334872639E+00  0.11127249746E+01  0.75366655805E-03  0.90007796349E+02  0.90000058461E+02 0.  0.
         12    1    1    2    0    0 -0.39334872639E+00 -0.11127249746E+01 -0.75366655805E-03  0.11802036509E+01  0.00000000000E+00 0. -1.
         11    1    3    3    0    0 -0.23502424892E+02  0.24008716144E+02 -0.10899552885E+01  0.33615032790E+02  0.51100000000E-03 0. -1.
        -11    1    3    3    0    0  0.17638709961E+02  0.63633433517E+01  0.14402576307E+02  0.23644247339E+02  0.51100000000E-03 0.  1.
        -12    1    3    3    0    0  0.62570636570E+01 -0.29259334521E+02 -0.13311867352E+02  0.32748516220E+02  0.00000000000E+00 0.  1.
</event>
<event>
 7    1  0.2468912E-015  0.9000745E+02  0.7816164E-02  0.1186340E+00
        -11   -1    0    0    0    0  0.00000000000E+00  0.00000000000E+00  0.45593999997E+02  0.45594000000E+02  0.51100000000E-03 0.  1.
         11   -1    0    0    0    0 -0.00000000000E+00 -0.00000000000E+00 -0.45593999997E+02  0.45594000000E+02  0.51100000000E-03 0. -1.
    9900012    2    1    2    0    0 -0.57053992481E+00 -0.67490128801E+00  0.78273829263E+00  0.90007454876E+02  0.89999712480E+02 0.  0.
         12    1    1    2    0    0  0.57053992481E+00  0.67490128801E+00 -0.78273829263E+00  0.11805451237E+01  0.00000000000E+00 0. -1.
         11    1    3    3    0    0  0.17089935438E+02 -0.18575483032E+02 -0.26765304478E+02  0.36789889742E+02  0.51100000000E-03 0. -1.
        -11    1    3    3    0    0  0.29393675587E+01  0.56924917368E+01 -0.80667592753E+01  0.10301308135E+02  0.51100000000E-03 0.  1.
        -12    1    3    3    0    0 -0.20599842922E+02  0.12208090007E+02  0.35614802046E+02  0.42916256999E+02  0.00000000000E+00 0.  1.
</event>
<event>
 7    1  0.2468912E-015  0.9000771E+02  0.7816164E-02  0.1186339E+00
        -11   -1    0    0    0    0  0.00000000000E+00  0.00000000000E+00  0.45593999997E+02  0.45594000000E+02  0.51100000000E-03 0. -1.
         11   -1    0    0    0    0 -0.00000000000E+00 -0.00000000000E+00 -0.45593999997E+02  0.45594000000E+02  0.51100000000E-03 0.  1.
    9900012    2    1    2    0    0 -0.42648295851E+00  0.72296276320E+00 -0.82977705742E+00  0.90007706462E+02  0.89999967387E+02 0.  0.
         12    1    1    2    0    0  0.42648295851E+00 -0.72296276320E+00  0.82977705742E+00  0.11802935380E+01  0.00000000000E+00 0. -1.
         11    1    3    3    0    0  0.57660632781E+01 -0.23864023763E+02  0.12312407241E+02  0.27465150432E+02  0.51100000000E-03 0. -1.
        -11    1    3    3    0    0 -0.16162623152E+02 -0.11797636531E+02  0.50818196580E+01  0.20645568681E+02  0.51100000000E-03 0.  1.
         12    1    3    3    0    0  0.99700769156E+01  0.36384623058E+02 -0.18224003956E+02  0.41896987349E+02  0.00000000000E+00 0. -1.
</event>
<event>
 7    1  0.2468912E-015  0.9000777E+02  0.7816164E-02  0.1186339E+00
        -11   -1    0    0    0    0  0.00000000000E+00  0.00000000000E+00  0.45593999997E+02  0.45594000000E+02  0.51100000000E-03 0. -1.
         11   -1    0    0    0    0 -0.00000000000E+00 -0.00000000000E+00 -0.45593999997E+02  0.45594000000E+02  0.51100000000E-03 0.  1.
    9900012    2    1    2    0    0  0.14986233530E+00  0.47615048329E+00 -0.10694677350E+01  0.90007771531E+02  0.90000033315E+02 0.  0.
         12    1    1    2    0    0 -0.14986233530E+00 -0.47615048329E+00  0.10694677350E+01  0.11802284688E+01  0.00000000000E+00 0. -1.
         11    1    3    3    0    0 -0.37784544171E+02  0.15448478074E+02 -0.26098304634E+01  0.40904015308E+02  0.51100000000E-03 0. -1.
        -11    1    3    3    0    0 -0.12405140460E+01 -0.93815340537E+01  0.11240182547E+01  0.95297152947E+01  0.51100000000E-03 0.  1.
        -12    1    3    3    0    0  0.39174920552E+02 -0.55907935373E+01  0.41634447370E+00  0.39574040928E+02  0.00000000000E+00 0.  1.
</event>
<event>
 7    1  0.2468912E-015  0.9000771E+02  0.7816164E-02  0.1186339E+00
        -11   -1    0    0    0    0  0.00000000000E+00  0.00000000000E+00  0.45593999997E+02  0.45594000000E+02  0.51100000000E-03 0.  1.
         11   -1    0    0    0    0 -0.00000000000E+00 -0.00000000000E+00 -0.45593999997E+02  0.45594000000E+02  0.51100000000E-03 0. -1.
    9900012    2    1    2    0    0  0.28979833364E+00 -0.83371526168E+00  0.78358987313E+00  0.90007713043E+02  0.89999974055E+02 0.  0.
         12    1    1    2    0    0 -0.28979833364E+00  0.83371526168E+00 -0.78358987313E+00  0.11802869571E+01  0.00000000000E+00 0. -1.
         11    1    3    3    0    0 -0.51109564142E+01  0.26074779259E+01 -0.77396703417E+01  0.96344856563E+01  0.51100000000E-03 0. -1.
        -11    1    3    3    0    0  0.30477223872E+02 -0.16290479906E+02 -0.20288890195E+02  0.40073432298E+02  0.51100000000E-03 0.  1.
         12    1    3    3    0    0 -0.25076469124E+02  0.12849286719E+02  0.28812150410E+02  0.40299795089E+02  0.00000000000E+00 0. -1.
</event>
<event>
 7    1  0.2468912E-015  0.9000771E+02  0.7816164E-02  0.1186339E+00
        -11   -1    0    0    0    0  0.00000000000E+00  0.00000000000E+00  0.45593999997E+02  0.45594000000E+02  0.51100000000E-03 0. -1.
         11   -1    0    0    0    0 -0.00000000000E+00 -0.00000000000E+00 -0.45593999997E+02  0.45594000000E+02  0.51100000000E-03 0.  1.
    9900012    2    1    2    0    0  0.95569843831E+00  0.21608267099E+00 -0.65805054416E+00  0.90007711161E+02  0.89999972148E+02 0.  0.
         12    1    1    2    0    0 -0.95569843831E+00 -0.21608267099E+00  0.65805054416E+00  0.11802888394E+01  0.00000000000E+00 0. -1.
         11    1    3    3    0    0  0.79737415228E+01 -0.13403872668E+01 -0.74994136577E+01  0.11028073148E+02  0.51100000000E-03 0. -1.
        -11    1    3    3    0    0  0.24584755458E+01  0.88779664602E+01 -0.34619387634E+02  0.35824075576E+02  0.51100000000E-03 0.  1.
         12    1    3    3    0    0 -0.94765186303E+01 -0.73214965225E+01  0.41460750747E+02  0.43155562436E+02  0.00000000000E+00 0. -1.
</event>
<event>
 7    1  0.2468912E-015  0.9000731E+02  0.7816164E-02  0.1186340E+00
        -11   -1    0    0    0    0  0.00000000000E+00  0.00000000000E+00  0.45593999997E+02  0.45594000000E+02  0.51100000000E-03 0.  1.
         11   -1    0    0    0    0 -0.00000000000E+00 -0.00000000000E+00 -0.45593999997E+02  0.45594000000E+02  0.51100000000E-03 0. -1.
    9900012    2    1    2    0    0 -0.72297334196E+00  0.53185129635E+00  0.76711458505E+00  0.90007313318E+02  0.89999569053E+02 0.  0.
         12    1    1    2    0    0  0.72297334196E+00 -0.53185129635E+00 -0.76711458505E+00  0.11806866821E+01  0.00000000000E+00 0. -1.
         11    1    3    3    0    0  0.19769156150E+02  0.94910255380E+01 -0.32173018706E+02  0.38935873351E+02  0.51100000000E-03 0. -1.
        -11    1    3    3    0    0 -0.88681128335E+01  0.21764445656E+01 -0.46008171010E+01  0.10224864519E+02  0.51100000000E-03 0.  1.
        -12    1    3    3    0    0 -0.11624016658E+02 -0.11135618807E+02  0.37540950392E+02  0.40846575448E+02  0.00000000000E+00 0.  1.
</event>
<event>
 7    1  0.2468912E-015  0.9000772E+02  0.7816164E-02  0.1186339E+00
        -11   -1    0    0    0    0  0.00000000000E+00  0.00000000000E+00  0.45593999997E+02  0.45594000000E+02  0.51100000000E-03 0. -1.
         11   -1    0    0    0    0 -0.00000000000E+00 -0.00000000000E+00 -0.45593999997E+02  0.45594000000E+02  0.51100000000E-03 0.  1.
    9900012    2    1    2    0    0 -0.84446794092E+00  0.68863498808E-01  0.82170520306E+00  0.90007717099E+02  0.89999978165E+02 0.  0.
         12    1    1    2    0    0  0.84446794092E+00 -0.68863498808E-01 -0.82170520306E+00  0.11802829006E+01  0.00000000000E+00 0. -1.
         11    1    3    3    0    0 -0.19363722727E+02  0.34007384424E+02  0.22009327996E+01  0.39195663774E+02  0.51100000000E-03 0. -1.
        -11    1    3    3    0    0 -0.65048581724E+01 -0.18632612632E+01 -0.70091096558E+01  0.97423067497E+01  0.51100000000E-03 0.  1.
        -12    1    3    3    0    0  0.25024112959E+02 -0.32075259662E+02  0.56298820593E+01  0.41069746576E+02  0.00000000000E+00 0.  1.
</event>
<event>
 7    1  0.2468912E-015  0.9000772E+02  0.7816164E-02  0.1186339E+00
        -11   -1    0    0    0    0  0.00000000000E+00  0.00000000000E+00  0.45593999997E+02  0.45594000000E+02  0.51100000000E-03 0. -1.
         11   -1    0    0    0    0 -0.00000000000E+00 -0.00000000000E+00 -0.45593999997E+02  0.45594000000E+02  0.51100000000E-03 0.  1.
    9900012    2    1    2    0    0  0.61124960116E+00  0.95031387963E+00  0.34108070588E+00  0.90007720968E+02  0.89999982085E+02 0.  0.
         12    1    1    2    0    0 -0.61124960116E+00 -0.95031387963E+00 -0.34108070588E+00  0.11802790317E+01  0.00000000000E+00 0. -1.
         11    1    3    3    0    0 -0.80054430328E+00  0.44162084670E+01 -0.81712925212E+01  0.93227565737E+01  0.51100000000E-03 0. -1.
        -11    1    3    3    0    0  0.27988390356E+02 -0.13448413317E+02 -0.22721452981E+02  0.38476931288E+02  0.51100000000E-03 0.  1.
         12    1    3    3    0    0 -0.26576596452E+02  0.99825187292E+01  0.31233826208E+02  0.42208033107E+02  0.00000000000E+00 0. -1.
</event>
<event>
 7    1  0.2468912E-015  0.9000776E+02  0.7816164E-02  0.1186339E+00
        -11   -1    0    0    0    0  0.00000000000E+00  0.00000000000E+00  0.45593999997E+02  0.45594000000E+02  0.51100000000E-03 0.  1.
         11   -1    0    0    0    0 -0.00000000000E+00 -0.00000000000E+00 -0.45593999997E+02  0.45594000000E+02  0.51100000000E-03 0. -1.
    9900012    2    1    2    0    0 -0.69046157974E+00 -0.64010771122E+00  0.71168035095E+00  0.90007761042E+02  0.90000022688E+02 0.  0.
         12    1    1    2    0    0  0.69046157974E+00  0.64010771122E+00 -0.71168035095E+00  0.11802389576E+01  0.00000000000E+00 0. -1.
         11    1    3    3    0    0 -0.30588504910E+02  0.94391999130E+00 -0.17861838132E+02  0.35434346040E+02  0.51100000000E-03 0. -1.
        -11    1    3    3    0    0 -0.45657547847E+01  0.24316736291E+01 -0.89150643444E+01  0.10307158964E+02  0.51100000000E-03 0.  1.
        -12    1    3    3    0    0  0.34463798115E+02 -0.40157013316E+01  0.27488582827E+02  0.44266256037E+02  0.00000000000E+00 0.  1.
</event>
<event>
 7    1  0.2468912E-015  0.9000785E+02  0.7816164E-02  0.1186339E+00
        -11   -1    0    0    0    0  0.00000000000E+00  0.00000000000E+00  0.45593999997E+02  0.45594000000E+02  0.51100000000E-03 0. -1.
         11   -1    0    0    0    0 -0.00000000000E+00 -0.00000000000E+00 -0.45593999997E+02  0.45594000000E+02  0.51100000000E-03 0.  1.
    9900012    2    1    2    0    0  0.88281155525E+00  0.74647968444E+00  0.23696856544E+00  0.90007854982E+02  0.90000117868E+02 0.  0.
         12    1    1    2    0    0 -0.88281155525E+00 -0.74647968444E+00 -0.23696856544E+00  0.11801450175E+01  0.00000000000E+00 0. -1.
         11    1    3    3    0    0  0.88803699913E+01  0.29396887479E+01 -0.40521534215E+00  0.93630625786E+01  0.51100000000E-03 0. -1.
        -11    1    3    3    0    0  0.21347880133E+02 -0.32223617374E+02  0.49518596068E+00  0.38656677460E+02  0.51100000000E-03 0.  1.
         12    1    3    3    0    0 -0.29345438569E+02  0.30030408311E+02  0.14699794691E+00  0.41988114944E+02  0.00000000000E+00 0. -1.
</event>
<event>
 7    1  0.2468912E-015  0.9000722E+02  0.7816164E-02  0.1186340E+00
        -11   -1    0    0    0    0  0.00000000000E+00  0.00000000000E+00  0.45593999997E+02  0.45594000000E+02  0.51100000000E-03 0. -1.
         11   -1    0    0    0    0 -0.00000000000E+00 -0.00000000000E+00 -0.45593999997E+02  0.45594000000E+02  0.51100000000E-03 0.  1.
    9900012    2    1    2    0    0 -0.10952940969E+01  0.30889171699E+00  0.31488526439E+00  0.90007222298E+02  0.89999476831E+02 0.  0.
         12    1    1    2    0    0  0.10952940969E+01 -0.30889171699E+00 -0.31488526439E+00  0.11807777019E+01  0.00000000000E+00 0. -1.
         11    1    3    3    0    0  0.32496016026E+02  0.18782086292E+02  0.20047241148E+02  0.42551729706E+02  0.51100000000E-03 0. -1.
        -11    1    3    3    0    0 -0.56540520356E+01 -0.57891583477E+01  0.36522018972E+01  0.88781325601E+01  0.51100000000E-03 0.  1.
        -12    1    3    3    0    0 -0.27937258088E+02 -0.12684036227E+02 -0.23384557781E+02  0.38577360032E+02  0.00000000000E+00 0.  1.
</event>
<event>
 7    1  0.3261995E-015  0.9000772E+02  0.7816164E-02  0.1186339E+00
        -11   -1    0    0    0    0  0.00000000000E+00  0.00000000000E+00  0.45593999997E+02  0.45594000000E+02  0.51100000000E-03 0. -1.
         11   -1    0    0    0    0 -0.00000000000E+00 -0.00000000000E+00 -0.45593999997E+02  0.45594000000E+02  0.51100000000E-03 0.  1.
    9900012    2    1    2    0    0  0.10092944054E+01 -0.24594263498E-01 -0.61137291422E+00  0.90007721679E+02  0.89999982805E+02 0.  0.
         12    1    1    2    0    0 -0.10092944054E+01  0.24594263498E-01  0.61137291422E+00  0.11802783209E+01  0.00000000000E+00 0. -1.
         11    1    3    3    0    0  0.61820322989E+01  0.22948828149E+02  0.26936468275E+02  0.35922688654E+02  0.51100000000E-03 0. -1.
        -11    1    3    3    0    0 -0.73797883085E+00  0.16707756601E+01  0.93313215588E+01  0.95083997789E+01  0.51100000000E-03 0.  1.
        -12    1    3    3    0    0 -0.44347590627E+01 -0.24644198072E+02 -0.36879162748E+02  0.44576633246E+02  0.00000000000E+00 0.  1.
</event>
<event>
 7    1  0.2468912E-015  0.9000777E+02  0.7816164E-02  0.1186339E+00
        -11   -1    0    0    0    0  0.00000000000E+00  0.00000000000E+00  0.45593999997E+02  0.45594000000E+02  0.51100000000E-03 0. -1.
         11   -1    0    0    0    0 -0.00000000000E+00 -0.00000000000E+00 -0.45593999997E+02  0.45594000000E+02  0.51100000000E-03 0.  1.
    9900012    2    1    2    0    0  0.64111508023E+00 -0.66387934154E+00 -0.73565178258E+00  0.90007767874E+02  0.90000029610E+02 0.  0.
         12    1    1    2    0    0 -0.64111508023E+00  0.66387934154E+00  0.73565178258E+00  0.11802321261E+01  0.00000000000E+00 0. -1.
         11    1    3    3    0    0  0.17133054691E+02  0.32603519973E+02  0.41589538376E+01  0.37065185484E+02  0.51100000000E-03 0. -1.
        -11    1    3    3    0    0  0.21886597758E+01  0.37229927959E+01  0.83810070387E+01  0.94282652814E+01  0.51100000000E-03 0.  1.
        -12    1    3    3    0    0 -0.18680599387E+02 -0.36990392111E+02 -0.13275612659E+02  0.43514317108E+02  0.00000000000E+00 0.  1.
</event>
<event>
 7    1  0.2468912E-015  0.9000780E+02  0.7816164E-02  0.1186339E+00
        -11   -1    0    0    0    0  0.00000000000E+00  0.00000000000E+00  0.45593999997E+02  0.45594000000E+02  0.51100000000E-03 0.  1.
         11   -1    0    0    0    0 -0.00000000000E+00 -0.00000000000E+00 -0.45593999997E+02  0.45594000000E+02  0.51100000000E-03 0. -1.
    9900012    2    1    2    0    0 -0.64654394749E+00 -0.90872811180E+00  0.38610221223E+00  0.90007796299E+02  0.90000058410E+02 0.  0.
         12    1    1    2    0    0  0.64654394749E+00  0.90872811180E+00 -0.38610221223E+00  0.11802037008E+01  0.00000000000E+00 0. -1.
         11    1    3    3    0    0  0.12447826320E+02  0.27947775626E+02  0.25650478160E+02  0.39924598591E+02  0.51100000000E-03 0. -1.
        -11    1    3    3    0    0 -0.11131971574E+02  0.11385141813E+01 -0.61010544488E+00  0.11206660277E+02  0.51100000000E-03 0.  1.
        -12    1    3    3    0    0 -0.19623986938E+01 -0.29995017919E+02 -0.24654270503E+02  0.38876537431E+02  0.00000000000E+00 0.  1.
</event>
<event>
 7    1  0.2468912E-015  0.9000766E+02  0.7816164E-02  0.1186339E+00
        -11   -1    0    0    0    0  0.00000000000E+00  0.00000000000E+00  0.45593999997E+02  0.45594000000E+02  0.51100000000E-03 0.  1.
         11   -1    0    0    0    0 -0.00000000000E+00 -0.00000000000E+00 -0.45593999997E+02  0.45594000000E+02  0.51100000000E-03 0. -1.
    9900012    2    1    2    0    0 -0.10639657696E+01  0.23355017111E+00  0.45455729505E+00  0.90007664804E+02  0.89999925179E+02 0.  0.
         12    1    1    2    0    0  0.10639657696E+01 -0.23355017111E+00 -0.45455729505E+00  0.11803351964E+01  0.00000000000E+00 0. -1.
         11    1    3    3    0    0 -0.66652701986E+01  0.10247907133E+02 -0.30021224226E+02  0.32414801121E+02  0.51100000000E-03 0. -1.
        -11    1    3    3    0    0 -0.18133866553E+02 -0.32813157348E+01  0.59349761732E-01  0.18428447351E+02  0.51100000000E-03 0.  1.
        -12    1    3    3    0    0  0.23735170982E+02 -0.67330412272E+01  0.30416431759E+02  0.39164416332E+02  0.00000000000E+00 0.  1.
</event>
<event>
 7    1  0.2468912E-015  0.9000770E+02  0.7816164E-02  0.1186339E+00
        -11   -1    0    0    0    0  0.00000000000E+00  0.00000000000E+00  0.45593999997E+02  0.45594000000E+02  0.51100000000E-03 0. -1.
         11   -1    0    0    0    0 -0.00000000000E+00 -0.00000000000E+00 -0.45593999997E+02  0.45594000000E+02  0.51100000000E-03 0.  1.
    9900012    2    1    2    0    0 -0.57257860717E+00  0.47031941261E+00 -0.91872309929E+00  0.90007703959E+02  0.89999964851E+02 0.  0.
         12    1    1    2    0    0  0.57257860717E+00 -0.47031941261E+00  0.91872309929E+00  0.11802960410E+01  0.00000000000E+00 0. -1.
         11    1    3    3    0    0  0.88192871544E+01  0.33797615389E+02 -0.89889491351E+01  0.36067434601E+02  0.51100000000E-03 0. -1.
        -11    1    3    3    0    0 -0.10695367316E+01  0.74083487628E+01  0.97947990800E+01  0.12327434019E+02  0.51100000000E-03 0.  1.
        -12    1    3    3    0    0 -0.83223290300E+01 -0.40735644739E+02 -0.17245730443E+01  0.41612835339E+02  0.00000000000E+00 0.  1.
</event>
<event>
 7    1  0.2468912E-015  0.9000773E+02  0.7816164E-02  0.1186339E+00
        -11   -1    0    0    0    0  0.00000000000E+00  0.00000000000E+00  0.45593999997E+02  0.45594000000E+02  0.51100000000E-03 0. -1.
         11   -1    0    0    0    0 -0.00000000000E+00 -0.00000000000E+00 -0.45593999997E+02  0.45594000000E+02  0.51100000000E-03 0.  1.
    9900012    2    1    2    0    0 -0.59855184140E-01  0.98835823539E+00 -0.64233280648E+00  0.90007734742E+02  0.89999996041E+02 0.  0.
         12    1    1    2    0    0  0.59855184140E-01 -0.98835823539E+00  0.64233280648E+00  0.11802652578E+01  0.00000000000E+00 0. -1.
         11    1    3    3    0    0  0.22209682214E+02  0.21707866436E+02 -0.15302362057E+02  0.34621723441E+02  0.51100000000E-03 0. -1.
        -11    1    3    3    0    0  0.13101518997E+02 -0.17803595977E+01  0.24508386844E+01  0.13447159211E+02  0.51100000000E-03 0.  1.
        -12    1    3    3    0    0 -0.35371056395E+02 -0.18939148603E+02  0.12209190567E+02  0.41938852090E+02  0.00000000000E+00 0.  1.
</event>
<event>
 7    1  0.2468912E-015  0.9000774E+02  0.7816164E-02  0.1186339E+00
        -11   -1    0    0    0    0  0.00000000000E+00  0.00000000000E+00  0.45593999997E+02  0.45594000000E+02  0.51100000000E-03 0. -1.
         11   -1    0    0    0    0 -0.00000000000E+00 -0.00000000000E+00 -0.45593999997E+02  0.45594000000E+02  0.51100000000E-03 0.  1.
    9900012    2    1    2    0    0  0.57835596102E+00 -0.85285268975E+00 -0.57546316695E+00  0.90007741052E+02  0.90000002434E+02 0.  0.
         12    1    1    2    0    0 -0.57835596102E+00  0.85285268975E+00  0.57546316695E+00  0.11802589481E+01  0.00000000000E+00 0. -1.
         11    1    3    3    0    0  0.13064935630E+02  0.20441522703E+01  0.30545087415E+00  0.13227411010E+02  0.51100000000E-03 0. -1.
        -11    1    3    3    0    0  0.26079963022E+02 -0.41466963758E+01 -0.20557789689E+02  0.33466136306E+02  0.51100000000E-03 0.  1.
         12    1    3    3    0    0 -0.38566542691E+02  0.12496914157E+01  0.19676875648E+02  0.43314193737E+02  0.00000000000E+00 0. -1.
</event>
<event>
 7    1  0.3211354E-015  0.9000805E+02  0.7816164E-02  0.1186338E+00
        -11   -1    0    0    0    0  0.00000000000E+00  0.00000000000E+00  0.45593999997E+02  0.45594000000E+02  0.51100000000E-03 0.  1.
         11   -1    0    0    0    0 -0.00000000000E+00 -0.00000000000E+00 -0.45593999997E+02  0.45594000000E+02  0.51100000000E-03 0. -1.
    9900012    2    1    2    0    0  0.58802275939E+00  0.79230373485E+00  0.64712987375E+00  0.90008045320E+02  0.90000310717E+02 0.  0.
         12    1    1    2    0    0 -0.58802275939E+00 -0.79230373485E+00 -0.64712987375E+00  0.11799546802E+01  0.00000000000E+00 0. -1.
         11    1    3    3    0    0 -0.69638096588E+01  0.97509949864E+01 -0.38226699963E+02  0.40060668224E+02  0.51100000000E-03 0. -1.
        -11    1    3    3    0    0 -0.79828857868E+00 -0.91037379492E+01 -0.10139069578E+01  0.91947439814E+01  0.51100000000E-03 0.  1.
        -12    1    3    3    0    0  0.83501209969E+01  0.14504669762E+00  0.39887736795E+02  0.40752633115E+02  0.00000000000E+00 0.  1.
</event>
<event>
 7    1  0.2468912E-015  0.9000774E+02  0.7816164E-02  0.1186339E+00
        -11   -1    0    0    0    0  0.00000000000E+00  0.00000000000E+00  0.45593999997E+02  0.45594000000E+02  0.51100000000E-03 0. -1.
         11   -1    0    0    0    0 -0.00000000000E+00 -0.00000000000E+00 -0.45593999997E+02  0.45594000000E+02  0.51100000000E-03 0.  1.
    9900012    2    1    2    0    0 -0.32273769086E+00 -0.11124439230E+01 -0.22654940386E+00  0.90007739126E+02  0.90000000482E+02 0.  0.
         12    1    1    2    0    0  0.32273769086E+00  0.11124439230E+01  0.22654940386E+00  0.11802608742E+01  0.00000000000E+00 0. -1.
         11    1    3    3    0    0  0.14864713748E+02  0.30206005478E+01  0.36171610736E+02  0.39223324260E+02  0.51100000000E-03 0. -1.
        -11    1    3    3    0    0 -0.76606231089E+01  0.67868263625E+01  0.17620905042E+01  0.10385139465E+02  0.51100000000E-03 0.  1.
        -12    1    3    3    0    0 -0.75268283303E+01 -0.10919870833E+02 -0.38160250644E+02  0.40399275401E+02  0.00000000000E+00 0.  1.
</event>
<event>
 7    1  0.2468912E-015  0.9000771E+02  0.7816164E-02  0.1186339E+00
        -11   -1    0    0    0    0  0.00000000000E+00  0.00000000000E+00  0.45593999997E+02  0.45594000000E+02  0.51100000000E-03 0.  1.
         11   -1    0    0    0    0 -0.00000000000E+00 -0.00000000000E+00 -0.45593999997E+02  0.45594000000E+02  0.51100000000E-03 0. -1.
    9900012    2    1    2    0    0 -0.10308017149E+01  0.63006792260E-01  0.57145049323E+00  0.90007712875E+02  0.89999973885E+02 0.  0.
         12    1    1    2    0    0  0.10308017149E+01 -0.63006792260E-01 -0.57145049323E+00  0.11802871250E+01  0.00000000000E+00 0. -1.
         11    1    3    3    0    0  0.18778193393E+01  0.83162322928E+01 -0.34484636902E+02  0.35522895540E+02  0.51100000000E-03 0. -1.
        -11    1    3    3    0    0 -0.77615580130E+01 -0.17831973639E+01 -0.76361518221E+01  0.11033240256E+02  0.51100000000E-03 0.  1.
        -12    1    3    3    0    0  0.48529369588E+01 -0.64700281366E+01  0.42692239218E+02  0.43451577079E+02  0.00000000000E+00 0.  1.
</event>
<event>
 7    1  0.2468912E-015  0.9000765E+02  0.7816164E-02  0.1186339E+00
        -11   -1    0    0    0    0  0.00000000000E+00  0.00000000000E+00  0.45593999997E+02  0.45594000000E+02  0.51100000000E-03 0. -1.
         11   -1    0    0    0    0 -0.00000000000E+00 -0.00000000000E+00 -0.45593999997E+02  0.45594000000E+02  0.51100000000E-03 0.  1.
    9900012    2    1    2    0    0  0.62474922429E-02 -0.64403507568E+00 -0.98914223070E+00  0.90007651508E+02  0.89999911708E+02 0.  0.
         12    1    1    2    0    0 -0.62474922429E-02  0.64403507568E+00  0.98914223070E+00  0.11803484919E+01  0.00000000000E+00 0. -1.
         11    1    3    3    0    0  0.60350439977E+01 -0.12917104503E+02 -0.19569616400E+01  0.14391075148E+02  0.51100000000E-03 0. -1.
        -11    1    3    3    0    0 -0.10213319382E+02 -0.11906139894E+02 -0.31339883240E+02  0.35046488294E+02  0.51100000000E-03 0.  1.
         12    1    3    3    0    0  0.41845228765E+01  0.24179209322E+02  0.32307702650E+02  0.40570088065E+02  0.00000000000E+00 0. -1.
</event>
<event>
 7    1  0.2468912E-015  0.9000768E+02  0.7816164E-02  0.1186339E+00
        -11   -1    0    0    0    0  0.00000000000E+00  0.00000000000E+00  0.45593999997E+02  0.45594000000E+02  0.51100000000E-03 0. -1.
         11   -1    0    0    0    0 -0.00000000000E+00 -0.00000000000E+00 -0.45593999997E+02  0.45594000000E+02  0.51100000000E-03 0.  1.
    9900012    2    1    2    0    0 -0.10723582454E+01 -0.89099995861E-01 -0.48503509003E+00  0.90007682223E+02  0.89999942828E+02 0.  0.
         12    1    1    2    0    0  0.10723582454E+01  0.89099995861E-01  0.48503509003E+00  0.11803177768E+01  0.00000000000E+00 0. -1.
         11    1    3    3    0    0 -0.33334194717E+02  0.13226827864E+02  0.15014594765E+02  0.38878729004E+02  0.51100000000E-03 0. -1.
        -11    1    3    3    0    0  0.18476386202E+01  0.78115495223E+01  0.43313161504E+01  0.91210950146E+01  0.51100000000E-03 0.  1.
        -12    1    3    3    0    0  0.30414197851E+02 -0.21127477382E+02 -0.19830946006E+02  0.42007858204E+02  0.00000000000E+00 0.  1.
</event>
<event>
 7    1  0.2468912E-015  0.9000767E+02  0.7816164E-02  0.1186339E+00
        -11   -1    0    0    0    0  0.00000000000E+00  0.00000000000E+00  0.45593999997E+02  0.45594000000E+02  0.51100000000E-03 0. -1.
         11   -1    0    0    0    0 -0.00000000000E+00 -0.00000000000E+00 -0.45593999997E+02  0.45594000000E+02  0.51100000000E-03 0.  1.
    9900012    2    1    2    0    0  0.23738000810E+00  0.85293814834E+00  0.78058928867E+00  0.90007672761E+02  0.89999933242E+02 0.  0.
         12    1    1    2    0    0 -0.23738000810E+00 -0.85293814834E+00 -0.78058928867E+00  0.11803272388E+01  0.00000000000E+00 0. -1.
         11    1    3    3    0    0 -0.41943157453E+01  0.54598381202E+01 -0.85007171582E+01  0.10939118307E+02  0.51100000000E-03 0. -1.
        -11    1    3    3    0    0 -0.20719350582E+02 -0.17967345644E+02 -0.23163140789E+02  0.35897744909E+02  0.51100000000E-03 0.  1.
         12    1    3    3    0    0  0.25151046336E+02  0.13360445672E+02  0.32444447236E+02  0.43170809545E+02  0.00000000000E+00 0. -1.
</event>
<event>
 7    1  0.2468912E-015  0.9000869E+02  0.7816164E-02  0.1186337E+00
        -11   -1    0    0    0    0  0.00000000000E+00  0.00000000000E+00  0.45593999997E+02  0.45594000000E+02  0.51100000000E-03 0. -1.
         11   -1    0    0    0    0 -0.00000000000E+00 -0.00000000000E+00 -0.45593999997E+02  0.45594000000E+02  0.51100000000E-03 0.  1.
    9900012    2    1    2    0    0 -0.71621421466E+00 -0.50701344040E+00 -0.78787596276E+00  0.90008689200E+02  0.90000963092E+02 0.  0.
         12    1    1    2    0    0  0.71621421466E+00  0.50701344040E+00  0.78787596276E+00  0.11793107999E+01  0.00000000000E+00 0. -1.
         11    1    3    3    0    0  0.13202885432E+02 -0.18986588163E+01  0.13133236295E+01  0.13403205148E+02  0.51100000000E-03 0. -1.
        -11    1    3    3    0    0  0.52532281773E+01 -0.34359655621E+02  0.59006359345E+01  0.35256202935E+02  0.51100000000E-03 0.  1.
         12    1    3    3    0    0 -0.19172327824E+02  0.35751300997E+02 -0.80018355268E+01  0.41349281118E+02  0.00000000000E+00 0. -1.
</event>
<event>
 7    1  0.2468912E-015  0.9000769E+02  0.7816164E-02  0.1186339E+00
        -11   -1    0    0    0    0  0.00000000000E+00  0.00000000000E+00  0.45593999997E+02  0.45594000000E+02  0.51100000000E-03 0.  1.
         11   -1    0    0    0    0 -0.00000000000E+00 -0.00000000000E+00 -0.45593999997E+02  0.45594000000E+02  0.51100000000E-03 0. -1.
    9900012    2    1    2    0    0 -0.82197651527E+00 -0.84335896932E+00  0.78994324572E-01  0.90007686548E+02  0.89999947210E+02 0.  0.
         12    1    1    2    0    0  0.82197651527E+00  0.84335896932E+00 -0.78994324572E-01  0.11803134525E+01  0.00000000000E+00 0. -1.
         11    1    3    3    0    0 -0.21085922242E+02 -0.11612095324E+02  0.57674853815E+00  0.24078818778E+02  0.51100000000E-03 0. -1.
        -11    1    3    3    0    0  0.19873174482E+02  0.10410145052E+02  0.28866742623E+02  0.36559581698E+02  0.51100000000E-03 0.  1.
         12    1    3    3    0    0  0.39077124441E+00  0.35859130340E+00 -0.29364496837E+02  0.29369286072E+02  0.00000000000E+00 0. -1.
</event>
<event>
 7    1  0.2468912E-015  0.9000766E+02  0.7816164E-02  0.1186339E+00
        -11   -1    0    0    0    0  0.00000000000E+00  0.00000000000E+00  0.45593999997E+02  0.45594000000E+02  0.51100000000E-03 0.  1.
         11   -1    0    0    0    0 -0.00000000000E+00 -0.00000000000E+00 -0.45593999997E+02  0.45594000000E+02  0.51100000000E-03 0. -1.
    9900012    2    1    2    0    0 -0.10872620418E+01 -0.35022169525E+00 -0.29735102023E+00  0.90007656146E+02  0.89999916408E+02 0.  0.
         12    1    1    2    0    0  0.10872620418E+01  0.35022169525E+00  0.29735102023E+00  0.11803438535E+01  0.00000000000E+00 0. -1.
         11    1    3    3    0    0 -0.88842104535E+01 -0.67356311460E+01 -0.25346608276E+01  0.11433390927E+02  0.51100000000E-03 0. -1.
        -11    1    3    3    0    0 -0.54240782939E+01  0.42067790557E+01  0.38920139146E+02  0.39520815361E+02  0.51100000000E-03 0.  1.
         12    1    3    3    0    0  0.13221026706E+02  0.21786303951E+01 -0.36682829339E+02  0.39053449859E+02  0.00000000000E+00 0. -1.
</event>
<event>
 7    1  0.2468912E-015  0.9000777E+02  0.7816164E-02  0.1186339E+00
        -11   -1    0    0    0    0  0.00000000000E+00  0.00000000000E+00  0.45593999997E+02  0.45594000000E+02  0.51100000000E-03 0.  1.
         11   -1    0    0    0    0 -0.00000000000E+00 -0.00000000000E+00 -0.45593999997E+02  0.45594000000E+02  0.51100000000E-03 0. -1.
    9900012    2    1    2    0    0  0.60037961304E+00  0.37559963194E+00  0.94414827921E+00  0.90007768355E+02  0.90000030097E+02 0.  0.
         12    1    1    2    0    0 -0.60037961304E+00 -0.37559963194E+00 -0.94414827921E+00  0.11802316452E+01  0.00000000000E+00 0. -1.
         11    1    3    3    0    0 -0.51594574751E+01 -0.45225345878E+01  0.35936373226E+01  0.77451630068E+01  0.51100000000E-03 0. -1.
        -11    1    3    3    0    0  0.37154710067E+02  0.44507228973E+01 -0.23852430985E+02  0.44375892990E+02  0.51100000000E-03 0.  1.
         12    1    3    3    0    0 -0.31394872979E+02  0.44741132240E+00  0.21202941942E+02  0.37886712358E+02  0.00000000000E+00 0. -1.
</event>
<event>
 7    1  0.2468912E-015  0.9000764E+02  0.7816164E-02  0.1186339E+00
        -11   -1    0    0    0    0  0.00000000000E+00  0.00000000000E+00  0.45593999997E+02  0.45594000000E+02  0.51100000000E-03 0.  1.
         11   -1    0    0    0    0 -0.00000000000E+00 -0.00000000000E+00 -0.45593999997E+02  0.45594000000E+02  0.51100000000E-03 0. -1.
    9900012    2    1    2    0    0 -0.29147394496E+00 -0.36974316725E+00 -0.10823955516E+01  0.90007641071E+02  0.89999901133E+02 0.  0.
         12    1    1    2    0    0  0.29147394496E+00  0.36974316725E+00  0.10823955516E+01  0.11803589286E+01  0.00000000000E+00 0. -1.
         11    1    3    3    0    0 -0.89231281771E+00  0.34433583807E+02  0.11233469583E+02  0.36230632827E+02  0.51100000000E-03 0. -1.
        -11    1    3    3    0    0  0.87167618575E+01  0.39509359759E+01  0.47220242403E+01  0.10671895125E+02  0.51100000000E-03 0.  1.
        -12    1    3    3    0    0 -0.81159229847E+01 -0.38754262950E+02 -0.17037889375E+02  0.43105113119E+02  0.00000000000E+00 0.  1.
</event>
<event>
 7    1  0.2468912E-015  0.9000774E+02  0.7816164E-02  0.1186339E+00
        -11   -1    0    0    0    0  0.00000000000E+00  0.00000000000E+00  0.45593999997E+02  0.45594000000E+02  0.51100000000E-03 0. -1.
         11   -1    0    0    0    0 -0.00000000000E+00 -0.00000000000E+00 -0.45593999997E+02  0.45594000000E+02  0.51100000000E-03 0.  1.
    9900012    2    1    2    0    0  0.64289998158E+00 -0.70946849981E+00 -0.69018736789E+00  0.90007735394E+02  0.89999996701E+02 0.  0.
         12    1    1    2    0    0 -0.64289998158E+00  0.70946849981E+00  0.69018736789E+00  0.11802646065E+01  0.00000000000E+00 0. -1.
         11    1    3    3    0    0 -0.78827906729E+01 -0.54317308470E+01  0.33909938947E+02  0.35235295492E+02  0.51100000000E-03 0. -1.
        -11    1    3    3    0    0 -0.82364820977E+01 -0.11768729699E+01  0.61301376348E+01  0.10334566029E+02  0.51100000000E-03 0.  1.
        -12    1    3    3    0    0  0.16762172752E+02  0.58991353171E+01 -0.40730263949E+02  0.44437873872E+02  0.00000000000E+00 0.  1.
</event>
<event>
 7    1  0.2468912E-015  0.9000837E+02  0.7816164E-02  0.1186338E+00
        -11   -1    0    0    0    0  0.00000000000E+00  0.00000000000E+00  0.45593999997E+02  0.45594000000E+02  0.51100000000E-03 0.  1.
         11   -1    0    0    0    0 -0.00000000000E+00 -0.00000000000E+00 -0.45593999997E+02  0.45594000000E+02  0.51100000000E-03 0. -1.
    9900012    2    1    2    0    0  0.32696153309E+00 -0.10616249301E+00  0.11284272276E+01  0.90008371954E+02  0.90000641661E+02 0.  0.
         12    1    1    2    0    0 -0.32696153309E+00  0.10616249301E+00 -0.11284272276E+01  0.11796280460E+01  0.00000000000E+00 0. -1.
         11    1    3    3    0    0 -0.61617721906E+01 -0.71674357175E+01  0.20048018444E+01  0.96622358690E+01  0.51100000000E-03 0. -1.
        -11    1    3    3    0    0 -0.63974552848E+01  0.14213944488E+02  0.36759319890E+02  0.39927575072E+02  0.51100000000E-03 0.  1.
         12    1    3    3    0    0  0.12886189008E+02 -0.71526712640E+01 -0.37635694507E+02  0.40418561013E+02  0.00000000000E+00 0. -1.
</event>
<event>
 7    1  0.2468912E-015  0.9000787E+02  0.7816164E-02  0.1186339E+00
        -11   -1    0    0    0    0  0.00000000000E+00  0.00000000000E+00  0.45593999997E+02  0.45594000000E+02  0.51100000000E-03 0. -1.
         11   -1    0    0    0    0 -0.00000000000E+00 -0.00000000000E+00 -0.45593999997E+02  0.45594000000E+02  0.51100000000E-03 0.  1.
    9900012    2    1    2    0    0  0.55857902593E+00 -0.76390010497E+00 -0.70509073507E+00  0.90007869989E+02  0.90000133073E+02 0.  0.
         12    1    1    2    0    0 -0.55857902593E+00  0.76390010497E+00  0.70509073507E+00  0.11801300112E+01  0.00000000000E+00 0. -1.
         11    1    3    3    0    0 -0.79879849478E+01  0.50837982280E+01 -0.11286369962E-01  0.94685286921E+01  0.51100000000E-03 0. -1.
        -11    1    3    3    0    0 -0.27155084367E+02 -0.23499732238E+02 -0.14006233344E+02  0.38546213757E+02  0.51100000000E-03 0.  1.
         12    1    3    3    0    0  0.35701648341E+02  0.17652033905E+02  0.13312428979E+02  0.41993127540E+02  0.00000000000E+00 0. -1.
</event>
<event>
 7    1  0.2468912E-015  0.9000698E+02  0.7816164E-02  0.1186341E+00
        -11   -1    0    0    0    0  0.00000000000E+00  0.00000000000E+00  0.45593999997E+02  0.45594000000E+02  0.51100000000E-03 0.  1.
         11   -1    0    0    0    0 -0.00000000000E+00 -0.00000000000E+00 -0.45593999997E+02  0.45594000000E+02  0.51100000000E-03 0. -1.
    9900012    2    1    2    0    0 -0.26199186478E+00 -0.10860415867E+01 -0.38299932483E+00  0.90006977330E+02  0.89999228627E+02 0.  0.
         12    1    1    2    0    0  0.26199186478E+00  0.10860415867E+01  0.38299932483E+00  0.11810226704E+01  0.00000000000E+00 0. -1.
         11    1    3    3    0    0  0.17574802357E+02 -0.11813815399E+02 -0.33567067854E+02  0.39688637628E+02  0.51100000000E-03 0. -1.
        -11    1    3    3    0    0 -0.21617757387E+01  0.10704931602E+01 -0.63036371519E+01  0.67494497224E+01  0.51100000000E-03 0.  1.
        -12    1    3    3    0    0 -0.15675018483E+02  0.96572806521E+01  0.39487705681E+02  0.43568889979E+02  0.00000000000E+00 0.  1.
</event>
<event>
 7    1  0.2468912E-015  0.9000770E+02  0.7816164E-02  0.1186339E+00
        -11   -1    0    0    0    0  0.00000000000E+00  0.00000000000E+00  0.45593999997E+02  0.45594000000E+02  0.51100000000E-03 0.  1.
         11   -1    0    0    0    0 -0.00000000000E+00 -0.00000000000E+00 -0.45593999997E+02  0.45594000000E+02  0.51100000000E-03 0. -1.
    9900012    2    1    2    0    0 -0.11453653352E+01  0.22888547624E+00 -0.16988243774E+00  0.90007699041E+02  0.89999959868E+02 0.  0.
         12    1    1    2    0    0  0.11453653352E+01 -0.22888547624E+00  0.16988243774E+00  0.11803009595E+01  0.00000000000E+00 0. -1.
         11    1    3    3    0    0  0.98077799130E+01 -0.46054161962E+00  0.20331629863E-01  0.98186077955E+01  0.51100000000E-03 0. -1.
        -11    1    3    3    0    0 -0.27110433789E+02  0.14558047532E+02  0.30177676637E+02  0.43099936609E+02  0.51100000000E-03 0.  1.
         12    1    3    3    0    0  0.16157288541E+02 -0.13868620436E+02 -0.30367890705E+02  0.37089154636E+02  0.00000000000E+00 0. -1.
</event>
<event>
 7    1  0.2468912E-015  0.9000771E+02  0.7816164E-02  0.1186339E+00
        -11   -1    0    0    0    0  0.00000000000E+00  0.00000000000E+00  0.45593999997E+02  0.45594000000E+02  0.51100000000E-03 0.  1.
         11   -1    0    0    0    0 -0.00000000000E+00 -0.00000000000E+00 -0.45593999997E+02  0.45594000000E+02  0.51100000000E-03 0. -1.
    9900012    2    1    2    0    0  0.18499798793E+00 -0.10843663207E+01  0.42780957979E+00  0.90007705287E+02  0.89999966197E+02 0.  0.
         12    1    1    2    0    0 -0.18499798793E+00  0.10843663207E+01 -0.42780957979E+00  0.11802947130E+01  0.00000000000E+00 0. -1.
         11    1    3    3    0    0 -0.46238879053E+01  0.44772703237E+01 -0.77474127169E+01  0.10072174193E+02  0.51100000000E-03 0. -1.
        -11    1    3    3    0    0 -0.14291468287E+02  0.30142663562E+02 -0.11008981023E+02  0.35128676261E+02  0.51100000000E-03 0.  1.
         12    1    3    3    0    0  0.19100354181E+02 -0.35704300206E+02  0.19184203319E+02  0.44806854833E+02  0.00000000000E+00 0. -1.
</event>
<event>
 7    1  0.2468912E-015  0.9000793E+02  0.7816164E-02  0.1186339E+00
        -11   -1    0    0    0    0  0.00000000000E+00  0.00000000000E+00  0.45593999997E+02  0.45594000000E+02  0.51100000000E-03 0.  1.
         11   -1    0    0    0    0 -0.00000000000E+00 -0.00000000000E+00 -0.45593999997E+02  0.45594000000E+02  0.51100000000E-03 0. -1.
    9900012    2    1    2    0    0 -0.11620826635E+01  0.13047734881E+00 -0.15843048321E+00  0.90007931920E+02  0.90000195821E+02 0.  0.
         12    1    1    2    0    0  0.11620826635E+01 -0.13047734881E+00  0.15843048321E+00  0.11800680800E+01  0.00000000000E+00 0. -1.
         11    1    3    3    0    0 -0.60834347044E+01  0.50665190340E+01  0.95918437195E+00  0.79748246279E+01  0.51100000000E-03 0. -1.
        -11    1    3    3    0    0 -0.22607596241E+02 -0.24820097307E+02  0.22724072097E+02  0.40540400726E+02  0.51100000000E-03 0.  1.
         12    1    3    3    0    0  0.27528948282E+02  0.19884055622E+02 -0.23841686952E+02  0.41492706566E+02  0.00000000000E+00 0. -1.
</event>
<event>
 7    1  0.2468912E-015  0.9000776E+02  0.7816164E-02  0.1186339E+00
        -11   -1    0    0    0    0  0.00000000000E+00  0.00000000000E+00  0.45593999997E+02  0.45594000000E+02  0.51100000000E-03 0.  1.
         11   -1    0    0    0    0 -0.00000000000E+00 -0.00000000000E+00 -0.45593999997E+02  0.45594000000E+02  0.51100000000E-03 0. -1.
    9900012    2    1    2    0    0  0.70790310115E+00 -0.21560930779E+00  0.91942897596E+00  0.90007761119E+02  0.90000022766E+02 0.  0.
         12    1    1    2    0    0 -0.70790310115E+00  0.21560930779E+00 -0.91942897596E+00  0.11802388809E+01  0.00000000000E+00 0. -1.
         11    1    3    3    0    0  0.91192078258E+01  0.71735192459E+01  0.34060246077E+00  0.11607555300E+02  0.51100000000E-03 0. -1.
        -11    1    3    3    0    0 -0.22838960618E+01  0.33961342130E+01  0.38389383060E+02  0.38606924777E+02  0.51100000000E-03 0.  1.
         12    1    3    3    0    0 -0.61274086628E+01 -0.10785262767E+02 -0.37810556544E+02  0.39793281042E+02  0.00000000000E+00 0. -1.
</event>
<event>
 7    1  0.2468912E-015  0.9000780E+02  0.7816164E-02  0.1186339E+00
        -11   -1    0    0    0    0  0.00000000000E+00  0.00000000000E+00  0.45593999997E+02  0.45594000000E+02  0.51100000000E-03 0.  1.
         11   -1    0    0    0    0 -0.00000000000E+00 -0.00000000000E+00 -0.45593999997E+02  0.45594000000E+02  0.51100000000E-03 0. -1.
    9900012    2    1    2    0    0  0.55785079770E+00  0.64557340805E+00 -0.81542659834E+00  0.90007795325E+02  0.90000057423E+02 0.  0.
         12    1    1    2    0    0 -0.55785079770E+00 -0.64557340805E+00  0.81542659834E+00  0.11802046750E+01  0.00000000000E+00 0. -1.
         11    1    3    3    0    0  0.73246984112E+01 -0.28868091446E+01  0.53163876908E+01  0.94999395888E+01  0.51100000000E-03 0. -1.
        -11    1    3    3    0    0 -0.10317280571E+01  0.26543876586E+02  0.28225933645E+02  0.38760097747E+02  0.51100000000E-03 0.  1.
         12    1    3    3    0    0 -0.57351195563E+01 -0.23011494034E+02 -0.34357747934E+02  0.41747757989E+02  0.00000000000E+00 0. -1.
</event>
<event>
 7    1  0.2468912E-015  0.9000725E+02  0.7816164E-02  0.1186340E+00
        -11   -1    0    0    0    0  0.00000000000E+00  0.00000000000E+00  0.45593999997E+02  0.45594000000E+02  0.51100000000E-03 0.  1.
         11   -1    0    0    0    0 -0.00000000000E+00 -0.00000000000E+00 -0.45593999997E+02  0.45594000000E+02  0.51100000000E-03 0. -1.
    9900012    2    1    2    0    0 -0.19588876432E+00 -0.50490146390E+00  0.10492263953E+01  0.90007248576E+02  0.89999503456E+02 0.  0.
         12    1    1    2    0    0  0.19588876432E+00  0.50490146390E+00 -0.10492263953E+01  0.11807514238E+01  0.00000000000E+00 0. -1.
         11    1    3    3    0    0  0.57994680792E+01 -0.69479895624E+01  0.49873852469E+01  0.10333557027E+02  0.51100000000E-03 0. -1.
        -11    1    3    3    0    0 -0.85876755511E+01 -0.30021249719E+02  0.18966716450E+02  0.36534366551E+02  0.51100000000E-03 0.  1.
         12    1    3    3    0    0  0.25923187075E+01  0.36464337818E+02 -0.22904875302E+02  0.43139324999E+02  0.00000000000E+00 0. -1.
</event>
<event>
 7    1  0.2468912E-015  0.9000772E+02  0.7816164E-02  0.1186339E+00
        -11   -1    0    0    0    0  0.00000000000E+00  0.00000000000E+00  0.45593999997E+02  0.45594000000E+02  0.51100000000E-03 0.  1.
         11   -1    0    0    0    0 -0.00000000000E+00 -0.00000000000E+00 -0.45593999997E+02  0.45594000000E+02  0.51100000000E-03 0. -1.
    9900012    2    1    2    0    0 -0.89874350934E+00 -0.71498839882E+00  0.27223577756E+00  0.90007720108E+02  0.89999981213E+02 0.  0.
         12    1    1    2    0    0  0.89874350934E+00  0.71498839882E+00 -0.27223577756E+00  0.11802798925E+01  0.00000000000E+00 0. -1.
         11    1    3    3    0    0  0.10310814875E+02  0.23075112165E+01 -0.37358534733E+02  0.38823931138E+02  0.51100000000E-03 0. -1.
        -11    1    3    3    0    0 -0.82716445495E+01  0.22691949362E+01 -0.37511040811E+01  0.93616308034E+01  0.51100000000E-03 0.  1.
        -12    1    3    3    0    0 -0.29379138352E+01 -0.52916945515E+01  0.41381874591E+02  0.41822158166E+02  0.00000000000E+00 0.  1.
</event>
<event>
 7    1  0.2468912E-015  0.9000773E+02  0.7816164E-02  0.1186339E+00
        -11   -1    0    0    0    0  0.00000000000E+00  0.00000000000E+00  0.45593999997E+02  0.45594000000E+02  0.51100000000E-03 0. -1.
         11   -1    0    0    0    0 -0.00000000000E+00 -0.00000000000E+00 -0.45593999997E+02  0.45594000000E+02  0.51100000000E-03 0.  1.
    9900012    2    1    2    0    0  0.25387465352E+00 -0.75171808195E+00 -0.87378821636E+00  0.90007729581E+02  0.89999990812E+02 0.  0.
         12    1    1    2    0    0 -0.25387465352E+00  0.75171808195E+00  0.87378821636E+00  0.11802704188E+01  0.00000000000E+00 0. -1.
         11    1    3    3    0    0 -0.33791171992E+02 -0.15380781175E+02  0.10291588009E+02  0.38526984286E+02  0.51100000000E-03 0. -1.
        -11    1    3    3    0    0  0.62681481922E+01 -0.97821428815E+01  0.28027360900E+01  0.11951373602E+02  0.51100000000E-03 0.  1.
        -12    1    3    3    0    0  0.27776898454E+02  0.24411205974E+02 -0.13968112316E+02  0.39529371694E+02  0.00000000000E+00 0.  1.
</event>
<event>
 7    1  0.2468912E-015  0.9000768E+02  0.7816164E-02  0.1186339E+00
        -11   -1    0    0    0    0  0.00000000000E+00  0.00000000000E+00  0.45593999997E+02  0.45594000000E+02  0.51100000000E-03 0.  1.
         11   -1    0    0    0    0 -0.00000000000E+00 -0.00000000000E+00 -0.45593999997E+02  0.45594000000E+02  0.51100000000E-03 0. -1.
    9900012    2    1    2    0    0  0.10998591602E+01 -0.39679532318E+00 -0.16127987609E+00  0.90007683136E+02  0.89999943753E+02 0.  0.
         12    1    1    2    0    0 -0.10998591602E+01  0.39679532318E+00  0.16127987609E+00  0.11803168639E+01  0.00000000000E+00 0. -1.
         11    1    3    3    0    0 -0.27030011074E+01 -0.40648784753E+01  0.36088132857E+01  0.60706659929E+01  0.51100000000E-03 0. -1.
        -11    1    3    3    0    0  0.18817563884E+02 -0.30852698235E+02  0.18081791530E+02  0.40409663251E+02  0.51100000000E-03 0.  1.
         12    1    3    3    0    0 -0.15014703617E+02  0.34520781387E+02 -0.21851884691E+02  0.43527353892E+02  0.00000000000E+00 0. -1.
</event>
<event>
 7    1  0.2468912E-015  0.9000789E+02  0.7816164E-02  0.1186339E+00
        -11   -1    0    0    0    0  0.00000000000E+00  0.00000000000E+00  0.45593999997E+02  0.45594000000E+02  0.51100000000E-03 0.  1.
         11   -1    0    0    0    0 -0.00000000000E+00 -0.00000000000E+00 -0.45593999997E+02  0.45594000000E+02  0.51100000000E-03 0. -1.
    9900012    2    1    2    0    0 -0.13656339864E+00 -0.11617879879E+01  0.15571733421E+00  0.90007894590E+02  0.90000157998E+02 0.  0.
         12    1    1    2    0    0  0.13656339864E+00  0.11617879879E+01 -0.15571733421E+00  0.11801054101E+01  0.00000000000E+00 0. -1.
         11    1    3    3    0    0  0.54212532559E+01 -0.35304247274E+02 -0.52532743100E+01  0.36102309534E+02  0.51100000000E-03 0. -1.
        -11    1    3    3    0    0  0.54873205329E+01 -0.66947948590E+01 -0.54506684303E+01  0.10229406211E+02  0.51100000000E-03 0.  1.
        -12    1    3    3    0    0 -0.11045137187E+02  0.40837254145E+02  0.10859660075E+02  0.43676178845E+02  0.00000000000E+00 0.  1.
</event>
<event>
 7    1  0.2468912E-015  0.9000741E+02  0.7816164E-02  0.1186340E+00
        -11   -1    0    0    0    0  0.00000000000E+00  0.00000000000E+00  0.45593999997E+02  0.45594000000E+02  0.51100000000E-03 0. -1.
         11   -1    0    0    0    0 -0.00000000000E+00 -0.00000000000E+00 -0.45593999997E+02  0.45594000000E+02  0.51100000000E-03 0.  1.
    9900012    2    1    2    0    0 -0.90419561238E+00 -0.55612023707E+00  0.51666645653E+00  0.90007413853E+02  0.89999670915E+02 0.  0.
         12    1    1    2    0    0  0.90419561238E+00  0.55612023707E+00 -0.51666645653E+00  0.11805861471E+01  0.00000000000E+00 0. -1.
         11    1    3    3    0    0  0.18837014807E+02 -0.33639625745E+02  0.58025328252E+01  0.38988805246E+02  0.51100000000E-03 0. -1.
        -11    1    3    3    0    0 -0.44475655881E+01 -0.19536023686E+01  0.89835711078E+01  0.10212832711E+02  0.51100000000E-03 0.  1.
        -12    1    3    3    0    0 -0.15293644831E+02  0.35037107876E+02 -0.14269437476E+02  0.40805775896E+02  0.00000000000E+00 0.  1.
</event>
<event>
 7    1  0.2468912E-015  0.9000772E+02  0.7816164E-02  0.1186339E+00
        -11   -1    0    0    0    0  0.00000000000E+00  0.00000000000E+00  0.45593999997E+02  0.45594000000E+02  0.51100000000E-03 0.  1.
         11   -1    0    0    0    0 -0.00000000000E+00 -0.00000000000E+00 -0.45593999997E+02  0.45594000000E+02  0.51100000000E-03 0. -1.
    9900012    2    1    2    0    0 -0.10657125117E+01  0.19979466160E+00  0.46626139500E+00  0.90007720053E+02  0.89999981158E+02 0.  0.
         12    1    1    2    0    0  0.10657125117E+01 -0.19979466160E+00 -0.46626139500E+00  0.11802799468E+01  0.00000000000E+00 0. -1.
         11    1    3    3    0    0  0.20848296868E+02  0.23075806161E+02  0.17307907732E+02  0.35590841274E+02  0.51100000000E-03 0. -1.
        -11    1    3    3    0    0  0.60431214164E+01  0.85903502182E+00  0.80435195319E+01  0.10097299854E+02  0.51100000000E-03 0.  1.
        -12    1    3    3    0    0 -0.27957130796E+02 -0.23735046522E+02 -0.24885165869E+02  0.44319578925E+02  0.00000000000E+00 0.  1.
</event>
<event>
 7    1  0.2468912E-015  0.9000771E+02  0.7816164E-02  0.1186339E+00
        -11   -1    0    0    0    0  0.00000000000E+00  0.00000000000E+00  0.45593999997E+02  0.45594000000E+02  0.51100000000E-03 0.  1.
         11   -1    0    0    0    0 -0.00000000000E+00 -0.00000000000E+00 -0.45593999997E+02  0.45594000000E+02  0.51100000000E-03 0. -1.
    9900012    2    1    2    0    0  0.59301909036E+00  0.23858456272E+00 -0.99221606091E+00  0.90007708957E+02  0.89999969915E+02 0.  0.
         12    1    1    2    0    0 -0.59301909036E+00 -0.23858456272E+00  0.99221606091E+00  0.11802910432E+01  0.00000000000E+00 0. -1.
         11    1    3    3    0    0  0.96646816953E+01 -0.34229437298E+02 -0.95865495504E+01  0.36836970322E+02  0.51100000000E-03 0. -1.
        -11    1    3    3    0    0  0.83297901942E+01 -0.43224240296E+01 -0.14228836329E+01  0.94917518017E+01  0.51100000000E-03 0.  1.
        -12    1    3    3    0    0 -0.17401452799E+02  0.38790445890E+02  0.10017217122E+02  0.43678986833E+02  0.00000000000E+00 0.  1.
</event>
<event>
 7    1  0.2468912E-015  0.9000775E+02  0.7816164E-02  0.1186339E+00
        -11   -1    0    0    0    0  0.00000000000E+00  0.00000000000E+00  0.45593999997E+02  0.45594000000E+02  0.51100000000E-03 0. -1.
         11   -1    0    0    0    0 -0.00000000000E+00 -0.00000000000E+00 -0.45593999997E+02  0.45594000000E+02  0.51100000000E-03 0.  1.
    9900012    2    1    2    0    0  0.48805011657E+00  0.20516286201E+00 -0.10548462587E+01  0.90007751998E+02  0.90000013525E+02 0.  0.
         12    1    1    2    0    0 -0.48805011657E+00 -0.20516286201E+00  0.10548462587E+01  0.11802480018E+01  0.00000000000E+00 0. -1.
         11    1    3    3    0    0 -0.78961240505E+01 -0.14957052289E+01 -0.50631975310E+01  0.94985198137E+01  0.51100000000E-03 0. -1.
        -11    1    3    3    0    0  0.12261552131E+02  0.32311634921E+02 -0.21304960393E+02  0.40599122522E+02  0.51100000000E-03 0.  1.
         12    1    3    3    0    0 -0.38773779639E+01 -0.30610766830E+02  0.25313311665E+02  0.39910109663E+02  0.00000000000E+00 0. -1.
</event>
<event>
 7    1  0.2468912E-015  0.9000762E+02  0.7816164E-02  0.1186339E+00
        -11   -1    0    0    0    0  0.00000000000E+00  0.00000000000E+00  0.45593999997E+02  0.45594000000E+02  0.51100000000E-03 0.  1.
         11   -1    0    0    0    0 -0.00000000000E+00 -0.00000000000E+00 -0.45593999997E+02  0.45594000000E+02  0.51100000000E-03 0. -1.
    9900012    2    1    2    0    0  0.91155854399E+00  0.73907413730E+00  0.12698704699E+00  0.90007620709E+02  0.89999880503E+02 0.  0.
         12    1    1    2    0    0 -0.91155854399E+00 -0.73907413730E+00 -0.12698704699E+00  0.11803792906E+01  0.00000000000E+00 0. -1.
         11    1    3    3    0    0 -0.31365495618E+01 -0.76412319441E+01  0.37229951236E+00  0.82683115546E+01  0.51100000000E-03 0. -1.
        -11    1    3    3    0    0  0.39041977820E+02  0.11958821367E+02  0.14866063763E+02  0.43454450781E+02  0.51100000000E-03 0.  1.
         12    1    3    3    0    0 -0.34993869714E+02 -0.35785152860E+01 -0.15111376229E+02  0.38284858374E+02  0.00000000000E+00 0. -1.
</event>
<event>
 7    1  0.2468912E-015  0.9000782E+02  0.7816164E-02  0.1186339E+00
        -11   -1    0    0    0    0  0.00000000000E+00  0.00000000000E+00  0.45593999997E+02  0.45594000000E+02  0.51100000000E-03 0. -1.
         11   -1    0    0    0    0 -0.00000000000E+00 -0.00000000000E+00 -0.45593999997E+02  0.45594000000E+02  0.51100000000E-03 0.  1.
    9900012    2    1    2    0    0 -0.10844172105E+01 -0.11277226547E+00  0.45181719697E+00  0.90007823297E+02  0.90000085765E+02 0.  0.
         12    1    1    2    0    0  0.10844172105E+01  0.11277226547E+00 -0.45181719697E+00  0.11801767028E+01  0.00000000000E+00 0. -1.
         11    1    3    3    0    0  0.29072259507E+01  0.43000942115E+01  0.72785764186E+01  0.89398237062E+01  0.51100000000E-03 0. -1.
        -11    1    3    3    0    0  0.53338512891E+01  0.78502520770E+01  0.35120907577E+02  0.36380689611E+02  0.51100000000E-03 0.  1.
         12    1    3    3    0    0 -0.93254944504E+01 -0.12263118554E+02 -0.41947666799E+02  0.44687309980E+02  0.00000000000E+00 0. -1.
</event>
<event>
 7    1  0.2468912E-015  0.9000775E+02  0.7816164E-02  0.1186339E+00
        -11   -1    0    0    0    0  0.00000000000E+00  0.00000000000E+00  0.45593999997E+02  0.45594000000E+02  0.51100000000E-03 0. -1.
         11   -1    0    0    0    0 -0.00000000000E+00 -0.00000000000E+00 -0.45593999997E+02  0.45594000000E+02  0.51100000000E-03 0.  1.
    9900012    2    1    2    0    0  0.72648232746E+00 -0.27888983035E+00 -0.88737661792E+00  0.90007748598E+02  0.90000010080E+02 0.  0.
         12    1    1    2    0    0 -0.72648232746E+00  0.27888983035E+00  0.88737661792E+00  0.11802514019E+01  0.00000000000E+00 0. -1.
         11    1    3    3    0    0  0.34864418320E+02 -0.58699489190E+01 -0.59473215255E+00  0.35360114135E+02  0.51100000000E-03 0. -1.
        -11    1    3    3    0    0  0.60505717412E+01 -0.77733990705E+01  0.64321498524E+01  0.11764680339E+02  0.51100000000E-03 0.  1.
        -12    1    3    3    0    0 -0.40188507733E+02  0.13364458159E+02 -0.67247943177E+01  0.42882954123E+02  0.00000000000E+00 0.  1.
</event>
<event>
 7    1  0.2468912E-015  0.9000771E+02  0.7816164E-02  0.1186339E+00
        -11   -1    0    0    0    0  0.00000000000E+00  0.00000000000E+00  0.45593999997E+02  0.45594000000E+02  0.51100000000E-03 0.  1.
         11   -1    0    0    0    0 -0.00000000000E+00 -0.00000000000E+00 -0.45593999997E+02  0.45594000000E+02  0.51100000000E-03 0. -1.
    9900012    2    1    2    0    0  0.15787756494E+00 -0.60936261131E+00  0.99842127798E+00  0.90007706322E+02  0.89999967246E+02 0.  0.
         12    1    1    2    0    0 -0.15787756494E+00  0.60936261131E+00 -0.99842127798E+00  0.11802936778E+01  0.00000000000E+00 0. -1.
         11    1    3    3    0    0 -0.27113580371E+02  0.28562373612E+02 -0.10921011468E+02  0.40868373085E+02  0.51100000000E-03 0. -1.
        -11    1    3    3    0    0 -0.14213962049E+01 -0.86455494510E+00  0.85303464841E+01  0.86910663227E+01  0.51100000000E-03 0.  1.
        -12    1    3    3    0    0  0.28692854141E+02 -0.28307181278E+02  0.33890862622E+01  0.40448266914E+02  0.00000000000E+00 0.  1.
</event>
<event>
 7    1  0.2468912E-015  0.9000764E+02  0.7816164E-02  0.1186339E+00
        -11   -1    0    0    0    0  0.00000000000E+00  0.00000000000E+00  0.45593999997E+02  0.45594000000E+02  0.51100000000E-03 0. -1.
         11   -1    0    0    0    0 -0.00000000000E+00 -0.00000000000E+00 -0.45593999997E+02  0.45594000000E+02  0.51100000000E-03 0.  1.
    9900012    2    1    2    0    0  0.68350627286E+00  0.26577912834E+00 -0.92489286087E+00  0.90007641506E+02  0.89999901574E+02 0.  0.
         12    1    1    2    0    0 -0.68350627286E+00 -0.26577912834E+00  0.92489286087E+00  0.11803584939E+01  0.00000000000E+00 0. -1.
         11    1    3    3    0    0  0.68916831965E+01 -0.52351930862E+01 -0.56480135571E+01  0.10334534403E+02  0.51100000000E-03 0. -1.
        -11    1    3    3    0    0  0.32907309526E+02  0.77291388939E+01 -0.13581340307E+02  0.36429156085E+02  0.51100000000E-03 0.  1.
         12    1    3    3    0    0 -0.39115486450E+02 -0.22281666794E+01  0.18304461003E+02  0.43243951017E+02  0.00000000000E+00 0. -1.
</event>
<event>
 7    1  0.2468912E-015  0.9000766E+02  0.7816164E-02  0.1186339E+00
        -11   -1    0    0    0    0  0.00000000000E+00  0.00000000000E+00  0.45593999997E+02  0.45594000000E+02  0.51100000000E-03 0. -1.
         11   -1    0    0    0    0 -0.00000000000E+00 -0.00000000000E+00 -0.45593999997E+02  0.45594000000E+02  0.51100000000E-03 0.  1.
    9900012    2    1    2    0    0 -0.54602195467E+00 -0.80324369369E+00 -0.67070982187E+00  0.90007664424E+02  0.89999924795E+02 0.  0.
         12    1    1    2    0    0  0.54602195467E+00  0.80324369369E+00  0.67070982187E+00  0.11803355758E+01  0.00000000000E+00 0. -1.
         11    1    3    3    0    0  0.29271278160E+02 -0.22869799867E+02 -0.11634394331E+01  0.37164352041E+02  0.51100000000E-03 0. -1.
        -11    1    3    3    0    0  0.71882261515E+01  0.42073921851E+01 -0.72358572956E+01  0.11033148928E+02  0.51100000000E-03 0.  1.
        -12    1    3    3    0    0 -0.37005526266E+02  0.17859163988E+02  0.77285869068E+01  0.41810163455E+02  0.00000000000E+00 0.  1.
</event>
<event>
 7    1  0.2468912E-015  0.9000782E+02  0.7816164E-02  0.1186339E+00
        -11   -1    0    0    0    0  0.00000000000E+00  0.00000000000E+00  0.45593999997E+02  0.45594000000E+02  0.51100000000E-03 0. -1.
         11   -1    0    0    0    0 -0.00000000000E+00 -0.00000000000E+00 -0.45593999997E+02  0.45594000000E+02  0.51100000000E-03 0.  1.
    9900012    2    1    2    0    0 -0.84690758915E+00 -0.80949986771E+00 -0.14240875200E+00  0.90007820881E+02  0.90000083317E+02 0.  0.
         12    1    1    2    0    0  0.84690758915E+00  0.80949986771E+00  0.14240875200E+00  0.11801791190E+01  0.00000000000E+00 0. -1.
         11    1    3    3    0    0 -0.25337119680E+02  0.70819554292E+01 -0.96314517345E+01  0.28015863170E+02  0.51100000000E-03 0. -1.
        -11    1    3    3    0    0 -0.15710988608E+02 -0.73679781419E-01  0.13668826834E+02  0.20824923026E+02  0.51100000000E-03 0.  1.
        -12    1    3    3    0    0  0.40201200700E+02 -0.78177755155E+01 -0.41797838512E+01  0.41167034685E+02  0.00000000000E+00 0.  1.
</event>
<event>
 7    1  0.2468912E-015  0.9000777E+02  0.7816164E-02  0.1186339E+00
        -11   -1    0    0    0    0  0.00000000000E+00  0.00000000000E+00  0.45593999997E+02  0.45594000000E+02  0.51100000000E-03 0. -1.
         11   -1    0    0    0    0 -0.00000000000E+00 -0.00000000000E+00 -0.45593999997E+02  0.45594000000E+02  0.51100000000E-03 0.  1.
    9900012    2    1    2    0    0 -0.55595035494E+00  0.10403426136E+01 -0.39509623618E-01  0.90007765040E+02  0.90000026738E+02 0.  0.
         12    1    1    2    0    0  0.55595035494E+00 -0.10403426136E+01  0.39509623618E-01  0.11802349602E+01  0.00000000000E+00 0. -1.
         11    1    3    3    0    0 -0.59452354205E+01  0.39308184091E+01  0.59861704191E+01  0.93075987300E+01  0.51100000000E-03 0. -1.
        -11    1    3    3    0    0  0.42373173535E+02  0.39339192825E+01 -0.67360052181E+01  0.43085210025E+02  0.51100000000E-03 0.  1.
         12    1    3    3    0    0 -0.36983888469E+02 -0.68243950780E+01  0.71032517538E+00  0.37614956285E+02  0.00000000000E+00 0. -1.
</event>
<event>
 7    1  0.2468912E-015  0.9000774E+02  0.7816164E-02  0.1186339E+00
        -11   -1    0    0    0    0  0.00000000000E+00  0.00000000000E+00  0.45593999997E+02  0.45594000000E+02  0.51100000000E-03 0.  1.
         11   -1    0    0    0    0 -0.00000000000E+00 -0.00000000000E+00 -0.45593999997E+02  0.45594000000E+02  0.51100000000E-03 0. -1.
    9900012    2    1    2    0    0  0.14964203827E+00  0.10917376919E+01  0.42277789015E+00  0.90007735169E+02  0.89999996473E+02 0.  0.
         12    1    1    2    0    0 -0.14964203827E+00 -0.10917376919E+01 -0.42277789015E+00  0.11802648313E+01  0.00000000000E+00 0. -1.
         11    1    3    3    0    0  0.63409262023E+01  0.21635695617E+02 -0.34848761700E+02  0.41505985860E+02  0.51100000000E-03 0. -1.
        -11    1    3    3    0    0 -0.37595601659E+01 -0.73591824998E+01 -0.23262140079E+01  0.85850528000E+01  0.51100000000E-03 0.  1.
        -12    1    3    3    0    0 -0.24317239981E+01 -0.13184775425E+02  0.37597753598E+02  0.39916696509E+02  0.00000000000E+00 0.  1.
</event>
<event>
 7    1  0.2468912E-015  0.9000769E+02  0.7816164E-02  0.1186339E+00
        -11   -1    0    0    0    0  0.00000000000E+00  0.00000000000E+00  0.45593999997E+02  0.45594000000E+02  0.51100000000E-03 0. -1.
         11   -1    0    0    0    0 -0.00000000000E+00 -0.00000000000E+00 -0.45593999997E+02  0.45594000000E+02  0.51100000000E-03 0.  1.
    9900012    2    1    2    0    0 -0.56232101533E+00  0.64722135901E-01 -0.10357321456E+01  0.90007688619E+02  0.89999949309E+02 0.  0.
         12    1    1    2    0    0  0.56232101533E+00 -0.64722135901E-01  0.10357321456E+01  0.11803113812E+01  0.00000000000E+00 0. -1.
         11    1    3    3    0    0 -0.10048205662E+01  0.11470036229E+02  0.13270395014E+02  0.17569142824E+02  0.51100000000E-03 0. -1.
        -11    1    3    3    0    0 -0.24262032883E+02  0.26739687275E+01  0.17304537120E+02  0.29920617533E+02  0.51100000000E-03 0.  1.
        -12    1    3    3    0    0  0.24704532434E+02 -0.14079282820E+02 -0.31610664280E+02  0.42517928262E+02  0.00000000000E+00 0.  1.
</event>
<event>
 7    1  0.2468912E-015  0.9000774E+02  0.7816164E-02  0.1186339E+00
        -11   -1    0    0    0    0  0.00000000000E+00  0.00000000000E+00  0.45593999997E+02  0.45594000000E+02  0.51100000000E-03 0.  1.
         11   -1    0    0    0    0 -0.00000000000E+00 -0.00000000000E+00 -0.45593999997E+02  0.45594000000E+02  0.51100000000E-03 0. -1.
    9900012    2    1    2    0    0 -0.48876678692E+00 -0.86843862953E+00 -0.63240699788E+00  0.90007738488E+02  0.89999999836E+02 0.  0.
         12    1    1    2    0    0  0.48876678692E+00  0.86843862953E+00  0.63240699788E+00  0.11802615118E+01  0.00000000000E+00 0. -1.
         11    1    3    3    0    0 -0.81591169286E+01  0.59936021550E+01 -0.10964382997E+01  0.10183154376E+02  0.51100000000E-03 0. -1.
        -11    1    3    3    0    0  0.48465509334E+01  0.33119748761E+02 -0.15237375967E+02  0.36777499107E+02  0.51100000000E-03 0.  1.
         12    1    3    3    0    0  0.28237992083E+01 -0.39981789545E+02  0.15701407269E+02  0.43047085005E+02  0.00000000000E+00 0. -1.
</event>
<event>
 7    1  0.2468912E-015  0.9000785E+02  0.7816164E-02  0.1186339E+00
        -11   -1    0    0    0    0  0.00000000000E+00  0.00000000000E+00  0.45593999997E+02  0.45594000000E+02  0.51100000000E-03 0. -1.
         11   -1    0    0    0    0 -0.00000000000E+00 -0.00000000000E+00 -0.45593999997E+02  0.45594000000E+02  0.51100000000E-03 0.  1.
    9900012    2    1    2    0    0 -0.59963144425E+00 -0.51392788419E+00 -0.87697024202E+00  0.90007848932E+02  0.90000111737E+02 0.  0.
         12    1    1    2    0    0  0.59963144425E+00  0.51392788419E+00  0.87697024202E+00  0.11801510685E+01  0.00000000000E+00 0. -1.
         11    1    3    3    0    0 -0.69292617837E+01  0.39254937356E+02  0.16903788409E+00  0.39862179441E+02  0.51100000000E-03 0. -1.
        -11    1    3    3    0    0 -0.48553327438E+00 -0.60143660736E+01 -0.12479389483E+02  0.13861583746E+02  0.51100000000E-03 0.  1.
        -12    1    3    3    0    0  0.68151636139E+01 -0.33754499167E+02  0.11433381356E+02  0.36284085745E+02  0.00000000000E+00 0.  1.
</event>
<event>
 7    1  0.2468912E-015  0.9000774E+02  0.7816164E-02  0.1186339E+00
        -11   -1    0    0    0    0  0.00000000000E+00  0.00000000000E+00  0.45593999997E+02  0.45594000000E+02  0.51100000000E-03 0. -1.
         11   -1    0    0    0    0 -0.00000000000E+00 -0.00000000000E+00 -0.45593999997E+02  0.45594000000E+02  0.51100000000E-03 0.  1.
    9900012    2    1    2    0    0  0.11670901376E+01 -0.68823759349E-01 -0.16176926660E+00  0.90007743505E+02  0.90000004919E+02 0.  0.
         12    1    1    2    0    0 -0.11670901376E+01  0.68823759349E-01  0.16176926660E+00  0.11802564954E+01  0.00000000000E+00 0. -1.
         11    1    3    3    0    0 -0.35760023886E+02 -0.47713929408E+01 -0.15785764574E+02  0.39379383723E+02  0.51100000000E-03 0. -1.
        -11    1    3    3    0    0 -0.45012067249E+01  0.49303007579E+01  0.29972700417E+01  0.73179474929E+01  0.51100000000E-03 0.  1.
        -12    1    3    3    0    0  0.41428320749E+02 -0.22773157651E+00  0.12626725266E+02  0.43310412289E+02  0.00000000000E+00 0.  1.
</event>
<event>
 7    1  0.2468912E-015  0.9000777E+02  0.7816164E-02  0.1186339E+00
        -11   -1    0    0    0    0  0.00000000000E+00  0.00000000000E+00  0.45593999997E+02  0.45594000000E+02  0.51100000000E-03 0.  1.
         11   -1    0    0    0    0 -0.00000000000E+00 -0.00000000000E+00 -0.45593999997E+02  0.45594000000E+02  0.51100000000E-03 0. -1.
    9900012    2    1    2    0    0 -0.50619817148E+00 -0.93326469445E+00  0.51548986220E+00  0.90007767236E+02  0.90000028964E+02 0.  0.
         12    1    1    2    0    0  0.50619817148E+00  0.93326469445E+00 -0.51548986220E+00  0.11802327638E+01  0.00000000000E+00 0. -1.
         11    1    3    3    0    0  0.11782583259E+02 -0.25498083798E+02 -0.25582304210E+02  0.37992576046E+02  0.51100000000E-03 0. -1.
        -11    1    3    3    0    0  0.25705098600E+01  0.11927792770E+02 -0.66514933406E+01  0.13896838678E+02  0.51100000000E-03 0.  1.
        -12    1    3    3    0    0 -0.14859291291E+02  0.12637026334E+02  0.32749287413E+02  0.38118352512E+02  0.00000000000E+00 0.  1.
</event>
<event>
 7    1  0.2468912E-015  0.9000785E+02  0.7816164E-02  0.1186339E+00
        -11   -1    0    0    0    0  0.00000000000E+00  0.00000000000E+00  0.45593999997E+02  0.45594000000E+02  0.51100000000E-03 0. -1.
         11   -1    0    0    0    0 -0.00000000000E+00 -0.00000000000E+00 -0.45593999997E+02  0.45594000000E+02  0.51100000000E-03 0.  1.
    9900012    2    1    2    0    0 -0.80647723005E+00  0.64818362517E-01 -0.85914948152E+00  0.90007853918E+02  0.90000116790E+02 0.  0.
         12    1    1    2    0    0  0.80647723005E+00 -0.64818362517E-01  0.85914948152E+00  0.11801460818E+01  0.00000000000E+00 0. -1.
         11    1    3    3    0    0  0.10159707855E+02  0.18604624435E+02  0.33951933957E+02  0.40026060683E+02  0.51100000000E-03 0. -1.
        -11    1    3    3    0    0  0.54934693724E+01  0.47864691101E+01 -0.79319465794E+01  0.10770527800E+02  0.51100000000E-03 0.  1.
        -12    1    3    3    0    0 -0.16459654458E+02 -0.23326275183E+02 -0.26879136859E+02  0.39211265436E+02  0.00000000000E+00 0.  1.
</event>
<event>
 7    1  0.2468912E-015  0.9000777E+02  0.7816164E-02  0.1186339E+00
        -11   -1    0    0    0    0  0.00000000000E+00  0.00000000000E+00  0.45593999997E+02  0.45594000000E+02  0.51100000000E-03 0. -1.
         11   -1    0    0    0    0 -0.00000000000E+00 -0.00000000000E+00 -0.45593999997E+02  0.45594000000E+02  0.51100000000E-03 0.  1.
    9900012    2    1    2    0    0  0.61440664291E+00 -0.81124093558E+00 -0.59777038448E+00  0.90007772560E+02  0.90000034357E+02 0.  0.
         12    1    1    2    0    0 -0.61440664291E+00  0.81124093558E+00  0.59777038448E+00  0.11802274404E+01  0.00000000000E+00 0. -1.
         11    1    3    3    0    0  0.88458469091E+01  0.12906057354E+01 -0.38304712906E+01  0.97255941347E+01  0.51100000000E-03 0. -1.
        -11    1    3    3    0    0 -0.22211818256E+02  0.26502183089E+02 -0.20834959722E+02  0.40371105083E+02  0.51100000000E-03 0.  1.
         12    1    3    3    0    0  0.13980377990E+02 -0.28604029759E+02  0.24067660628E+02  0.39911073342E+02  0.00000000000E+00 0. -1.
</event>
<event>
 7    1  0.2468912E-015  0.9000775E+02  0.7816164E-02  0.1186339E+00
        -11   -1    0    0    0    0  0.00000000000E+00  0.00000000000E+00  0.45593999997E+02  0.45594000000E+02  0.51100000000E-03 0.  1.
         11   -1    0    0    0    0 -0.00000000000E+00 -0.00000000000E+00 -0.45593999997E+02  0.45594000000E+02  0.51100000000E-03 0. -1.
    9900012    2    1    2    0    0 -0.10031855828E+01  0.18052712641E+00  0.59499363273E+00  0.90007750543E+02  0.90000012050E+02 0.  0.
         12    1    1    2    0    0  0.10031855828E+01 -0.18052712641E+00 -0.59499363273E+00  0.11802494567E+01  0.00000000000E+00 0. -1.
         11    1    3    3    0    0 -0.38037811586E+01 -0.43942063012E+01  0.30755357586E+01  0.65754635261E+01  0.51100000000E-03 0. -1.
        -11    1    3    3    0    0  0.26056232063E+02 -0.10504327612E+02  0.29753201304E+02  0.40920912942E+02  0.51100000000E-03 0.  1.
         12    1    3    3    0    0 -0.23255636487E+02  0.15079061040E+02 -0.32233743430E+02  0.42511374075E+02  0.00000000000E+00 0. -1.
</event>
<event>
 7    1  0.2468912E-015  0.9000779E+02  0.7816164E-02  0.1186339E+00
        -11   -1    0    0    0    0  0.00000000000E+00  0.00000000000E+00  0.45593999997E+02  0.45594000000E+02  0.51100000000E-03 0.  1.
         11   -1    0    0    0    0 -0.00000000000E+00 -0.00000000000E+00 -0.45593999997E+02  0.45594000000E+02  0.51100000000E-03 0. -1.
    9900012    2    1    2    0    0  0.74178197680E-01 -0.39360958377E+00  0.11101645906E+01  0.90007789710E+02  0.90000051735E+02 0.  0.
         12    1    1    2    0    0 -0.74178197680E-01  0.39360958377E+00 -0.11101645906E+01  0.11802102896E+01  0.00000000000E+00 0. -1.
         11    1    3    3    0    0 -0.67065658785E+01 -0.26219417244E+01 -0.67735233694E+01  0.98860115004E+01  0.51100000000E-03 0. -1.
        -11    1    3    3    0    0  0.24305238884E+01  0.27589219055E+02  0.33734706156E+02  0.43647483939E+02  0.51100000000E-03 0.  1.
         12    1    3    3    0    0  0.43502201878E+01 -0.25360886915E+02 -0.25851018196E+02  0.36474294271E+02  0.00000000000E+00 0. -1.
</event>
<event>
 7    1  0.2468912E-015  0.9000822E+02  0.7816164E-02  0.1186338E+00
        -11   -1    0    0    0    0  0.00000000000E+00  0.00000000000E+00  0.45593999997E+02  0.45594000000E+02  0.51100000000E-03 0. -1.
         11   -1    0    0    0    0 -0.00000000000E+00 -0.00000000000E+00 -0.45593999997E+02  0.45594000000E+02  0.51100000000E-03 0.  1.
    9900012    2    1    2    0    0 -0.33322510807E+00  0.49395123358E+00 -0.10182574305E+01  0.90008222483E+02  0.90000490219E+02 0.  0.
         12    1    1    2    0    0  0.33322510807E+00 -0.49395123358E+00  0.10182574305E+01  0.11797775165E+01  0.00000000000E+00 0. -1.
         11    1    3    3    0    0  0.15600959904E+02  0.24479005839E+02 -0.21170757463E+02  0.35927881215E+02  0.51100000000E-03 0. -1.
        -11    1    3    3    0    0  0.21980004050E+01  0.81893465465E+01 -0.45749839602E+01  0.96346811642E+01  0.51100000000E-03 0.  1.
        -12    1    3    3    0    0 -0.18132185417E+02 -0.32174401152E+02  0.24727483993E+02  0.44445660104E+02  0.00000000000E+00 0.  1.
</event>
<event>
 7    1  0.2468912E-015  0.9000773E+02  0.7816164E-02  0.1186339E+00
        -11   -1    0    0    0    0  0.00000000000E+00  0.00000000000E+00  0.45593999997E+02  0.45594000000E+02  0.51100000000E-03 0.  1.
         11   -1    0    0    0    0 -0.00000000000E+00 -0.00000000000E+00 -0.45593999997E+02  0.45594000000E+02  0.51100000000E-03 0. -1.
    9900012    2    1    2    0    0 -0.24207012691E-01  0.50781243239E+00  0.10651704653E+01  0.90007725640E+02  0.89999986818E+02 0.  0.
         12    1    1    2    0    0  0.24207012691E-01 -0.50781243239E+00 -0.10651704653E+01  0.11802743605E+01  0.00000000000E+00 0. -1.
         11    1    3    3    0    0 -0.25199072618E+02 -0.25216930669E+02  0.84540985705E+01  0.36638212785E+02  0.51100000000E-03 0. -1.
        -11    1    3    3    0    0 -0.10373156018E+02  0.38226662440E+01 -0.24650585313E+01  0.11326590697E+02  0.51100000000E-03 0.  1.
        -12    1    3    3    0    0  0.35548021623E+02  0.21902076858E+02 -0.49238695738E+01  0.42042922158E+02  0.00000000000E+00 0.  1.
</event>
<event>
 7    1  0.2468912E-015  0.9000858E+02  0.7816164E-02  0.1186337E+00
        -11   -1    0    0    0    0  0.00000000000E+00  0.00000000000E+00  0.45593999997E+02  0.45594000000E+02  0.51100000000E-03 0.  1.
         11   -1    0    0    0    0 -0.00000000000E+00 -0.00000000000E+00 -0.45593999997E+02  0.45594000000E+02  0.51100000000E-03 0. -1.
    9900012    2    1    2    0    0  0.59494074340E+00  0.10114730208E+01 -0.11833491201E+00  0.90008578400E+02  0.90000850831E+02 0.  0.
         12    1    1    2    0    0 -0.59494074340E+00 -0.10114730208E+01  0.11833491201E+00  0.11794216003E+01  0.00000000000E+00 0. -1.
         11    1    3    3    0    0 -0.23564392583E+01 -0.90515094649E+01 -0.88372272283E+00  0.93948707114E+01  0.51100000000E-03 0. -1.
        -11    1    3    3    0    0  0.49326872764E+01 -0.22039402903E+02  0.29726576666E+02  0.37332774403E+02  0.51100000000E-03 0.  1.
         12    1    3    3    0    0 -0.19813072747E+01  0.32102385388E+02 -0.28961188855E+02  0.43280933285E+02  0.00000000000E+00 0. -1.
</event>
<event>
 7    1  0.2468912E-015  0.9000774E+02  0.7816164E-02  0.1186339E+00
        -11   -1    0    0    0    0  0.00000000000E+00  0.00000000000E+00  0.45593999997E+02  0.45594000000E+02  0.51100000000E-03 0.  1.
         11   -1    0    0    0    0 -0.00000000000E+00 -0.00000000000E+00 -0.45593999997E+02  0.45594000000E+02  0.51100000000E-03 0. -1.
    9900012    2    1    2    0    0 -0.11549607077E-01  0.11724571297E+01 -0.13502947752E+00  0.90007736439E+02  0.89999997760E+02 0.  0.
         12    1    1    2    0    0  0.11549607077E-01 -0.11724571297E+01  0.13502947752E+00  0.11802635613E+01  0.00000000000E+00 0. -1.
         11    1    3    3    0    0 -0.19186911853E+02 -0.14644974007E+02  0.33901825627E+02  0.41616662904E+02  0.51100000000E-03 0. -1.
        -11    1    3    3    0    0 -0.47559315229E+01  0.69725746618E+01 -0.53166991031E+01  0.99751176273E+01  0.51100000000E-03 0.  1.
        -12    1    3    3    0    0  0.23931293769E+02  0.88448564748E+01 -0.28720156002E+02  0.38415955908E+02  0.00000000000E+00 0.  1.
</event>
<event>
 7    1  0.2468912E-015  0.9000776E+02  0.7816164E-02  0.1186339E+00
        -11   -1    0    0    0    0  0.00000000000E+00  0.00000000000E+00  0.45593999997E+02  0.45594000000E+02  0.51100000000E-03 0.  1.
         11   -1    0    0    0    0 -0.00000000000E+00 -0.00000000000E+00 -0.45593999997E+02  0.45594000000E+02  0.51100000000E-03 0. -1.
    9900012    2    1    2    0    0  0.10954158196E+01  0.12804527319E+00  0.42027728718E+00  0.90007760868E+02  0.90000022512E+02 0.  0.
         12    1    1    2    0    0 -0.10954158196E+01 -0.12804527319E+00 -0.42027728718E+00  0.11802391317E+01  0.00000000000E+00 0. -1.
         11    1    3    3    0    0  0.54824799808E+00 -0.99748549785E+01 -0.38425680521E+02  0.39703038064E+02  0.51100000000E-03 0. -1.
        -11    1    3    3    0    0 -0.10107339853E+02  0.10266464965E+01  0.13090755691E+01  0.10243339350E+02  0.51100000000E-03 0.  1.
        -12    1    3    3    0    0  0.10654507675E+02  0.90762537552E+01  0.37536882240E+02  0.40061383454E+02  0.00000000000E+00 0.  1.
</event>
<event>
 7    1  0.2468912E-015  0.9000780E+02  0.7816164E-02  0.1186339E+00
        -11   -1    0    0    0    0  0.00000000000E+00  0.00000000000E+00  0.45593999997E+02  0.45594000000E+02  0.51100000000E-03 0.  1.
         11   -1    0    0    0    0 -0.00000000000E+00 -0.00000000000E+00 -0.45593999997E+02  0.45594000000E+02  0.51100000000E-03 0. -1.
    9900012    2    1    2    0    0 -0.27667067855E+00  0.90499290479E+00  0.70521095737E+00  0.90007796070E+02  0.90000058178E+02 0.  0.
         12    1    1    2    0    0  0.27667067855E+00 -0.90499290479E+00 -0.70521095737E+00  0.11802039300E+01  0.00000000000E+00 0. -1.
         11    1    3    3    0    0  0.11555651446E+02  0.66303456656E-01 -0.91862669690E+01  0.14762282262E+02  0.51100000000E-03 0. -1.
        -11    1    3    3    0    0  0.14346516884E+02 -0.55905346506E+01  0.35106079179E+02  0.38334233003E+02  0.51100000000E-03 0.  1.
         12    1    3    3    0    0 -0.26178839008E+02  0.64292240987E+01 -0.25214601253E+02  0.36911280805E+02  0.00000000000E+00 0. -1.
</event>
<event>
 7    1  0.2468912E-015  0.9000763E+02  0.7816164E-02  0.1186339E+00
        -11   -1    0    0    0    0  0.00000000000E+00  0.00000000000E+00  0.45593999997E+02  0.45594000000E+02  0.51100000000E-03 0. -1.
         11   -1    0    0    0    0 -0.00000000000E+00 -0.00000000000E+00 -0.45593999997E+02  0.45594000000E+02  0.51100000000E-03 0.  1.
    9900012    2    1    2    0    0 -0.49885530077E+00  0.10823288836E+00 -0.10642857836E+01  0.90007629211E+02  0.89999889117E+02 0.  0.
         12    1    1    2    0    0  0.49885530077E+00 -0.10823288836E+00  0.10642857836E+01  0.11803707885E+01  0.00000000000E+00 0. -1.
         11    1    3    3    0    0  0.26152185733E+01  0.49179970321E+01  0.57068821313E+01  0.79746201737E+01  0.51100000000E-03 0. -1.
        -11    1    3    3    0    0  0.18758710434E+02 -0.33695502919E+02  0.13074618406E+02  0.40721269391E+02  0.51100000000E-03 0.  1.
         12    1    3    3    0    0 -0.21872784308E+02  0.28885738775E+02 -0.19845786321E+02  0.41311739647E+02  0.00000000000E+00 0. -1.
</event>
<event>
 7    1  0.2468912E-015  0.9000773E+02  0.7816164E-02  0.1186339E+00
        -11   -1    0    0    0    0  0.00000000000E+00  0.00000000000E+00  0.45593999997E+02  0.45594000000E+02  0.51100000000E-03 0. -1.
         11   -1    0    0    0    0 -0.00000000000E+00 -0.00000000000E+00 -0.45593999997E+02  0.45594000000E+02  0.51100000000E-03 0.  1.
    9900012    2    1    2    0    0  0.52068714120E+00  0.93650728239E+00 -0.49485125740E+00  0.90007729372E+02  0.89999990599E+02 0.  0.
         12    1    1    2    0    0 -0.52068714120E+00 -0.93650728239E+00  0.49485125740E+00  0.11802706283E+01  0.00000000000E+00 0. -1.
         11    1    3    3    0    0 -0.38704837428E+01 -0.47692645309E+01 -0.63035359475E+01  0.88011984565E+01  0.51100000000E-03 0. -1.
        -11    1    3    3    0    0  0.42693332652E+01 -0.35982846521E+02  0.13771660389E+02  0.38764043653E+02  0.51100000000E-03 0.  1.
         12    1    3    3    0    0  0.12183761879E+00  0.41688618334E+02 -0.79629756985E+01  0.42442487262E+02  0.00000000000E+00 0. -1.
</event>
<event>
 7    1  0.2468912E-015  0.9000789E+02  0.7816164E-02  0.1186339E+00
        -11   -1    0    0    0    0  0.00000000000E+00  0.00000000000E+00  0.45593999997E+02  0.45594000000E+02  0.51100000000E-03 0.  1.
         11   -1    0    0    0    0 -0.00000000000E+00 -0.00000000000E+00 -0.45593999997E+02  0.45594000000E+02  0.51100000000E-03 0. -1.
    9900012    2    1    2    0    0  0.65682385687E+00 -0.89075921129E+00 -0.40962648838E+00  0.90007888390E+02  0.90000151717E+02 0.  0.
         12    1    1    2    0    0 -0.65682385687E+00  0.89075921129E+00  0.40962648838E+00  0.11801116097E+01  0.00000000000E+00 0. -1.
         11    1    3    3    0    0  0.27798125272E+01 -0.56263168184E+01  0.77638462844E+01  0.99829909354E+01  0.51100000000E-03 0. -1.
        -11    1    3    3    0    0  0.12932619322E+02  0.40266222331E+01  0.33272236490E+02  0.35923641943E+02  0.51100000000E-03 0.  1.
         12    1    3    3    0    0 -0.15055607992E+02  0.70893537397E+00 -0.41445709263E+02  0.44101255512E+02  0.00000000000E+00 0. -1.
</event>
<event>
 7    1  0.2468912E-015  0.9000777E+02  0.7816164E-02  0.1186339E+00
        -11   -1    0    0    0    0  0.00000000000E+00  0.00000000000E+00  0.45593999997E+02  0.45594000000E+02  0.51100000000E-03 0. -1.
         11   -1    0    0    0    0 -0.00000000000E+00 -0.00000000000E+00 -0.45593999997E+02  0.45594000000E+02  0.51100000000E-03 0.  1.
    9900012    2    1    2    0    0 -0.99721832019E+00  0.18319842204E-01 -0.63100776906E+00  0.90007766634E+02  0.90000028353E+02 0.  0.
         12    1    1    2    0    0  0.99721832019E+00 -0.18319842204E-01  0.63100776906E+00  0.11802333665E+01  0.00000000000E+00 0. -1.
         11    1    3    3    0    0 -0.17726120162E+01 -0.85796350958E+01  0.29707153905E+01  0.92508076366E+01  0.51100000000E-03 0. -1.
        -11    1    3    3    0    0 -0.10228950326E+02  0.36784018328E+02  0.19326964583E+02  0.42792838062E+02  0.51100000000E-03 0.  1.
         12    1    3    3    0    0  0.11004344022E+02 -0.28186063390E+02 -0.22928687742E+02  0.37964120935E+02  0.00000000000E+00 0. -1.
</event>
<event>
 7    1  0.2468912E-015  0.9000774E+02  0.7816164E-02  0.1186339E+00
        -11   -1    0    0    0    0  0.00000000000E+00  0.00000000000E+00  0.45593999997E+02  0.45594000000E+02  0.51100000000E-03 0.  1.
         11   -1    0    0    0    0 -0.00000000000E+00 -0.00000000000E+00 -0.45593999997E+02  0.45594000000E+02  0.51100000000E-03 0. -1.
    9900012    2    1    2    0    0  0.10172166651E+01  0.58584582496E+00  0.12277728831E+00  0.90007737598E+02  0.89999998935E+02 0.  0.
         12    1    1    2    0    0 -0.10172166651E+01 -0.58584582496E+00 -0.12277728831E+00  0.11802624017E+01  0.00000000000E+00 0. -1.
         11    1    3    3    0    0  0.28725411595E+02  0.25739019575E+02  0.55871781305E+01  0.38972592417E+02  0.51100000000E-03 0. -1.
        -11    1    3    3    0    0 -0.15200703648E+01  0.28781640847E+01  0.93596066034E+01  0.99094237190E+01  0.51100000000E-03 0.  1.
        -12    1    3    3    0    0 -0.26188124566E+02 -0.28031337834E+02 -0.14824007446E+02  0.41125721462E+02  0.00000000000E+00 0.  1.
</event>
<event>
 7    1  0.2468912E-015  0.9000774E+02  0.7816164E-02  0.1186339E+00
        -11   -1    0    0    0    0  0.00000000000E+00  0.00000000000E+00  0.45593999997E+02  0.45594000000E+02  0.51100000000E-03 0.  1.
         11   -1    0    0    0    0 -0.00000000000E+00 -0.00000000000E+00 -0.45593999997E+02  0.45594000000E+02  0.51100000000E-03 0. -1.
    9900012    2    1    2    0    0 -0.12699687332E-01  0.11534786038E+01  0.24966424374E+00  0.90007743076E+02  0.90000004485E+02 0.  0.
         12    1    1    2    0    0  0.12699687332E-01 -0.11534786038E+01 -0.24966424374E+00  0.11802569237E+01  0.00000000000E+00 0. -1.
         11    1    3    3    0    0  0.11659712843E+01 -0.20062681809E+02 -0.35520732085E+02  0.40811678458E+02  0.51100000000E-03 0. -1.
        -11    1    3    3    0    0 -0.50777811358E+01 -0.50825124381E+01  0.79282483252E+01  0.10699201639E+02  0.51100000000E-03 0.  1.
        -12    1    3    3    0    0  0.38991101641E+01  0.26298672851E+02  0.27842148004E+02  0.38496862979E+02  0.00000000000E+00 0.  1.
</event>
<event>
 7    1  0.2468912E-015  0.9000765E+02  0.7816164E-02  0.1186339E+00
        -11   -1    0    0    0    0  0.00000000000E+00  0.00000000000E+00  0.45593999997E+02  0.45594000000E+02  0.51100000000E-03 0. -1.
         11   -1    0    0    0    0 -0.00000000000E+00 -0.00000000000E+00 -0.45593999997E+02  0.45594000000E+02  0.51100000000E-03 0.  1.
    9900012    2    1    2    0    0 -0.43330431974E+00 -0.59219703997E+00  0.92454093014E+00  0.90007650095E+02  0.89999910276E+02 0.  0.
         12    1    1    2    0    0  0.43330431974E+00  0.59219703997E+00 -0.92454093014E+00  0.11803499054E+01  0.00000000000E+00 0. -1.
         11    1    3    3    0    0 -0.94275904764E+00 -0.14857182112E+02  0.33289544154E+02  0.36466675269E+02  0.51100000000E-03 0. -1.
        -11    1    3    3    0    0  0.47914075718E+01 -0.10044513033E+02  0.19215278947E+01  0.11293453781E+02  0.51100000000E-03 0.  1.
        -12    1    3    3    0    0 -0.42819528439E+01  0.24309498105E+02 -0.34286531119E+02  0.42247521045E+02  0.00000000000E+00 0.  1.
</event>
<event>
 7    1  0.2468912E-015  0.9000776E+02  0.7816164E-02  0.1186339E+00
        -11   -1    0    0    0    0  0.00000000000E+00  0.00000000000E+00  0.45593999997E+02  0.45594000000E+02  0.51100000000E-03 0. -1.
         11   -1    0    0    0    0 -0.00000000000E+00 -0.00000000000E+00 -0.45593999997E+02  0.45594000000E+02  0.51100000000E-03 0.  1.
    9900012    2    1    2    0    0  0.41890056788E+00 -0.48762667971E+00 -0.98980812303E+00  0.90007755286E+02  0.90000016856E+02 0.  0.
         12    1    1    2    0    0 -0.41890056788E+00  0.48762667971E+00  0.98980812303E+00  0.11802447140E+01  0.00000000000E+00 0. -1.
         11    1    3    3    0    0  0.23785641124E+01  0.51705798303E+01 -0.78208929653E+01  0.96725813542E+01  0.51100000000E-03 0. -1.
        -11    1    3    3    0    0 -0.85031920070E+01 -0.37575563677E+02 -0.14752205285E+02  0.41253543132E+02  0.51100000000E-03 0.  1.
         12    1    3    3    0    0  0.65435284624E+01  0.31917357167E+02  0.21583290127E+02  0.39081630800E+02  0.00000000000E+00 0. -1.
</event>
<event>
 7    1  0.2468912E-015  0.9000776E+02  0.7816164E-02  0.1186339E+00
        -11   -1    0    0    0    0  0.00000000000E+00  0.00000000000E+00  0.45593999997E+02  0.45594000000E+02  0.51100000000E-03 0. -1.
         11   -1    0    0    0    0 -0.00000000000E+00 -0.00000000000E+00 -0.45593999997E+02  0.45594000000E+02  0.51100000000E-03 0.  1.
    9900012    2    1    2    0    0 -0.81678660620E+00  0.46929540769E+00 -0.71105464269E+00  0.90007755430E+02  0.90000017002E+02 0.  0.
         12    1    1    2    0    0  0.81678660620E+00 -0.46929540769E+00  0.71105464269E+00  0.11802445698E+01  0.00000000000E+00 0. -1.
         11    1    3    3    0    0  0.38916258786E+02  0.13325202050E+02  0.48909729465E+01  0.41424121284E+02  0.51100000000E-03 0. -1.
        -11    1    3    3    0    0 -0.13296381692E+01 -0.34704476552E+01 -0.81608820967E+01  0.89672705684E+01  0.51100000000E-03 0.  1.
        -12    1    3    3    0    0 -0.38403407223E+02 -0.93854589876E+01  0.25588545076E+01  0.39616363577E+02  0.00000000000E+00 0.  1.
</event>
<event>
 7    1  0.2468912E-015  0.9000775E+02  0.7816164E-02  0.1186339E+00
        -11   -1    0    0    0    0  0.00000000000E+00  0.00000000000E+00  0.45593999997E+02  0.45594000000E+02  0.51100000000E-03 0.  1.
         11   -1    0    0    0    0 -0.00000000000E+00 -0.00000000000E+00 -0.45593999997E+02  0.45594000000E+02  0.51100000000E-03 0. -1.
    9900012    2    1    2    0    0  0.69942817298E-01  0.11779262492E+01  0.24114035640E-01  0.90007752681E+02  0.90000014217E+02 0.  0.
         12    1    1    2    0    0 -0.69942817298E-01 -0.11779262492E+01 -0.24114035640E-01  0.11802473185E+01  0.00000000000E+00 0. -1.
         11    1    3    3    0    0 -0.34592540801E+00 -0.17274584879E+01  0.87679792608E+01  0.89432230093E+01  0.51100000000E-03 0. -1.
        -11    1    3    3    0    0 -0.22178857997E+02 -0.31140674291E+01  0.29014066878E+02  0.36652629306E+02  0.51100000000E-03 0.  1.
         12    1    3    3    0    0  0.22594726222E+02  0.60194521662E+01 -0.37757932103E+02  0.44411900366E+02  0.00000000000E+00 0. -1.
</event>
<event>
 7    1  0.2468912E-015  0.9000799E+02  0.7816164E-02  0.1186339E+00
        -11   -1    0    0    0    0  0.00000000000E+00  0.00000000000E+00  0.45593999997E+02  0.45594000000E+02  0.51100000000E-03 0. -1.
         11   -1    0    0    0    0 -0.00000000000E+00 -0.00000000000E+00 -0.45593999997E+02  0.45594000000E+02  0.51100000000E-03 0.  1.
    9900012    2    1    2    0    0 -0.10885261775E+01 -0.40389804500E-01 -0.45377438014E+00  0.90007986541E+02  0.90000251163E+02 0.  0.
         12    1    1    2    0    0  0.10885261775E+01  0.40389804500E-01  0.45377438014E+00  0.11800134590E+01  0.00000000000E+00 0. -1.
         11    1    3    3    0    0  0.14303632465E+01 -0.56681293469E+01  0.31085686499E+02  0.31630579108E+02  0.51100000000E-03 0. -1.
        -11    1    3    3    0    0  0.10354499983E+02  0.13299979689E+02  0.60518796080E+01  0.17908946833E+02  0.51100000000E-03 0.  1.
        -12    1    3    3    0    0 -0.12873389407E+02 -0.76722401465E+01 -0.37591340487E+02  0.40468460600E+02  0.00000000000E+00 0.  1.
</event>
<event>
 7    1  0.2468912E-015  0.9000773E+02  0.7816164E-02  0.1186339E+00
        -11   -1    0    0    0    0  0.00000000000E+00  0.00000000000E+00  0.45593999997E+02  0.45594000000E+02  0.51100000000E-03 0. -1.
         11   -1    0    0    0    0 -0.00000000000E+00 -0.00000000000E+00 -0.45593999997E+02  0.45594000000E+02  0.51100000000E-03 0.  1.
    9900012    2    1    2    0    0  0.24087331690E+00  0.11027521410E+01 -0.34491104910E+00  0.90007726358E+02  0.89999987546E+02 0.  0.
         12    1    1    2    0    0 -0.24087331690E+00 -0.11027521410E+01  0.34491104910E+00  0.11802736424E+01  0.00000000000E+00 0. -1.
         11    1    3    3    0    0 -0.18153314818E+02 -0.35825740704E+02  0.95628511621E+01  0.41285283800E+02  0.51100000000E-03 0. -1.
        -11    1    3    3    0    0 -0.16536066225E+01  0.83214688120E+01 -0.10854897694E+02  0.13777157264E+02  0.51100000000E-03 0.  1.
        -12    1    3    3    0    0  0.20047794758E+02  0.28607024033E+02  0.94713548312E+00  0.34945285294E+02  0.00000000000E+00 0.  1.
</event>
<event>
 7    1  0.2468912E-015  0.9000780E+02  0.7816164E-02  0.1186339E+00
        -11   -1    0    0    0    0  0.00000000000E+00  0.00000000000E+00  0.45593999997E+02  0.45594000000E+02  0.51100000000E-03 0.  1.
         11   -1    0    0    0    0 -0.00000000000E+00 -0.00000000000E+00 -0.45593999997E+02  0.45594000000E+02  0.51100000000E-03 0. -1.
    9900012    2    1    2    0    0  0.70876467092E+00 -0.42893230081E+00  0.84056546152E+00  0.90007796385E+02  0.90000058497E+02 0.  0.
         12    1    1    2    0    0 -0.70876467092E+00  0.42893230081E+00 -0.84056546152E+00  0.11802036149E+01  0.00000000000E+00 0. -1.
         11    1    3    3    0    0 -0.35143621965E+02  0.15838294712E+02 -0.76145446256E+01  0.39292582434E+02  0.51100000000E-03 0. -1.
        -11    1    3    3    0    0  0.94960134319E+01  0.86797321282E+01  0.63930912944E+01  0.14366058523E+02  0.51100000000E-03 0.  1.
        -12    1    3    3    0    0  0.26356373204E+02 -0.24946959141E+02  0.20620187928E+01  0.36349155428E+02  0.00000000000E+00 0.  1.
</event>
<event>
 7    1  0.5308793E-015  0.9000779E+02  0.7816164E-02  0.1186339E+00
        -11   -1    0    0    0    0  0.00000000000E+00  0.00000000000E+00  0.45593999997E+02  0.45594000000E+02  0.51100000000E-03 0. -1.
         11   -1    0    0    0    0 -0.00000000000E+00 -0.00000000000E+00 -0.45593999997E+02  0.45594000000E+02  0.51100000000E-03 0.  1.
    9900012    2    1    2    0    0 -0.98813407278E-03 -0.19720006464E+00 -0.11636226455E+01  0.90007785400E+02  0.90000047367E+02 0.  0.
         12    1    1    2    0    0  0.98813407278E-03  0.19720006464E+00  0.11636226455E+01  0.11802146004E+01  0.00000000000E+00 0. -1.
         11    1    3    3    0    0  0.12093225817E+02  0.10883855358E+01  0.35181568464E+02  0.37217918448E+02  0.51100000000E-03 0. -1.
        -11    1    3    3    0    0 -0.13180398411E+01 -0.82465435730E+01  0.48403385116E+01  0.96525430376E+01  0.51100000000E-03 0.  1.
        -12    1    3    3    0    0 -0.10776174110E+02  0.69609579726E+01 -0.41185529621E+02  0.43137323914E+02  0.00000000000E+00 0.  1.
</event>
<event>
 7    1  0.2468912E-015  0.9000779E+02  0.7816164E-02  0.1186339E+00
        -11   -1    0    0    0    0  0.00000000000E+00  0.00000000000E+00  0.45593999997E+02  0.45594000000E+02  0.51100000000E-03 0. -1.
         11   -1    0    0    0    0 -0.00000000000E+00 -0.00000000000E+00 -0.45593999997E+02  0.45594000000E+02  0.51100000000E-03 0.  1.
    9900012    2    1    2    0    0  0.10935048560E+01  0.38680048329E+00  0.21802083106E+00  0.90007787914E+02  0.90000049915E+02 0.  0.
         12    1    1    2    0    0 -0.10935048560E+01 -0.38680048329E+00 -0.21802083106E+00  0.11802120855E+01  0.00000000000E+00 0. -1.
         11    1    3    3    0    0  0.85845449480E+01 -0.53792981753E+00 -0.88703444558E+00  0.86470001054E+01  0.51100000000E-03 0. -1.
        -11    1    3    3    0    0  0.16516514831E+02 -0.27066272097E+02  0.22358799253E+02  0.38798121755E+02  0.51100000000E-03 0.  1.
         12    1    3    3    0    0 -0.24007554923E+02  0.27991002398E+02 -0.21253743977E+02  0.42562666054E+02  0.00000000000E+00 0. -1.
</event>
<event>
 7    1  0.2468912E-015  0.9000771E+02  0.7816164E-02  0.1186339E+00
        -11   -1    0    0    0    0  0.00000000000E+00  0.00000000000E+00  0.45593999997E+02  0.45594000000E+02  0.51100000000E-03 0.  1.
         11   -1    0    0    0    0 -0.00000000000E+00 -0.00000000000E+00 -0.45593999997E+02  0.45594000000E+02  0.51100000000E-03 0. -1.
    9900012    2    1    2    0    0 -0.11298665272E+01 -0.33796064623E+00  0.47554662886E-01  0.90007713080E+02  0.89999974093E+02 0.  0.
         12    1    1    2    0    0  0.11298665272E+01  0.33796064623E+00 -0.47554662886E-01  0.11802869200E+01  0.00000000000E+00 0. -1.
         11    1    3    3    0    0 -0.26305519092E+02 -0.60167435290E+01 -0.32990108158E+02  0.42620755201E+02  0.51100000000E-03 0. -1.
        -11    1    3    3    0    0  0.77449381567E+00 -0.27921373298E+01  0.16419429646E+02  0.16673138328E+02  0.51100000000E-03 0.  1.
        -12    1    3    3    0    0  0.24401158749E+02  0.84709202126E+01  0.16618233175E+02  0.30713819551E+02  0.00000000000E+00 0.  1.
</event>
<event>
 7    1  0.2468912E-015  0.9000773E+02  0.7816164E-02  0.1186339E+00
        -11   -1    0    0    0    0  0.00000000000E+00  0.00000000000E+00  0.45593999997E+02  0.45594000000E+02  0.51100000000E-03 0. -1.
         11   -1    0    0    0    0 -0.00000000000E+00 -0.00000000000E+00 -0.45593999997E+02  0.45594000000E+02  0.51100000000E-03 0.  1.
    9900012    2    1    2    0    0 -0.10124811324E+01  0.44591630149E+00  0.41118344851E+00  0.90007732564E+02  0.89999993834E+02 0.  0.
         12    1    1    2    0    0  0.10124811324E+01 -0.44591630149E+00 -0.41118344851E+00  0.11802674357E+01  0.00000000000E+00 0. -1.
         11    1    3    3    0    0 -0.12019224099E+02  0.84089857608E+01  0.30262883978E+02  0.33630565508E+02  0.51100000000E-03 0. -1.
        -11    1    3    3    0    0  0.49042134359E+01  0.74122630737E+01  0.99100061810E+01  0.13311693208E+02  0.51100000000E-03 0.  1.
        -12    1    3    3    0    0  0.61025295307E+01 -0.15375332533E+02 -0.39761706711E+02  0.43065473848E+02  0.00000000000E+00 0.  1.
</event>
<event>
 7    1  0.2468912E-015  0.9000777E+02  0.7816164E-02  0.1186339E+00
        -11   -1    0    0    0    0  0.00000000000E+00  0.00000000000E+00  0.45593999997E+02  0.45594000000E+02  0.51100000000E-03 0. -1.
         11   -1    0    0    0    0 -0.00000000000E+00 -0.00000000000E+00 -0.45593999997E+02  0.45594000000E+02  0.51100000000E-03 0.  1.
    9900012    2    1    2    0    0  0.88895630888E+00 -0.73038278034E+00  0.26314421036E+00  0.90007768158E+02  0.90000029898E+02 0.  0.
         12    1    1    2    0    0 -0.88895630888E+00  0.73038278034E+00 -0.26314421036E+00  0.11802318418E+01  0.00000000000E+00 0. -1.
         11    1    3    3    0    0 -0.95315892593E+01 -0.19778906678E+02  0.34818190437E+02  0.41162637534E+02  0.51100000000E-03 0. -1.
        -11    1    3    3    0    0  0.79929849809E+01  0.52361347395E+01  0.19382106342E+01  0.97499526480E+01  0.51100000000E-03 0.  1.
        -12    1    3    3    0    0  0.24275605873E+01  0.13812389158E+02 -0.36493256861E+02  0.39095177976E+02  0.00000000000E+00 0.  1.
</event>
<event>
 7    1  0.2468912E-015  0.9000786E+02  0.7816164E-02  0.1186339E+00
        -11   -1    0    0    0    0  0.00000000000E+00  0.00000000000E+00  0.45593999997E+02  0.45594000000E+02  0.51100000000E-03 0.  1.
         11   -1    0    0    0    0 -0.00000000000E+00 -0.00000000000E+00 -0.45593999997E+02  0.45594000000E+02  0.51100000000E-03 0. -1.
    9900012    2    1    2    0    0 -0.50795749793E+00  0.72548442417E+00  0.77998497923E+00  0.90007862280E+02  0.90000125262E+02 0.  0.
         12    1    1    2    0    0  0.50795749793E+00 -0.72548442417E+00 -0.77998497923E+00  0.11801377196E+01  0.00000000000E+00 0. -1.
         11    1    3    3    0    0 -0.14772881291E+02 -0.32117593143E+02 -0.16038434013E+02  0.38820216084E+02  0.51100000000E-03 0. -1.
        -11    1    3    3    0    0 -0.84141174984E+01  0.59192734585E+00  0.58451821833E+01  0.10262256393E+02  0.51100000000E-03 0.  1.
        -12    1    3    3    0    0  0.22679041291E+02  0.32251150221E+02  0.10973236809E+02  0.40925389803E+02  0.00000000000E+00 0.  1.
</event>
<event>
 7    1  0.2468912E-015  0.9000772E+02  0.7816164E-02  0.1186339E+00
        -11   -1    0    0    0    0  0.00000000000E+00  0.00000000000E+00  0.45593999997E+02  0.45594000000E+02  0.51100000000E-03 0. -1.
         11   -1    0    0    0    0 -0.00000000000E+00 -0.00000000000E+00 -0.45593999997E+02  0.45594000000E+02  0.51100000000E-03 0.  1.
    9900012    2    1    2    0    0 -0.11594419445E+01  0.38699793006E-01 -0.21740627572E+00  0.90007716650E+02  0.89999977710E+02 0.  0.
         12    1    1    2    0    0  0.11594419445E+01 -0.38699793006E-01  0.21740627572E+00  0.11802833496E+01  0.00000000000E+00 0. -1.
         11    1    3    3    0    0  0.74617143340E+01 -0.32575725477E+02 -0.97783044234E+01  0.34820544350E+02  0.51100000000E-03 0. -1.
        -11    1    3    3    0    0  0.57269105457E+01 -0.57629925815E+01 -0.72610249803E+01  0.10896424731E+02  0.51100000000E-03 0.  1.
        -12    1    3    3    0    0 -0.14348066824E+02  0.38377417852E+02  0.16821923128E+02  0.44290747570E+02  0.00000000000E+00 0.  1.
</event>
<event>
 7    1  0.2468912E-015  0.9000769E+02  0.7816164E-02  0.1186339E+00
        -11   -1    0    0    0    0  0.00000000000E+00  0.00000000000E+00  0.45593999997E+02  0.45594000000E+02  0.51100000000E-03 0.  1.
         11   -1    0    0    0    0 -0.00000000000E+00 -0.00000000000E+00 -0.45593999997E+02  0.45594000000E+02  0.51100000000E-03 0. -1.
    9900012    2    1    2    0    0 -0.30213149439E-01 -0.15297441522E-01  0.11798233291E+01  0.90007690746E+02  0.89999951464E+02 0.  0.
         12    1    1    2    0    0  0.30213149439E-01  0.15297441522E-01 -0.11798233291E+01  0.11803092535E+01  0.00000000000E+00 0. -1.
         11    1    3    3    0    0  0.16247934274E+02 -0.15700630891E+02  0.28981008686E+02  0.36747844063E+02  0.51100000000E-03 0. -1.
        -11    1    3    3    0    0  0.49480614238E+01  0.28728951126E+01  0.79242770106E+01  0.97739963467E+01  0.51100000000E-03 0.  1.
        -12    1    3    3    0    0 -0.21226208847E+02  0.12812438337E+02 -0.35725462368E+02  0.43485850337E+02  0.00000000000E+00 0.  1.
</event>
<event>
 7    1  0.2468912E-015  0.9000778E+02  0.7816164E-02  0.1186339E+00
        -11   -1    0    0    0    0  0.00000000000E+00  0.00000000000E+00  0.45593999997E+02  0.45594000000E+02  0.51100000000E-03 0.  1.
         11   -1    0    0    0    0 -0.00000000000E+00 -0.00000000000E+00 -0.45593999997E+02  0.45594000000E+02  0.51100000000E-03 0. -1.
    9900012    2    1    2    0    0  0.21672976509E+00  0.11478128801E+01  0.16872727744E+00  0.90007781760E+02  0.90000043680E+02 0.  0.
         12    1    1    2    0    0 -0.21672976509E+00 -0.11478128801E+01 -0.16872727744E+00  0.11802182395E+01  0.00000000000E+00 0. -1.
         11    1    3    3    0    0 -0.31143345647E+02  0.66589908958E+01  0.15385675187E+02  0.35369042100E+02  0.51100000000E-03 0. -1.
        -11    1    3    3    0    0 -0.83602464787E+01  0.13392567716E+01  0.46954836217E+01  0.96816783972E+01  0.51100000000E-03 0.  1.
        -12    1    3    3    0    0  0.39720321891E+02 -0.68504347873E+01 -0.19912431532E+02  0.44957061263E+02  0.00000000000E+00 0.  1.
</event>
<event>
 7    1  0.2468912E-015  0.9000763E+02  0.7816164E-02  0.1186339E+00
        -11   -1    0    0    0    0  0.00000000000E+00  0.00000000000E+00  0.45593999997E+02  0.45594000000E+02  0.51100000000E-03 0.  1.
         11   -1    0    0    0    0 -0.00000000000E+00 -0.00000000000E+00 -0.45593999997E+02  0.45594000000E+02  0.51100000000E-03 0. -1.
    9900012    2    1    2    0    0  0.51304353623E+00 -0.93414742856E+00 -0.50736653522E+00  0.90007633155E+02  0.89999893112E+02 0.  0.
         12    1    1    2    0    0 -0.51304353623E+00  0.93414742856E+00  0.50736653522E+00  0.11803668453E+01  0.00000000000E+00 0. -1.
         11    1    3    3    0    0  0.67002547277E+01  0.81192681228E+01 -0.77195777361E+00  0.10555181066E+02  0.51100000000E-03 0. -1.
        -11    1    3    3    0    0  0.18506157727E+02 -0.15890803815E+02  0.30994610125E+02  0.39441873393E+02  0.51100000000E-03 0.  1.
         12    1    3    3    0    0 -0.24693368919E+02  0.68373882641E+01 -0.30730018886E+02  0.40010578696E+02  0.00000000000E+00 0. -1.
</event>
<event>
 7    1  0.2468912E-015  0.9000789E+02  0.7816164E-02  0.1186339E+00
        -11   -1    0    0    0    0  0.00000000000E+00  0.00000000000E+00  0.45593999997E+02  0.45594000000E+02  0.51100000000E-03 0.  1.
         11   -1    0    0    0    0 -0.00000000000E+00 -0.00000000000E+00 -0.45593999997E+02  0.45594000000E+02  0.51100000000E-03 0. -1.
    9900012    2    1    2    0    0 -0.49187206510E+00 -0.23097826762E+00  0.10475493525E+01  0.90007894609E+02  0.90000158017E+02 0.  0.
         12    1    1    2    0    0  0.49187206510E+00  0.23097826762E+00 -0.10475493525E+01  0.11801053912E+01  0.00000000000E+00 0. -1.
         11    1    3    3    0    0  0.57410488593E+01  0.16494977171E+02 -0.35915208680E+02  0.39936776643E+02  0.51100000000E-03 0. -1.
        -11    1    3    3    0    0 -0.15546112766E+01  0.74494785664E+01  0.31353127349E+01  0.82305366373E+01  0.51100000000E-03 0.  1.
        -12    1    3    3    0    0 -0.46783096478E+01 -0.24175434005E+02  0.33827445297E+02  0.41840581328E+02  0.00000000000E+00 0.  1.
</event>
<event>
 7    1  0.2468912E-015  0.9000773E+02  0.7816164E-02  0.1186339E+00
        -11   -1    0    0    0    0  0.00000000000E+00  0.00000000000E+00  0.45593999997E+02  0.45594000000E+02  0.51100000000E-03 0.  1.
         11   -1    0    0    0    0 -0.00000000000E+00 -0.00000000000E+00 -0.45593999997E+02  0.45594000000E+02  0.51100000000E-03 0. -1.
    9900012    2    1    2    0    0 -0.49109536687E+00 -0.63119446479E+00  0.86802110793E+00  0.90007728101E+02  0.89999989312E+02 0.  0.
         12    1    1    2    0    0  0.49109536687E+00  0.63119446479E+00 -0.86802110793E+00  0.11802718990E+01  0.00000000000E+00 0. -1.
         11    1    3    3    0    0  0.35289035500E+02  0.68887394966E+01  0.59386905507E+01  0.36442266725E+02  0.51100000000E-03 0. -1.
        -11    1    3    3    0    0 -0.36502620044E+01  0.13468163442E+02  0.31784082968E+01  0.14311468085E+02  0.51100000000E-03 0.  1.
        -12    1    3    3    0    0 -0.32129868862E+02 -0.20988097403E+02 -0.82490777395E+01  0.39253993291E+02  0.00000000000E+00 0.  1.
</event>
<event>
 7    1  0.2468912E-015  0.9000767E+02  0.7816164E-02  0.1186339E+00
        -11   -1    0    0    0    0  0.00000000000E+00  0.00000000000E+00  0.45593999997E+02  0.45594000000E+02  0.51100000000E-03 0.  1.
         11   -1    0    0    0    0 -0.00000000000E+00 -0.00000000000E+00 -0.45593999997E+02  0.45594000000E+02  0.51100000000E-03 0. -1.
    9900012    2    1    2    0    0 -0.36303298678E+00 -0.80112155485E+00  0.78714021516E+00  0.90007670210E+02  0.89999930657E+02 0.  0.
         12    1    1    2    0    0  0.36303298678E+00  0.80112155485E+00 -0.78714021516E+00  0.11803297901E+01  0.00000000000E+00 0. -1.
         11    1    3    3    0    0 -0.77962381294E+01 -0.17355125116E+01 -0.49640359134E+01  0.94039877424E+01  0.51100000000E-03 0. -1.
        -11    1    3    3    0    0  0.16966982607E+02  0.35580660292E+02  0.17030950674E+02  0.42940833326E+02  0.51100000000E-03 0.  1.
         12    1    3    3    0    0 -0.95337774643E+01 -0.34646269336E+02 -0.11279774546E+02  0.37662849141E+02  0.00000000000E+00 0. -1.
</event>
<event>
 7    1  0.2468912E-015  0.9000767E+02  0.7816164E-02  0.1186339E+00
        -11   -1    0    0    0    0  0.00000000000E+00  0.00000000000E+00  0.45593999997E+02  0.45594000000E+02  0.51100000000E-03 0.  1.
         11   -1    0    0    0    0 -0.00000000000E+00 -0.00000000000E+00 -0.45593999997E+02  0.45594000000E+02  0.51100000000E-03 0. -1.
    9900012    2    1    2    0    0  0.11458848968E+01 -0.26354249834E+00  0.10326083401E+00  0.90007673924E+02  0.89999934420E+02 0.  0.
         12    1    1    2    0    0 -0.11458848968E+01  0.26354249834E+00 -0.10326083401E+00  0.11803260757E+01  0.00000000000E+00 0. -1.
         11    1    3    3    0    0  0.14086410610E+02  0.12752606171E+02 -0.27767972148E+01  0.19203294797E+02  0.51100000000E-03 0. -1.
        -11    1    3    3    0    0  0.11741938018E+02 -0.19702534770E+02  0.27155091093E+02  0.35545210048E+02  0.51100000000E-03 0.  1.
         12    1    3    3    0    0 -0.24682463731E+02  0.66863861007E+01 -0.24275033044E+02  0.35259169080E+02  0.00000000000E+00 0. -1.
</event>
<event>
 7    1  0.2468912E-015  0.9000771E+02  0.7816164E-02  0.1186339E+00
        -11   -1    0    0    0    0  0.00000000000E+00  0.00000000000E+00  0.45593999997E+02  0.45594000000E+02  0.51100000000E-03 0.  1.
         11   -1    0    0    0    0 -0.00000000000E+00 -0.00000000000E+00 -0.45593999997E+02  0.45594000000E+02  0.51100000000E-03 0. -1.
    9900012    2    1    2    0    0  0.19560816613E+00  0.16324716607E+00  0.11524586481E+01  0.90007714811E+02  0.89999975846E+02 0.  0.
         12    1    1    2    0    0 -0.19560816613E+00 -0.16324716607E+00 -0.11524586481E+01  0.11802851890E+01  0.00000000000E+00 0. -1.
         11    1    3    3    0    0 -0.69555421636E+00 -0.61420867067E+01  0.72469315916E+01  0.95250744110E+01  0.51100000000E-03 0. -1.
        -11    1    3    3    0    0  0.25579222798E+02 -0.13965221719E+02 -0.29047992396E+02  0.41147416919E+02  0.51100000000E-03 0.  1.
         12    1    3    3    0    0 -0.24688060415E+02  0.20270555592E+02  0.22953519452E+02  0.39335223481E+02  0.00000000000E+00 0. -1.
</event>
<event>
 7    1  0.2468912E-015  0.9000767E+02  0.7816164E-02  0.1186339E+00
        -11   -1    0    0    0    0  0.00000000000E+00  0.00000000000E+00  0.45593999997E+02  0.45594000000E+02  0.51100000000E-03 0.  1.
         11   -1    0    0    0    0 -0.00000000000E+00 -0.00000000000E+00 -0.45593999997E+02  0.45594000000E+02  0.51100000000E-03 0. -1.
    9900012    2    1    2    0    0 -0.59464940428E+00 -0.63524924591E+00  0.79750920961E+00  0.90007673580E+02  0.89999934071E+02 0.  0.
         12    1    1    2    0    0  0.59464940428E+00  0.63524924591E+00 -0.79750920961E+00  0.11803264200E+01  0.00000000000E+00 0. -1.
         11    1    3    3    0    0  0.23289542877E+01  0.87911422922E+00 -0.36459048434E+02  0.36543933599E+02  0.51100000000E-03 0. -1.
        -11    1    3    3    0    0  0.32249972340E+01  0.11371362426E+02 -0.17293670084E+01  0.11945677089E+02  0.51100000000E-03 0.  1.
        -12    1    3    3    0    0 -0.61486009260E+01 -0.12885725902E+02  0.38985924652E+02  0.41518062892E+02  0.00000000000E+00 0.  1.
</event>
<event>
 7    1  0.2468912E-015  0.9000771E+02  0.7816164E-02  0.1186339E+00
        -11   -1    0    0    0    0  0.00000000000E+00  0.00000000000E+00  0.45593999997E+02  0.45594000000E+02  0.51100000000E-03 0.  1.
         11   -1    0    0    0    0 -0.00000000000E+00 -0.00000000000E+00 -0.45593999997E+02  0.45594000000E+02  0.51100000000E-03 0. -1.
    9900012    2    1    2    0    0 -0.10120814951E+01  0.24513710250E+00  0.55559395179E+00  0.90007709446E+02  0.89999970411E+02 0.  0.
         12    1    1    2    0    0  0.10120814951E+01 -0.24513710250E+00 -0.55559395179E+00  0.11802905536E+01  0.00000000000E+00 0. -1.
         11    1    3    3    0    0  0.97441994665E+01  0.43729993989E+01 -0.42232833704E+01  0.11485149963E+02  0.51100000000E-03 0. -1.
        -11    1    3    3    0    0  0.23958744598E+02  0.21394007381E+02  0.13011866733E+02  0.34655932691E+02  0.51100000000E-03 0.  1.
         12    1    3    3    0    0 -0.34715025560E+02 -0.25521869678E+02 -0.82329894107E+01  0.43866626792E+02  0.00000000000E+00 0. -1.
</event>
<event>
 7    1  0.2468912E-015  0.9000782E+02  0.7816164E-02  0.1186339E+00
        -11   -1    0    0    0    0  0.00000000000E+00  0.00000000000E+00  0.45593999997E+02  0.45594000000E+02  0.51100000000E-03 0. -1.
         11   -1    0    0    0    0 -0.00000000000E+00 -0.00000000000E+00 -0.45593999997E+02  0.45594000000E+02  0.51100000000E-03 0.  1.
    9900012    2    1    2    0    0 -0.75005080375E+00 -0.55985448480E+00 -0.71889806706E+00  0.90007818792E+02  0.90000081200E+02 0.  0.
         12    1    1    2    0    0  0.75005080375E+00  0.55985448480E+00  0.71889806706E+00  0.11801812078E+01  0.00000000000E+00 0. -1.
         11    1    3    3    0    0  0.63831991750E+01 -0.23669124648E+01  0.11068405758E+02  0.12994503169E+02  0.51100000000E-03 0. -1.
        -11    1    3    3    0    0  0.33753469089E+02 -0.20461079375E+01  0.15020562364E+01  0.33848772598E+02  0.51100000000E-03 0.  1.
         12    1    3    3    0    0 -0.40886719067E+02  0.38531659175E+01 -0.13289360062E+02  0.43164543025E+02  0.00000000000E+00 0. -1.
</event>
<event>
 7    1  0.2468912E-015  0.9000774E+02  0.7816164E-02  0.1186339E+00
        -11   -1    0    0    0    0  0.00000000000E+00  0.00000000000E+00  0.45593999997E+02  0.45594000000E+02  0.51100000000E-03 0.  1.
         11   -1    0    0    0    0 -0.00000000000E+00 -0.00000000000E+00 -0.45593999997E+02  0.45594000000E+02  0.51100000000E-03 0. -1.
    9900012    2    1    2    0    0  0.92724902957E+00 -0.70298661842E+00  0.19757407605E+00  0.90007738815E+02  0.90000000168E+02 0.  0.
         12    1    1    2    0    0 -0.92724902957E+00  0.70298661842E+00 -0.19757407605E+00  0.11802611847E+01  0.00000000000E+00 0. -1.
         11    1    3    3    0    0 -0.58810231532E+01  0.73360983915E+01 -0.10639326312E+01  0.94623847863E+01  0.51100000000E-03 0. -1.
        -11    1    3    3    0    0 -0.48175642270E+01 -0.28668928622E+02  0.31021217681E+02  0.42513907608E+02  0.51100000000E-03 0.  1.
         12    1    3    3    0    0  0.11625836410E+02  0.20629843612E+02 -0.29759710974E+02  0.38031446421E+02  0.00000000000E+00 0. -1.
</event>
<event>
 7    1  0.2468912E-015  0.9000772E+02  0.7816164E-02  0.1186339E+00
        -11   -1    0    0    0    0  0.00000000000E+00  0.00000000000E+00  0.45593999997E+02  0.45594000000E+02  0.51100000000E-03 0. -1.
         11   -1    0    0    0    0 -0.00000000000E+00 -0.00000000000E+00 -0.45593999997E+02  0.45594000000E+02  0.51100000000E-03 0.  1.
    9900012    2    1    2    0    0 -0.30663218579E+00  0.90170076606E+00 -0.69711826093E+00  0.90007719763E+02  0.89999980864E+02 0.  0.
         12    1    1    2    0    0  0.30663218579E+00 -0.90170076606E+00  0.69711826093E+00  0.11802802373E+01  0.00000000000E+00 0. -1.
         11    1    3    3    0    0 -0.70575809311E+01 -0.26500851426E+01 -0.25935475635E+01  0.79723828990E+01  0.51100000000E-03 0. -1.
        -11    1    3    3    0    0  0.14059868396E+02  0.52652857030E+00  0.40372836433E+02  0.42754216792E+02  0.51100000000E-03 0.  1.
         12    1    3    3    0    0 -0.73089196503E+01  0.30252573384E+01 -0.38476407130E+02  0.39281120071E+02  0.00000000000E+00 0. -1.
</event>
<event>
 7    1  0.2468912E-015  0.9000776E+02  0.7816164E-02  0.1186339E+00
        -11   -1    0    0    0    0  0.00000000000E+00  0.00000000000E+00  0.45593999997E+02  0.45594000000E+02  0.51100000000E-03 0. -1.
         11   -1    0    0    0    0 -0.00000000000E+00 -0.00000000000E+00 -0.45593999997E+02  0.45594000000E+02  0.51100000000E-03 0.  1.
    9900012    2    1    2    0    0 -0.80327745414E+00  0.84524974470E+00 -0.18240334996E+00  0.90007757321E+02  0.90000018918E+02 0.  0.
         12    1    1    2    0    0  0.80327745414E+00 -0.84524974470E+00  0.18240334996E+00  0.11802426790E+01  0.00000000000E+00 0. -1.
         11    1    3    3    0    0 -0.28369714575E+01  0.76184682067E+01 -0.48853902738E+01  0.94845402238E+01  0.51100000000E-03 0. -1.
        -11    1    3    3    0    0 -0.14827296435E+02 -0.33487497154E+02 -0.18783063738E+02  0.41159016860E+02  0.51100000000E-03 0.  1.
         12    1    3    3    0    0  0.16860990438E+02  0.26714278692E+02  0.23486050662E+02  0.39364200237E+02  0.00000000000E+00 0. -1.
</event>
<event>
 7    1  0.2468912E-015  0.9000772E+02  0.7816164E-02  0.1186339E+00
        -11   -1    0    0    0    0  0.00000000000E+00  0.00000000000E+00  0.45593999997E+02  0.45594000000E+02  0.51100000000E-03 0.  1.
         11   -1    0    0    0    0 -0.00000000000E+00 -0.00000000000E+00 -0.45593999997E+02  0.45594000000E+02  0.51100000000E-03 0. -1.
    9900012    2    1    2    0    0 -0.27302442249E+00  0.59091465987E+00  0.98455045682E+00  0.90007719494E+02  0.89999980591E+02 0.  0.
         12    1    1    2    0    0  0.27302442249E+00 -0.59091465987E+00 -0.98455045682E+00  0.11802805059E+01  0.00000000000E+00 0. -1.
         11    1    3    3    0    0  0.21855334789E+01  0.69124355139E+01 -0.53033415361E+01  0.89824135415E+01  0.51100000000E-03 0. -1.
        -11    1    3    3    0    0  0.30269990515E+02  0.16954120325E+02 -0.12248006386E+02  0.36793045300E+02  0.51100000000E-03 0.  1.
         12    1    3    3    0    0 -0.32728548416E+02 -0.23275641179E+02  0.18535898379E+02  0.44232260653E+02  0.00000000000E+00 0. -1.
</event>
<event>
 7    1  0.2468912E-015  0.9000779E+02  0.7816164E-02  0.1186339E+00
        -11   -1    0    0    0    0  0.00000000000E+00  0.00000000000E+00  0.45593999997E+02  0.45594000000E+02  0.51100000000E-03 0. -1.
         11   -1    0    0    0    0 -0.00000000000E+00 -0.00000000000E+00 -0.45593999997E+02  0.45594000000E+02  0.51100000000E-03 0.  1.
    9900012    2    1    2    0    0  0.12261352974E+00  0.42642674080E+00 -0.10936303820E+01  0.90007787623E+02  0.90000049619E+02 0.  0.
         12    1    1    2    0    0 -0.12261352974E+00 -0.42642674080E+00  0.10936303820E+01  0.11802123772E+01  0.00000000000E+00 0. -1.
         11    1    3    3    0    0 -0.62627606870E+01 -0.24649634831E+01  0.42250333675E+01  0.79466422854E+01  0.51100000000E-03 0. -1.
        -11    1    3    3    0    0 -0.51777182891E+01  0.17425041724E+02 -0.39319710155E+02  0.43318361611E+02  0.51100000000E-03 0.  1.
         12    1    3    3    0    0  0.11563092506E+02 -0.14533651500E+02  0.34001046405E+02  0.38742783726E+02  0.00000000000E+00 0. -1.
</event>
<event>
 7    1  0.2468912E-015  0.9000780E+02  0.7816164E-02  0.1186339E+00
        -11   -1    0    0    0    0  0.00000000000E+00  0.00000000000E+00  0.45593999997E+02  0.45594000000E+02  0.51100000000E-03 0.  1.
         11   -1    0    0    0    0 -0.00000000000E+00 -0.00000000000E+00 -0.45593999997E+02  0.45594000000E+02  0.51100000000E-03 0. -1.
    9900012    2    1    2    0    0  0.91989188438E+00 -0.76535179583E-01  0.73539893959E+00  0.90007800732E+02  0.90000062901E+02 0.  0.
         12    1    1    2    0    0 -0.91989188438E+00  0.76535179583E-01 -0.73539893959E+00  0.11801992684E+01  0.00000000000E+00 0. -1.
         11    1    3    3    0    0 -0.10012761136E+02  0.17938095865E+02 -0.41320869366E+00  0.20547540254E+02  0.51100000000E-03 0. -1.
        -11    1    3    3    0    0 -0.11457122975E+02 -0.32113439557E+02  0.17532226370E+02  0.38339504807E+02  0.51100000000E-03 0.  1.
         12    1    3    3    0    0  0.22389775995E+02  0.14098808513E+02 -0.16383618737E+02  0.31120755671E+02  0.00000000000E+00 0. -1.
</event>
<event>
 7    1  0.2468912E-015  0.9000814E+02  0.7816164E-02  0.1186338E+00
        -11   -1    0    0    0    0  0.00000000000E+00  0.00000000000E+00  0.45593999997E+02  0.45594000000E+02  0.51100000000E-03 0. -1.
         11   -1    0    0    0    0 -0.00000000000E+00 -0.00000000000E+00 -0.45593999997E+02  0.45594000000E+02  0.51100000000E-03 0.  1.
    9900012    2    1    2    0    0  0.30147648444E+00 -0.18726794111E+00 -0.11252130096E+01  0.90008143369E+02  0.90000410061E+02 0.  0.
         12    1    1    2    0    0 -0.30147648444E+00  0.18726794111E+00  0.11252130096E+01  0.11798566309E+01  0.00000000000E+00 0. -1.
         11    1    3    3    0    0  0.10459460566E+02  0.36825440182E+01 -0.26731041135E+00  0.11092019694E+02  0.51100000000E-03 0. -1.
        -11    1    3    3    0    0 -0.26572420039E+01  0.30704808254E+02 -0.21849017981E+02  0.37778641744E+02  0.51100000000E-03 0.  1.
         12    1    3    3    0    0 -0.75007420780E+01 -0.34574620213E+02  0.20991115383E+02  0.41137481931E+02  0.00000000000E+00 0. -1.
</event>
<event>
 7    1  0.2468912E-015  0.9000760E+02  0.7816164E-02  0.1186339E+00
        -11   -1    0    0    0    0  0.00000000000E+00  0.00000000000E+00  0.45593999997E+02  0.45594000000E+02  0.51100000000E-03 0.  1.
         11   -1    0    0    0    0 -0.00000000000E+00 -0.00000000000E+00 -0.45593999997E+02  0.45594000000E+02  0.51100000000E-03 0. -1.
    9900012    2    1    2    0    0 -0.64199697582E+00  0.32514042969E+00  0.93566766451E+00  0.90007597359E+02  0.89999856844E+02 0.  0.
         12    1    1    2    0    0  0.64199697582E+00 -0.32514042969E+00 -0.93566766451E+00  0.11804026408E+01  0.00000000000E+00 0. -1.
         11    1    3    3    0    0 -0.34254676688E+01 -0.42808843005E+01  0.94470950985E+01  0.10922792922E+02  0.51100000000E-03 0. -1.
        -11    1    3    3    0    0  0.34570335205E+02 -0.17250218961E+02  0.32075869862E+01  0.38768115055E+02  0.51100000000E-03 0.  1.
         12    1    3    3    0    0 -0.31786864512E+02  0.21856243691E+02 -0.11719014420E+02  0.40316689383E+02  0.00000000000E+00 0. -1.
</event>
<event>
 7    1  0.2468912E-015  0.9000776E+02  0.7816164E-02  0.1186339E+00
        -11   -1    0    0    0    0  0.00000000000E+00  0.00000000000E+00  0.45593999997E+02  0.45594000000E+02  0.51100000000E-03 0.  1.
         11   -1    0    0    0    0 -0.00000000000E+00 -0.00000000000E+00 -0.45593999997E+02  0.45594000000E+02  0.51100000000E-03 0. -1.
    9900012    2    1    2    0    0  0.66246327117E+00 -0.95961700341E+00 -0.18236145998E+00  0.90007755076E+02  0.90000016643E+02 0.  0.
         12    1    1    2    0    0 -0.66246327117E+00  0.95961700341E+00  0.18236145998E+00  0.11802449241E+01  0.00000000000E+00 0. -1.
         11    1    3    3    0    0 -0.50495880240E+01 -0.68215036336E+01 -0.22806612818E+01  0.87882118306E+01  0.51100000000E-03 0. -1.
        -11    1    3    3    0    0  0.16573129598E+02 -0.13084626143E+02  0.35503999235E+02  0.41308716125E+02  0.51100000000E-03 0.  1.
         12    1    3    3    0    0 -0.10861078302E+02  0.18946512773E+02 -0.33405699413E+02  0.39910827120E+02  0.00000000000E+00 0. -1.
</event>
<event>
 7    1  0.2468912E-015  0.9000772E+02  0.7816164E-02  0.1186339E+00
        -11   -1    0    0    0    0  0.00000000000E+00  0.00000000000E+00  0.45593999997E+02  0.45594000000E+02  0.51100000000E-03 0.  1.
         11   -1    0    0    0    0 -0.00000000000E+00 -0.00000000000E+00 -0.45593999997E+02  0.45594000000E+02  0.51100000000E-03 0. -1.
    9900012    2    1    2    0    0 -0.77729607039E-01  0.16030380829E+00  0.11667557818E+01  0.90007721110E+02  0.89999982229E+02 0.  0.
         12    1    1    2    0    0  0.77729607039E-01 -0.16030380829E+00 -0.11667557818E+01  0.11802788896E+01  0.00000000000E+00 0. -1.
         11    1    3    3    0    0  0.21067354384E+02 -0.24991581596E+02 -0.20742271259E+02  0.38712457797E+02  0.51100000000E-03 0. -1.
        -11    1    3    3    0    0  0.56365097189E+01 -0.31407424007E+01  0.71608667205E+01  0.96391139161E+01  0.51100000000E-03 0.  1.
        -12    1    3    3    0    0 -0.26781593710E+02  0.28292627805E+02  0.14748160320E+02  0.41656149397E+02  0.00000000000E+00 0.  1.
</event>
<event>
 7    1  0.2468912E-015  0.9000755E+02  0.7816164E-02  0.1186339E+00
        -11   -1    0    0    0    0  0.00000000000E+00  0.00000000000E+00  0.45593999997E+02  0.45594000000E+02  0.51100000000E-03 0.  1.
         11   -1    0    0    0    0 -0.00000000000E+00 -0.00000000000E+00 -0.45593999997E+02  0.45594000000E+02  0.51100000000E-03 0. -1.
    9900012    2    1    2    0    0 -0.94477464275E+00  0.14979211732E+00  0.69168302472E+00  0.90007549997E+02  0.89999808856E+02 0.  0.
         12    1    1    2    0    0  0.94477464275E+00 -0.14979211732E+00 -0.69168302472E+00  0.11804500035E+01  0.00000000000E+00 0. -1.
         11    1    3    3    0    0  0.69571227557E+01 -0.64167785381E+00  0.23209438904E+01  0.73620709253E+01  0.51100000000E-03 0. -1.
        -11    1    3    3    0    0 -0.93894338289E+01  0.31741500889E+02  0.25244884579E+02  0.41629178997E+02  0.51100000000E-03 0.  1.
         12    1    3    3    0    0  0.14875364305E+01 -0.30950030917E+02 -0.26874145445E+02  0.41016300074E+02  0.00000000000E+00 0. -1.
</event>
<event>
 7    1  0.2468912E-015  0.9000769E+02  0.7816164E-02  0.1186339E+00
        -11   -1    0    0    0    0  0.00000000000E+00  0.00000000000E+00  0.45593999997E+02  0.45594000000E+02  0.51100000000E-03 0. -1.
         11   -1    0    0    0    0 -0.00000000000E+00 -0.00000000000E+00 -0.45593999997E+02  0.45594000000E+02  0.51100000000E-03 0.  1.
    9900012    2    1    2    0    0 -0.14148865951E+00  0.11309864731E+01 -0.30655454366E+00  0.90007692781E+02  0.89999953526E+02 0.  0.
         12    1    1    2    0    0  0.14148865951E+00 -0.11309864731E+01  0.30655454366E+00  0.11803072191E+01  0.00000000000E+00 0. -1.
         11    1    3    3    0    0  0.24014246186E+02  0.18937072601E+02  0.23913111503E+02  0.38821819131E+02  0.51100000000E-03 0. -1.
        -11    1    3    3    0    0 -0.38005382971E+01  0.20580331035E+01  0.74541815604E+01  0.86165198659E+01  0.51100000000E-03 0.  1.
        -12    1    3    3    0    0 -0.20355196548E+02 -0.19864119232E+02 -0.31673847607E+02  0.42569353784E+02  0.00000000000E+00 0.  1.
</event>
<event>
 7    1  0.2468912E-015  0.9000768E+02  0.7816164E-02  0.1186339E+00
        -11   -1    0    0    0    0  0.00000000000E+00  0.00000000000E+00  0.45593999997E+02  0.45594000000E+02  0.51100000000E-03 0.  1.
         11   -1    0    0    0    0 -0.00000000000E+00 -0.00000000000E+00 -0.45593999997E+02  0.45594000000E+02  0.51100000000E-03 0. -1.
    9900012    2    1    2    0    0 -0.33163369154E+00 -0.93426515494E+00 -0.64056075579E+00  0.90007682091E+02  0.89999942694E+02 0.  0.
         12    1    1    2    0    0  0.33163369154E+00  0.93426515494E+00  0.64056075579E+00  0.11803179093E+01  0.00000000000E+00 0. -1.
         11    1    3    3    0    0 -0.49827181532E+01  0.27814453152E+02 -0.25787772253E+02  0.38255463431E+02  0.51100000000E-03 0. -1.
        -11    1    3    3    0    0  0.14287265676E+01  0.80204942792E+01  0.28546217495E+01  0.86324071777E+01  0.51100000000E-03 0.  1.
        -12    1    3    3    0    0  0.32223578940E+01 -0.36769212586E+02  0.22292589748E+02  0.43119811482E+02  0.00000000000E+00 0.  1.
</event>
<event>
 7    1  0.2468912E-015  0.9000768E+02  0.7816164E-02  0.1186339E+00
        -11   -1    0    0    0    0  0.00000000000E+00  0.00000000000E+00  0.45593999997E+02  0.45594000000E+02  0.51100000000E-03 0.  1.
         11   -1    0    0    0    0 -0.00000000000E+00 -0.00000000000E+00 -0.45593999997E+02  0.45594000000E+02  0.51100000000E-03 0. -1.
    9900012    2    1    2    0    0 -0.47081183748E+00 -0.46399178885E+00  0.97786064704E+00  0.90007676480E+02  0.89999937010E+02 0.  0.
         12    1    1    2    0    0  0.47081183748E+00  0.46399178885E+00 -0.97786064704E+00  0.11803235198E+01  0.00000000000E+00 0. -1.
         11    1    3    3    0    0  0.31751373261E+02 -0.23206935598E+02  0.74539231007E+01  0.40028396592E+02  0.51100000000E-03 0. -1.
        -11    1    3    3    0    0 -0.57964361547E+01 -0.42416155340E+01  0.68530154230E+01  0.99274264078E+01  0.51100000000E-03 0.  1.
        -12    1    3    3    0    0 -0.26425748944E+02  0.26984559343E+02 -0.13329077877E+02  0.40051853481E+02  0.00000000000E+00 0.  1.
</event>
<event>
 7    1  0.2468912E-015  0.9000766E+02  0.7816164E-02  0.1186339E+00
        -11   -1    0    0    0    0  0.00000000000E+00  0.00000000000E+00  0.45593999997E+02  0.45594000000E+02  0.51100000000E-03 0. -1.
         11   -1    0    0    0    0 -0.00000000000E+00 -0.00000000000E+00 -0.45593999997E+02  0.45594000000E+02  0.51100000000E-03 0.  1.
    9900012    2    1    2    0    0 -0.56441876178E+00 -0.10097425277E+01 -0.23465640865E+00  0.90007655923E+02  0.89999916181E+02 0.  0.
         12    1    1    2    0    0  0.56441876178E+00  0.10097425277E+01  0.23465640865E+00  0.11803440774E+01  0.00000000000E+00 0. -1.
         11    1    3    3    0    0  0.52112478999E+01  0.63218617676E+01  0.31587041977E+01  0.87806863827E+01  0.51100000000E-03 0. -1.
        -11    1    3    3    0    0  0.29955367462E+02  0.56349998745E+01  0.20128032589E+02  0.36526907336E+02  0.51100000000E-03 0.  1.
         12    1    3    3    0    0 -0.35731034124E+02 -0.12966604170E+02 -0.23521393195E+02  0.44700062204E+02  0.00000000000E+00 0. -1.
</event>
<event>
 7    1  0.2468912E-015  0.9000768E+02  0.7816164E-02  0.1186339E+00
        -11   -1    0    0    0    0  0.00000000000E+00  0.00000000000E+00  0.45593999997E+02  0.45594000000E+02  0.51100000000E-03 0.  1.
         11   -1    0    0    0    0 -0.00000000000E+00 -0.00000000000E+00 -0.45593999997E+02  0.45594000000E+02  0.51100000000E-03 0. -1.
    9900012    2    1    2    0    0 -0.93949663812E+00 -0.58777840958E+00  0.40622999527E+00  0.90007677925E+02  0.89999938474E+02 0.  0.
         12    1    1    2    0    0  0.93949663812E+00  0.58777840958E+00 -0.40622999527E+00  0.11803220751E+01  0.00000000000E+00 0. -1.
         11    1    3    3    0    0  0.41301082545E+02  0.72662789242E+01  0.16624418142E+01  0.41968344521E+02  0.51100000000E-03 0. -1.
        -11    1    3    3    0    0 -0.38593363854E+01 -0.36278454762E+01 -0.72342980603E+01  0.89660921712E+01  0.51100000000E-03 0.  1.
        -12    1    3    3    0    0 -0.38381242797E+02 -0.42262118576E+01  0.59780862414E+01  0.39073241233E+02  0.00000000000E+00 0.  1.
</event>
<event>
 7    1  0.2468912E-015  0.9000742E+02  0.7816164E-02  0.1186340E+00
        -11   -1    0    0    0    0  0.00000000000E+00  0.00000000000E+00  0.45593999997E+02  0.45594000000E+02  0.51100000000E-03 0.  1.
         11   -1    0    0    0    0 -0.00000000000E+00 -0.00000000000E+00 -0.45593999997E+02  0.45594000000E+02  0.51100000000E-03 0. -1.
    9900012    2    1    2    0    0  0.97492774732E+00  0.66480272524E+00 -0.36475748840E-01  0.90007416561E+02  0.89999673659E+02 0.  0.
         12    1    1    2    0    0 -0.97492774732E+00 -0.66480272524E+00  0.36475748840E-01  0.11805834389E+01  0.00000000000E+00 0. -1.
         11    1    3    3    0    0 -0.34646131125E+02 -0.13713618391E+02 -0.20335951093E+02  0.42449601157E+02  0.51100000000E-03 0. -1.
        -11    1    3    3    0    0 -0.34375732902E-01  0.13016815340E+01  0.73024528551E+01  0.74176394135E+01  0.51100000000E-03 0.  1.
        -12    1    3    3    0    0  0.35655434605E+02  0.13076739582E+02  0.12997022489E+02  0.40140175990E+02  0.00000000000E+00 0.  1.
</event>
<event>
 7    1  0.2468912E-015  0.9000773E+02  0.7816164E-02  0.1186339E+00
        -11   -1    0    0    0    0  0.00000000000E+00  0.00000000000E+00  0.45593999997E+02  0.45594000000E+02  0.51100000000E-03 0.  1.
         11   -1    0    0    0    0 -0.00000000000E+00 -0.00000000000E+00 -0.45593999997E+02  0.45594000000E+02  0.51100000000E-03 0. -1.
    9900012    2    1    2    0    0  0.46755360893E+00  0.19204835590E+00  0.10665539438E+01  0.90007734664E+02  0.89999995962E+02 0.  0.
         12    1    1    2    0    0 -0.46755360893E+00 -0.19204835590E+00 -0.10665539438E+01  0.11802653359E+01  0.00000000000E+00 0. -1.
         11    1    3    3    0    0  0.95556646010E+00 -0.44109806105E+01 -0.10606004931E+02  0.11526369683E+02  0.51100000000E-03 0. -1.
        -11    1    3    3    0    0 -0.13571825973E+02 -0.29451962660E+02  0.23591280986E+02  0.40101884041E+02  0.51100000000E-03 0.  1.
         12    1    3    3    0    0  0.13083813121E+02  0.34054991627E+02 -0.11918722111E+02  0.38379480940E+02  0.00000000000E+00 0. -1.
</event>
<event>
 7    1  0.2468912E-015  0.9000773E+02  0.7816164E-02  0.1186339E+00
        -11   -1    0    0    0    0  0.00000000000E+00  0.00000000000E+00  0.45593999997E+02  0.45594000000E+02  0.51100000000E-03 0.  1.
         11   -1    0    0    0    0 -0.00000000000E+00 -0.00000000000E+00 -0.45593999997E+02  0.45594000000E+02  0.51100000000E-03 0. -1.
    9900012    2    1    2    0    0 -0.45224207033E+00  0.45552985067E+00  0.99046126764E+00  0.90007727210E+02  0.89999988410E+02 0.  0.
         12    1    1    2    0    0  0.45224207033E+00 -0.45552985067E+00 -0.99046126764E+00  0.11802727895E+01  0.00000000000E+00 0. -1.
         11    1    3    3    0    0 -0.53802851999E+01 -0.30370740004E+01 -0.81624738396E+01  0.10237053617E+02  0.51100000000E-03 0. -1.
        -11    1    3    3    0    0 -0.50212426140E+01 -0.37083983410E+02  0.56351220072E+01  0.37844277021E+02  0.51100000000E-03 0.  1.
         12    1    3    3    0    0  0.99492857436E+01  0.40576587261E+02  0.35178131001E+01  0.41926396573E+02  0.00000000000E+00 0. -1.
</event>
<event>
 7    1  0.2468912E-015  0.9000770E+02  0.7816164E-02  0.1186339E+00
        -11   -1    0    0    0    0  0.00000000000E+00  0.00000000000E+00  0.45593999997E+02  0.45594000000E+02  0.51100000000E-03 0. -1.
         11   -1    0    0    0    0 -0.00000000000E+00 -0.00000000000E+00 -0.45593999997E+02  0.45594000000E+02  0.51100000000E-03 0.  1.
    9900012    2    1    2    0    0 -0.88218451431E+00 -0.69315188669E-01 -0.78106119120E+00  0.90007698896E+02  0.89999959721E+02 0.  0.
         12    1    1    2    0    0  0.88218451431E+00  0.69315188669E-01  0.78106119120E+00  0.11803011044E+01  0.00000000000E+00 0. -1.
         11    1    3    3    0    0  0.40161330514E+02 -0.50354162457E+01  0.22396618370E+01  0.40537685810E+02  0.51100000000E-03 0. -1.
        -11    1    3    3    0    0 -0.44073355812E+01  0.20158252204E+01  0.94804746353E+01  0.10647420242E+02  0.51100000000E-03 0.  1.
        -12    1    3    3    0    0 -0.36636179448E+02  0.29502758366E+01 -0.12501197663E+02  0.38822592843E+02  0.00000000000E+00 0.  1.
</event>
<event>
 7    1  0.2468912E-015  0.9000772E+02  0.7816164E-02  0.1186339E+00
        -11   -1    0    0    0    0  0.00000000000E+00  0.00000000000E+00  0.45593999997E+02  0.45594000000E+02  0.51100000000E-03 0. -1.
         11   -1    0    0    0    0 -0.00000000000E+00 -0.00000000000E+00 -0.45593999997E+02  0.45594000000E+02  0.51100000000E-03 0.  1.
    9900012    2    1    2    0    0  0.73681397536E+00  0.83689880419E+00 -0.38699719862E+00  0.90007719832E+02  0.89999980934E+02 0.  0.
         12    1    1    2    0    0 -0.73681397536E+00 -0.83689880419E+00  0.38699719862E+00  0.11802801678E+01  0.00000000000E+00 0. -1.
         11    1    3    3    0    0  0.20604827363E+02  0.12313256128E+02  0.27777781356E+02  0.36712127757E+02  0.51100000000E-03 0. -1.
        -11    1    3    3    0    0  0.20668103379E+01  0.45265982239E+01  0.71736817444E+01  0.87306074522E+01  0.51100000000E-03 0.  1.
        -12    1    3    3    0    0 -0.21934823725E+02 -0.16002955547E+02 -0.35338460299E+02  0.44564984623E+02  0.00000000000E+00 0.  1.
</event>
<event>
 7    1  0.2468912E-015  0.9000770E+02  0.7816164E-02  0.1186339E+00
        -11   -1    0    0    0    0  0.00000000000E+00  0.00000000000E+00  0.45593999997E+02  0.45594000000E+02  0.51100000000E-03 0.  1.
         11   -1    0    0    0    0 -0.00000000000E+00 -0.00000000000E+00 -0.45593999997E+02  0.45594000000E+02  0.51100000000E-03 0. -1.
    9900012    2    1    2    0    0 -0.11705415886E+01  0.11648154831E+00  0.96828683328E-01  0.90007698617E+02  0.89999959438E+02 0.  0.
         12    1    1    2    0    0  0.11705415886E+01 -0.11648154831E+00 -0.96828683328E-01  0.11803013834E+01  0.00000000000E+00 0. -1.
         11    1    3    3    0    0  0.34020867426E+02  0.85804751749E+01 -0.18913905637E+02  0.39859500766E+02  0.51100000000E-03 0. -1.
        -11    1    3    3    0    0  0.28166167316E+01 -0.75890575198E+01  0.55616820248E+01  0.98213762303E+01  0.51100000000E-03 0.  1.
        -12    1    3    3    0    0 -0.38008025746E+02 -0.87493610680E+00  0.13449052295E+02  0.40326821620E+02  0.00000000000E+00 0.  1.
</event>
<event>
 7    1  0.2468912E-015  0.9000771E+02  0.7816164E-02  0.1186339E+00
        -11   -1    0    0    0    0  0.00000000000E+00  0.00000000000E+00  0.45593999997E+02  0.45594000000E+02  0.51100000000E-03 0.  1.
         11   -1    0    0    0    0 -0.00000000000E+00 -0.00000000000E+00 -0.45593999997E+02  0.45594000000E+02  0.51100000000E-03 0. -1.
    9900012    2    1    2    0    0  0.88575207555E+00  0.67145823293E-02  0.78005083861E+00  0.90007711418E+02  0.89999972409E+02 0.  0.
         12    1    1    2    0    0 -0.88575207555E+00 -0.67145823293E-02 -0.78005083861E+00  0.11802885816E+01  0.00000000000E+00 0. -1.
         11    1    3    3    0    0 -0.61841044545E+01  0.75816785480E+01  0.68373723996E+01  0.11936274926E+02  0.51100000000E-03 0. -1.
        -11    1    3    3    0    0 -0.30338433803E+02  0.81342771440E+01  0.12049003586E+02  0.33641722874E+02  0.51100000000E-03 0.  1.
         12    1    3    3    0    0  0.37408290333E+02 -0.15709241110E+02 -0.18106325147E+02  0.44429713618E+02  0.00000000000E+00 0. -1.
</event>
<event>
 7    1  0.2468912E-015  0.9000782E+02  0.7816164E-02  0.1186339E+00
        -11   -1    0    0    0    0  0.00000000000E+00  0.00000000000E+00  0.45593999997E+02  0.45594000000E+02  0.51100000000E-03 0.  1.
         11   -1    0    0    0    0 -0.00000000000E+00 -0.00000000000E+00 -0.45593999997E+02  0.45594000000E+02  0.51100000000E-03 0. -1.
    9900012    2    1    2    0    0 -0.10937749931E+01  0.31297300792E+00  0.31389274729E+00  0.90007820143E+02  0.90000082568E+02 0.  0.
         12    1    1    2    0    0  0.10937749931E+01 -0.31297300792E+00 -0.31389274729E+00  0.11801798574E+01  0.00000000000E+00 0. -1.
         11    1    3    3    0    0  0.38311929346E+02  0.83758637360E+01  0.18395177781E+02  0.43316758760E+02  0.51100000000E-03 0. -1.
        -11    1    3    3    0    0 -0.90940436685E+01  0.92300551935E-01  0.21518212260E+01  0.93456131145E+01  0.51100000000E-03 0.  1.
        -12    1    3    3    0    0 -0.30311660671E+02 -0.81551912800E+01 -0.20233106260E+02  0.37345448268E+02  0.00000000000E+00 0.  1.
</event>
<event>
 7    1  0.2468912E-015  0.9000778E+02  0.7816164E-02  0.1186339E+00
        -11   -1    0    0    0    0  0.00000000000E+00  0.00000000000E+00  0.45593999997E+02  0.45594000000E+02  0.51100000000E-03 0.  1.
         11   -1    0    0    0    0 -0.00000000000E+00 -0.00000000000E+00 -0.45593999997E+02  0.45594000000E+02  0.51100000000E-03 0. -1.
    9900012    2    1    2    0    0 -0.89640453802E+00 -0.64151390236E+00  0.42171705931E+00  0.90007776944E+02  0.90000038800E+02 0.  0.
         12    1    1    2    0    0  0.89640453802E+00  0.64151390236E+00 -0.42171705931E+00  0.11802230555E+01  0.00000000000E+00 0. -1.
         11    1    3    3    0    0 -0.36965326525E+02 -0.24690439110E+02  0.53523727299E+01  0.44773887955E+02  0.51100000000E-03 0. -1.
        -11    1    3    3    0    0  0.52015274489E+01  0.83599106803E+01  0.16643512225E+01  0.99856927470E+01  0.51100000000E-03 0.  1.
        -12    1    3    3    0    0  0.30867394538E+02  0.15689014528E+02 -0.65950068931E+01  0.35248196242E+02  0.00000000000E+00 0.  1.
</event>
<event>
 7    1  0.2468912E-015  0.9000773E+02  0.7816164E-02  0.1186339E+00
        -11   -1    0    0    0    0  0.00000000000E+00  0.00000000000E+00  0.45593999997E+02  0.45594000000E+02  0.51100000000E-03 0. -1.
         11   -1    0    0    0    0 -0.00000000000E+00 -0.00000000000E+00 -0.45593999997E+02  0.45594000000E+02  0.51100000000E-03 0.  1.
    9900012    2    1    2    0    0 -0.40241398636E+00 -0.65644024431E+00 -0.89453800877E+00  0.90007725007E+02  0.89999986177E+02 0.  0.
         12    1    1    2    0    0  0.40241398636E+00  0.65644024431E+00  0.89453800877E+00  0.11802749933E+01  0.00000000000E+00 0. -1.
         11    1    3    3    0    0  0.33391065126E+01 -0.66282799398E+01  0.63584813378E+01  0.97731270558E+01  0.51100000000E-03 0. -1.
        -11    1    3    3    0    0  0.35762580276E+02  0.15932507978E+02 -0.27899947462E+01  0.39250363430E+02  0.51100000000E-03 0.  1.
         12    1    3    3    0    0 -0.39504100775E+02 -0.99606682829E+01 -0.44630246004E+01  0.40984234521E+02  0.00000000000E+00 0. -1.
</event>
<event>
 7    1  0.2468912E-015  0.9000773E+02  0.7816164E-02  0.1186339E+00
        -11   -1    0    0    0    0  0.00000000000E+00  0.00000000000E+00  0.45593999997E+02  0.45594000000E+02  0.51100000000E-03 0.  1.
         11   -1    0    0    0    0 -0.00000000000E+00 -0.00000000000E+00 -0.45593999997E+02  0.45594000000E+02  0.51100000000E-03 0. -1.
    9900012    2    1    2    0    0  0.26161419709E+00  0.44479371605E+00  0.10614854438E+01  0.90007731054E+02  0.89999992304E+02 0.  0.
         12    1    1    2    0    0 -0.26161419709E+00 -0.44479371605E+00 -0.10614854438E+01  0.11802689462E+01  0.00000000000E+00 0. -1.
         11    1    3    3    0    0 -0.62494313281E+01  0.17424163838E+02 -0.29561217496E+01  0.18745547030E+02  0.51100000000E-03 0. -1.
        -11    1    3    3    0    0 -0.23350852816E+02  0.12937877159E+02  0.10128759516E+02  0.28552456325E+02  0.51100000000E-03 0.  1.
        -12    1    3    3    0    0  0.29861898341E+02 -0.29917247281E+02 -0.61111523230E+01  0.42709727699E+02  0.00000000000E+00 0.  1.
</event>
<event>
 7    1  0.2468912E-015  0.9000772E+02  0.7816164E-02  0.1186339E+00
        -11   -1    0    0    0    0  0.00000000000E+00  0.00000000000E+00  0.45593999997E+02  0.45594000000E+02  0.51100000000E-03 0. -1.
         11   -1    0    0    0    0 -0.00000000000E+00 -0.00000000000E+00 -0.45593999997E+02  0.45594000000E+02  0.51100000000E-03 0.  1.
    9900012    2    1    2    0    0  0.77115850845E+00  0.78691798573E+00  0.42323550987E+00  0.90007723059E+02  0.89999984203E+02 0.  0.
         12    1    1    2    0    0 -0.77115850845E+00 -0.78691798573E+00 -0.42323550987E+00  0.11802769413E+01  0.00000000000E+00 0. -1.
         11    1    3    3    0    0 -0.20037399313E+02  0.27752278019E+02 -0.24024917944E+01  0.34314111872E+02  0.51100000000E-03 0. -1.
        -11    1    3    3    0    0 -0.12119104057E+02  0.15402273235E+00  0.46879785282E+01  0.12995135593E+02  0.51100000000E-03 0.  1.
        -12    1    3    3    0    0  0.32927661878E+02 -0.27119382766E+02 -0.18622512239E+01  0.42698475593E+02  0.00000000000E+00 0.  1.
</event>
<event>
 7    1  0.2468912E-015  0.9000776E+02  0.7816164E-02  0.1186339E+00
        -11   -1    0    0    0    0  0.00000000000E+00  0.00000000000E+00  0.45593999997E+02  0.45594000000E+02  0.51100000000E-03 0.  1.
         11   -1    0    0    0    0 -0.00000000000E+00 -0.00000000000E+00 -0.45593999997E+02  0.45594000000E+02  0.51100000000E-03 0. -1.
    9900012    2    1    2    0    0  0.43773469885E+00 -0.35290870415E+00  0.10376979584E+01  0.90007757113E+02  0.90000018707E+02 0.  0.
         12    1    1    2    0    0 -0.43773469885E+00  0.35290870415E+00 -0.10376979584E+01  0.11802428873E+01  0.00000000000E+00 0. -1.
         11    1    3    3    0    0 -0.64440858616E+01  0.51391726263E+01 -0.17278261576E+01  0.84215628815E+01  0.51100000000E-03 0. -1.
        -11    1    3    3    0    0 -0.12980024636E+02  0.34231481244E+02  0.58176109737E+01  0.37069123883E+02  0.51100000000E-03 0.  1.
         12    1    3    3    0    0  0.19861845197E+02 -0.39723562575E+02 -0.30520868576E+01  0.44517070349E+02  0.00000000000E+00 0. -1.
</event>
<event>
 7    1  0.2468912E-015  0.9000776E+02  0.7816164E-02  0.1186339E+00
        -11   -1    0    0    0    0  0.00000000000E+00  0.00000000000E+00  0.45593999997E+02  0.45594000000E+02  0.51100000000E-03 0.  1.
         11   -1    0    0    0    0 -0.00000000000E+00 -0.00000000000E+00 -0.45593999997E+02  0.45594000000E+02  0.51100000000E-03 0. -1.
    9900012    2    1    2    0    0  0.33673711737E+00 -0.67468021958E+00  0.90795034612E+00  0.90007763110E+02  0.90000024783E+02 0.  0.
         12    1    1    2    0    0 -0.33673711737E+00  0.67468021958E+00 -0.90795034612E+00  0.11802368897E+01  0.00000000000E+00 0. -1.
         11    1    3    3    0    0  0.16958147872E+02  0.34293269759E+02 -0.88359153219E+01  0.39264239835E+02  0.51100000000E-03 0. -1.
        -11    1    3    3    0    0  0.63370808333E+01 -0.12059898560E+02  0.12105911230E+02  0.18225060596E+02  0.51100000000E-03 0.  1.
        -12    1    3    3    0    0 -0.22958491588E+02 -0.22908051418E+02 -0.23620455619E+01  0.32518462679E+02  0.00000000000E+00 0.  1.
</event>
<event>
 7    1  0.2468912E-015  0.9000771E+02  0.7816164E-02  0.1186339E+00
        -11   -1    0    0    0    0  0.00000000000E+00  0.00000000000E+00  0.45593999997E+02  0.45594000000E+02  0.51100000000E-03 0. -1.
         11   -1    0    0    0    0 -0.00000000000E+00 -0.00000000000E+00 -0.45593999997E+02  0.45594000000E+02  0.51100000000E-03 0.  1.
    9900012    2    1    2    0    0 -0.61124384217E+00  0.91617971741E+00 -0.42435864134E+00  0.90007709965E+02  0.89999970937E+02 0.  0.
         12    1    1    2    0    0  0.61124384217E+00 -0.91617971741E+00  0.42435864134E+00  0.11802900346E+01  0.00000000000E+00 0. -1.
         11    1    3    3    0    0 -0.92656372968E+01  0.47847282239E+01  0.13820577565E+02  0.17313405880E+02  0.51100000000E-03 0. -1.
        -11    1    3    3    0    0  0.30137104830E+02 -0.24121077614E+02  0.26246271176E+01  0.38690569143E+02  0.51100000000E-03 0.  1.
         12    1    3    3    0    0 -0.21482711375E+02  0.20252529108E+02 -0.16869563324E+02  0.34003734942E+02  0.00000000000E+00 0. -1.
</event>
<event>
 7    1  0.2468912E-015  0.9000766E+02  0.7816164E-02  0.1186339E+00
        -11   -1    0    0    0    0  0.00000000000E+00  0.00000000000E+00  0.45593999997E+02  0.45594000000E+02  0.51100000000E-03 0.  1.
         11   -1    0    0    0    0 -0.00000000000E+00 -0.00000000000E+00 -0.45593999997E+02  0.45594000000E+02  0.51100000000E-03 0. -1.
    9900012    2    1    2    0    0  0.11203726140E+01 -0.34726623349E+00 -0.13180712986E+00  0.90007660324E+02  0.89999920640E+02 0.  0.
         12    1    1    2    0    0 -0.11203726140E+01  0.34726623349E+00  0.13180712986E+00  0.11803396760E+01  0.00000000000E+00 0. -1.
         11    1    3    3    0    0 -0.55629600212E+01 -0.53918867184E+01 -0.90629704417E+01  0.11922935883E+02  0.51100000000E-03 0. -1.
        -11    1    3    3    0    0  0.51887971262E+01  0.38574030434E+02  0.18627683078E+02  0.43149391846E+02  0.51100000000E-03 0.  1.
         12    1    3    3    0    0  0.14945355091E+01 -0.33529409949E+02 -0.96965197666E+01  0.34935332595E+02  0.00000000000E+00 0. -1.
</event>
<event>
 7    1  0.2468912E-015  0.9000775E+02  0.7816164E-02  0.1186339E+00
        -11   -1    0    0    0    0  0.00000000000E+00  0.00000000000E+00  0.45593999997E+02  0.45594000000E+02  0.51100000000E-03 0.  1.
         11   -1    0    0    0    0 -0.00000000000E+00 -0.00000000000E+00 -0.45593999997E+02  0.45594000000E+02  0.51100000000E-03 0. -1.
    9900012    2    1    2    0    0 -0.62729013964E+00 -0.93028452565E+00  0.36616267577E+00  0.90007746924E+02  0.90000008384E+02 0.  0.
         12    1    1    2    0    0  0.62729013964E+00  0.93028452565E+00 -0.36616267577E+00  0.11802530759E+01  0.00000000000E+00 0. -1.
         11    1    3    3    0    0 -0.79180686779E+01  0.14429439640E+01 -0.45355656415E+01  0.92384660427E+01  0.51100000000E-03 0. -1.
        -11    1    3    3    0    0 -0.76482611794E+01  0.37215264657E+02 -0.12354275911E+01  0.38013130681E+02  0.51100000000E-03 0.  1.
         12    1    3    3    0    0  0.14939039718E+02 -0.39588493147E+02  0.61371559084E+01  0.42756150201E+02  0.00000000000E+00 0. -1.
</event>
<event>
 7    1  0.2468912E-015  0.9000775E+02  0.7816164E-02  0.1186339E+00
        -11   -1    0    0    0    0  0.00000000000E+00  0.00000000000E+00  0.45593999997E+02  0.45594000000E+02  0.51100000000E-03 0. -1.
         11   -1    0    0    0    0 -0.00000000000E+00 -0.00000000000E+00 -0.45593999997E+02  0.45594000000E+02  0.51100000000E-03 0.  1.
    9900012    2    1    2    0    0  0.21235921689E+00 -0.19019742209E+00 -0.11453026620E+01  0.90007750160E+02  0.90000011662E+02 0.  0.
         12    1    1    2    0    0 -0.21235921689E+00  0.19019742209E+00  0.11453026620E+01  0.11802498396E+01  0.00000000000E+00 0. -1.
         11    1    3    3    0    0 -0.45167768271E+01 -0.89706570558E+01  0.97349755056E+01  0.13987269543E+02  0.51100000000E-03 0. -1.
        -11    1    3    3    0    0 -0.81116880031E+01 -0.19960920058E+02 -0.31663620291E+02  0.38299120904E+02  0.51100000000E-03 0.  1.
         12    1    3    3    0    0  0.12840824047E+02  0.28741379692E+02  0.20783342123E+02  0.37721359713E+02  0.00000000000E+00 0. -1.
</event>
<event>
 7    1  0.2660955E-015  0.9000871E+02  0.7816164E-02  0.1186337E+00
        -11   -1    0    0    0    0  0.00000000000E+00  0.00000000000E+00  0.45593999997E+02  0.45594000000E+02  0.51100000000E-03 0.  1.
         11   -1    0    0    0    0 -0.00000000000E+00 -0.00000000000E+00 -0.45593999997E+02  0.45594000000E+02  0.51100000000E-03 0. -1.
    9900012    2    1    2    0    0  0.82846878388E+00  0.77804419459E+00  0.31465626567E+00  0.90008711291E+02  0.90000985474E+02 0.  0.
         12    1    1    2    0    0 -0.82846878388E+00 -0.77804419459E+00 -0.31465626567E+00  0.11792887094E+01  0.00000000000E+00 0. -1.
         11    1    3    3    0    0  0.38494282455E+02  0.11495296451E+02  0.96590366230E+01  0.41318865074E+02  0.51100000000E-03 0. -1.
        -11    1    3    3    0    0 -0.21761787743E+01 -0.52266096060E+01  0.71924847644E+01  0.91534168145E+01  0.51100000000E-03 0.  1.
        -12    1    3    3    0    0 -0.35489634897E+02 -0.54906426499E+01 -0.16536865122E+02  0.39536429402E+02  0.00000000000E+00 0.  1.
</event>
<event>
 7    1  0.2468912E-015  0.9000773E+02  0.7816164E-02  0.1186339E+00
        -11   -1    0    0    0    0  0.00000000000E+00  0.00000000000E+00  0.45593999997E+02  0.45594000000E+02  0.51100000000E-03 0.  1.
         11   -1    0    0    0    0 -0.00000000000E+00 -0.00000000000E+00 -0.45593999997E+02  0.45594000000E+02  0.51100000000E-03 0. -1.
    9900012    2    1    2    0    0 -0.26846549374E-01 -0.60036194931E+00  0.10158126011E+01  0.90007732891E+02  0.89999994165E+02 0.  0.
         12    1    1    2    0    0  0.26846549374E-01  0.60036194931E+00 -0.10158126011E+01  0.11802671087E+01  0.00000000000E+00 0. -1.
         11    1    3    3    0    0  0.82525694685E+01 -0.33733029229E+02 -0.15874320551E+02  0.38183978538E+02  0.51100000000E-03 0. -1.
        -11    1    3    3    0    0  0.95708809711E+01 -0.87867693462E+00 -0.57548881140E+00  0.96283447877E+01  0.51100000000E-03 0.  1.
        -12    1    3    3    0    0 -0.17850296989E+02  0.34011344214E+02  0.17465621963E+02  0.42195409566E+02  0.00000000000E+00 0.  1.
</event>
<event>
 7    1  0.2468912E-015  0.9000766E+02  0.7816164E-02  0.1186339E+00
        -11   -1    0    0    0    0  0.00000000000E+00  0.00000000000E+00  0.45593999997E+02  0.45594000000E+02  0.51100000000E-03 0. -1.
         11   -1    0    0    0    0 -0.00000000000E+00 -0.00000000000E+00 -0.45593999997E+02  0.45594000000E+02  0.51100000000E-03 0.  1.
    9900012    2    1    2    0    0 -0.11548857389E+00 -0.10054801382E+01 -0.60735204860E+00  0.90007659189E+02  0.89999919490E+02 0.  0.
         12    1    1    2    0    0  0.11548857389E+00  0.10054801382E+01  0.60735204860E+00  0.11803408110E+01  0.00000000000E+00 0. -1.
         11    1    3    3    0    0  0.28424016562E+02  0.65078249165E+01  0.30368026416E+02  0.42100992047E+02  0.51100000000E-03 0. -1.
        -11    1    3    3    0    0  0.34624153344E+01  0.85077185384E-02 -0.46132611898E+01  0.57680647878E+01  0.51100000000E-03 0.  1.
        -12    1    3    3    0    0 -0.32001920471E+02 -0.75218127733E+01 -0.26362117274E+02  0.42138602355E+02  0.00000000000E+00 0.  1.
</event>
<event>
 7    1  0.2468912E-015  0.9000775E+02  0.7816164E-02  0.1186339E+00
        -11   -1    0    0    0    0  0.00000000000E+00  0.00000000000E+00  0.45593999997E+02  0.45594000000E+02  0.51100000000E-03 0.  1.
         11   -1    0    0    0    0 -0.00000000000E+00 -0.00000000000E+00 -0.45593999997E+02  0.45594000000E+02  0.51100000000E-03 0. -1.
    9900012    2    1    2    0    0  0.76897445486E+00  0.85522022752E+00  0.26506233047E+00  0.90007753675E+02  0.90000015223E+02 0.  0.
         12    1    1    2    0    0 -0.76897445486E+00 -0.85522022752E+00 -0.26506233047E+00  0.11802463255E+01  0.00000000000E+00 0. -1.
         11    1    3    3    0    0 -0.23584014833E+02  0.28288211513E+02  0.41909374057E+01  0.37067406476E+02  0.51100000000E-03 0. -1.
        -11    1    3    3    0    0  0.40053375791E+01  0.96755064001E+01 -0.95298778700E+00  0.10515052982E+02  0.51100000000E-03 0.  1.
        -12    1    3    3    0    0  0.20347651709E+02 -0.37108497686E+02 -0.29728872882E+01  0.42425294217E+02  0.00000000000E+00 0.  1.
</event>
<event>
 7    1  0.3899234E-015  0.9000779E+02  0.7816164E-02  0.1186339E+00
        -11   -1    0    0    0    0  0.00000000000E+00  0.00000000000E+00  0.45593999997E+02  0.45594000000E+02  0.51100000000E-03 0. -1.
         11   -1    0    0    0    0 -0.00000000000E+00 -0.00000000000E+00 -0.45593999997E+02  0.45594000000E+02  0.51100000000E-03 0.  1.
    9900012    2    1    2    0    0  0.85276941627E+00 -0.28120334887E+00 -0.76590583387E+00  0.90007786991E+02  0.90000048979E+02 0.  0.
         12    1    1    2    0    0 -0.85276941627E+00  0.28120334887E+00  0.76590583387E+00  0.11802130092E+01  0.00000000000E+00 0. -1.
         11    1    3    3    0    0 -0.13583923548E+01  0.20237520436E+02  0.32336554027E+02  0.38171392295E+02  0.51100000000E-03 0. -1.
        -11    1    3    3    0    0 -0.20529568264E+01  0.85921746473E+01 -0.20690476299E+01  0.90730951310E+01  0.51100000000E-03 0.  1.
        -12    1    3    3    0    0  0.42641185975E+01 -0.29110898432E+02 -0.31033412231E+02  0.42763299564E+02  0.00000000000E+00 0.  1.
</event>
<event>
 7    1  0.2468912E-015  0.9000773E+02  0.7816164E-02  0.1186339E+00
        -11   -1    0    0    0    0  0.00000000000E+00  0.00000000000E+00  0.45593999997E+02  0.45594000000E+02  0.51100000000E-03 0.  1.
         11   -1    0    0    0    0 -0.00000000000E+00 -0.00000000000E+00 -0.45593999997E+02  0.45594000000E+02  0.51100000000E-03 0. -1.
    9900012    2    1    2    0    0 -0.10627657104E+01 -0.51318118828E+00  0.14486504870E-01  0.90007730647E+02  0.89999991891E+02 0.  0.
         12    1    1    2    0    0  0.10627657104E+01  0.51318118828E+00 -0.14486504870E-01  0.11802693532E+01  0.00000000000E+00 0. -1.
         11    1    3    3    0    0 -0.10976968078E+02 -0.97583318689E+01 -0.70733668499E+01  0.16301882956E+02  0.51100000000E-03 0. -1.
        -11    1    3    3    0    0 -0.18210004809E+02  0.32243939317E+02  0.32514193572E+01  0.37173211133E+02  0.51100000000E-03 0.  1.
         12    1    3    3    0    0  0.28124207177E+02 -0.22998788636E+02  0.38364339976E+01  0.36532636558E+02  0.00000000000E+00 0. -1.
</event>
<event>
 7    1  0.2468912E-015  0.9000773E+02  0.7816164E-02  0.1186339E+00
        -11   -1    0    0    0    0  0.00000000000E+00  0.00000000000E+00  0.45593999997E+02  0.45594000000E+02  0.51100000000E-03 0.  1.
         11   -1    0    0    0    0 -0.00000000000E+00 -0.00000000000E+00 -0.45593999997E+02  0.45594000000E+02  0.51100000000E-03 0. -1.
    9900012    2    1    2    0    0 -0.63841886894E+00  0.17577267409E+00 -0.97701609039E+00  0.90007730909E+02  0.89999992157E+02 0.  0.
         12    1    1    2    0    0  0.63841886894E+00 -0.17577267409E+00  0.97701609039E+00  0.11802690905E+01  0.00000000000E+00 0. -1.
         11    1    3    3    0    0 -0.56747519373E+01  0.41000287280E+02 -0.74490452819E-01  0.41391205777E+02  0.51100000000E-03 0. -1.
        -11    1    3    3    0    0 -0.62535217981E+01 -0.26345071443E+01  0.49029745861E+01  0.83717574514E+01  0.51100000000E-03 0.  1.
        -12    1    3    3    0    0  0.11289854866E+02 -0.38190007462E+02 -0.58055002236E+01  0.40244767681E+02  0.00000000000E+00 0.  1.
</event>
<event>
 7    1  0.2468912E-015  0.9000777E+02  0.7816164E-02  0.1186339E+00
        -11   -1    0    0    0    0  0.00000000000E+00  0.00000000000E+00  0.45593999997E+02  0.45594000000E+02  0.51100000000E-03 0.  1.
         11   -1    0    0    0    0 -0.00000000000E+00 -0.00000000000E+00 -0.45593999997E+02  0.45594000000E+02  0.51100000000E-03 0. -1.
    9900012    2    1    2    0    0 -0.11758234506E+01  0.64893133911E-01 -0.78565388932E-01  0.90007769333E+02  0.90000031089E+02 0.  0.
         12    1    1    2    0    0  0.11758234506E+01 -0.64893133911E-01  0.78565388932E-01  0.11802306665E+01  0.00000000000E+00 0. -1.
         11    1    3    3    0    0 -0.17018071761E+02  0.25189724378E+02 -0.21480327311E+02  0.37222861823E+02  0.51100000000E-03 0. -1.
        -11    1    3    3    0    0 -0.79007714610E+01  0.53111627613E+01  0.27240727267E+01  0.99020811972E+01  0.51100000000E-03 0.  1.
        -12    1    3    3    0    0  0.23743019771E+02 -0.30435994005E+02  0.18677689195E+02  0.42882826313E+02  0.00000000000E+00 0.  1.
</event>
<event>
 7    1  0.2468912E-015  0.9000777E+02  0.7816164E-02  0.1186339E+00
        -11   -1    0    0    0    0  0.00000000000E+00  0.00000000000E+00  0.45593999997E+02  0.45594000000E+02  0.51100000000E-03 0. -1.
         11   -1    0    0    0    0 -0.00000000000E+00 -0.00000000000E+00 -0.45593999997E+02  0.45594000000E+02  0.51100000000E-03 0.  1.
    9900012    2    1    2    0    0  0.62388052754E+00 -0.80750358813E+00 -0.59300758991E+00  0.90007768260E+02  0.90000030001E+02 0.  0.
         12    1    1    2    0    0 -0.62388052754E+00  0.80750358813E+00  0.59300758991E+00  0.11802317396E+01  0.00000000000E+00 0. -1.
         11    1    3    3    0    0 -0.36445640222E+02  0.13147431801E+02 -0.13097831502E+02  0.40898567756E+02  0.51100000000E-03 0. -1.
        -11    1    3    3    0    0 -0.12041524609E+01 -0.44143021038E+01  0.82521002421E+01  0.94357408230E+01  0.51100000000E-03 0.  1.
        -12    1    3    3    0    0  0.38273673210E+02 -0.95406332853E+01  0.42527236703E+01  0.39673459682E+02  0.00000000000E+00 0.  1.
</event>
<event>
 7    1  0.2468912E-015  0.9000777E+02  0.7816164E-02  0.1186339E+00
        -11   -1    0    0    0    0  0.00000000000E+00  0.00000000000E+00  0.45593999997E+02  0.45594000000E+02  0.51100000000E-03 0. -1.
         11   -1    0    0    0    0 -0.00000000000E+00 -0.00000000000E+00 -0.45593999997E+02  0.45594000000E+02  0.51100000000E-03 0.  1.
    9900012    2    1    2    0    0 -0.10987714261E+00  0.65465725802E+00  0.97585239186E+00  0.90007772478E+02  0.90000034275E+02 0.  0.
         12    1    1    2    0    0  0.10987714261E+00 -0.65465725802E+00 -0.97585239186E+00  0.11802275216E+01  0.00000000000E+00 0. -1.
         11    1    3    3    0    0 -0.35061993754E+02  0.49798340101E+01  0.17435951445E+02  0.39473466479E+02  0.51100000000E-03 0. -1.
        -11    1    3    3    0    0  0.12531804470E+01 -0.70163821187E+01  0.65178712996E+01  0.96582982874E+01  0.51100000000E-03 0.  1.
        -12    1    3    3    0    0  0.33698936165E+02  0.26912053667E+01 -0.22977970353E+02  0.40876007712E+02  0.00000000000E+00 0.  1.
</event>
<event>
 7    1  0.2468912E-015  0.9000785E+02  0.7816164E-02  0.1186339E+00
        -11   -1    0    0    0    0  0.00000000000E+00  0.00000000000E+00  0.45593999997E+02  0.45594000000E+02  0.51100000000E-03 0.  1.
         11   -1    0    0    0    0 -0.00000000000E+00 -0.00000000000E+00 -0.45593999997E+02  0.45594000000E+02  0.51100000000E-03 0. -1.
    9900012    2    1    2    0    0 -0.59996273680E+00 -0.90668270324E+00  0.45904264412E+00  0.90007852145E+02  0.90000114994E+02 0.  0.
         12    1    1    2    0    0  0.59996273680E+00  0.90668270324E+00 -0.45904264412E+00  0.11801478547E+01  0.00000000000E+00 0. -1.
         11    1    3    3    0    0  0.11541488550E+02 -0.26133864602E+02 -0.23962763621E+02  0.37288052746E+02  0.51100000000E-03 0. -1.
        -11    1    3    3    0    0  0.12868747124E+01  0.29101176482E+01 -0.94618396591E+01  0.99825468317E+01  0.51100000000E-03 0.  1.
        -12    1    3    3    0    0 -0.13428325999E+02  0.22317064250E+02  0.33883645925E+02  0.42737252568E+02  0.00000000000E+00 0.  1.
</event>
<event>
 7    1  0.2468912E-015  0.9000763E+02  0.7816164E-02  0.1186339E+00
        -11   -1    0    0    0    0  0.00000000000E+00  0.00000000000E+00  0.45593999997E+02  0.45594000000E+02  0.51100000000E-03 0. -1.
         11   -1    0    0    0    0 -0.00000000000E+00 -0.00000000000E+00 -0.45593999997E+02  0.45594000000E+02  0.51100000000E-03 0.  1.
    9900012    2    1    2    0    0 -0.90805983218E+00  0.68578226744E+00  0.31367945771E+00  0.90007633625E+02  0.89999893589E+02 0.  0.
         12    1    1    2    0    0  0.90805983218E+00 -0.68578226744E+00 -0.31367945771E+00  0.11803663750E+01  0.00000000000E+00 0. -1.
         11    1    3    3    0    0 -0.12261142941E+02  0.21265425784E+01 -0.19946540920E+01  0.12603033554E+02  0.51100000000E-03 0. -1.
        -11    1    3    3    0    0 -0.25519890371E+02 -0.18487254804E+02 -0.12869369773E+02  0.34039155003E+02  0.51100000000E-03 0.  1.
         12    1    3    3    0    0  0.36872973480E+02  0.17046494493E+02  0.15177703323E+02  0.43365445067E+02  0.00000000000E+00 0. -1.
</event>
<event>
 7    1  0.2468912E-015  0.9000776E+02  0.7816164E-02  0.1186339E+00
        -11   -1    0    0    0    0  0.00000000000E+00  0.00000000000E+00  0.45593999997E+02  0.45594000000E+02  0.51100000000E-03 0. -1.
         11   -1    0    0    0    0 -0.00000000000E+00 -0.00000000000E+00 -0.45593999997E+02  0.45594000000E+02  0.51100000000E-03 0.  1.
    9900012    2    1    2    0    0  0.59893287516E+00  0.89890692819E+00 -0.47562048507E+00  0.90007758880E+02  0.90000020498E+02 0.  0.
         12    1    1    2    0    0 -0.59893287516E+00 -0.89890692819E+00  0.47562048507E+00  0.11802411196E+01  0.00000000000E+00 0. -1.
         11    1    3    3    0    0  0.25267710582E+01 -0.95442653581E+01 -0.42826334568E-01  0.98731660354E+01  0.51100000000E-03 0. -1.
        -11    1    3    3    0    0  0.27336245824E+02 -0.73496825406E+01 -0.25176013284E+02  0.37882975257E+02  0.51100000000E-03 0.  1.
         12    1    3    3    0    0 -0.29264084007E+02  0.17792854827E+02  0.24743219134E+02  0.42251617588E+02  0.00000000000E+00 0. -1.
</event>
<event>
 7    1  0.2468912E-015  0.9000776E+02  0.7816164E-02  0.1186339E+00
        -11   -1    0    0    0    0  0.00000000000E+00  0.00000000000E+00  0.45593999997E+02  0.45594000000E+02  0.51100000000E-03 0. -1.
         11   -1    0    0    0    0 -0.00000000000E+00 -0.00000000000E+00 -0.45593999997E+02  0.45594000000E+02  0.51100000000E-03 0.  1.
    9900012    2    1    2    0    0  0.85828381139E+00 -0.39690569825E+00 -0.70624683779E+00  0.90007758571E+02  0.90000020184E+02 0.  0.
         12    1    1    2    0    0 -0.85828381139E+00  0.39690569825E+00  0.70624683779E+00  0.11802414287E+01  0.00000000000E+00 0. -1.
         11    1    3    3    0    0  0.27274155905E+02  0.23183689352E+02  0.20986472509E+01  0.35857598258E+02  0.51100000000E-03 0. -1.
        -11    1    3    3    0    0  0.69691054912E+01  0.45629566977E+01 -0.61546229223E+01  0.10357045368E+02  0.51100000000E-03 0.  1.
        -12    1    3    3    0    0 -0.33384977585E+02 -0.28143551748E+02  0.33497288336E+01  0.43793114945E+02  0.00000000000E+00 0.  1.
</event>
<event>
 7    1  0.2468912E-015  0.9000798E+02  0.7816164E-02  0.1186339E+00
        -11   -1    0    0    0    0  0.00000000000E+00  0.00000000000E+00  0.45593999997E+02  0.45594000000E+02  0.51100000000E-03 0.  1.
         11   -1    0    0    0    0 -0.00000000000E+00 -0.00000000000E+00 -0.45593999997E+02  0.45594000000E+02  0.51100000000E-03 0. -1.
    9900012    2    1    2    0    0  0.64896373288E+00 -0.89477930832E+00  0.41311058897E+00  0.90007981231E+02  0.90000245783E+02 0.  0.
         12    1    1    2    0    0 -0.64896373288E+00  0.89477930832E+00 -0.41311058897E+00  0.11800187693E+01  0.00000000000E+00 0. -1.
         11    1    3    3    0    0  0.77826128959E+01  0.37617129683E+02 -0.46383420455E+01  0.38692786489E+02  0.51100000000E-03 0. -1.
        -11    1    3    3    0    0  0.58167220223E+01  0.11564670263E+01  0.74443141752E+01  0.95178508534E+01  0.51100000000E-03 0.  1.
        -12    1    3    3    0    0 -0.12950371185E+02 -0.39668376018E+02 -0.23928615407E+01  0.41797343888E+02  0.00000000000E+00 0.  1.
</event>
<event>
 7    1  0.2468912E-015  0.9000770E+02  0.7816164E-02  0.1186339E+00
        -11   -1    0    0    0    0  0.00000000000E+00  0.00000000000E+00  0.45593999997E+02  0.45594000000E+02  0.51100000000E-03 0.  1.
         11   -1    0    0    0    0 -0.00000000000E+00 -0.00000000000E+00 -0.45593999997E+02  0.45594000000E+02  0.51100000000E-03 0. -1.
    9900012    2    1    2    0    0  0.11388255869E+01  0.83668752429E-01 -0.29862780598E+00  0.90007702265E+02  0.89999963135E+02 0.  0.
         12    1    1    2    0    0 -0.11388255869E+01 -0.83668752429E-01  0.29862780598E+00  0.11802977353E+01  0.00000000000E+00 0. -1.
         11    1    3    3    0    0  0.36521053420E+02 -0.39881535335E+01 -0.30402231465E+01  0.36863744635E+02  0.51100000000E-03 0. -1.
        -11    1    3    3    0    0  0.69799722590E+01  0.31467448619E+00 -0.65891112132E+01  0.96039273014E+01  0.51100000000E-03 0.  1.
        -12    1    3    3    0    0 -0.42362200092E+02  0.37571477998E+01  0.93307065537E+01  0.43540030328E+02  0.00000000000E+00 0.  1.
</event>
<event>
 7    1  0.2468912E-015  0.9000772E+02  0.7816164E-02  0.1186339E+00
        -11   -1    0    0    0    0  0.00000000000E+00  0.00000000000E+00  0.45593999997E+02  0.45594000000E+02  0.51100000000E-03 0. -1.
         11   -1    0    0    0    0 -0.00000000000E+00 -0.00000000000E+00 -0.45593999997E+02  0.45594000000E+02  0.51100000000E-03 0.  1.
    9900012    2    1    2    0    0 -0.11760204345E+01 -0.55389072564E-01  0.83416511672E-01  0.90007724470E+02  0.89999985633E+02 0.  0.
         12    1    1    2    0    0  0.11760204345E+01  0.55389072564E-01 -0.83416511672E-01  0.11802755298E+01  0.00000000000E+00 0. -1.
         11    1    3    3    0    0 -0.27311110307E+02  0.10418730778E+02  0.13332081509E+00  0.29231224264E+02  0.51100000000E-03 0. -1.
        -11    1    3    3    0    0 -0.87118966094E+01 -0.20993209614E+02  0.68275869359E+01  0.23732423729E+02  0.51100000000E-03 0.  1.
        -12    1    3    3    0    0  0.34846986482E+02  0.10519089763E+02 -0.68774912394E+01  0.37044076477E+02  0.00000000000E+00 0.  1.
</event>
<event>
 7    1  0.2468912E-015  0.9000778E+02  0.7816164E-02  0.1186339E+00
        -11   -1    0    0    0    0  0.00000000000E+00  0.00000000000E+00  0.45593999997E+02  0.45594000000E+02  0.51100000000E-03 0.  1.
         11   -1    0    0    0    0 -0.00000000000E+00 -0.00000000000E+00 -0.45593999997E+02  0.45594000000E+02  0.51100000000E-03 0. -1.
    9900012    2    1    2    0    0 -0.46867538994E+00 -0.58891298127E+00 -0.90909511493E+00  0.90007775848E+02  0.90000037689E+02 0.  0.
         12    1    1    2    0    0  0.46867538994E+00  0.58891298127E+00  0.90909511493E+00  0.11802241519E+01  0.00000000000E+00 0. -1.
         11    1    3    3    0    0 -0.19466251978E+00  0.36813783045E+02 -0.77377646690E+01  0.37618685755E+02  0.51100000000E-03 0. -1.
        -11    1    3    3    0    0  0.12399757538E+02 -0.63648773342E+00 -0.18225459666E+01  0.12549134540E+02  0.51100000000E-03 0.  1.
        -12    1    3    3    0    0 -0.12673770408E+02 -0.36766208293E+02  0.86512155207E+01  0.39839955554E+02  0.00000000000E+00 0.  1.
</event>
<event>
 7    1  0.2468912E-015  0.9000777E+02  0.7816164E-02  0.1186339E+00
        -11   -1    0    0    0    0  0.00000000000E+00  0.00000000000E+00  0.45593999997E+02  0.45594000000E+02  0.51100000000E-03 0.  1.
         11   -1    0    0    0    0 -0.00000000000E+00 -0.00000000000E+00 -0.45593999997E+02  0.45594000000E+02  0.51100000000E-03 0. -1.
    9900012    2    1    2    0    0 -0.11409270977E+01  0.30019605836E+00 -0.33392986908E-01  0.90007768071E+02  0.90000029809E+02 0.  0.
         12    1    1    2    0    0  0.11409270977E+01 -0.30019605836E+00  0.33392986908E-01  0.11802319295E+01  0.00000000000E+00 0. -1.
         11    1    3    3    0    0 -0.43961820854E+01  0.27376197319E+02 -0.24318652575E+02  0.36880610893E+02  0.51100000000E-03 0. -1.
        -11    1    3    3    0    0  0.59508097233E+01  0.61567016649E+01 -0.39559888762E+01  0.94322298532E+01  0.51100000000E-03 0.  1.
        -12    1    3    3    0    0 -0.26955547356E+01 -0.33232702925E+02  0.28241248464E+02  0.43694927324E+02  0.00000000000E+00 0.  1.
</event>
<event>
 7    1  0.2468912E-015  0.9000778E+02  0.7816164E-02  0.1186339E+00
        -11   -1    0    0    0    0  0.00000000000E+00  0.00000000000E+00  0.45593999997E+02  0.45594000000E+02  0.51100000000E-03 0. -1.
         11   -1    0    0    0    0 -0.00000000000E+00 -0.00000000000E+00 -0.45593999997E+02  0.45594000000E+02  0.51100000000E-03 0.  1.
    9900012    2    1    2    0    0 -0.53514496964E+00 -0.95697229437E+00  0.43675315608E+00  0.90007775687E+02  0.90000037526E+02 0.  0.
         12    1    1    2    0    0  0.53514496964E+00  0.95697229437E+00 -0.43675315608E+00  0.11802243135E+01  0.00000000000E+00 0. -1.
         11    1    3    3    0    0 -0.18469860660E+02  0.11126216699E+01  0.31063844738E+02  0.36157103451E+02  0.51100000000E-03 0. -1.
        -11    1    3    3    0    0 -0.38480602470E+01 -0.52689528192E+01  0.74274760668E+01  0.98861940331E+01  0.51100000000E-03 0.  1.
        -12    1    3    3    0    0  0.21782775938E+02  0.31993588549E+01 -0.38054567649E+02  0.43964478202E+02  0.00000000000E+00 0.  1.
</event>
<event>
 7    1  0.2468912E-015  0.9000775E+02  0.7816164E-02  0.1186339E+00
        -11   -1    0    0    0    0  0.00000000000E+00  0.00000000000E+00  0.45593999997E+02  0.45594000000E+02  0.51100000000E-03 0.  1.
         11   -1    0    0    0    0 -0.00000000000E+00 -0.00000000000E+00 -0.45593999997E+02  0.45594000000E+02  0.51100000000E-03 0. -1.
    9900012    2    1    2    0    0 -0.72526656251E+00 -0.91250097811E-01  0.92663931097E+00  0.90007746392E+02  0.90000007844E+02 0.  0.
         12    1    1    2    0    0  0.72526656251E+00  0.91250097811E-01 -0.92663931097E+00  0.11802536082E+01  0.00000000000E+00 0. -1.
         11    1    3    3    0    0  0.13885496996E+00 -0.73226459974E+01  0.96626885373E+01  0.12124684538E+02  0.51100000000E-03 0. -1.
        -11    1    3    3    0    0  0.32950938347E+02  0.49984959835E+01  0.14960053412E+02  0.36531527458E+02  0.51100000000E-03 0.  1.
         12    1    3    3    0    0 -0.33815059880E+02  0.22328999161E+01 -0.23696102638E+02  0.41351534396E+02  0.00000000000E+00 0. -1.
</event>
<event>
 7    1  0.2468912E-015  0.9000759E+02  0.7816164E-02  0.1186339E+00
        -11   -1    0    0    0    0  0.00000000000E+00  0.00000000000E+00  0.45593999997E+02  0.45594000000E+02  0.51100000000E-03 0.  1.
         11   -1    0    0    0    0 -0.00000000000E+00 -0.00000000000E+00 -0.45593999997E+02  0.45594000000E+02  0.51100000000E-03 0. -1.
    9900012    2    1    2    0    0 -0.90445780877E+00 -0.55097287346E+00  0.52129059104E+00  0.90007593750E+02  0.89999853187E+02 0.  0.
         12    1    1    2    0    0  0.90445780877E+00  0.55097287346E+00 -0.52129059104E+00  0.11804062502E+01  0.00000000000E+00 0. -1.
         11    1    3    3    0    0  0.10031191299E+02  0.23751577827E+01 -0.17574777318E+01  0.10457289401E+02  0.51100000000E-03 0. -1.
        -11    1    3    3    0    0 -0.27308180858E+02  0.30905881715E+02  0.64147696395E+01  0.41737986728E+02  0.51100000000E-03 0.  1.
         12    1    3    3    0    0  0.16372531749E+02 -0.33832012371E+02 -0.41360013167E+01  0.37812317621E+02  0.00000000000E+00 0. -1.
</event>
<event>
 7    1  0.2468912E-015  0.9000775E+02  0.7816164E-02  0.1186339E+00
        -11   -1    0    0    0    0  0.00000000000E+00  0.00000000000E+00  0.45593999997E+02  0.45594000000E+02  0.51100000000E-03 0. -1.
         11   -1    0    0    0    0 -0.00000000000E+00 -0.00000000000E+00 -0.45593999997E+02  0.45594000000E+02  0.51100000000E-03 0.  1.
    9900012    2    1    2    0    0 -0.10658329043E+01  0.30990708510E+00 -0.40117015647E+00  0.90007754400E+02  0.90000015958E+02 0.  0.
         12    1    1    2    0    0  0.10658329043E+01 -0.30990708510E+00  0.40117015647E+00  0.11802455998E+01  0.00000000000E+00 0. -1.
         11    1    3    3    0    0 -0.10720639979E+02 -0.15591418178E+02  0.30580894100E+02  0.35961305963E+02  0.51100000000E-03 0. -1.
        -11    1    3    3    0    0  0.21194079391E+01 -0.70778165915E+01  0.62315716037E+01  0.96653951098E+01  0.51100000000E-03 0.  1.
        -12    1    3    3    0    0  0.75353991352E+01  0.22979141855E+02 -0.37213635860E+02  0.44381053327E+02  0.00000000000E+00 0.  1.
</event>
<event>
 7    1  0.2468912E-015  0.9000771E+02  0.7816164E-02  0.1186339E+00
        -11   -1    0    0    0    0  0.00000000000E+00  0.00000000000E+00  0.45593999997E+02  0.45594000000E+02  0.51100000000E-03 0. -1.
         11   -1    0    0    0    0 -0.00000000000E+00 -0.00000000000E+00 -0.45593999997E+02  0.45594000000E+02  0.51100000000E-03 0.  1.
    9900012    2    1    2    0    0 -0.40912158960E+00 -0.19966213075E+00 -0.10889667131E+01  0.90007705993E+02  0.89999966912E+02 0.  0.
         12    1    1    2    0    0  0.40912158960E+00  0.19966213075E+00  0.10889667131E+01  0.11802940073E+01  0.00000000000E+00 0. -1.
         11    1    3    3    0    0  0.21199851109E+01  0.80932906468E+01 -0.57921544804E+01  0.10175693792E+02  0.51100000000E-03 0. -1.
        -11    1    3    3    0    0 -0.56440492385E+01  0.16130557765E+02 -0.31624609333E+02  0.35946711969E+02  0.51100000000E-03 0.  1.
         12    1    3    3    0    0  0.31149425380E+01 -0.24423510543E+02  0.36327797101E+02  0.43885300232E+02  0.00000000000E+00 0. -1.
</event>
<event>
 7    1  0.2468912E-015  0.9000773E+02  0.7816164E-02  0.1186339E+00
        -11   -1    0    0    0    0  0.00000000000E+00  0.00000000000E+00  0.45593999997E+02  0.45594000000E+02  0.51100000000E-03 0.  1.
         11   -1    0    0    0    0 -0.00000000000E+00 -0.00000000000E+00 -0.45593999997E+02  0.45594000000E+02  0.51100000000E-03 0. -1.
    9900012    2    1    2    0    0  0.89494939948E+00  0.74401470411E+00  0.19633408300E+00  0.90007729107E+02  0.89999990332E+02 0.  0.
         12    1    1    2    0    0 -0.89494939948E+00 -0.74401470411E+00 -0.19633408300E+00  0.11802708925E+01  0.00000000000E+00 0. -1.
         11    1    3    3    0    0 -0.24025534415E+01  0.66651790463E+01  0.57382056427E+01  0.91172297885E+01  0.51100000000E-03 0. -1.
        -11    1    3    3    0    0 -0.32567719883E+02 -0.14114061036E+02  0.15250633210E+02  0.38632174555E+02  0.51100000000E-03 0.  1.
         12    1    3    3    0    0  0.35865222724E+02  0.81928966941E+01 -0.20792504769E+02  0.42258324764E+02  0.00000000000E+00 0. -1.
</event>
<event>
 7    1  0.2468912E-015  0.9000776E+02  0.7816164E-02  0.1186339E+00
        -11   -1    0    0    0    0  0.00000000000E+00  0.00000000000E+00  0.45593999997E+02  0.45594000000E+02  0.51100000000E-03 0. -1.
         11   -1    0    0    0    0 -0.00000000000E+00 -0.00000000000E+00 -0.45593999997E+02  0.45594000000E+02  0.51100000000E-03 0.  1.
    9900012    2    1    2    0    0  0.36089290660E+00  0.79074034268E+00 -0.79840668321E+00  0.90007759681E+02  0.90000021308E+02 0.  0.
         12    1    1    2    0    0 -0.36089290660E+00 -0.79074034268E+00  0.79840668321E+00  0.11802403193E+01  0.00000000000E+00 0. -1.
         11    1    3    3    0    0 -0.69537751173E+01 -0.53857113344E+01  0.25067750346E+01  0.91457529102E+01  0.51100000000E-03 0. -1.
        -11    1    3    3    0    0  0.41679042304E+00  0.22487185765E+02  0.33308226733E+02  0.40190610922E+02  0.51100000000E-03 0.  1.
         12    1    3    3    0    0  0.68978776009E+01 -0.16310734088E+02 -0.36613408451E+02  0.40671395849E+02  0.00000000000E+00 0. -1.
</event>
<event>
 7    1  0.2468912E-015  0.9000766E+02  0.7816164E-02  0.1186339E+00
        -11   -1    0    0    0    0  0.00000000000E+00  0.00000000000E+00  0.45593999997E+02  0.45594000000E+02  0.51100000000E-03 0.  1.
         11   -1    0    0    0    0 -0.00000000000E+00 -0.00000000000E+00 -0.45593999997E+02  0.45594000000E+02  0.51100000000E-03 0. -1.
    9900012    2    1    2    0    0 -0.33773473832E+00  0.11253546929E+01 -0.11275937319E+00  0.90007659958E+02  0.89999920270E+02 0.  0.
         12    1    1    2    0    0  0.33773473832E+00 -0.11253546929E+01  0.11275937319E+00  0.11803400419E+01  0.00000000000E+00 0. -1.
         11    1    3    3    0    0  0.14054528311E+01 -0.29411187761E+02 -0.21781096455E+02  0.36625256671E+02  0.51100000000E-03 0. -1.
        -11    1    3    3    0    0  0.42884201786E+01 -0.40064341058E+01 -0.62401643650E+01  0.85663127094E+01  0.51100000000E-03 0.  1.
        -12    1    3    3    0    0 -0.60316077480E+01  0.34542976560E+02  0.27908501447E+02  0.44816090578E+02  0.00000000000E+00 0.  1.
</event>
<event>
 7    1  0.2468912E-015  0.9000753E+02  0.7816164E-02  0.1186339E+00
        -11   -1    0    0    0    0  0.00000000000E+00  0.00000000000E+00  0.45593999997E+02  0.45594000000E+02  0.51100000000E-03 0.  1.
         11   -1    0    0    0    0 -0.00000000000E+00 -0.00000000000E+00 -0.45593999997E+02  0.45594000000E+02  0.51100000000E-03 0. -1.
    9900012    2    1    2    0    0  0.69801980936E+00  0.64459759387E+00  0.70054512604E+00  0.90007533488E+02  0.89999792130E+02 0.  0.
         12    1    1    2    0    0 -0.69801980936E+00 -0.64459759387E+00 -0.70054512604E+00  0.11804665120E+01  0.00000000000E+00 0. -1.
         11    1    3    3    0    0 -0.29250604251E+02  0.30132366366E+02  0.22826790533E+01  0.42056723313E+02  0.51100000000E-03 0. -1.
        -11    1    3    3    0    0  0.69798061942E+01  0.16104273989E+00 -0.71980832092E+01  0.10027763032E+02  0.51100000000E-03 0.  1.
        -12    1    3    3    0    0  0.22968817867E+02 -0.29648811512E+02  0.56159492820E+01  0.37923047143E+02  0.00000000000E+00 0.  1.
</event>
<event>
 7    1  0.2468912E-015  0.9000772E+02  0.7816164E-02  0.1186339E+00
        -11   -1    0    0    0    0  0.00000000000E+00  0.00000000000E+00  0.45593999997E+02  0.45594000000E+02  0.51100000000E-03 0. -1.
         11   -1    0    0    0    0 -0.00000000000E+00 -0.00000000000E+00 -0.45593999997E+02  0.45594000000E+02  0.51100000000E-03 0.  1.
    9900012    2    1    2    0    0  0.71699716460E+00 -0.69747039043E+00 -0.62651478368E+00  0.90007715859E+02  0.89999976908E+02 0.  0.
         12    1    1    2    0    0 -0.71699716460E+00  0.69747039043E+00  0.62651478368E+00  0.11802841411E+01  0.00000000000E+00 0. -1.
         11    1    3    3    0    0  0.40644506019E+02  0.56575418248E-01  0.15285934488E+02  0.43423943438E+02  0.51100000000E-03 0. -1.
        -11    1    3    3    0    0 -0.37470250290E+01  0.28866647175E+01 -0.81166404964E+01  0.93943005576E+01  0.51100000000E-03 0.  1.
        -12    1    3    3    0    0 -0.36180483826E+02 -0.36407105261E+01 -0.77958087749E+01  0.37189471863E+02  0.00000000000E+00 0.  1.
</event>
<event>
 7    1  0.2468912E-015  0.9000774E+02  0.7816164E-02  0.1186339E+00
        -11   -1    0    0    0    0  0.00000000000E+00  0.00000000000E+00  0.45593999997E+02  0.45594000000E+02  0.51100000000E-03 0. -1.
         11   -1    0    0    0    0 -0.00000000000E+00 -0.00000000000E+00 -0.45593999997E+02  0.45594000000E+02  0.51100000000E-03 0.  1.
    9900012    2    1    2    0    0  0.57697782488E+00  0.98377235164E+00  0.30380403631E+00  0.90007742256E+02  0.90000003654E+02 0.  0.
         12    1    1    2    0    0 -0.57697782488E+00 -0.98377235164E+00 -0.30380403631E+00  0.11802577442E+01  0.00000000000E+00 0. -1.
         11    1    3    3    0    0  0.11815740727E+02  0.34762647076E+02  0.20270638076E+02  0.41939863244E+02  0.51100000000E-03 0. -1.
        -11    1    3    3    0    0 -0.47563404659E+01  0.22635318294E+01 -0.79293345268E+01  0.95194903891E+01  0.51100000000E-03 0.  1.
        -12    1    3    3    0    0 -0.64824224366E+01 -0.36042406554E+02 -0.12037499513E+02  0.38548388622E+02  0.00000000000E+00 0.  1.
</event>
<event>
 7    1  0.2468912E-015  0.9000771E+02  0.7816164E-02  0.1186339E+00
        -11   -1    0    0    0    0  0.00000000000E+00  0.00000000000E+00  0.45593999997E+02  0.45594000000E+02  0.51100000000E-03 0.  1.
         11   -1    0    0    0    0 -0.00000000000E+00 -0.00000000000E+00 -0.45593999997E+02  0.45594000000E+02  0.51100000000E-03 0. -1.
    9900012    2    1    2    0    0  0.15811149302E+00 -0.11675207640E+01  0.70544088644E-01  0.90007711710E+02  0.89999972705E+02 0.  0.
         12    1    1    2    0    0 -0.15811149302E+00  0.11675207640E+01 -0.70544088644E-01  0.11802882898E+01  0.00000000000E+00 0. -1.
         11    1    3    3    0    0  0.25892291024E+02  0.22442817818E+02 -0.25576234586E+02  0.42757859885E+02  0.51100000000E-03 0. -1.
        -11    1    3    3    0    0  0.16785711095E+01 -0.79124333652E+01  0.55567134816E+01  0.98133209316E+01  0.51100000000E-03 0.  1.
        -12    1    3    3    0    0 -0.27412750641E+02 -0.15697905217E+02  0.20090065193E+02  0.37436530894E+02  0.00000000000E+00 0.  1.
</event>
<event>
 7    1  0.2468912E-015  0.9000772E+02  0.7816164E-02  0.1186339E+00
        -11   -1    0    0    0    0  0.00000000000E+00  0.00000000000E+00  0.45593999997E+02  0.45594000000E+02  0.51100000000E-03 0. -1.
         11   -1    0    0    0    0 -0.00000000000E+00 -0.00000000000E+00 -0.45593999997E+02  0.45594000000E+02  0.51100000000E-03 0.  1.
    9900012    2    1    2    0    0 -0.36988446537E+00 -0.60209334867E-01 -0.11192057187E+01  0.90007719897E+02  0.89999980999E+02 0.  0.
         12    1    1    2    0    0  0.36988446537E+00  0.60209334867E-01  0.11192057187E+01  0.11802801034E+01  0.00000000000E+00 0. -1.
         11    1    3    3    0    0  0.32282531914E+01  0.12972573060E+01 -0.91493256999E+01  0.97884961158E+01  0.51100000000E-03 0. -1.
        -11    1    3    3    0    0 -0.13399299993E+02  0.47875889376E-01 -0.34259135093E+02  0.36786300031E+02  0.51100000000E-03 0.  1.
         12    1    3    3    0    0  0.98011623366E+01 -0.14053425302E+01  0.42289255074E+02  0.43432923750E+02  0.00000000000E+00 0. -1.
</event>
<event>
 7    1  0.2468912E-015  0.9000779E+02  0.7816164E-02  0.1186339E+00
        -11   -1    0    0    0    0  0.00000000000E+00  0.00000000000E+00  0.45593999997E+02  0.45594000000E+02  0.51100000000E-03 0. -1.
         11   -1    0    0    0    0 -0.00000000000E+00 -0.00000000000E+00 -0.45593999997E+02  0.45594000000E+02  0.51100000000E-03 0.  1.
    9900012    2    1    2    0    0  0.65216968900E+00 -0.53607890920E+00 -0.82473309242E+00  0.90007792148E+02  0.90000054204E+02 0.  0.
         12    1    1    2    0    0 -0.65216968900E+00  0.53607890920E+00  0.82473309242E+00  0.11802078520E+01  0.00000000000E+00 0. -1.
         11    1    3    3    0    0 -0.23719725913E+02  0.19165811795E+02  0.29188048355E+02  0.42212508882E+02  0.51100000000E-03 0. -1.
        -11    1    3    3    0    0  0.40463113520E-01  0.19408377753E+01 -0.86126928602E+01  0.88287579590E+01  0.51100000000E-03 0.  1.
        -12    1    3    3    0    0  0.24331432488E+02 -0.21642728479E+02 -0.21400088587E+02  0.38966525307E+02  0.00000000000E+00 0.  1.
</event>
<event>
 7    1  0.2468912E-015  0.9000762E+02  0.7816164E-02  0.1186339E+00
        -11   -1    0    0    0    0  0.00000000000E+00  0.00000000000E+00  0.45593999997E+02  0.45594000000E+02  0.51100000000E-03 0. -1.
         11   -1    0    0    0    0 -0.00000000000E+00 -0.00000000000E+00 -0.45593999997E+02  0.45594000000E+02  0.51100000000E-03 0.  1.
    9900012    2    1    2    0    0 -0.14266129993E+00  0.74117869224E+00 -0.90752538617E+00  0.90007618525E+02  0.89999878289E+02 0.  0.
         12    1    1    2    0    0  0.14266129993E+00 -0.74117869224E+00  0.90752538617E+00  0.11803814751E+01  0.00000000000E+00 0. -1.
         11    1    3    3    0    0  0.57880057615E+01  0.60847896906E+01  0.45048276342E+01  0.95299081082E+01  0.51100000000E-03 0. -1.
        -11    1    3    3    0    0 -0.28308048635E+02  0.16917895194E+02 -0.26678012647E+02  0.42417887198E+02  0.51100000000E-03 0.  1.
         12    1    3    3    0    0  0.22377381573E+02 -0.22261506193E+02  0.21265659627E+02  0.38059823218E+02  0.00000000000E+00 0. -1.
</event>
<event>
 7    1  0.2468912E-015  0.9000773E+02  0.7816164E-02  0.1186339E+00
        -11   -1    0    0    0    0  0.00000000000E+00  0.00000000000E+00  0.45593999997E+02  0.45594000000E+02  0.51100000000E-03 0. -1.
         11   -1    0    0    0    0 -0.00000000000E+00 -0.00000000000E+00 -0.45593999997E+02  0.45594000000E+02  0.51100000000E-03 0.  1.
    9900012    2    1    2    0    0  0.99493083580E+00 -0.14500703709E+00 -0.61816607971E+00  0.90007727273E+02  0.89999988473E+02 0.  0.
         12    1    1    2    0    0 -0.99493083580E+00  0.14500703709E+00  0.61816607971E+00  0.11802727274E+01  0.00000000000E+00 0. -1.
         11    1    3    3    0    0  0.69878114135E+01  0.21333593912E+02  0.27875765861E+02  0.35791200876E+02  0.51100000000E-03 0. -1.
        -11    1    3    3    0    0  0.73469233708E+01  0.10905000307E+01  0.69220291022E+01  0.10152879418E+02  0.51100000000E-03 0.  1.
        -12    1    3    3    0    0 -0.13339803949E+02 -0.22569100980E+02 -0.35415961043E+02  0.44063646978E+02  0.00000000000E+00 0.  1.
</event>
<event>
 7    1  0.2468912E-015  0.9000779E+02  0.7816164E-02  0.1186339E+00
        -11   -1    0    0    0    0  0.00000000000E+00  0.00000000000E+00  0.45593999997E+02  0.45594000000E+02  0.51100000000E-03 0. -1.
         11   -1    0    0    0    0 -0.00000000000E+00 -0.00000000000E+00 -0.45593999997E+02  0.45594000000E+02  0.51100000000E-03 0.  1.
    9900012    2    1    2    0    0 -0.11248266370E+00 -0.11673655216E+01 -0.13227915620E+00  0.90007791380E+02  0.90000053427E+02 0.  0.
         12    1    1    2    0    0  0.11248266370E+00  0.11673655216E+01  0.13227915620E+00  0.11802086196E+01  0.00000000000E+00 0. -1.
         11    1    3    3    0    0 -0.90981406982E+01 -0.32382819611E+01 -0.41545269282E+01  0.10512979049E+02  0.51100000000E-03 0. -1.
        -11    1    3    3    0    0  0.42761942454E+02  0.99934249181E+01 -0.32984595167E+01  0.44037848488E+02  0.51100000000E-03 0.  1.
         12    1    3    3    0    0 -0.33776284419E+02 -0.79225084785E+01  0.73207072886E+01  0.35456963843E+02  0.00000000000E+00 0. -1.
</event>
<event>
 7    1  0.2468912E-015  0.9000773E+02  0.7816164E-02  0.1186339E+00
        -11   -1    0    0    0    0  0.00000000000E+00  0.00000000000E+00  0.45593999997E+02  0.45594000000E+02  0.51100000000E-03 0.  1.
         11   -1    0    0    0    0 -0.00000000000E+00 -0.00000000000E+00 -0.45593999997E+02  0.45594000000E+02  0.51100000000E-03 0. -1.
    9900012    2    1    2    0    0  0.96713551934E+00 -0.36632096887E+00  0.56875789229E+00  0.90007734053E+02  0.89999995343E+02 0.  0.
         12    1    1    2    0    0 -0.96713551934E+00  0.36632096887E+00 -0.56875789229E+00  0.11802659467E+01  0.00000000000E+00 0. -1.
         11    1    3    3    0    0  0.28946769959E+01 -0.26494574688E+01  0.89951103527E+01  0.98138061071E+01  0.51100000000E-03 0. -1.
        -11    1    3    3    0    0 -0.99555560807E+00  0.12289270151E+02  0.34223184690E+02  0.36376416294E+02  0.51100000000E-03 0.  1.
         12    1    3    3    0    0 -0.93198586846E+00 -0.10006133651E+02 -0.42649537150E+02  0.43817511652E+02  0.00000000000E+00 0. -1.
</event>
<event>
 7    1  0.2468912E-015  0.9000799E+02  0.7816164E-02  0.1186339E+00
        -11   -1    0    0    0    0  0.00000000000E+00  0.00000000000E+00  0.45593999997E+02  0.45594000000E+02  0.51100000000E-03 0.  1.
         11   -1    0    0    0    0 -0.00000000000E+00 -0.00000000000E+00 -0.45593999997E+02  0.45594000000E+02  0.51100000000E-03 0. -1.
    9900012    2    1    2    0    0 -0.38680088887E+00 -0.11074472728E+01 -0.12798416857E+00  0.90007985451E+02  0.90000250058E+02 0.  0.
         12    1    1    2    0    0  0.38680088887E+00  0.11074472728E+01  0.12798416857E+00  0.11800145495E+01  0.00000000000E+00 0. -1.
         11    1    3    3    0    0  0.15004493247E+01 -0.18166148156E+02 -0.35569789208E+02  0.39968364885E+02  0.51100000000E-03 0. -1.
        -11    1    3    3    0    0 -0.93597555669E+01 -0.48376087136E+01  0.46300916057E+01  0.11508485169E+02  0.51100000000E-03 0.  1.
        -12    1    3    3    0    0  0.74725053534E+01  0.21896309597E+02  0.30811713434E+02  0.38531135397E+02  0.00000000000E+00 0.  1.
</event>
<event>
 7    1  0.2468912E-015  0.9000759E+02  0.7816164E-02  0.1186339E+00
        -11   -1    0    0    0    0  0.00000000000E+00  0.00000000000E+00  0.45593999997E+02  0.45594000000E+02  0.51100000000E-03 0.  1.
         11   -1    0    0    0    0 -0.00000000000E+00 -0.00000000000E+00 -0.45593999997E+02  0.45594000000E+02  0.51100000000E-03 0. -1.
    9900012    2    1    2    0    0  0.11289630949E+01  0.34319429917E+00  0.32005365213E-01  0.90007591452E+02  0.89999850859E+02 0.  0.
         12    1    1    2    0    0 -0.11289630949E+01 -0.34319429917E+00 -0.32005365213E-01  0.11804085480E+01  0.00000000000E+00 0. -1.
         11    1    3    3    0    0  0.24174849901E+00 -0.64507080889E+01  0.82657716662E+01  0.10487757562E+02  0.51100000000E-03 0. -1.
        -11    1    3    3    0    0 -0.61483242154E+01  0.24358775889E+02  0.28626259901E+02  0.38086934895E+02  0.51100000000E-03 0.  1.
         12    1    3    3    0    0  0.70355388113E+01 -0.17564873501E+02 -0.36860026202E+02  0.41432898995E+02  0.00000000000E+00 0. -1.
</event>
<event>
 7    1  0.2468912E-015  0.9000772E+02  0.7816164E-02  0.1186339E+00
        -11   -1    0    0    0    0  0.00000000000E+00  0.00000000000E+00  0.45593999997E+02  0.45594000000E+02  0.51100000000E-03 0. -1.
         11   -1    0    0    0    0 -0.00000000000E+00 -0.00000000000E+00 -0.45593999997E+02  0.45594000000E+02  0.51100000000E-03 0.  1.
    9900012    2    1    2    0    0  0.33718613849E+00  0.37251295657E+00 -0.10679849295E+01  0.90007723675E+02  0.89999984827E+02 0.  0.
         12    1    1    2    0    0 -0.33718613849E+00 -0.37251295657E+00  0.10679849295E+01  0.11802763254E+01  0.00000000000E+00 0. -1.
         11    1    3    3    0    0  0.31704325623E+02 -0.26838011558E+02  0.18973050631E+01  0.41581761559E+02  0.51100000000E-03 0. -1.
        -11    1    3    3    0    0 -0.78404141919E+01 -0.22210651081E+01  0.54693134721E+01  0.98142047580E+01  0.51100000000E-03 0.  1.
        -12    1    3    3    0    0 -0.23526725292E+02  0.29431589622E+02 -0.84346034646E+01  0.38611757358E+02  0.00000000000E+00 0.  1.
</event>
<event>
 7    1  0.2468912E-015  0.9000771E+02  0.7816164E-02  0.1186339E+00
        -11   -1    0    0    0    0  0.00000000000E+00  0.00000000000E+00  0.45593999997E+02  0.45594000000E+02  0.51100000000E-03 0.  1.
         11   -1    0    0    0    0 -0.00000000000E+00 -0.00000000000E+00 -0.45593999997E+02  0.45594000000E+02  0.51100000000E-03 0. -1.
    9900012    2    1    2    0    0  0.98601201296E+00 -0.27465002573E+00  0.58774211148E+00  0.90007706343E+02  0.89999967267E+02 0.  0.
         12    1    1    2    0    0 -0.98601201296E+00  0.27465002573E+00 -0.58774211148E+00  0.11802936567E+01  0.00000000000E+00 0. -1.
         11    1    3    3    0    0  0.89244904381E+01 -0.57540784855E+01 -0.35948780732E+01  0.11210668910E+02  0.51100000000E-03 0. -1.
        -11    1    3    3    0    0 -0.13296553531E+01  0.30317607531E+02  0.29783300043E+02  0.42520233671E+02  0.51100000000E-03 0.  1.
         12    1    3    3    0    0 -0.66088230721E+01 -0.24838179071E+02 -0.25600679858E+02  0.36276803762E+02  0.00000000000E+00 0. -1.
</event>
<event>
 7    1  0.2468912E-015  0.9000779E+02  0.7816164E-02  0.1186339E+00
        -11   -1    0    0    0    0  0.00000000000E+00  0.00000000000E+00  0.45593999997E+02  0.45594000000E+02  0.51100000000E-03 0.  1.
         11   -1    0    0    0    0 -0.00000000000E+00 -0.00000000000E+00 -0.45593999997E+02  0.45594000000E+02  0.51100000000E-03 0. -1.
    9900012    2    1    2    0    0  0.47224893243E+00 -0.10166003778E+01  0.36932087354E+00  0.90007790997E+02  0.90000053038E+02 0.  0.
         12    1    1    2    0    0 -0.47224893243E+00  0.10166003778E+01 -0.36932087354E+00  0.11802090027E+01  0.00000000000E+00 0. -1.
         11    1    3    3    0    0 -0.14988391563E+02 -0.10556265796E+02 -0.30446735822E+02  0.35539982438E+02  0.51100000000E-03 0. -1.
        -11    1    3    3    0    0  0.14925360696E+01 -0.47103781319E+01 -0.88100783184E+01  0.10101128962E+02  0.51100000000E-03 0.  1.
        -12    1    3    3    0    0  0.13968104426E+02  0.14250043550E+02  0.39626135014E+02  0.44366679598E+02  0.00000000000E+00 0.  1.
</event>
<event>
 7    1  0.2468912E-015  0.9000759E+02  0.7816164E-02  0.1186339E+00
        -11   -1    0    0    0    0  0.00000000000E+00  0.00000000000E+00  0.45593999997E+02  0.45594000000E+02  0.51100000000E-03 0.  1.
         11   -1    0    0    0    0 -0.00000000000E+00 -0.00000000000E+00 -0.45593999997E+02  0.45594000000E+02  0.51100000000E-03 0. -1.
    9900012    2    1    2    0    0 -0.94312550082E+00  0.12011476310E-01  0.70974194864E+00  0.90007591757E+02  0.89999851168E+02 0.  0.
         12    1    1    2    0    0  0.94312550082E+00 -0.12011476310E-01 -0.70974194864E+00  0.11804082427E+01  0.00000000000E+00 0. -1.
         11    1    3    3    0    0  0.52736718590E+00  0.77038238789E+01 -0.37037142821E+02  0.37833542883E+02  0.51100000000E-03 0. -1.
        -11    1    3    3    0    0 -0.63032370820E+01 -0.10406632630E+02 -0.17483907877E+01  0.12291691138E+02  0.51100000000E-03 0.  1.
        -12    1    3    3    0    0  0.48327443953E+01  0.27148202279E+01  0.39495275557E+02  0.39882357736E+02  0.00000000000E+00 0.  1.
</event>
<event>
 7    1  0.2468912E-015  0.9000775E+02  0.7816164E-02  0.1186339E+00
        -11   -1    0    0    0    0  0.00000000000E+00  0.00000000000E+00  0.45593999997E+02  0.45594000000E+02  0.51100000000E-03 0. -1.
         11   -1    0    0    0    0 -0.00000000000E+00 -0.00000000000E+00 -0.45593999997E+02  0.45594000000E+02  0.51100000000E-03 0.  1.
    9900012    2    1    2    0    0  0.82178339314E+00 -0.84482182159E+00 -0.62696734589E-01  0.90007753104E+02  0.90000014645E+02 0.  0.
         12    1    1    2    0    0 -0.82178339314E+00  0.84482182159E+00  0.62696734589E-01  0.11802468962E+01  0.00000000000E+00 0. -1.
         11    1    3    3    0    0  0.52057074357E+01  0.10027892175E+02 -0.80580522750E+00  0.11327282715E+02  0.51100000000E-03 0. -1.
        -11    1    3    3    0    0 -0.27328007899E+02  0.41244402529E+01 -0.27734714954E+02  0.39154124138E+02  0.51100000000E-03 0.  1.
         12    1    3    3    0    0  0.22944083857E+02 -0.14997154250E+02  0.28477823447E+02  0.39526346251E+02  0.00000000000E+00 0. -1.
</event>
<event>
 7    1  0.3302563E-015  0.9000793E+02  0.7816164E-02  0.1186339E+00
        -11   -1    0    0    0    0  0.00000000000E+00  0.00000000000E+00  0.45593999997E+02  0.45594000000E+02  0.51100000000E-03 0. -1.
         11   -1    0    0    0    0 -0.00000000000E+00 -0.00000000000E+00 -0.45593999997E+02  0.45594000000E+02  0.51100000000E-03 0.  1.
    9900012    2    1    2    0    0 -0.56614891985E+00  0.21193098898E+00 -0.10134777442E+01  0.90007925222E+02  0.90000189035E+02 0.  0.
         12    1    1    2    0    0  0.56614891985E+00 -0.21193098898E+00  0.10134777442E+01  0.11800747779E+01  0.00000000000E+00 0. -1.
         11    1    3    3    0    0 -0.25593149749E+02  0.18934031199E+02  0.21949764285E+02  0.38669096239E+02  0.51100000000E-03 0. -1.
        -11    1    3    3    0    0 -0.83671843190E+01 -0.22135156706E+01 -0.47515741305E+01  0.98735445525E+01  0.51100000000E-03 0.  1.
        -12    1    3    3    0    0  0.33394185148E+02 -0.16508584540E+02 -0.18211667899E+02  0.41465284430E+02  0.00000000000E+00 0.  1.
</event>
<event>
 7    1  0.2468912E-015  0.9000771E+02  0.7816164E-02  0.1186339E+00
        -11   -1    0    0    0    0  0.00000000000E+00  0.00000000000E+00  0.45593999997E+02  0.45594000000E+02  0.51100000000E-03 0.  1.
         11   -1    0    0    0    0 -0.00000000000E+00 -0.00000000000E+00 -0.45593999997E+02  0.45594000000E+02  0.51100000000E-03 0. -1.
    9900012    2    1    2    0    0 -0.19830832925E+00  0.44904898842E+00  0.10733664226E+01  0.90007709076E+02  0.89999970036E+02 0.  0.
         12    1    1    2    0    0  0.19830832925E+00 -0.44904898842E+00 -0.10733664226E+01  0.11802909237E+01  0.00000000000E+00 0. -1.
         11    1    3    3    0    0 -0.27991157425E+02 -0.22853217137E+02 -0.71480872055E+01  0.36835710641E+02  0.51100000000E-03 0. -1.
        -11    1    3    3    0    0 -0.93103178143E+01  0.14358106983E+01  0.23243772036E+01  0.97029016181E+01  0.51100000000E-03 0.  1.
        -12    1    3    3    0    0  0.37103166910E+02  0.21866455427E+02  0.58970764244E+01  0.43469096817E+02  0.00000000000E+00 0.  1.
</event>
<event>
 7    1  0.2468912E-015  0.9000748E+02  0.7816164E-02  0.1186340E+00
        -11   -1    0    0    0    0  0.00000000000E+00  0.00000000000E+00  0.45593999997E+02  0.45594000000E+02  0.51100000000E-03 0.  1.
         11   -1    0    0    0    0 -0.00000000000E+00 -0.00000000000E+00 -0.45593999997E+02  0.45594000000E+02  0.51100000000E-03 0. -1.
    9900012    2    1    2    0    0 -0.63377946494E+00 -0.30059748054E+00  0.94951635474E+00  0.90007484620E+02  0.89999742616E+02 0.  0.
         12    1    1    2    0    0  0.63377946494E+00  0.30059748054E+00 -0.94951635474E+00  0.11805153804E+01  0.00000000000E+00 0. -1.
         11    1    3    3    0    0 -0.17805024753E+02 -0.19322411207E+02  0.15866256131E+02  0.30693852238E+02  0.51100000000E-03 0. -1.
        -11    1    3    3    0    0 -0.13774259023E+02  0.21574548070E+02 -0.19712734053E+01  0.25672499979E+02  0.51100000000E-03 0.  1.
         12    1    3    3    0    0  0.30945504312E+02 -0.25527343431E+01 -0.12945466371E+02  0.33641132402E+02  0.00000000000E+00 0. -1.
</event>
<event>
 7    1  0.2468912E-015  0.9000776E+02  0.7816164E-02  0.1186339E+00
        -11   -1    0    0    0    0  0.00000000000E+00  0.00000000000E+00  0.45593999997E+02  0.45594000000E+02  0.51100000000E-03 0.  1.
         11   -1    0    0    0    0 -0.00000000000E+00 -0.00000000000E+00 -0.45593999997E+02  0.45594000000E+02  0.51100000000E-03 0. -1.
    9900012    2    1    2    0    0  0.17701397254E+00 -0.11107750044E+01  0.35749261321E+00  0.90007764420E+02  0.90000026110E+02 0.  0.
         12    1    1    2    0    0 -0.17701397254E+00  0.11107750044E+01 -0.35749261321E+00  0.11802355805E+01  0.00000000000E+00 0. -1.
         11    1    3    3    0    0 -0.14259434862E+02  0.23896591650E+02 -0.30063525846E+02  0.40965768168E+02  0.51100000000E-03 0. -1.
        -11    1    3    3    0    0 -0.72548680266E+01 -0.40684796092E+01  0.65880213341E+01  0.10610733329E+02  0.51100000000E-03 0.  1.
        -12    1    3    3    0    0  0.21691316862E+02 -0.20938887045E+02  0.23832997125E+02  0.38431262923E+02  0.00000000000E+00 0.  1.
</event>
<event>
 7    1  0.2468912E-015  0.9000798E+02  0.7816164E-02  0.1186339E+00
        -11   -1    0    0    0    0  0.00000000000E+00  0.00000000000E+00  0.45593999997E+02  0.45594000000E+02  0.51100000000E-03 0.  1.
         11   -1    0    0    0    0 -0.00000000000E+00 -0.00000000000E+00 -0.45593999997E+02  0.45594000000E+02  0.51100000000E-03 0. -1.
    9900012    2    1    2    0    0 -0.42974682971E+00 -0.16418902171E+00  0.10866462123E+01  0.90007982897E+02  0.90000247471E+02 0.  0.
         12    1    1    2    0    0  0.42974682971E+00  0.16418902171E+00 -0.10866462123E+01  0.11800171029E+01  0.00000000000E+00 0. -1.
         11    1    3    3    0    0 -0.96343667115E+01 -0.16719102050E+01 -0.72639879379E+01  0.12181207932E+02  0.51100000000E-03 0. -1.
        -11    1    3    3    0    0 -0.31450913857E+02  0.89809468259E+01 -0.74971886169E+01  0.33556299346E+02  0.51100000000E-03 0.  1.
         12    1    3    3    0    0  0.40655533739E+02 -0.74732256427E+01  0.15847822767E+02  0.44270475619E+02  0.00000000000E+00 0. -1.
</event>
<event>
 7    1  0.2468912E-015  0.9000772E+02  0.7816164E-02  0.1186339E+00
        -11   -1    0    0    0    0  0.00000000000E+00  0.00000000000E+00  0.45593999997E+02  0.45594000000E+02  0.51100000000E-03 0.  1.
         11   -1    0    0    0    0 -0.00000000000E+00 -0.00000000000E+00 -0.45593999997E+02  0.45594000000E+02  0.51100000000E-03 0. -1.
    9900012    2    1    2    0    0  0.58883381519E+00  0.98340076824E+00 -0.28154439919E+00  0.90007716313E+02  0.89999977368E+02 0.  0.
         12    1    1    2    0    0 -0.58883381519E+00 -0.98340076824E+00  0.28154439919E+00  0.11802836869E+01  0.00000000000E+00 0. -1.
         11    1    3    3    0    0 -0.10982834107E+02  0.18556328090E+02 -0.29983363369E+02  0.36931856661E+02  0.51100000000E-03 0. -1.
        -11    1    3    3    0    0 -0.10220406507E+01  0.91284567063E+01 -0.23686189942E+01  0.94859709641E+01  0.51100000000E-03 0.  1.
        -12    1    3    3    0    0  0.12593708573E+02 -0.26701384028E+02  0.32070437964E+02  0.43589888688E+02  0.00000000000E+00 0.  1.
</event>
<event>
 7    1  0.2468912E-015  0.9000765E+02  0.7816164E-02  0.1186339E+00
        -11   -1    0    0    0    0  0.00000000000E+00  0.00000000000E+00  0.45593999997E+02  0.45594000000E+02  0.51100000000E-03 0.  1.
         11   -1    0    0    0    0 -0.00000000000E+00 -0.00000000000E+00 -0.45593999997E+02  0.45594000000E+02  0.51100000000E-03 0. -1.
    9900012    2    1    2    0    0  0.34279438220E+00  0.94526382970E+00 -0.61821423290E+00  0.90007652367E+02  0.89999912579E+02 0.  0.
         12    1    1    2    0    0 -0.34279438220E+00 -0.94526382970E+00  0.61821423290E+00  0.11803476327E+01  0.00000000000E+00 0. -1.
         11    1    3    3    0    0  0.14758765061E+02 -0.23462824818E+02 -0.21833002506E+02  0.35284632537E+02  0.51100000000E-03 0. -1.
        -11    1    3    3    0    0  0.38619869102E+01 -0.33768976861E+01 -0.86285333807E+01  0.10038424649E+02  0.51100000000E-03 0.  1.
        -12    1    3    3    0    0 -0.18277957589E+02  0.27784986334E+02  0.29843321653E+02  0.44684595181E+02  0.00000000000E+00 0.  1.
</event>
<event>
 7    1  0.2468912E-015  0.9000805E+02  0.7816164E-02  0.1186338E+00
        -11   -1    0    0    0    0  0.00000000000E+00  0.00000000000E+00  0.45593999997E+02  0.45594000000E+02  0.51100000000E-03 0.  1.
         11   -1    0    0    0    0 -0.00000000000E+00 -0.00000000000E+00 -0.45593999997E+02  0.45594000000E+02  0.51100000000E-03 0. -1.
    9900012    2    1    2    0    0  0.13620658495E+00 -0.10450280711E+01  0.53069984302E+00  0.90008051600E+02  0.90000317081E+02 0.  0.
         12    1    1    2    0    0 -0.13620658495E+00  0.10450280711E+01 -0.53069984302E+00  0.11799484000E+01  0.00000000000E+00 0. -1.
         11    1    3    3    0    0 -0.34507321817E+01  0.75179172709E+01  0.29128434455E+01  0.87699082026E+01  0.51100000000E-03 0. -1.
        -11    1    3    3    0    0 -0.14584722692E+02 -0.35409690544E+02  0.18649212020E+02  0.42595227780E+02  0.51100000000E-03 0.  1.
         12    1    3    3    0    0  0.18171661459E+02  0.26846745202E+02 -0.21031355622E+02  0.38642915617E+02  0.00000000000E+00 0. -1.
</event>
<event>
 7    1  0.2468912E-015  0.9000773E+02  0.7816164E-02  0.1186339E+00
        -11   -1    0    0    0    0  0.00000000000E+00  0.00000000000E+00  0.45593999997E+02  0.45594000000E+02  0.51100000000E-03 0. -1.
         11   -1    0    0    0    0 -0.00000000000E+00 -0.00000000000E+00 -0.45593999997E+02  0.45594000000E+02  0.51100000000E-03 0.  1.
    9900012    2    1    2    0    0 -0.26365583564E+00  0.66945773701E+00 -0.93560615445E+00  0.90007725906E+02  0.89999987088E+02 0.  0.
         12    1    1    2    0    0  0.26365583564E+00 -0.66945773701E+00  0.93560615445E+00  0.11802740942E+01  0.00000000000E+00 0. -1.
         11    1    3    3    0    0 -0.44735554378E+01 -0.42384417139E+01  0.74511176101E+01  0.96693453924E+01  0.51100000000E-03 0. -1.
        -11    1    3    3    0    0 -0.35239013683E+02 -0.11583520923E+02 -0.52870729475E+01  0.37468909551E+02  0.51100000000E-03 0.  1.
         12    1    3    3    0    0  0.39448913286E+02  0.16491420374E+02 -0.30996508171E+01  0.42869470962E+02  0.00000000000E+00 0. -1.
</event>
<event>
 7    1  0.2468912E-015  0.9000776E+02  0.7816164E-02  0.1186339E+00
        -11   -1    0    0    0    0  0.00000000000E+00  0.00000000000E+00  0.45593999997E+02  0.45594000000E+02  0.51100000000E-03 0.  1.
         11   -1    0    0    0    0 -0.00000000000E+00 -0.00000000000E+00 -0.45593999997E+02  0.45594000000E+02  0.51100000000E-03 0. -1.
    9900012    2    1    2    0    0  0.50352056100E+00 -0.41448479051E+00  0.98368304759E+00  0.90007761492E+02  0.90000023144E+02 0.  0.
         12    1    1    2    0    0 -0.50352056100E+00  0.41448479051E+00 -0.98368304759E+00  0.11802385077E+01  0.00000000000E+00 0. -1.
         11    1    3    3    0    0  0.10057085939E+02 -0.14455012938E+02 -0.33165174449E+02  0.37550248642E+02  0.51100000000E-03 0. -1.
        -11    1    3    3    0    0  0.62272430722E+01 -0.11119067867E+01 -0.46941255408E+01  0.78771636924E+01  0.51100000000E-03 0.  1.
        -12    1    3    3    0    0 -0.15780808450E+02  0.15152434935E+02  0.38842983037E+02  0.44580349158E+02  0.00000000000E+00 0.  1.
</event>
<event>
 7    1  0.2468912E-015  0.9000776E+02  0.7816164E-02  0.1186339E+00
        -11   -1    0    0    0    0  0.00000000000E+00  0.00000000000E+00  0.45593999997E+02  0.45594000000E+02  0.51100000000E-03 0. -1.
         11   -1    0    0    0    0 -0.00000000000E+00 -0.00000000000E+00 -0.45593999997E+02  0.45594000000E+02  0.51100000000E-03 0.  1.
    9900012    2    1    2    0    0 -0.67520204762E+00  0.31973566780E+00 -0.91369954161E+00  0.90007756146E+02  0.90000017727E+02 0.  0.
         12    1    1    2    0    0  0.67520204762E+00 -0.31973566780E+00  0.91369954161E+00  0.11802438539E+01  0.00000000000E+00 0. -1.
         11    1    3    3    0    0 -0.21750159616E+02  0.40283722841E+01  0.26515163650E+02  0.34530437736E+02  0.51100000000E-03 0. -1.
        -11    1    3    3    0    0 -0.68195635233E+01 -0.88834790930E+01  0.51076334892E+01  0.12308962896E+02  0.51100000000E-03 0.  1.
        -12    1    3    3    0    0  0.27894521091E+02  0.51748424767E+01 -0.32536496681E+02  0.43168355515E+02  0.00000000000E+00 0.  1.
</event>
<event>
 7    1  0.2468912E-015  0.9000778E+02  0.7816164E-02  0.1186339E+00
        -11   -1    0    0    0    0  0.00000000000E+00  0.00000000000E+00  0.45593999997E+02  0.45594000000E+02  0.51100000000E-03 0. -1.
         11   -1    0    0    0    0 -0.00000000000E+00 -0.00000000000E+00 -0.45593999997E+02  0.45594000000E+02  0.51100000000E-03 0.  1.
    9900012    2    1    2    0    0  0.82164607351E+00  0.77638136582E+00 -0.33918491154E+00  0.90007781080E+02  0.90000042990E+02 0.  0.
         12    1    1    2    0    0 -0.82164607351E+00 -0.77638136582E+00  0.33918491154E+00  0.11802189202E+01  0.00000000000E+00 0. -1.
         11    1    3    3    0    0 -0.18231082596E+02 -0.32986436887E+02  0.66866652431E+01  0.38277785770E+02  0.51100000000E-03 0. -1.
        -11    1    3    3    0    0  0.63015303529E+01 -0.63926305414E+01 -0.27186359178E+01  0.93790186876E+01  0.51100000000E-03 0.  1.
        -12    1    3    3    0    0  0.12751198317E+02  0.40155448794E+02 -0.43072142369E+01  0.42350976622E+02  0.00000000000E+00 0.  1.
</event>
<event>
 7    1  0.2468912E-015  0.9000783E+02  0.7816164E-02  0.1186339E+00
        -11   -1    0    0    0    0  0.00000000000E+00  0.00000000000E+00  0.45593999997E+02  0.45594000000E+02  0.51100000000E-03 0. -1.
         11   -1    0    0    0    0 -0.00000000000E+00 -0.00000000000E+00 -0.45593999997E+02  0.45594000000E+02  0.51100000000E-03 0.  1.
    9900012    2    1    2    0    0  0.10103638446E+01 -0.51571774808E+00 -0.32556498634E+00  0.90007833717E+02  0.90000096322E+02 0.  0.
         12    1    1    2    0    0 -0.10103638446E+01  0.51571774808E+00  0.32556498634E+00  0.11801662826E+01  0.00000000000E+00 0. -1.
         11    1    3    3    0    0 -0.58749745988E+00  0.33054386901E+02  0.18472681215E+02  0.37870537337E+02  0.51100000000E-03 0. -1.
        -11    1    3    3    0    0  0.79631977197E+01  0.43445967848E+01  0.56933091348E+00  0.90891241105E+01  0.51100000000E-03 0.  1.
        -12    1    3    3    0    0 -0.63653364152E+01 -0.37914701434E+02 -0.19367577114E+02  0.43048172270E+02  0.00000000000E+00 0.  1.
</event>
<event>
 7    1  0.2641885E-015  0.9000780E+02  0.7816164E-02  0.1186339E+00
        -11   -1    0    0    0    0  0.00000000000E+00  0.00000000000E+00  0.45593999997E+02  0.45594000000E+02  0.51100000000E-03 0.  1.
         11   -1    0    0    0    0 -0.00000000000E+00 -0.00000000000E+00 -0.45593999997E+02  0.45594000000E+02  0.51100000000E-03 0. -1.
    9900012    2    1    2    0    0  0.54514670489E+00 -0.10178207233E+01  0.24437805714E+00  0.90007803156E+02  0.90000065358E+02 0.  0.
         12    1    1    2    0    0 -0.54514670489E+00  0.10178207233E+01 -0.24437805714E+00  0.11801968435E+01  0.00000000000E+00 0. -1.
         11    1    3    3    0    0  0.35373154516E+02 -0.92965057033E+01  0.48159318691E+01  0.36890083746E+02  0.51100000000E-03 0. -1.
        -11    1    3    3    0    0  0.47581682172E+01 -0.34936402951E+01  0.80046041758E+01  0.99458220156E+01  0.51100000000E-03 0.  1.
        -12    1    3    3    0    0 -0.39586176029E+02  0.11772325275E+02 -0.12576157988E+02  0.43171897395E+02  0.00000000000E+00 0.  1.
</event>
<event>
 7    1  0.2468912E-015  0.9000765E+02  0.7816164E-02  0.1186339E+00
        -11   -1    0    0    0    0  0.00000000000E+00  0.00000000000E+00  0.45593999997E+02  0.45594000000E+02  0.51100000000E-03 0.  1.
         11   -1    0    0    0    0 -0.00000000000E+00 -0.00000000000E+00 -0.45593999997E+02  0.45594000000E+02  0.51100000000E-03 0. -1.
    9900012    2    1    2    0    0 -0.65004936927E+00  0.15086454832E+00  0.97360647424E+00  0.90007646722E+02  0.89999906859E+02 0.  0.
         12    1    1    2    0    0  0.65004936927E+00 -0.15086454832E+00 -0.97360647424E+00  0.11803532781E+01  0.00000000000E+00 0. -1.
         11    1    3    3    0    0 -0.24895440887E+02  0.14986172829E+02 -0.10329839086E+02  0.30839486520E+02  0.51100000000E-03 0. -1.
        -11    1    3    3    0    0 -0.91175618329E+01  0.12037470096E+02  0.47503141193E+01  0.15830227559E+02  0.51100000000E-03 0.  1.
        -12    1    3    3    0    0  0.33362953351E+02 -0.26872778377E+02  0.65531314407E+01  0.43337932642E+02  0.00000000000E+00 0.  1.
</event>
<event>
 7    1  0.2468912E-015  0.9000762E+02  0.7816164E-02  0.1186339E+00
        -11   -1    0    0    0    0  0.00000000000E+00  0.00000000000E+00  0.45593999997E+02  0.45594000000E+02  0.51100000000E-03 0. -1.
         11   -1    0    0    0    0 -0.00000000000E+00 -0.00000000000E+00 -0.45593999997E+02  0.45594000000E+02  0.51100000000E-03 0.  1.
    9900012    2    1    2    0    0 -0.93367431865E+00 -0.10746583655E+00 -0.71415061868E+00  0.90007615425E+02  0.89999875148E+02 0.  0.
         12    1    1    2    0    0  0.93367431865E+00  0.10746583655E+00  0.71415061868E+00  0.11803845753E+01  0.00000000000E+00 0. -1.
         11    1    3    3    0    0  0.43715307545E+01 -0.27683135455E+02  0.15325356660E+02  0.31942649025E+02  0.51100000000E-03 0. -1.
        -11    1    3    3    0    0 -0.18074687482E+02 -0.10610656218E+01  0.67286097121E+01  0.19315651083E+02  0.51100000000E-03 0.  1.
         12    1    3    3    0    0  0.12769482409E+02  0.28636735240E+02 -0.22768116991E+02  0.38749315317E+02  0.00000000000E+00 0. -1.
</event>
<event>
 7    1  0.2848552E-015  0.9000767E+02  0.7816164E-02  0.1186339E+00
        -11   -1    0    0    0    0  0.00000000000E+00  0.00000000000E+00  0.45593999997E+02  0.45594000000E+02  0.51100000000E-03 0.  1.
         11   -1    0    0    0    0 -0.00000000000E+00 -0.00000000000E+00 -0.45593999997E+02  0.45594000000E+02  0.51100000000E-03 0. -1.
    9900012    2    1    2    0    0  0.13605037802E+00 -0.78894394584E+00  0.86731505579E+00  0.90007670529E+02  0.89999930980E+02 0.  0.
         12    1    1    2    0    0 -0.13605037802E+00  0.78894394584E+00 -0.86731505579E+00  0.11803294714E+01  0.00000000000E+00 0. -1.
         11    1    3    3    0    0  0.20249362210E+02 -0.27864329388E+01 -0.29950950099E+02  0.36261002337E+02  0.51100000000E-03 0. -1.
        -11    1    3    3    0    0  0.85340135864E+01 -0.51889919147E+01 -0.13472502599E+01  0.10078199666E+02  0.51100000000E-03 0.  1.
        -12    1    3    3    0    0 -0.28647325418E+02  0.71864809077E+01  0.32165515415E+02  0.43668468525E+02  0.00000000000E+00 0.  1.
</event>
<event>
 7    1  0.2468912E-015  0.9000775E+02  0.7816164E-02  0.1186339E+00
        -11   -1    0    0    0    0  0.00000000000E+00  0.00000000000E+00  0.45593999997E+02  0.45594000000E+02  0.51100000000E-03 0. -1.
         11   -1    0    0    0    0 -0.00000000000E+00 -0.00000000000E+00 -0.45593999997E+02  0.45594000000E+02  0.51100000000E-03 0.  1.
    9900012    2    1    2    0    0 -0.51720800740E+00 -0.60403795462E+00 -0.87213914331E+00  0.90007748900E+02  0.90000010386E+02 0.  0.
         12    1    1    2    0    0  0.51720800740E+00  0.60403795462E+00  0.87213914331E+00  0.11802510999E+01  0.00000000000E+00 0. -1.
         11    1    3    3    0    0  0.57183437698E+01  0.33645499395E+01  0.10398301310E+02  0.12334679653E+02  0.51100000000E-03 0. -1.
        -11    1    3    3    0    0  0.29362904888E+02  0.14492435544E+02 -0.17441995904E+02  0.37100324700E+02  0.51100000000E-03 0.  1.
         12    1    3    3    0    0 -0.35598456666E+02 -0.18461023438E+02  0.61715554515E+01  0.40572744546E+02  0.00000000000E+00 0. -1.
</event>
<event>
 7    1  0.2468912E-015  0.9000768E+02  0.7816164E-02  0.1186339E+00
        -11   -1    0    0    0    0  0.00000000000E+00  0.00000000000E+00  0.45593999997E+02  0.45594000000E+02  0.51100000000E-03 0.  1.
         11   -1    0    0    0    0 -0.00000000000E+00 -0.00000000000E+00 -0.45593999997E+02  0.45594000000E+02  0.51100000000E-03 0. -1.
    9900012    2    1    2    0    0 -0.58508943667E+00  0.60100846797E+00  0.83042573424E+00  0.90007683209E+02  0.89999943827E+02 0.  0.
         12    1    1    2    0    0  0.58508943667E+00 -0.60100846797E+00 -0.83042573424E+00  0.11803167912E+01  0.00000000000E+00 0. -1.
         11    1    3    3    0    0 -0.87714793157E+00 -0.86412510964E+01 -0.33544376731E+01  0.93109001374E+01  0.51100000000E-03 0. -1.
        -11    1    3    3    0    0 -0.18854808603E+02 -0.27807135519E+02  0.16196506506E+02  0.37297016187E+02  0.51100000000E-03 0.  1.
         12    1    3    3    0    0  0.19146867098E+02  0.37049395083E+02 -0.12011643098E+02  0.43399766884E+02  0.00000000000E+00 0. -1.
</event>
<event>
 7    1  0.2468912E-015  0.9000778E+02  0.7816164E-02  0.1186339E+00
        -11   -1    0    0    0    0  0.00000000000E+00  0.00000000000E+00  0.45593999997E+02  0.45594000000E+02  0.51100000000E-03 0. -1.
         11   -1    0    0    0    0 -0.00000000000E+00 -0.00000000000E+00 -0.45593999997E+02  0.45594000000E+02  0.51100000000E-03 0.  1.
    9900012    2    1    2    0    0  0.49901509313E+00  0.51976739897E+00 -0.93473879786E+00  0.90007783565E+02  0.90000045508E+02 0.  0.
         12    1    1    2    0    0 -0.49901509313E+00 -0.51976739897E+00  0.93473879786E+00  0.11802164346E+01  0.00000000000E+00 0. -1.
         11    1    3    3    0    0 -0.24264047763E+02 -0.31447312337E+02  0.19651226398E+00  0.39720474373E+02  0.51100000000E-03 0. -1.
        -11    1    3    3    0    0  0.30114110412E+01  0.23376959489E+01  0.10951341681E+02  0.11595917544E+02  0.51100000000E-03 0.  1.
        -12    1    3    3    0    0  0.21751651815E+02  0.29629383788E+02 -0.12082592743E+02  0.38691391648E+02  0.00000000000E+00 0.  1.
</event>
<event>
 7    1  0.2468912E-015  0.9000772E+02  0.7816164E-02  0.1186339E+00
        -11   -1    0    0    0    0  0.00000000000E+00  0.00000000000E+00  0.45593999997E+02  0.45594000000E+02  0.51100000000E-03 0.  1.
         11   -1    0    0    0    0 -0.00000000000E+00 -0.00000000000E+00 -0.45593999997E+02  0.45594000000E+02  0.51100000000E-03 0. -1.
    9900012    2    1    2    0    0 -0.60501881068E+00 -0.82891307581E+00  0.58302017763E+00  0.90007721568E+02  0.89999982693E+02 0.  0.
         12    1    1    2    0    0  0.60501881068E+00  0.82891307581E+00 -0.58302017763E+00  0.11802784316E+01  0.00000000000E+00 0. -1.
         11    1    3    3    0    0  0.10598746613E+02 -0.18442617780E+02 -0.19072237690E+02  0.28569456262E+02  0.51100000000E-03 0. -1.
        -11    1    3    3    0    0  0.67025968882E+01 -0.35990921990E+01 -0.15129352142E+02  0.16934449097E+02  0.51100000000E-03 0.  1.
        -12    1    3    3    0    0 -0.17906362312E+02  0.21212796903E+02  0.34784610009E+02  0.44503816210E+02  0.00000000000E+00 0.  1.
</event>
<event>
 7    1  0.2468912E-015  0.9000774E+02  0.7816164E-02  0.1186339E+00
        -11   -1    0    0    0    0  0.00000000000E+00  0.00000000000E+00  0.45593999997E+02  0.45594000000E+02  0.51100000000E-03 0.  1.
         11   -1    0    0    0    0 -0.00000000000E+00 -0.00000000000E+00 -0.45593999997E+02  0.45594000000E+02  0.51100000000E-03 0. -1.
    9900012    2    1    2    0    0  0.79666250803E+00  0.74198707173E+00 -0.45585058229E+00  0.90007739131E+02  0.90000000487E+02 0.  0.
         12    1    1    2    0    0 -0.79666250803E+00 -0.74198707173E+00  0.45585058229E+00  0.11802608693E+01  0.00000000000E+00 0. -1.
         11    1    3    3    0    0  0.64481934704E+01  0.53060042902E+01 -0.35584495467E+01  0.90771936190E+01  0.51100000000E-03 0. -1.
        -11    1    3    3    0    0 -0.31248770824E+02  0.24373758157E+02 -0.86197636385E+01  0.40556948728E+02  0.51100000000E-03 0.  1.
         12    1    3    3    0    0  0.25597239862E+02 -0.28937775375E+02  0.11722362603E+02  0.40373596783E+02  0.00000000000E+00 0. -1.
</event>
<event>
 7    1  0.2468912E-015  0.9000759E+02  0.7816164E-02  0.1186339E+00
        -11   -1    0    0    0    0  0.00000000000E+00  0.00000000000E+00  0.45593999997E+02  0.45594000000E+02  0.51100000000E-03 0. -1.
         11   -1    0    0    0    0 -0.00000000000E+00 -0.00000000000E+00 -0.45593999997E+02  0.45594000000E+02  0.51100000000E-03 0.  1.
    9900012    2    1    2    0    0 -0.65210689851E-01  0.17872142629E+00 -0.11649766129E+01  0.90007591473E+02  0.89999850880E+02 0.  0.
         12    1    1    2    0    0  0.65210689851E-01 -0.17872142629E+00  0.11649766129E+01  0.11804085271E+01  0.00000000000E+00 0. -1.
         11    1    3    3    0    0  0.39517742568E+00 -0.36463572865E+02  0.13164443899E+02  0.38769200336E+02  0.51100000000E-03 0. -1.
        -11    1    3    3    0    0  0.37072952752E+00 -0.42447450463E+01 -0.90508361409E+01  0.10003646135E+02  0.51100000000E-03 0.  1.
        -12    1    3    3    0    0 -0.83111764305E+00  0.40887039338E+02 -0.52785843712E+01  0.41234745001E+02  0.00000000000E+00 0.  1.
</event>
<event>
 7    1  0.2468912E-015  0.9000782E+02  0.7816164E-02  0.1186339E+00
        -11   -1    0    0    0    0  0.00000000000E+00  0.00000000000E+00  0.45593999997E+02  0.45594000000E+02  0.51100000000E-03 0.  1.
         11   -1    0    0    0    0 -0.00000000000E+00 -0.00000000000E+00 -0.45593999997E+02  0.45594000000E+02  0.51100000000E-03 0. -1.
    9900012    2    1    2    0    0 -0.95400844114E+00  0.30540856651E-01 -0.69409076082E+00  0.90007819152E+02  0.90000081565E+02 0.  0.
         12    1    1    2    0    0  0.95400844114E+00 -0.30540856651E-01  0.69409076082E+00  0.11801808480E+01  0.00000000000E+00 0. -1.
         11    1    3    3    0    0  0.73579978075E+00 -0.33234310898E+01 -0.11040054198E+02  0.11552895416E+02  0.51100000000E-03 0. -1.
        -11    1    3    3    0    0 -0.10213485897E+02 -0.35845147930E+02  0.88694596103E+01  0.38312625051E+02  0.51100000000E-03 0.  1.
         12    1    3    3    0    0  0.85236776746E+01  0.39199119876E+02  0.14765038272E+01  0.40142298685E+02  0.00000000000E+00 0. -1.
</event>
<event>
 7    1  0.2468912E-015  0.9000763E+02  0.7816164E-02  0.1186339E+00
        -11   -1    0    0    0    0  0.00000000000E+00  0.00000000000E+00  0.45593999997E+02  0.45594000000E+02  0.51100000000E-03 0. -1.
         11   -1    0    0    0    0 -0.00000000000E+00 -0.00000000000E+00 -0.45593999997E+02  0.45594000000E+02  0.51100000000E-03 0.  1.
    9900012    2    1    2    0    0  0.37742366793E+00 -0.59045054553E+00 -0.94984100277E+00  0.90007627854E+02  0.89999887742E+02 0.  0.
         12    1    1    2    0    0 -0.37742366793E+00  0.59045054553E+00  0.94984100277E+00  0.11803721457E+01  0.00000000000E+00 0. -1.
         11    1    3    3    0    0  0.53171977806E+01  0.39681200015E+01 -0.72650765679E+01  0.98386943434E+01  0.51100000000E-03 0. -1.
        -11    1    3    3    0    0  0.32458102027E+01  0.22464959274E+01 -0.36162708403E+02  0.36377513757E+02  0.51100000000E-03 0.  1.
         12    1    3    3    0    0 -0.81855843153E+01 -0.68050664744E+01  0.42477943968E+02  0.43791419754E+02  0.00000000000E+00 0. -1.
</event>
<event>
 7    1  0.2468912E-015  0.9000783E+02  0.7816164E-02  0.1186339E+00
        -11   -1    0    0    0    0  0.00000000000E+00  0.00000000000E+00  0.45593999997E+02  0.45594000000E+02  0.51100000000E-03 0. -1.
         11   -1    0    0    0    0 -0.00000000000E+00 -0.00000000000E+00 -0.45593999997E+02  0.45594000000E+02  0.51100000000E-03 0.  1.
    9900012    2    1    2    0    0 -0.92440449271E+00  0.52781378608E+00 -0.50958650747E+00  0.90007834983E+02  0.90000097605E+02 0.  0.
         12    1    1    2    0    0  0.92440449271E+00 -0.52781378608E+00  0.50958650747E+00  0.11801650171E+01  0.00000000000E+00 0. -1.
         11    1    3    3    0    0 -0.95955325385E+01  0.91911722081E+00 -0.27994958123E+01  0.10037738701E+02  0.51100000000E-03 0. -1.
        -11    1    3    3    0    0 -0.29038323552E+02 -0.19836971690E+02 -0.85243807472E+01  0.36185559936E+02  0.51100000000E-03 0.  1.
         12    1    3    3    0    0  0.37709451597E+02  0.19445668256E+02  0.10814290052E+02  0.43784536346E+02  0.00000000000E+00 0. -1.
</event>
<event>
 7    1  0.2468912E-015  0.9000772E+02  0.7816164E-02  0.1186339E+00
        -11   -1    0    0    0    0  0.00000000000E+00  0.00000000000E+00  0.45593999997E+02  0.45594000000E+02  0.51100000000E-03 0.  1.
         11   -1    0    0    0    0 -0.00000000000E+00 -0.00000000000E+00 -0.45593999997E+02  0.45594000000E+02  0.51100000000E-03 0. -1.
    9900012    2    1    2    0    0  0.32424997951E+00 -0.10985616544E+01 -0.28477481454E+00  0.90007715097E+02  0.89999976136E+02 0.  0.
         12    1    1    2    0    0 -0.32424997951E+00  0.10985616544E+01  0.28477481454E+00  0.11802849032E+01  0.00000000000E+00 0. -1.
         11    1    3    3    0    0  0.15010589550E+02  0.34932462819E+01  0.23685259269E+01  0.15592641968E+02  0.51100000000E-03 0. -1.
        -11    1    3    3    0    0  0.19388552213E+02  0.21616189795E+02  0.80147160404E+01  0.30123268276E+02  0.51100000000E-03 0.  1.
         12    1    3    3    0    0 -0.34074891783E+02 -0.26207997731E+02 -0.10668016782E+02  0.44291804853E+02  0.00000000000E+00 0. -1.
</event>
<event>
 7    1  0.2468912E-015  0.9000772E+02  0.7816164E-02  0.1186339E+00
        -11   -1    0    0    0    0  0.00000000000E+00  0.00000000000E+00  0.45593999997E+02  0.45594000000E+02  0.51100000000E-03 0.  1.
         11   -1    0    0    0    0 -0.00000000000E+00 -0.00000000000E+00 -0.45593999997E+02  0.45594000000E+02  0.51100000000E-03 0. -1.
    9900012    2    1    2    0    0  0.42848285933E+00 -0.10872399913E+01  0.16545020021E+00  0.90007719471E+02  0.89999980568E+02 0.  0.
         12    1    1    2    0    0 -0.42848285933E+00  0.10872399913E+01 -0.16545020021E+00  0.11802805294E+01  0.00000000000E+00 0. -1.
         11    1    3    3    0    0  0.44574570529E+01 -0.59688041995E+00 -0.89013613758E+01  0.99729345841E+01  0.51100000000E-03 0. -1.
        -11    1    3    3    0    0  0.15864518563E+02 -0.28713388160E+02 -0.16832970097E+02  0.36871269187E+02  0.51100000000E-03 0.  1.
         12    1    3    3    0    0 -0.19893492757E+02  0.28223028589E+02  0.25899781673E+02  0.43163515700E+02  0.00000000000E+00 0. -1.
</event>
<event>
 7    1  0.2468912E-015  0.9000788E+02  0.7816164E-02  0.1186339E+00
        -11   -1    0    0    0    0  0.00000000000E+00  0.00000000000E+00  0.45593999997E+02  0.45594000000E+02  0.51100000000E-03 0. -1.
         11   -1    0    0    0    0 -0.00000000000E+00 -0.00000000000E+00 -0.45593999997E+02  0.45594000000E+02  0.51100000000E-03 0.  1.
    9900012    2    1    2    0    0 -0.35497369833E+00 -0.97926413837E+00 -0.55472098154E+00  0.90007881385E+02  0.90000144619E+02 0.  0.
         12    1    1    2    0    0  0.35497369833E+00  0.97926413837E+00  0.55472098154E+00  0.11801186155E+01  0.00000000000E+00 0. -1.
         11    1    3    3    0    0  0.43756028998E+01  0.11288909199E+02  0.12865837580E+01  0.12175412505E+02  0.51100000000E-03 0. -1.
        -11    1    3    3    0    0  0.14458074927E+01 -0.21630689058E+02 -0.35920228773E+02  0.41955213071E+02  0.51100000000E-03 0.  1.
         12    1    3    3    0    0 -0.61763840908E+01  0.93625157208E+01  0.34078924034E+02  0.35877255809E+02  0.00000000000E+00 0. -1.
</event>
<event>
 7    1  0.2468912E-015  0.9000776E+02  0.7816164E-02  0.1186339E+00
        -11   -1    0    0    0    0  0.00000000000E+00  0.00000000000E+00  0.45593999997E+02  0.45594000000E+02  0.51100000000E-03 0.  1.
         11   -1    0    0    0    0 -0.00000000000E+00 -0.00000000000E+00 -0.45593999997E+02  0.45594000000E+02  0.51100000000E-03 0. -1.
    9900012    2    1    2    0    0  0.10901298106E+01  0.29314191203E+00  0.34447186566E+00  0.90007755936E+02  0.90000017514E+02 0.  0.
         12    1    1    2    0    0 -0.10901298106E+01 -0.29314191203E+00 -0.34447186566E+00  0.11802440640E+01  0.00000000000E+00 0. -1.
         11    1    3    3    0    0  0.22826588311E+02 -0.36339146098E+02  0.73191641599E+01  0.43533399101E+02  0.51100000000E-03 0. -1.
        -11    1    3    3    0    0 -0.37858226828E+01  0.38109188346E+01 -0.73000800571E+01  0.90634830419E+01  0.51100000000E-03 0.  1.
        -12    1    3    3    0    0 -0.17950635818E+02  0.32821369175E+02  0.32538776285E+00  0.37410873793E+02  0.00000000000E+00 0.  1.
</event>
<event>
 7    1  0.2468912E-015  0.9000771E+02  0.7816164E-02  0.1186339E+00
        -11   -1    0    0    0    0  0.00000000000E+00  0.00000000000E+00  0.45593999997E+02  0.45594000000E+02  0.51100000000E-03 0. -1.
         11   -1    0    0    0    0 -0.00000000000E+00 -0.00000000000E+00 -0.45593999997E+02  0.45594000000E+02  0.51100000000E-03 0.  1.
    9900012    2    1    2    0    0 -0.17553607503E+00 -0.49159150796E+00 -0.10585882995E+01  0.90007710073E+02  0.89999971046E+02 0.  0.
         12    1    1    2    0    0  0.17553607503E+00  0.49159150796E+00  0.10585882995E+01  0.11802899272E+01  0.00000000000E+00 0. -1.
         11    1    3    3    0    0 -0.15934320020E+02  0.10567214841E+02  0.36121829949E+02  0.40869978996E+02  0.51100000000E-03 0. -1.
        -11    1    3    3    0    0 -0.48685264385E+01  0.41952419390E+01 -0.85238623678E+01  0.10675150329E+02  0.51100000000E-03 0.  1.
        -12    1    3    3    0    0  0.20627310384E+02 -0.15254048288E+02 -0.28656555881E+02  0.38462580748E+02  0.00000000000E+00 0.  1.
</event>
<event>
 7    1  0.2468912E-015  0.9000777E+02  0.7816164E-02  0.1186339E+00
        -11   -1    0    0    0    0  0.00000000000E+00  0.00000000000E+00  0.45593999997E+02  0.45594000000E+02  0.51100000000E-03 0. -1.
         11   -1    0    0    0    0 -0.00000000000E+00 -0.00000000000E+00 -0.45593999997E+02  0.45594000000E+02  0.51100000000E-03 0.  1.
    9900012    2    1    2    0    0  0.10581142161E+01 -0.40951985078E+00  0.32501929100E+00  0.90007767081E+02  0.90000028807E+02 0.  0.
         12    1    1    2    0    0 -0.10581142161E+01  0.40951985078E+00 -0.32501929100E+00  0.11802329185E+01  0.00000000000E+00 0. -1.
         11    1    3    3    0    0 -0.19513107643E+02  0.37340882311E+02  0.18372878281E+01  0.42172010724E+02  0.51100000000E-03 0. -1.
        -11    1    3    3    0    0  0.73954941663E+01 -0.24169665656E+01 -0.60469771971E+01  0.98539837034E+01  0.51100000000E-03 0.  1.
        -12    1    3    3    0    0  0.13175727693E+02 -0.35333435597E+02  0.45347086600E+01  0.37981772654E+02  0.00000000000E+00 0.  1.
</event>
<event>
 7    1  0.2468912E-015  0.9000777E+02  0.7816164E-02  0.1186339E+00
        -11   -1    0    0    0    0  0.00000000000E+00  0.00000000000E+00  0.45593999997E+02  0.45594000000E+02  0.51100000000E-03 0. -1.
         11   -1    0    0    0    0 -0.00000000000E+00 -0.00000000000E+00 -0.45593999997E+02  0.45594000000E+02  0.51100000000E-03 0.  1.
    9900012    2    1    2    0    0  0.10712343381E+01  0.10057085451E+00 -0.48506182529E+00  0.90007770159E+02  0.90000031925E+02 0.  0.
         12    1    1    2    0    0 -0.10712343381E+01 -0.10057085451E+00  0.48506182529E+00  0.11802298413E+01  0.00000000000E+00 0. -1.
         11    1    3    3    0    0 -0.60626436706E+01 -0.35586678511E+01 -0.58355679194E+01  0.91363897878E+01  0.51100000000E-03 0. -1.
        -11    1    3    3    0    0 -0.18089964197E+02 -0.98377873890E+01 -0.29378647497E+02  0.35876646922E+02  0.51100000000E-03 0.  1.
         12    1    3    3    0    0  0.25223842206E+02  0.13497026095E+02  0.34729153591E+02  0.44994733449E+02  0.00000000000E+00 0. -1.
</event>
<event>
 7    1  0.2468912E-015  0.9000766E+02  0.7816164E-02  0.1186339E+00
        -11   -1    0    0    0    0  0.00000000000E+00  0.00000000000E+00  0.45593999997E+02  0.45594000000E+02  0.51100000000E-03 0. -1.
         11   -1    0    0    0    0 -0.00000000000E+00 -0.00000000000E+00 -0.45593999997E+02  0.45594000000E+02  0.51100000000E-03 0.  1.
    9900012    2    1    2    0    0 -0.67100126588E+00  0.96922740596E+00 -0.59642905220E-01  0.90007660329E+02  0.89999920645E+02 0.  0.
         12    1    1    2    0    0  0.67100126588E+00 -0.96922740596E+00  0.59642905220E-01  0.11803396712E+01  0.00000000000E+00 0. -1.
         11    1    3    3    0    0 -0.24345405973E+02 -0.25495574262E+02 -0.86654552493E+01  0.36301697122E+02  0.51100000000E-03 0. -1.
        -11    1    3    3    0    0 -0.94706353365E+01  0.19842127017E+01 -0.42114651762E+01  0.10553031456E+02  0.51100000000E-03 0.  1.
        -12    1    3    3    0    0  0.33145040044E+02  0.24480588967E+02  0.12817277520E+02  0.43152931751E+02  0.00000000000E+00 0.  1.
</event>
<event>
 7    1  0.2468912E-015  0.9000774E+02  0.7816164E-02  0.1186339E+00
        -11   -1    0    0    0    0  0.00000000000E+00  0.00000000000E+00  0.45593999997E+02  0.45594000000E+02  0.51100000000E-03 0.  1.
         11   -1    0    0    0    0 -0.00000000000E+00 -0.00000000000E+00 -0.45593999997E+02  0.45594000000E+02  0.51100000000E-03 0. -1.
    9900012    2    1    2    0    0  0.87347469594E+00 -0.76023448506E+00  0.22822907322E+00  0.90007744508E+02  0.90000005935E+02 0.  0.
         12    1    1    2    0    0 -0.87347469594E+00  0.76023448506E+00 -0.22822907322E+00  0.11802554921E+01  0.00000000000E+00 0. -1.
         11    1    3    3    0    0  0.32512577944E+02  0.62386491356E+01 -0.26470105941E+02  0.42386967059E+02  0.51100000000E-03 0. -1.
        -11    1    3    3    0    0 -0.60546790356E+01  0.61828675478E+01  0.44538904691E+00  0.86651809561E+01  0.51100000000E-03 0.  1.
        -12    1    3    3    0    0 -0.25584424213E+02 -0.13181751168E+02  0.26252945968E+02  0.38955596493E+02  0.00000000000E+00 0.  1.
</event>
<event>
 7    1  0.2468912E-015  0.9000759E+02  0.7816164E-02  0.1186339E+00
        -11   -1    0    0    0    0  0.00000000000E+00  0.00000000000E+00  0.45593999997E+02  0.45594000000E+02  0.51100000000E-03 0. -1.
         11   -1    0    0    0    0 -0.00000000000E+00 -0.00000000000E+00 -0.45593999997E+02  0.45594000000E+02  0.51100000000E-03 0.  1.
    9900012    2    1    2    0    0  0.76651433853E-01 -0.33865172142E-01 -0.11774317614E+01  0.90007589967E+02  0.89999849355E+02 0.  0.
         12    1    1    2    0    0 -0.76651433853E-01  0.33865172142E-01  0.11774317614E+01  0.11804100326E+01  0.00000000000E+00 0. -1.
         11    1    3    3    0    0 -0.52693784230E+01  0.39626616661E+02  0.24564412360E+01  0.40050832710E+02  0.51100000000E-03 0. -1.
        -11    1    3    3    0    0 -0.40248955753E+01 -0.16560832251E+02  0.11716193922E+02  0.20681637980E+02  0.51100000000E-03 0.  1.
        -12    1    3    3    0    0  0.93709254322E+01 -0.23099649582E+02 -0.15350066920E+02  0.29275119278E+02  0.00000000000E+00 0.  1.
</event>
<event>
 7    1  0.2468912E-015  0.9000769E+02  0.7816164E-02  0.1186339E+00
        -11   -1    0    0    0    0  0.00000000000E+00  0.00000000000E+00  0.45593999997E+02  0.45594000000E+02  0.51100000000E-03 0.  1.
         11   -1    0    0    0    0 -0.00000000000E+00 -0.00000000000E+00 -0.45593999997E+02  0.45594000000E+02  0.51100000000E-03 0. -1.
    9900012    2    1    2    0    0 -0.36902157259E+00 -0.89373048484E+00 -0.67689732699E+00  0.90007694492E+02  0.89999955259E+02 0.  0.
         12    1    1    2    0    0  0.36902157259E+00  0.89373048484E+00  0.67689732699E+00  0.11803055078E+01  0.00000000000E+00 0. -1.
         11    1    3    3    0    0  0.86126702926E+01  0.79588416536E+01 -0.32362741304E+01  0.12165308074E+02  0.51100000000E-03 0. -1.
        -11    1    3    3    0    0  0.28957809041E+02  0.48324486300E+01  0.18246916670E+02  0.34566706995E+02  0.51100000000E-03 0.  1.
         12    1    3    3    0    0 -0.37939500907E+02 -0.13685020768E+02 -0.15687539866E+02  0.43275679423E+02  0.00000000000E+00 0. -1.
</event>
<event>
 7    1  0.2468912E-015  0.9000775E+02  0.7816164E-02  0.1186339E+00
        -11   -1    0    0    0    0  0.00000000000E+00  0.00000000000E+00  0.45593999997E+02  0.45594000000E+02  0.51100000000E-03 0.  1.
         11   -1    0    0    0    0 -0.00000000000E+00 -0.00000000000E+00 -0.45593999997E+02  0.45594000000E+02  0.51100000000E-03 0. -1.
    9900012    2    1    2    0    0 -0.74693549243E-01 -0.11493109083E+01 -0.25786680597E+00  0.90007750035E+02  0.90000011535E+02 0.  0.
         12    1    1    2    0    0  0.74693549243E-01  0.11493109083E+01  0.25786680597E+00  0.11802499650E+01  0.00000000000E+00 0. -1.
         11    1    3    3    0    0  0.27172152117E+02 -0.12792878433E+02 -0.68600875069E+01  0.30806564076E+02  0.51100000000E-03 0. -1.
        -11    1    3    3    0    0  0.38301670385E+00 -0.17424928297E+02 -0.36490679993E+01  0.17807035842E+02  0.51100000000E-03 0.  1.
        -12    1    3    3    0    0 -0.27629862370E+02  0.29068495822E+02  0.10251288700E+02  0.41394150118E+02  0.00000000000E+00 0.  1.
</event>
<event>
 7    1  0.2468912E-015  0.9000779E+02  0.7816164E-02  0.1186339E+00
        -11   -1    0    0    0    0  0.00000000000E+00  0.00000000000E+00  0.45593999997E+02  0.45594000000E+02  0.51100000000E-03 0. -1.
         11   -1    0    0    0    0 -0.00000000000E+00 -0.00000000000E+00 -0.45593999997E+02  0.45594000000E+02  0.51100000000E-03 0.  1.
    9900012    2    1    2    0    0 -0.10921777515E+01  0.15629743103E+00  0.41905721507E+00  0.90007792358E+02  0.90000054418E+02 0.  0.
         12    1    1    2    0    0  0.10921777515E+01 -0.15629743103E+00 -0.41905721507E+00  0.11802076416E+01  0.00000000000E+00 0. -1.
         11    1    3    3    0    0 -0.18807933328E+02  0.12255801093E+02  0.79132512275E+01  0.23802574687E+02  0.51100000000E-03 0. -1.
        -11    1    3    3    0    0 -0.22333399870E+02  0.34353428721E+01  0.21830614953E-01  0.22596079466E+02  0.51100000000E-03 0.  1.
        -12    1    3    3    0    0  0.40049155446E+02 -0.15534846534E+02 -0.75160246274E+01  0.43609138205E+02  0.00000000000E+00 0.  1.
</event>
<event>
 7    1  0.2468912E-015  0.9000773E+02  0.7816164E-02  0.1186339E+00
        -11   -1    0    0    0    0  0.00000000000E+00  0.00000000000E+00  0.45593999997E+02  0.45594000000E+02  0.51100000000E-03 0. -1.
         11   -1    0    0    0    0 -0.00000000000E+00 -0.00000000000E+00 -0.45593999997E+02  0.45594000000E+02  0.51100000000E-03 0.  1.
    9900012    2    1    2    0    0  0.43793441736E+00  0.52931404468E+00 -0.95972802848E+00  0.90007729777E+02  0.89999991010E+02 0.  0.
         12    1    1    2    0    0 -0.43793441736E+00 -0.52931404468E+00  0.95972802848E+00  0.11802702235E+01  0.00000000000E+00 0. -1.
         11    1    3    3    0    0 -0.68746956569E+01 -0.23315220891E+00 -0.51453366033E+01  0.85901274351E+01  0.51100000000E-03 0. -1.
        -11    1    3    3    0    0 -0.57365744813E+01 -0.23479105676E+02 -0.29355141643E+02  0.38025005342E+02  0.51100000000E-03 0.  1.
         12    1    3    3    0    0  0.13049204556E+02  0.24241571930E+02  0.33540750218E+02  0.43392596999E+02  0.00000000000E+00 0. -1.
</event>
<event>
 7    1  0.2468912E-015  0.9000783E+02  0.7816164E-02  0.1186339E+00
        -11   -1    0    0    0    0  0.00000000000E+00  0.00000000000E+00  0.45593999997E+02  0.45594000000E+02  0.51100000000E-03 0. -1.
         11   -1    0    0    0    0 -0.00000000000E+00 -0.00000000000E+00 -0.45593999997E+02  0.45594000000E+02  0.51100000000E-03 0.  1.
    9900012    2    1    2    0    0  0.10897253680E+01 -0.40525563011E+00  0.20264507868E+00  0.90007831143E+02  0.90000093714E+02 0.  0.
         12    1    1    2    0    0 -0.10897253680E+01  0.40525563011E+00 -0.20264507868E+00  0.11801688571E+01  0.00000000000E+00 0. -1.
         11    1    3    3    0    0  0.93479456813E+01  0.42917831171E+01  0.63412931235E+00  0.10305610658E+02  0.51100000000E-03 0. -1.
        -11    1    3    3    0    0 -0.24408373152E+02  0.13894016223E+02 -0.30084383087E+02  0.41156803481E+02  0.51100000000E-03 0.  1.
         12    1    3    3    0    0  0.16150152839E+02 -0.18591054971E+02  0.29652898853E+02  0.38545417004E+02  0.00000000000E+00 0. -1.
</event>
<event>
 7    1  0.2468912E-015  0.9000759E+02  0.7816164E-02  0.1186339E+00
        -11   -1    0    0    0    0  0.00000000000E+00  0.00000000000E+00  0.45593999997E+02  0.45594000000E+02  0.51100000000E-03 0. -1.
         11   -1    0    0    0    0 -0.00000000000E+00 -0.00000000000E+00 -0.45593999997E+02  0.45594000000E+02  0.51100000000E-03 0.  1.
    9900012    2    1    2    0    0  0.76442218865E+00 -0.89754640954E+00  0.58661478167E-01  0.90007588204E+02  0.89999847568E+02 0.  0.
         12    1    1    2    0    0 -0.76442218865E+00  0.89754640954E+00 -0.58661478167E-01  0.11804117963E+01  0.00000000000E+00 0. -1.
         11    1    3    3    0    0  0.32460817698E+01  0.33812902342E+00 -0.92523968437E+01  0.98111276471E+01  0.51100000000E-03 0. -1.
        -11    1    3    3    0    0 -0.21515185635E+02  0.70126490828E+01 -0.28907401488E+02  0.36711283294E+02  0.51100000000E-03 0.  1.
         12    1    3    3    0    0  0.19033526054E+02 -0.82483245158E+01  0.38218459809E+02  0.43485177263E+02  0.00000000000E+00 0. -1.
</event>
<event>
 7    1  0.2468912E-015  0.9000756E+02  0.7816164E-02  0.1186339E+00
        -11   -1    0    0    0    0  0.00000000000E+00  0.00000000000E+00  0.45593999997E+02  0.45594000000E+02  0.51100000000E-03 0. -1.
         11   -1    0    0    0    0 -0.00000000000E+00 -0.00000000000E+00 -0.45593999997E+02  0.45594000000E+02  0.51100000000E-03 0.  1.
    9900012    2    1    2    0    0  0.11510787341E+01  0.23198741187E+00 -0.12102629238E+00  0.90007556111E+02  0.89999815052E+02 0.  0.
         12    1    1    2    0    0 -0.11510787341E+01 -0.23198741187E+00  0.12102629238E+00  0.11804438889E+01  0.00000000000E+00 0. -1.
         11    1    3    3    0    0 -0.13949925906E+02  0.21587531857E+02 -0.23522917966E+02  0.34841780011E+02  0.51100000000E-03 0. -1.
        -11    1    3    3    0    0 -0.48931644742E+01  0.62780874909E+00 -0.95775688244E+01  0.10773440827E+02  0.51100000000E-03 0.  1.
        -12    1    3    3    0    0  0.19994169115E+02 -0.21983353194E+02  0.32979460498E+02  0.44392335273E+02  0.00000000000E+00 0.  1.
</event>
<event>
 7    1  0.2468912E-015  0.9000777E+02  0.7816164E-02  0.1186339E+00
        -11   -1    0    0    0    0  0.00000000000E+00  0.00000000000E+00  0.45593999997E+02  0.45594000000E+02  0.51100000000E-03 0.  1.
         11   -1    0    0    0    0 -0.00000000000E+00 -0.00000000000E+00 -0.45593999997E+02  0.45594000000E+02  0.51100000000E-03 0. -1.
    9900012    2    1    2    0    0 -0.10271928092E+01 -0.26852103054E+00  0.51548461736E+00  0.90007765700E+02  0.90000027408E+02 0.  0.
         12    1    1    2    0    0  0.10271928092E+01  0.26852103054E+00 -0.51548461736E+00  0.11802342996E+01  0.00000000000E+00 0. -1.
         11    1    3    3    0    0 -0.26718888651E+02 -0.12524682749E+02 -0.31788773219E+02  0.43373872225E+02  0.51100000000E-03 0. -1.
        -11    1    3    3    0    0  0.91389085130E+01 -0.36032163505E+00  0.12224347742E+01  0.92273413033E+01  0.51100000000E-03 0.  1.
        -12    1    3    3    0    0  0.16552787329E+02  0.12616483353E+02  0.31081823062E+02  0.37406552173E+02  0.00000000000E+00 0.  1.
</event>
<event>
 7    1  0.2468912E-015  0.9000776E+02  0.7816164E-02  0.1186339E+00
        -11   -1    0    0    0    0  0.00000000000E+00  0.00000000000E+00  0.45593999997E+02  0.45594000000E+02  0.51100000000E-03 0. -1.
         11   -1    0    0    0    0 -0.00000000000E+00 -0.00000000000E+00 -0.45593999997E+02  0.45594000000E+02  0.51100000000E-03 0.  1.
    9900012    2    1    2    0    0  0.11649184785E+01  0.95089364098E-01 -0.16398881773E+00  0.90007758761E+02  0.90000020377E+02 0.  0.
         12    1    1    2    0    0 -0.11649184785E+01 -0.95089364098E-01  0.16398881773E+00  0.11802412385E+01  0.00000000000E+00 0. -1.
         11    1    3    3    0    0  0.37290120393E+02  0.71991433557E+01  0.86537536419E+00  0.37988545889E+02  0.51100000000E-03 0. -1.
        -11    1    3    3    0    0  0.68377481410E+01  0.30740772084E+01 -0.23215022623E+01  0.78481923612E+01  0.51100000000E-03 0.  1.
        -12    1    3    3    0    0 -0.42962950055E+02 -0.10178131200E+02  0.12921380804E+01  0.44171020511E+02  0.00000000000E+00 0.  1.
</event>
<event>
 7    1  0.2468912E-015  0.9000785E+02  0.7816164E-02  0.1186339E+00
        -11   -1    0    0    0    0  0.00000000000E+00  0.00000000000E+00  0.45593999997E+02  0.45594000000E+02  0.51100000000E-03 0.  1.
         11   -1    0    0    0    0 -0.00000000000E+00 -0.00000000000E+00 -0.45593999997E+02  0.45594000000E+02  0.51100000000E-03 0. -1.
    9900012    2    1    2    0    0 -0.80291635313E+00 -0.79840400748E+00  0.33261083430E+00  0.90007850181E+02  0.90000113003E+02 0.  0.
         12    1    1    2    0    0  0.80291635313E+00  0.79840400748E+00 -0.33261083430E+00  0.11801498195E+01  0.00000000000E+00 0. -1.
         11    1    3    3    0    0 -0.34275116468E+02 -0.11778796442E+02 -0.15509558444E+02  0.39421695270E+02  0.51100000000E-03 0. -1.
        -11    1    3    3    0    0 -0.47108263174E+01 -0.39970878949E-01  0.91410433167E+01  0.10283586701E+02  0.51100000000E-03 0.  1.
        -12    1    3    3    0    0  0.38183026433E+02  0.11020363314E+02  0.67011259618E+01  0.40302568209E+02  0.00000000000E+00 0.  1.
</event>
<event>
 7    1  0.2468912E-015  0.9000776E+02  0.7816164E-02  0.1186339E+00
        -11   -1    0    0    0    0  0.00000000000E+00  0.00000000000E+00  0.45593999997E+02  0.45594000000E+02  0.51100000000E-03 0. -1.
         11   -1    0    0    0    0 -0.00000000000E+00 -0.00000000000E+00 -0.45593999997E+02  0.45594000000E+02  0.51100000000E-03 0.  1.
    9900012    2    1    2    0    0  0.20754219553E+00  0.11604177220E+01  0.57621810236E-01  0.90007761327E+02  0.90000022976E+02 0.  0.
         12    1    1    2    0    0 -0.20754219553E+00 -0.11604177220E+01 -0.57621810236E-01  0.11802386731E+01  0.00000000000E+00 0. -1.
         11    1    3    3    0    0 -0.59501301673E+01  0.34546805691E+01 -0.66308713765E+01  0.95554865033E+01  0.51100000000E-03 0. -1.
        -11    1    3    3    0    0  0.92562614472E+01  0.20810394929E+02 -0.29583345905E+02  0.37335308600E+02  0.51100000000E-03 0.  1.
         12    1    3    3    0    0 -0.30985890844E+01 -0.23104657776E+02  0.36271839091E+02  0.43116966224E+02  0.00000000000E+00 0. -1.
</event>
<event>
 7    1  0.2468912E-015  0.9000774E+02  0.7816164E-02  0.1186339E+00
        -11   -1    0    0    0    0  0.00000000000E+00  0.00000000000E+00  0.45593999997E+02  0.45594000000E+02  0.51100000000E-03 0.  1.
         11   -1    0    0    0    0 -0.00000000000E+00 -0.00000000000E+00 -0.45593999997E+02  0.45594000000E+02  0.51100000000E-03 0. -1.
    9900012    2    1    2    0    0 -0.10602911280E+01  0.51646233933E+00  0.45384532723E-01  0.90007741393E+02  0.90000002779E+02 0.  0.
         12    1    1    2    0    0  0.10602911280E+01 -0.51646233933E+00 -0.45384532723E-01  0.11802586072E+01  0.00000000000E+00 0. -1.
         11    1    3    3    0    0  0.37684870776E+01  0.34539833067E+01 -0.22755316076E+02  0.23322433525E+02  0.51100000000E-03 0. -1.
        -11    1    3    3    0    0 -0.29822935122E+02  0.62470600460E+01 -0.16765036941E+01  0.30516288821E+02  0.51100000000E-03 0.  1.
         12    1    3    3    0    0  0.24994156916E+02 -0.91845810133E+01  0.24477204303E+02  0.36169019047E+02  0.00000000000E+00 0. -1.
</event>
<event>
 7    1  0.2468912E-015  0.9000787E+02  0.7816164E-02  0.1186339E+00
        -11   -1    0    0    0    0  0.00000000000E+00  0.00000000000E+00  0.45593999997E+02  0.45594000000E+02  0.51100000000E-03 0.  1.
         11   -1    0    0    0    0 -0.00000000000E+00 -0.00000000000E+00 -0.45593999997E+02  0.45594000000E+02  0.51100000000E-03 0. -1.
    9900012    2    1    2    0    0  0.66437464234E+00  0.32639337186E-01  0.97480559432E+00  0.90007870796E+02  0.90000133890E+02 0.  0.
         12    1    1    2    0    0 -0.66437464234E+00 -0.32639337186E-01 -0.97480559432E+00  0.11801292041E+01  0.00000000000E+00 0. -1.
         11    1    3    3    0    0  0.93802465493E+01  0.31130196746E+01 -0.88156156309E+01  0.13243677587E+02  0.51100000000E-03 0. -1.
        -11    1    3    3    0    0 -0.52684269198E+00  0.35643791237E+02 -0.12601486075E+01  0.35669950823E+02  0.51100000000E-03 0.  1.
        -12    1    3    3    0    0 -0.81890292150E+01 -0.38724171574E+02  0.11050569833E+02  0.41094242385E+02  0.00000000000E+00 0.  1.
</event>
<event>
 7    1  0.2468912E-015  0.9000784E+02  0.7816164E-02  0.1186339E+00
        -11   -1    0    0    0    0  0.00000000000E+00  0.00000000000E+00  0.45593999997E+02  0.45594000000E+02  0.51100000000E-03 0.  1.
         11   -1    0    0    0    0 -0.00000000000E+00 -0.00000000000E+00 -0.45593999997E+02  0.45594000000E+02  0.51100000000E-03 0. -1.
    9900012    2    1    2    0    0  0.72535773549E+00  0.73508677384E+00  0.57121316096E+00  0.90007838619E+02  0.90000101289E+02 0.  0.
         12    1    1    2    0    0 -0.72535773549E+00 -0.73508677384E+00 -0.57121316096E+00  0.11801613808E+01  0.00000000000E+00 0. -1.
         11    1    3    3    0    0 -0.20050435877E+02 -0.73711811826E+00 -0.35733203608E+02  0.40980790162E+02  0.51100000000E-03 0. -1.
        -11    1    3    3    0    0  0.93994759955E+01 -0.35522337886E+01 -0.61713392600E+00  0.10067242344E+02  0.51100000000E-03 0.  1.
        -12    1    3    3    0    0  0.11376317617E+02  0.50244386807E+01  0.36921550695E+02  0.38959806112E+02  0.00000000000E+00 0.  1.
</event>
<event>
 7    1  0.2468912E-015  0.9000776E+02  0.7816164E-02  0.1186339E+00
        -11   -1    0    0    0    0  0.00000000000E+00  0.00000000000E+00  0.45593999997E+02  0.45594000000E+02  0.51100000000E-03 0. -1.
         11   -1    0    0    0    0 -0.00000000000E+00 -0.00000000000E+00 -0.45593999997E+02  0.45594000000E+02  0.51100000000E-03 0.  1.
    9900012    2    1    2    0    0 -0.21913501397E+00 -0.96860962466E+00 -0.63776366249E+00  0.90007759665E+02  0.90000021293E+02 0.  0.
         12    1    1    2    0    0  0.21913501397E+00  0.96860962466E+00  0.63776366249E+00  0.11802403351E+01  0.00000000000E+00 0. -1.
         11    1    3    3    0    0 -0.29121340175E+01  0.44784258913E+01 -0.11096139386E+02  0.12315077447E+02  0.51100000000E-03 0. -1.
        -11    1    3    3    0    0 -0.13085271722E+02 -0.33522642331E+02 -0.12551149278E+02  0.38111982806E+02  0.51100000000E-03 0.  1.
         12    1    3    3    0    0  0.15778270726E+02  0.28075606815E+02  0.23009525001E+02  0.39580699412E+02  0.00000000000E+00 0. -1.
</event>
<event>
 7    1  0.2468912E-015  0.9000772E+02  0.7816164E-02  0.1186339E+00
        -11   -1    0    0    0    0  0.00000000000E+00  0.00000000000E+00  0.45593999997E+02  0.45594000000E+02  0.51100000000E-03 0.  1.
         11   -1    0    0    0    0 -0.00000000000E+00 -0.00000000000E+00 -0.45593999997E+02  0.45594000000E+02  0.51100000000E-03 0. -1.
    9900012    2    1    2    0    0 -0.46876362933E+00 -0.10506935892E+01  0.26335701145E+00  0.90007723221E+02  0.89999984368E+02 0.  0.
         12    1    1    2    0    0  0.46876362933E+00  0.10506935892E+01 -0.26335701145E+00  0.11802767786E+01  0.00000000000E+00 0. -1.
         11    1    3    3    0    0  0.14141776109E+02 -0.11255567248E+02 -0.37273048964E+02  0.41424121052E+02  0.51100000000E-03 0. -1.
        -11    1    3    3    0    0  0.69208304972E+01  0.22453615582E+01  0.52670708804E+01  0.89822925369E+01  0.51100000000E-03 0.  1.
        -12    1    3    3    0    0 -0.21531370236E+02  0.79595121008E+01  0.32269335095E+02  0.39601309632E+02  0.00000000000E+00 0.  1.
</event>
<event>
 7    1  0.2941270E-015  0.9000772E+02  0.7816164E-02  0.1186339E+00
        -11   -1    0    0    0    0  0.00000000000E+00  0.00000000000E+00  0.45593999997E+02  0.45594000000E+02  0.51100000000E-03 0. -1.
         11   -1    0    0    0    0 -0.00000000000E+00 -0.00000000000E+00 -0.45593999997E+02  0.45594000000E+02  0.51100000000E-03 0.  1.
    9900012    2    1    2    0    0  0.10477430881E+01 -0.26080473927E+00 -0.47674091855E+00  0.90007717579E+02  0.89999978651E+02 0.  0.
         12    1    1    2    0    0 -0.10477430881E+01  0.26080473927E+00  0.47674091855E+00  0.11802824213E+01  0.00000000000E+00 0. -1.
         11    1    3    3    0    0  0.11815533136E+02 -0.32223620141E+02  0.13928338203E+02  0.37040074563E+02  0.51100000000E-03 0. -1.
        -11    1    3    3    0    0  0.26398385913E+01 -0.80527178101E+01 -0.45969417342E+01  0.96408965084E+01  0.51100000000E-03 0.  1.
        -12    1    3    3    0    0 -0.13407628639E+02  0.40015533212E+02 -0.98081373874E+01  0.43326746508E+02  0.00000000000E+00 0.  1.
</event>
<event>
 7    1  0.2468912E-015  0.9000764E+02  0.7816164E-02  0.1186339E+00
        -11   -1    0    0    0    0  0.00000000000E+00  0.00000000000E+00  0.45593999997E+02  0.45594000000E+02  0.51100000000E-03 0.  1.
         11   -1    0    0    0    0 -0.00000000000E+00 -0.00000000000E+00 -0.45593999997E+02  0.45594000000E+02  0.51100000000E-03 0. -1.
    9900012    2    1    2    0    0 -0.26713561400E+00 -0.11421968268E+01 -0.13143367489E+00  0.90007639954E+02  0.89999900001E+02 0.  0.
         12    1    1    2    0    0  0.26713561400E+00  0.11421968268E+01  0.13143367489E+00  0.11803600460E+01  0.00000000000E+00 0. -1.
         11    1    3    3    0    0 -0.28337363241E+02 -0.10612275771E+02 -0.12894069003E+02  0.32891998544E+02  0.51100000000E-03 0. -1.
        -11    1    3    3    0    0 -0.63263618122E+01 -0.59637317416E+01 -0.98622226384E+01  0.13147333787E+02  0.51100000000E-03 0.  1.
        -12    1    3    3    0    0  0.34396589439E+02  0.15433810685E+02  0.22624857966E+02  0.43968307624E+02  0.00000000000E+00 0.  1.
</event>
<event>
 7    1  0.2468912E-015  0.9000773E+02  0.7816164E-02  0.1186339E+00
        -11   -1    0    0    0    0  0.00000000000E+00  0.00000000000E+00  0.45593999997E+02  0.45594000000E+02  0.51100000000E-03 0. -1.
         11   -1    0    0    0    0 -0.00000000000E+00 -0.00000000000E+00 -0.45593999997E+02  0.45594000000E+02  0.51100000000E-03 0.  1.
    9900012    2    1    2    0    0 -0.66406764866E-01  0.35175132453E+00 -0.11246762380E+01  0.90007730754E+02  0.89999992000E+02 0.  0.
         12    1    1    2    0    0  0.66406764866E-01 -0.35175132453E+00  0.11246762380E+01  0.11802692460E+01  0.00000000000E+00 0. -1.
         11    1    3    3    0    0  0.52262063452E-02 -0.96221411430E+01 -0.21878099744E+01  0.98677322741E+01  0.51100000000E-03 0. -1.
        -11    1    3    3    0    0  0.17959809844E+02 -0.30950525455E+01 -0.34015230101E+02  0.38589765469E+02  0.51100000000E-03 0.  1.
         12    1    3    3    0    0 -0.18031442815E+02  0.13068945013E+02  0.35078363837E+02  0.41550233011E+02  0.00000000000E+00 0. -1.
</event>
<event>
 7    1  0.2468912E-015  0.9000770E+02  0.7816164E-02  0.1186339E+00
        -11   -1    0    0    0    0  0.00000000000E+00  0.00000000000E+00  0.45593999997E+02  0.45594000000E+02  0.51100000000E-03 0. -1.
         11   -1    0    0    0    0 -0.00000000000E+00 -0.00000000000E+00 -0.45593999997E+02  0.45594000000E+02  0.51100000000E-03 0.  1.
    9900012    2    1    2    0    0  0.39069592188E+00 -0.90378362280E-01 -0.11100860987E+01  0.90007702284E+02  0.89999963154E+02 0.  0.
         12    1    1    2    0    0 -0.39069592188E+00  0.90378362280E-01  0.11100860987E+01  0.11802977159E+01  0.00000000000E+00 0. -1.
         11    1    3    3    0    0  0.74390168246E+01  0.36671737995E+01  0.23848852075E+01  0.86298790668E+01  0.51100000000E-03 0. -1.
        -11    1    3    3    0    0  0.15106591712E+02  0.22033645691E+02 -0.28582641610E+02  0.39123625308E+02  0.51100000000E-03 0.  1.
         12    1    3    3    0    0 -0.22154912615E+02 -0.25791197853E+02  0.25087670304E+02  0.42254197909E+02  0.00000000000E+00 0. -1.
</event>
<event>
 7    1  0.2468912E-015  0.9000806E+02  0.7816164E-02  0.1186338E+00
        -11   -1    0    0    0    0  0.00000000000E+00  0.00000000000E+00  0.45593999997E+02  0.45594000000E+02  0.51100000000E-03 0.  1.
         11   -1    0    0    0    0 -0.00000000000E+00 -0.00000000000E+00 -0.45593999997E+02  0.45594000000E+02  0.51100000000E-03 0. -1.
    9900012    2    1    2    0    0  0.82233947656E+00  0.13457183272E+00  0.83540849652E+00  0.90008059684E+02  0.90000325271E+02 0.  0.
         12    1    1    2    0    0 -0.82233947656E+00 -0.13457183272E+00 -0.83540849652E+00  0.11799403158E+01  0.00000000000E+00 0. -1.
         11    1    3    3    0    0  0.13461721652E+02  0.24156708512E+02 -0.14434985945E+02  0.31195085117E+02  0.51100000000E-03 0. -1.
        -11    1    3    3    0    0  0.14618970464E+02 -0.11676879929E+02 -0.85451365430E+01  0.20568985903E+02  0.51100000000E-03 0.  1.
        -12    1    3    3    0    0 -0.27258352639E+02 -0.12345256751E+02  0.23815530985E+02  0.38243988664E+02  0.00000000000E+00 0.  1.
</event>
<event>
 7    1  0.2468912E-015  0.9000768E+02  0.7816164E-02  0.1186339E+00
        -11   -1    0    0    0    0  0.00000000000E+00  0.00000000000E+00  0.45593999997E+02  0.45594000000E+02  0.51100000000E-03 0.  1.
         11   -1    0    0    0    0 -0.00000000000E+00 -0.00000000000E+00 -0.45593999997E+02  0.45594000000E+02  0.51100000000E-03 0. -1.
    9900012    2    1    2    0    0 -0.62277544406E+00 -0.82830282617E+00  0.56498925790E+00  0.90007683226E+02  0.89999943845E+02 0.  0.
         12    1    1    2    0    0  0.62277544406E+00  0.82830282617E+00 -0.56498925790E+00  0.11803167741E+01  0.00000000000E+00 0. -1.
         11    1    3    3    0    0  0.97600111955E+00  0.82986811205E+01 -0.37788592655E+01  0.91706305200E+01  0.51100000000E-03 0. -1.
        -11    1    3    3    0    0  0.30609295484E+02 -0.26011171381E+02  0.15102244661E+02  0.42913725086E+02  0.51100000000E-03 0.  1.
         12    1    3    3    0    0 -0.32208072048E+02  0.16884187434E+02 -0.10758396138E+02  0.37923327620E+02  0.00000000000E+00 0. -1.
</event>
<event>
 7    1  0.2468912E-015  0.9000748E+02  0.7816164E-02  0.1186340E+00
        -11   -1    0    0    0    0  0.00000000000E+00  0.00000000000E+00  0.45593999997E+02  0.45594000000E+02  0.51100000000E-03 0.  1.
         11   -1    0    0    0    0 -0.00000000000E+00 -0.00000000000E+00 -0.45593999997E+02  0.45594000000E+02  0.51100000000E-03 0. -1.
    9900012    2    1    2    0    0  0.52882505459E+00  0.98544137775E+00 -0.37799066597E+00  0.90007479949E+02  0.89999737884E+02 0.  0.
         12    1    1    2    0    0 -0.52882505459E+00 -0.98544137775E+00  0.37799066597E+00  0.11805200510E+01  0.00000000000E+00 0. -1.
         11    1    3    3    0    0  0.49991001405E+01 -0.82142609457E+01  0.55781691263E+01  0.11116701676E+02  0.51100000000E-03 0. -1.
        -11    1    3    3    0    0 -0.20586543320E+02 -0.11686251782E+02  0.27499646377E+02  0.36285049231E+02  0.51100000000E-03 0.  1.
         12    1    3    3    0    0  0.16116268234E+02  0.20885954105E+02 -0.33455806170E+02  0.42605729041E+02  0.00000000000E+00 0. -1.
</event>
<event>
 7    1  0.2468912E-015  0.9000785E+02  0.7816164E-02  0.1186339E+00
        -11   -1    0    0    0    0  0.00000000000E+00  0.00000000000E+00  0.45593999997E+02  0.45594000000E+02  0.51100000000E-03 0.  1.
         11   -1    0    0    0    0 -0.00000000000E+00 -0.00000000000E+00 -0.45593999997E+02  0.45594000000E+02  0.51100000000E-03 0. -1.
    9900012    2    1    2    0    0 -0.11242724463E+01  0.35561710704E+00  0.48083907866E-01  0.90007845721E+02  0.90000108484E+02 0.  0.
         12    1    1    2    0    0  0.11242724463E+01 -0.35561710704E+00 -0.48083907866E-01  0.11801542791E+01  0.00000000000E+00 0. -1.
         11    1    3    3    0    0  0.16693699259E+00  0.48240809450E+00 -0.10054080323E+02  0.10067031188E+02  0.51100000000E-03 0. -1.
        -11    1    3    3    0    0 -0.25741094941E+01 -0.18544729830E+02  0.40362207873E+02  0.44493155302E+02  0.51100000000E-03 0.  1.
         12    1    3    3    0    0  0.12829000552E+01  0.18417938843E+02 -0.30260043642E+02  0.35447659231E+02  0.00000000000E+00 0. -1.
</event>
<event>
 7    1  0.2468912E-015  0.9000822E+02  0.7816164E-02  0.1186338E+00
        -11   -1    0    0    0    0  0.00000000000E+00  0.00000000000E+00  0.45593999997E+02  0.45594000000E+02  0.51100000000E-03 0. -1.
         11   -1    0    0    0    0 -0.00000000000E+00 -0.00000000000E+00 -0.45593999997E+02  0.45594000000E+02  0.51100000000E-03 0.  1.
    9900012    2    1    2    0    0  0.10505849680E+01 -0.40859979052E+00  0.34812348473E+00  0.90008223528E+02  0.90000491277E+02 0.  0.
         12    1    1    2    0    0 -0.10505849680E+01  0.40859979052E+00 -0.34812348473E+00  0.11797764722E+01  0.00000000000E+00 0. -1.
         11    1    3    3    0    0  0.42204531772E+01  0.56667554092E+01  0.88526816583E+01  0.11326708025E+02  0.51100000000E-03 0. -1.
        -11    1    3    3    0    0 -0.19347348810E+02 -0.37879160164E+02 -0.50498954042E+01  0.42832839325E+02  0.51100000000E-03 0.  1.
         12    1    3    3    0    0  0.16177480601E+02  0.31803804965E+02 -0.34546627694E+01  0.35848676178E+02  0.00000000000E+00 0. -1.
</event>
<event>
 7    1  0.2468912E-015  0.9000770E+02  0.7816164E-02  0.1186339E+00
        -11   -1    0    0    0    0  0.00000000000E+00  0.00000000000E+00  0.45593999997E+02  0.45594000000E+02  0.51100000000E-03 0.  1.
         11   -1    0    0    0    0 -0.00000000000E+00 -0.00000000000E+00 -0.45593999997E+02  0.45594000000E+02  0.51100000000E-03 0. -1.
    9900012    2    1    2    0    0  0.80050226182E+00  0.86637474440E+00  0.41226050223E-01  0.90007699760E+02  0.89999960597E+02 0.  0.
         12    1    1    2    0    0 -0.80050226182E+00 -0.86637474440E+00 -0.41226050223E-01  0.11803002398E+01  0.00000000000E+00 0. -1.
         11    1    3    3    0    0 -0.10881448095E+02 -0.54143660029E+01 -0.50169473338E+01  0.13148803469E+02  0.51100000000E-03 0. -1.
        -11    1    3    3    0    0  0.52960584033E+01  0.20805456822E+02  0.36097513911E+02  0.41999354507E+02  0.51100000000E-03 0.  1.
         12    1    3    3    0    0  0.63858919531E+01 -0.14524716075E+02 -0.31039340527E+02  0.34859541785E+02  0.00000000000E+00 0. -1.
</event>
<event>
 7    1  0.2468912E-015  0.9000773E+02  0.7816164E-02  0.1186339E+00
        -11   -1    0    0    0    0  0.00000000000E+00  0.00000000000E+00  0.45593999997E+02  0.45594000000E+02  0.51100000000E-03 0.  1.
         11   -1    0    0    0    0 -0.00000000000E+00 -0.00000000000E+00 -0.45593999997E+02  0.45594000000E+02  0.51100000000E-03 0. -1.
    9900012    2    1    2    0    0  0.25120307121E+00 -0.83685558343E+00  0.79347733351E+00  0.90007730315E+02  0.89999991555E+02 0.  0.
         12    1    1    2    0    0 -0.25120307121E+00  0.83685558343E+00 -0.79347733351E+00  0.11802696850E+01  0.00000000000E+00 0. -1.
         11    1    3    3    0    0  0.16087741741E+02  0.26565822768E+02 -0.19162465894E+02  0.36493266133E+02  0.51100000000E-03 0. -1.
        -11    1    3    3    0    0 -0.54837727906E+01  0.39186034834E+01 -0.78673467930E+01  0.10359650723E+02  0.51100000000E-03 0.  1.
        -12    1    3    3    0    0 -0.10352765879E+02 -0.31321281835E+02  0.27823290020E+02  0.43154813459E+02  0.00000000000E+00 0.  1.
</event>
<event>
 7    1  0.2468912E-015  0.9000768E+02  0.7816164E-02  0.1186339E+00
        -11   -1    0    0    0    0  0.00000000000E+00  0.00000000000E+00  0.45593999997E+02  0.45594000000E+02  0.51100000000E-03 0.  1.
         11   -1    0    0    0    0 -0.00000000000E+00 -0.00000000000E+00 -0.45593999997E+02  0.45594000000E+02  0.51100000000E-03 0. -1.
    9900012    2    1    2    0    0 -0.75090813740E+00 -0.90904922732E+00 -0.53981089402E-01  0.90007683311E+02  0.89999943931E+02 0.  0.
         12    1    1    2    0    0  0.75090813740E+00  0.90904922732E+00  0.53981089402E-01  0.11803166891E+01  0.00000000000E+00 0. -1.
         11    1    3    3    0    0 -0.26398743370E+01 -0.54237583522E+01 -0.87160659454E+01  0.10599806461E+02  0.51100000000E-03 0. -1.
        -11    1    3    3    0    0 -0.35908590644E+02 -0.65002737654E+01  0.15140769024E+02  0.39508522219E+02  0.51100000000E-03 0.  1.
         12    1    3    3    0    0  0.37797556843E+02  0.11014982890E+02 -0.64786841684E+01  0.39899354631E+02  0.00000000000E+00 0. -1.
</event>
<event>
 7    1  0.4188171E-015  0.9000757E+02  0.7816164E-02  0.1186339E+00
        -11   -1    0    0    0    0  0.00000000000E+00  0.00000000000E+00  0.45593999997E+02  0.45594000000E+02  0.51100000000E-03 0. -1.
         11   -1    0    0    0    0 -0.00000000000E+00 -0.00000000000E+00 -0.45593999997E+02  0.45594000000E+02  0.51100000000E-03 0.  1.
    9900012    2    1    2    0    0 -0.29285501408E+00 -0.85755474554E+00 -0.75647209353E+00  0.90007570320E+02  0.89999829448E+02 0.  0.
         12    1    1    2    0    0  0.29285501408E+00  0.85755474554E+00  0.75647209353E+00  0.11804296799E+01  0.00000000000E+00 0. -1.
         11    1    3    3    0    0  0.28337108553E+02 -0.89538330332E+00  0.24114965006E+02  0.37219953921E+02  0.51100000000E-03 0. -1.
        -11    1    3    3    0    0  0.73401945050E+01  0.52981302049E+01 -0.59080932608E+00  0.90718077008E+01  0.51100000000E-03 0.  1.
        -12    1    3    3    0    0 -0.35970158072E+02 -0.52603016471E+01 -0.24280627773E+02  0.43715808699E+02  0.00000000000E+00 0.  1.
</event>
<event>
 7    1  0.2468912E-015  0.9000788E+02  0.7816164E-02  0.1186339E+00
        -11   -1    0    0    0    0  0.00000000000E+00  0.00000000000E+00  0.45593999997E+02  0.45594000000E+02  0.51100000000E-03 0.  1.
         11   -1    0    0    0    0 -0.00000000000E+00 -0.00000000000E+00 -0.45593999997E+02  0.45594000000E+02  0.51100000000E-03 0. -1.
    9900012    2    1    2    0    0  0.33415359093E+00  0.70336723993E+00 -0.88673148150E+00  0.90007882711E+02  0.90000145962E+02 0.  0.
         12    1    1    2    0    0 -0.33415359093E+00 -0.70336723993E+00  0.88673148150E+00  0.11801172894E+01  0.00000000000E+00 0. -1.
         11    1    3    3    0    0  0.93898225172E+00  0.14478745049E+02  0.33761811676E+01  0.14896789768E+02  0.51100000000E-03 0. -1.
        -11    1    3    3    0    0  0.34409921867E+02  0.57375982391E+00  0.80009936866E+01  0.35332532084E+02  0.51100000000E-03 0.  1.
         12    1    3    3    0    0 -0.35014750528E+02 -0.14349137633E+02 -0.12263906336E+02  0.39778560858E+02  0.00000000000E+00 0. -1.
</event>
<event>
 7    1  0.2468912E-015  0.9000767E+02  0.7816164E-02  0.1186339E+00
        -11   -1    0    0    0    0  0.00000000000E+00  0.00000000000E+00  0.45593999997E+02  0.45594000000E+02  0.51100000000E-03 0.  1.
         11   -1    0    0    0    0 -0.00000000000E+00 -0.00000000000E+00 -0.45593999997E+02  0.45594000000E+02  0.51100000000E-03 0. -1.
    9900012    2    1    2    0    0  0.58998400564E+00  0.23487427814E+00  0.99494986676E+00  0.90007672803E+02  0.89999933284E+02 0.  0.
         12    1    1    2    0    0 -0.58998400564E+00 -0.23487427814E+00 -0.99494986676E+00  0.11803271965E+01  0.00000000000E+00 0. -1.
         11    1    3    3    0    0  0.13311715436E+02 -0.29420260831E+02 -0.74799304387E+01  0.33146687238E+02  0.51100000000E-03 0. -1.
        -11    1    3    3    0    0  0.13347066027E+02 -0.31003084193E+01  0.59010103219E+01  0.14919048459E+02  0.51100000000E-03 0.  1.
        -12    1    3    3    0    0 -0.26068797458E+02  0.32755443528E+02  0.25738699836E+01  0.41941937107E+02  0.00000000000E+00 0.  1.
</event>
<event>
 7    1  0.2468912E-015  0.9000762E+02  0.7816164E-02  0.1186339E+00
        -11   -1    0    0    0    0  0.00000000000E+00  0.00000000000E+00  0.45593999997E+02  0.45594000000E+02  0.51100000000E-03 0.  1.
         11   -1    0    0    0    0 -0.00000000000E+00 -0.00000000000E+00 -0.45593999997E+02  0.45594000000E+02  0.51100000000E-03 0. -1.
    9900012    2    1    2    0    0  0.45673571799E+00 -0.97139333952E+00  0.49099501460E+00  0.90007623517E+02  0.89999883348E+02 0.  0.
         12    1    1    2    0    0 -0.45673571799E+00  0.97139333952E+00 -0.49099501460E+00  0.11803764825E+01  0.00000000000E+00 0. -1.
         11    1    3    3    0    0 -0.10599977713E+02  0.51440612840E+01 -0.37817460681E+02  0.39610367666E+02  0.51100000000E-03 0. -1.
        -11    1    3    3    0    0 -0.49923432873E+01 -0.86985489154E+01  0.14762933112E+01  0.10137439861E+02  0.51100000000E-03 0.  1.
        -12    1    3    3    0    0  0.16049056718E+02  0.25830942918E+01  0.36832162385E+02  0.40259815990E+02  0.00000000000E+00 0.  1.
</event>
<event>
 7    1  0.2468912E-015  0.9000771E+02  0.7816164E-02  0.1186339E+00
        -11   -1    0    0    0    0  0.00000000000E+00  0.00000000000E+00  0.45593999997E+02  0.45594000000E+02  0.51100000000E-03 0. -1.
         11   -1    0    0    0    0 -0.00000000000E+00 -0.00000000000E+00 -0.45593999997E+02  0.45594000000E+02  0.51100000000E-03 0.  1.
    9900012    2    1    2    0    0 -0.93560284217E+00  0.64330180259E+00 -0.32234199149E+00  0.90007705864E+02  0.89999966782E+02 0.  0.
         12    1    1    2    0    0  0.93560284217E+00 -0.64330180259E+00  0.32234199149E+00  0.11802941358E+01  0.00000000000E+00 0. -1.
         11    1    3    3    0    0  0.36312833202E+01  0.34464976425E+01 -0.54155937561E+01  0.73751759669E+01  0.51100000000E-03 0. -1.
        -11    1    3    3    0    0 -0.42354102141E+02  0.22432710394E+00  0.12171904120E+02  0.44068986158E+02  0.51100000000E-03 0.  1.
         12    1    3    3    0    0  0.37787215979E+02 -0.30275229439E+01 -0.70786523551E+01  0.38563543740E+02  0.00000000000E+00 0. -1.
</event>
<event>
 7    1  0.2468912E-015  0.9000771E+02  0.7816164E-02  0.1186339E+00
        -11   -1    0    0    0    0  0.00000000000E+00  0.00000000000E+00  0.45593999997E+02  0.45594000000E+02  0.51100000000E-03 0. -1.
         11   -1    0    0    0    0 -0.00000000000E+00 -0.00000000000E+00 -0.45593999997E+02  0.45594000000E+02  0.51100000000E-03 0.  1.
    9900012    2    1    2    0    0  0.10360588897E+01 -0.55494455349E+00 -0.10823338346E+00  0.90007705145E+02  0.89999966052E+02 0.  0.
         12    1    1    2    0    0 -0.10360588897E+01  0.55494455349E+00  0.10823338346E+00  0.11802948554E+01  0.00000000000E+00 0. -1.
         11    1    3    3    0    0 -0.20118494475E+02  0.31659496206E+02  0.19504656070E+02  0.42278944271E+02  0.51100000000E-03 0. -1.
        -11    1    3    3    0    0  0.10730275146E+02 -0.16909376523E+01 -0.22329617471E+01  0.11089823861E+02  0.51100000000E-03 0.  1.
        -12    1    3    3    0    0  0.10424278219E+02 -0.30523503107E+02 -0.17379927706E+02  0.36638937013E+02  0.00000000000E+00 0.  1.
</event>
<event>
 7    1  0.2468912E-015  0.9000766E+02  0.7816164E-02  0.1186339E+00
        -11   -1    0    0    0    0  0.00000000000E+00  0.00000000000E+00  0.45593999997E+02  0.45594000000E+02  0.51100000000E-03 0.  1.
         11   -1    0    0    0    0 -0.00000000000E+00 -0.00000000000E+00 -0.45593999997E+02  0.45594000000E+02  0.51100000000E-03 0. -1.
    9900012    2    1    2    0    0  0.82370612759E+00  0.57195064589E-01  0.84346868903E+00  0.90007660011E+02  0.89999920323E+02 0.  0.
         12    1    1    2    0    0 -0.82370612759E+00 -0.57195064589E-01 -0.84346868903E+00  0.11803399889E+01  0.00000000000E+00 0. -1.
         11    1    3    3    0    0  0.34689835464E+02 -0.12290982716E+02 -0.57634770567E+01  0.37251451095E+02  0.51100000000E-03 0. -1.
        -11    1    3    3    0    0  0.75198306579E+01 -0.31202953753E+01  0.15185235389E+01  0.82819086177E+01  0.51100000000E-03 0.  1.
        -12    1    3    3    0    0 -0.41385959994E+02  0.15468473156E+02  0.50884222068E+01  0.44474300298E+02  0.00000000000E+00 0.  1.
</event>
<event>
 7    1  0.2468912E-015  0.9000758E+02  0.7816164E-02  0.1186339E+00
        -11   -1    0    0    0    0  0.00000000000E+00  0.00000000000E+00  0.45593999997E+02  0.45594000000E+02  0.51100000000E-03 0. -1.
         11   -1    0    0    0    0 -0.00000000000E+00 -0.00000000000E+00 -0.45593999997E+02  0.45594000000E+02  0.51100000000E-03 0.  1.
    9900012    2    1    2    0    0  0.83931339477E+00 -0.66332250773E+00 -0.49895135202E+00  0.90007577967E+02  0.89999837196E+02 0.  0.
         12    1    1    2    0    0 -0.83931339477E+00  0.66332250773E+00  0.49895135202E+00  0.11804220328E+01  0.00000000000E+00 0. -1.
         11    1    3    3    0    0 -0.12841099717E+01  0.12135711486E+02  0.33169900724E+02  0.35343553103E+02  0.51100000000E-03 0. -1.
        -11    1    3    3    0    0  0.78207566250E+01  0.74079024004E+01  0.40397367551E+01  0.11504813144E+02  0.51100000000E-03 0.  1.
        -12    1    3    3    0    0 -0.56973332585E+01 -0.20206936394E+02 -0.37708588831E+02  0.43159211720E+02  0.00000000000E+00 0.  1.
</event>
<event>
 7    1  0.2468912E-015  0.9000775E+02  0.7816164E-02  0.1186339E+00
        -11   -1    0    0    0    0  0.00000000000E+00  0.00000000000E+00  0.45593999997E+02  0.45594000000E+02  0.51100000000E-03 0. -1.
         11   -1    0    0    0    0 -0.00000000000E+00 -0.00000000000E+00 -0.45593999997E+02  0.45594000000E+02  0.51100000000E-03 0.  1.
    9900012    2    1    2    0    0  0.10703351820E+01  0.48994534365E+00  0.85626564699E-01  0.90007747590E+02  0.90000009059E+02 0.  0.
         12    1    1    2    0    0 -0.10703351820E+01 -0.48994534365E+00 -0.85626564699E-01  0.11802524095E+01  0.00000000000E+00 0. -1.
         11    1    3    3    0    0 -0.43201470812E+01  0.19243091035E+01  0.90246887883E+01  0.10188799945E+02  0.51100000000E-03 0. -1.
        -11    1    3    3    0    0 -0.61615653179E+01  0.34475936441E+02  0.11567051626E+02  0.36882946795E+02  0.51100000000E-03 0.  1.
         12    1    3    3    0    0  0.11552047581E+02 -0.35910300201E+02 -0.20506113850E+02  0.42936000851E+02  0.00000000000E+00 0. -1.
</event>
<event>
 7    1  0.2468912E-015  0.9000771E+02  0.7816164E-02  0.1186339E+00
        -11   -1    0    0    0    0  0.00000000000E+00  0.00000000000E+00  0.45593999997E+02  0.45594000000E+02  0.51100000000E-03 0.  1.
         11   -1    0    0    0    0 -0.00000000000E+00 -0.00000000000E+00 -0.45593999997E+02  0.45594000000E+02  0.51100000000E-03 0. -1.
    9900012    2    1    2    0    0 -0.11054728394E+01  0.41309136692E+00 -0.19083143037E-01  0.90007712390E+02  0.89999973394E+02 0.  0.
         12    1    1    2    0    0  0.11054728394E+01 -0.41309136692E+00  0.19083143037E-01  0.11802876100E+01  0.00000000000E+00 0. -1.
         11    1    3    3    0    0 -0.77245602515E+01  0.50676692913E+01 -0.27281849377E+00  0.92425393328E+01  0.51100000000E-03 0. -1.
        -11    1    3    3    0    0  0.39173796286E+00  0.17315875913E+02  0.35078139549E+02  0.39121207699E+02  0.51100000000E-03 0.  1.
         12    1    3    3    0    0  0.62273494493E+01 -0.21970453838E+02 -0.34824404199E+02  0.41643965359E+02  0.00000000000E+00 0. -1.
</event>
<event>
 7    1  0.2468912E-015  0.9000771E+02  0.7816164E-02  0.1186339E+00
        -11   -1    0    0    0    0  0.00000000000E+00  0.00000000000E+00  0.45593999997E+02  0.45594000000E+02  0.51100000000E-03 0. -1.
         11   -1    0    0    0    0 -0.00000000000E+00 -0.00000000000E+00 -0.45593999997E+02  0.45594000000E+02  0.51100000000E-03 0.  1.
    9900012    2    1    2    0    0  0.10988506616E+01 -0.42912242285E+00  0.38214810091E-01  0.90007712238E+02  0.89999973239E+02 0.  0.
         12    1    1    2    0    0 -0.10988506616E+01  0.42912242285E+00 -0.38214810091E-01  0.11802877623E+01  0.00000000000E+00 0. -1.
         11    1    3    3    0    0  0.11582844075E+02  0.14248586989E+02 -0.76101346633E+01  0.19877088768E+02  0.51100000000E-03 0. -1.
        -11    1    3    3    0    0 -0.25884522720E+02 -0.15833757009E+02 -0.21469491668E+02  0.37170626175E+02  0.51100000000E-03 0.  1.
         12    1    3    3    0    0  0.15400529307E+02  0.11560475976E+01  0.29117841141E+02  0.32959997295E+02  0.00000000000E+00 0. -1.
</event>
<event>
 7    1  0.2468912E-015  0.9000779E+02  0.7816164E-02  0.1186339E+00
        -11   -1    0    0    0    0  0.00000000000E+00  0.00000000000E+00  0.45593999997E+02  0.45594000000E+02  0.51100000000E-03 0.  1.
         11   -1    0    0    0    0 -0.00000000000E+00 -0.00000000000E+00 -0.45593999997E+02  0.45594000000E+02  0.51100000000E-03 0. -1.
    9900012    2    1    2    0    0  0.89172436536E-01 -0.98623112043E+00  0.64210486491E+00  0.90007787221E+02  0.90000049212E+02 0.  0.
         12    1    1    2    0    0 -0.89172436536E-01  0.98623112043E+00 -0.64210486491E+00  0.11802127791E+01  0.00000000000E+00 0. -1.
         11    1    3    3    0    0  0.19021303015E+02 -0.15263405464E+02 -0.30933423867E+02  0.39391093246E+02  0.51100000000E-03 0. -1.
        -11    1    3    3    0    0  0.23701184390E-01  0.90583662394E+01 -0.40526347607E+01  0.99236288442E+01  0.51100000000E-03 0.  1.
        -12    1    3    3    0    0 -0.18955831763E+02  0.52188081039E+01  0.35628163493E+02  0.40693065130E+02  0.00000000000E+00 0.  1.
</event>
<event>
 7    1  0.2468912E-015  0.9000785E+02  0.7816164E-02  0.1186339E+00
        -11   -1    0    0    0    0  0.00000000000E+00  0.00000000000E+00  0.45593999997E+02  0.45594000000E+02  0.51100000000E-03 0.  1.
         11   -1    0    0    0    0 -0.00000000000E+00 -0.00000000000E+00 -0.45593999997E+02  0.45594000000E+02  0.51100000000E-03 0. -1.
    9900012    2    1    2    0    0 -0.78210443366E+00  0.80559380526E+00 -0.36344534287E+00  0.90007846942E+02  0.90000109721E+02 0.  0.
         12    1    1    2    0    0  0.78210443366E+00 -0.80559380526E+00  0.36344534287E+00  0.11801530585E+01  0.00000000000E+00 0. -1.
         11    1    3    3    0    0  0.17644561136E+02 -0.62098518926E+01 -0.30923363530E+02  0.36140658689E+02  0.51100000000E-03 0. -1.
        -11    1    3    3    0    0  0.56861971965E+01  0.47409462722E+01 -0.63276408624E+01  0.97390168527E+01  0.51100000000E-03 0.  1.
        -12    1    3    3    0    0 -0.24112862766E+02  0.22744994257E+01  0.36887559050E+02  0.44128171400E+02  0.00000000000E+00 0.  1.
</event>
<event>
 7    1  0.2468912E-015  0.9000774E+02  0.7816164E-02  0.1186339E+00
        -11   -1    0    0    0    0  0.00000000000E+00  0.00000000000E+00  0.45593999997E+02  0.45594000000E+02  0.51100000000E-03 0.  1.
         11   -1    0    0    0    0 -0.00000000000E+00 -0.00000000000E+00 -0.45593999997E+02  0.45594000000E+02  0.51100000000E-03 0. -1.
    9900012    2    1    2    0    0 -0.27112783890E+00  0.12385509329E+00  0.11420038088E+01  0.90007736009E+02  0.89999997324E+02 0.  0.
         12    1    1    2    0    0  0.27112783890E+00 -0.12385509329E+00 -0.11420038088E+01  0.11802639910E+01  0.00000000000E+00 0. -1.
         11    1    3    3    0    0  0.18990886669E+02 -0.30081870608E+02  0.23292161874E+02  0.42521729983E+02  0.51100000000E-03 0. -1.
        -11    1    3    3    0    0 -0.11195774810E+02  0.49929557188E+01  0.10272447937E+01  0.12301634547E+02  0.51100000000E-03 0.  1.
        -12    1    3    3    0    0 -0.80662396980E+01  0.25212769983E+02 -0.23177402859E+02  0.35184371478E+02  0.00000000000E+00 0.  1.
</event>
<event>
 7    1  0.2468912E-015  0.9000776E+02  0.7816164E-02  0.1186339E+00
        -11   -1    0    0    0    0  0.00000000000E+00  0.00000000000E+00  0.45593999997E+02  0.45594000000E+02  0.51100000000E-03 0. -1.
         11   -1    0    0    0    0 -0.00000000000E+00 -0.00000000000E+00 -0.45593999997E+02  0.45594000000E+02  0.51100000000E-03 0.  1.
    9900012    2    1    2    0    0 -0.96659446836E+00  0.19231385559E+00 -0.64936587683E+00  0.90007760394E+02  0.90000022031E+02 0.  0.
         12    1    1    2    0    0  0.96659446836E+00 -0.19231385559E+00  0.64936587683E+00  0.11802396059E+01  0.00000000000E+00 0. -1.
         11    1    3    3    0    0 -0.99238779824E+01  0.66227942017E+01  0.21798673170E+01  0.12128337851E+02  0.51100000000E-03 0. -1.
        -11    1    3    3    0    0 -0.30029180266E+02 -0.53564399093E+01 -0.18693012809E+02  0.35775296562E+02  0.51100000000E-03 0.  1.
         12    1    3    3    0    0  0.38986463780E+02 -0.10740404368E+01  0.15863779615E+02  0.42104125981E+02  0.00000000000E+00 0. -1.
</event>
<event>
 7    1  0.2468912E-015  0.9000791E+02  0.7816164E-02  0.1186339E+00
        -11   -1    0    0    0    0  0.00000000000E+00  0.00000000000E+00  0.45593999997E+02  0.45594000000E+02  0.51100000000E-03 0. -1.
         11   -1    0    0    0    0 -0.00000000000E+00 -0.00000000000E+00 -0.45593999997E+02  0.45594000000E+02  0.51100000000E-03 0.  1.
    9900012    2    1    2    0    0  0.98632334345E+00  0.26444310265E+00 -0.59148728785E+00  0.90007906316E+02  0.90000169879E+02 0.  0.
         12    1    1    2    0    0 -0.98632334345E+00 -0.26444310265E+00  0.59148728785E+00  0.11800936844E+01  0.00000000000E+00 0. -1.
         11    1    3    3    0    0  0.24332222974E+02 -0.23657711309E+01  0.30955916972E+02  0.39445186572E+02  0.51100000000E-03 0. -1.
        -11    1    3    3    0    0  0.14922532810E+01 -0.43248117024E+01  0.43809422654E+01  0.63343090791E+01  0.51100000000E-03 0.  1.
        -12    1    3    3    0    0 -0.24838152912E+02  0.69550259359E+01 -0.35928346525E+02  0.44228410664E+02  0.00000000000E+00 0.  1.
</event>
<event>
 7    1  0.2468912E-015  0.9000773E+02  0.7816164E-02  0.1186339E+00
        -11   -1    0    0    0    0  0.00000000000E+00  0.00000000000E+00  0.45593999997E+02  0.45594000000E+02  0.51100000000E-03 0.  1.
         11   -1    0    0    0    0 -0.00000000000E+00 -0.00000000000E+00 -0.45593999997E+02  0.45594000000E+02  0.51100000000E-03 0. -1.
    9900012    2    1    2    0    0 -0.10039212398E+01  0.27903765125E+00  0.55436034913E+00  0.90007730851E+02  0.89999992099E+02 0.  0.
         12    1    1    2    0    0  0.10039212398E+01 -0.27903765125E+00 -0.55436034913E+00  0.11802691486E+01  0.00000000000E+00 0. -1.
         11    1    3    3    0    0  0.84669909155E+00 -0.57982792461E+01  0.66261828753E+01  0.88455209753E+01  0.51100000000E-03 0. -1.
        -11    1    3    3    0    0 -0.18060423246E+00  0.39302562385E+00  0.37342751795E+02  0.37345256712E+02  0.51100000000E-03 0.  1.
         12    1    3    3    0    0 -0.16700160989E+01  0.56842912735E+01 -0.43414574321E+02  0.43816953164E+02  0.00000000000E+00 0. -1.
</event>
<event>
 7    1  0.2468912E-015  0.9000769E+02  0.7816164E-02  0.1186339E+00
        -11   -1    0    0    0    0  0.00000000000E+00  0.00000000000E+00  0.45593999997E+02  0.45594000000E+02  0.51100000000E-03 0. -1.
         11   -1    0    0    0    0 -0.00000000000E+00 -0.00000000000E+00 -0.45593999997E+02  0.45594000000E+02  0.51100000000E-03 0.  1.
    9900012    2    1    2    0    0  0.58911286620E+00 -0.32492011918E+00 -0.96979648944E+00  0.90007689751E+02  0.89999950456E+02 0.  0.
         12    1    1    2    0    0 -0.58911286620E+00  0.32492011918E+00  0.96979648944E+00  0.11803102490E+01  0.00000000000E+00 0. -1.
         11    1    3    3    0    0 -0.13652723399E+02 -0.12642693817E+02  0.67874047706E+01  0.19806651079E+02  0.51100000000E-03 0. -1.
        -11    1    3    3    0    0 -0.17039967940E+02  0.17385500356E+02 -0.24348746131E+02  0.34430764854E+02  0.51100000000E-03 0.  1.
         12    1    3    3    0    0  0.31281804205E+02 -0.50677266581E+01  0.16591544871E+02  0.35770273818E+02  0.00000000000E+00 0. -1.
</event>
<event>
 7    1  0.2468912E-015  0.9000767E+02  0.7816164E-02  0.1186339E+00
        -11   -1    0    0    0    0  0.00000000000E+00  0.00000000000E+00  0.45593999997E+02  0.45594000000E+02  0.51100000000E-03 0.  1.
         11   -1    0    0    0    0 -0.00000000000E+00 -0.00000000000E+00 -0.45593999997E+02  0.45594000000E+02  0.51100000000E-03 0. -1.
    9900012    2    1    2    0    0  0.49001695808E+00 -0.10733267385E+01  0.32241673307E-01  0.90007666813E+02  0.89999927215E+02 0.  0.
         12    1    1    2    0    0 -0.49001695808E+00  0.10733267385E+01 -0.32241673307E-01  0.11803331870E+01  0.00000000000E+00 0. -1.
         11    1    3    3    0    0  0.38664249882E+02  0.17795550162E+02 -0.48496388976E+01  0.42838356904E+02  0.51100000000E-03 0. -1.
        -11    1    3    3    0    0 -0.30035266683E+00 -0.42663806749E+01  0.49974197193E+01  0.65777214824E+01  0.51100000000E-03 0.  1.
        -12    1    3    3    0    0 -0.37873880257E+02 -0.14602496225E+02 -0.11553914841E+00  0.40591588427E+02  0.00000000000E+00 0.  1.
</event>
<event>
 7    1  0.2468912E-015  0.9000763E+02  0.7816164E-02  0.1186339E+00
        -11   -1    0    0    0    0  0.00000000000E+00  0.00000000000E+00  0.45593999997E+02  0.45594000000E+02  0.51100000000E-03 0.  1.
         11   -1    0    0    0    0 -0.00000000000E+00 -0.00000000000E+00 -0.45593999997E+02  0.45594000000E+02  0.51100000000E-03 0. -1.
    9900012    2    1    2    0    0  0.11375515264E+01 -0.24768607457E+00 -0.19467403216E+00  0.90007631479E+02  0.89999891414E+02 0.  0.
         12    1    1    2    0    0 -0.11375515264E+01  0.24768607457E+00  0.19467403216E+00  0.11803685211E+01  0.00000000000E+00 0. -1.
         11    1    3    3    0    0  0.49439866962E+01 -0.35944668132E+02 -0.19318964215E+02  0.41105772711E+02  0.51100000000E-03 0. -1.
        -11    1    3    3    0    0 -0.27847864545E+01 -0.40838506632E+01  0.38955061636E+01  0.62934760163E+01  0.51100000000E-03 0.  1.
        -12    1    3    3    0    0 -0.10216487154E+01  0.39780832720E+02  0.15228784019E+02  0.42608382752E+02  0.00000000000E+00 0.  1.
</event>
<event>
 7    1  0.2468912E-015  0.9000778E+02  0.7816164E-02  0.1186339E+00
        -11   -1    0    0    0    0  0.00000000000E+00  0.00000000000E+00  0.45593999997E+02  0.45594000000E+02  0.51100000000E-03 0. -1.
         11   -1    0    0    0    0 -0.00000000000E+00 -0.00000000000E+00 -0.45593999997E+02  0.45594000000E+02  0.51100000000E-03 0.  1.
    9900012    2    1    2    0    0  0.60151406518E+00 -0.10152383902E+01  0.19890401336E-01  0.90007778077E+02  0.90000039948E+02 0.  0.
         12    1    1    2    0    0 -0.60151406518E+00  0.10152383902E+01 -0.19890401336E-01  0.11802219230E+01  0.00000000000E+00 0. -1.
         11    1    3    3    0    0 -0.77112155306E+01  0.46516118921E+01  0.49582428193E+01  0.10280297188E+02  0.51100000000E-03 0. -1.
        -11    1    3    3    0    0 -0.23441586870E+02  0.18458967678E+01 -0.30332721509E+02  0.38379543044E+02  0.51100000000E-03 0.  1.
         12    1    3    3    0    0  0.31754316466E+02 -0.75127470501E+01  0.25394369091E+02  0.41347937845E+02  0.00000000000E+00 0. -1.
</event>
<event>
 7    1  0.2468912E-015  0.9000777E+02  0.7816164E-02  0.1186339E+00
        -11   -1    0    0    0    0  0.00000000000E+00  0.00000000000E+00  0.45593999997E+02  0.45594000000E+02  0.51100000000E-03 0.  1.
         11   -1    0    0    0    0 -0.00000000000E+00 -0.00000000000E+00 -0.45593999997E+02  0.45594000000E+02  0.51100000000E-03 0. -1.
    9900012    2    1    2    0    0  0.10326749370E+01 -0.52349244333E+00 -0.22910248329E+00  0.90007767052E+02  0.90000028777E+02 0.  0.
         12    1    1    2    0    0 -0.10326749370E+01  0.52349244333E+00  0.22910248329E+00  0.11802329481E+01  0.00000000000E+00 0. -1.
         11    1    3    3    0    0  0.16090752850E+01  0.34671969348E+01 -0.42479905655E+02  0.42651529428E+02  0.51100000000E-03 0. -1.
        -11    1    3    3    0    0 -0.45988044688E+01  0.69409403948E+01  0.96964296805E+01  0.12780704398E+02  0.51100000000E-03 0.  1.
        -12    1    3    3    0    0  0.40224041208E+01 -0.10931629773E+02  0.32554373491E+02  0.34575533225E+02  0.00000000000E+00 0.  1.
</event>
<event>
 7    1  0.2468912E-015  0.9000774E+02  0.7816164E-02  0.1186339E+00
        -11   -1    0    0    0    0  0.00000000000E+00  0.00000000000E+00  0.45593999997E+02  0.45594000000E+02  0.51100000000E-03 0. -1.
         11   -1    0    0    0    0 -0.00000000000E+00 -0.00000000000E+00 -0.45593999997E+02  0.45594000000E+02  0.51100000000E-03 0.  1.
    9900012    2    1    2    0    0  0.11551932335E+01 -0.20182650659E+00 -0.13344116586E+00  0.90007740753E+02  0.90000002131E+02 0.  0.
         12    1    1    2    0    0 -0.11551932335E+01  0.20182650659E+00  0.13344116586E+00  0.11802592470E+01  0.00000000000E+00 0. -1.
         11    1    3    3    0    0  0.60737858737E+01 -0.52487158255E+01 -0.69032046134E+01  0.10587451386E+02  0.51100000000E-03 0. -1.
        -11    1    3    3    0    0 -0.10887724245E+02  0.27355869332E+02 -0.26034512625E+02  0.39302442341E+02  0.51100000000E-03 0.  1.
         12    1    3    3    0    0  0.59691316050E+01 -0.22308980013E+02  0.32804276072E+02  0.40117847025E+02  0.00000000000E+00 0. -1.
</event>
<event>
 7    1  0.2468912E-015  0.9000769E+02  0.7816164E-02  0.1186339E+00
        -11   -1    0    0    0    0  0.00000000000E+00  0.00000000000E+00  0.45593999997E+02  0.45594000000E+02  0.51100000000E-03 0. -1.
         11   -1    0    0    0    0 -0.00000000000E+00 -0.00000000000E+00 -0.45593999997E+02  0.45594000000E+02  0.51100000000E-03 0.  1.
    9900012    2    1    2    0    0 -0.66889394193E+00 -0.41619428656E+00 -0.87892258022E+00  0.90007685766E+02  0.89999946418E+02 0.  0.
         12    1    1    2    0    0  0.66889394193E+00  0.41619428656E+00  0.87892258022E+00  0.11803142343E+01  0.00000000000E+00 0. -1.
         11    1    3    3    0    0  0.20117561622E+01  0.99071359696E+01 -0.16564799150E+00  0.10110684719E+02  0.51100000000E-03 0. -1.
        -11    1    3    3    0    0  0.31953121532E+02  0.50046858063E+01  0.18676773772E+02  0.37347968277E+02  0.51100000000E-03 0.  1.
         12    1    3    3    0    0 -0.34633771636E+02 -0.15328016062E+02 -0.19390048360E+02  0.42549032769E+02  0.00000000000E+00 0. -1.
</event>
<event>
 7    1  0.2468912E-015  0.9000769E+02  0.7816164E-02  0.1186339E+00
        -11   -1    0    0    0    0  0.00000000000E+00  0.00000000000E+00  0.45593999997E+02  0.45594000000E+02  0.51100000000E-03 0. -1.
         11   -1    0    0    0    0 -0.00000000000E+00 -0.00000000000E+00 -0.45593999997E+02  0.45594000000E+02  0.51100000000E-03 0.  1.
    9900012    2    1    2    0    0  0.10500790078E+01  0.53176251710E+00 -0.87677542640E-01  0.90007692985E+02  0.89999953733E+02 0.  0.
         12    1    1    2    0    0 -0.10500790078E+01 -0.53176251710E+00  0.87677542640E-01  0.11803070146E+01  0.00000000000E+00 0. -1.
         11    1    3    3    0    0 -0.36731494656E+01  0.36005488239E+02  0.16624242412E+02  0.39827787365E+02  0.51100000000E-03 0. -1.
        -11    1    3    3    0    0  0.85518669510E+01  0.26176313761E+01 -0.43873412003E+01  0.99616858733E+01  0.51100000000E-03 0.  1.
        -12    1    3    3    0    0 -0.38286384776E+01 -0.38091357098E+02 -0.12324578754E+02  0.40218219747E+02  0.00000000000E+00 0.  1.
</event>
<event>
 7    1  0.2468912E-015  0.9000774E+02  0.7816164E-02  0.1186339E+00
        -11   -1    0    0    0    0  0.00000000000E+00  0.00000000000E+00  0.45593999997E+02  0.45594000000E+02  0.51100000000E-03 0.  1.
         11   -1    0    0    0    0 -0.00000000000E+00 -0.00000000000E+00 -0.45593999997E+02  0.45594000000E+02  0.51100000000E-03 0. -1.
    9900012    2    1    2    0    0 -0.10800656532E+00 -0.11285852394E+01  0.32808161402E+00  0.90007742568E+02  0.90000003970E+02 0.  0.
         12    1    1    2    0    0  0.10800656532E+00  0.11285852394E+01 -0.32808161402E+00  0.11802574321E+01  0.00000000000E+00 0. -1.
         11    1    3    3    0    0 -0.67272234151E+01 -0.24658122842E+01  0.72081101303E+01  0.10163297546E+02  0.51100000000E-03 0. -1.
        -11    1    3    3    0    0 -0.10193652182E+01 -0.98628879558E+01  0.34711130079E+02  0.36099559774E+02  0.51100000000E-03 0.  1.
         12    1    3    3    0    0  0.76385820680E+01  0.11200115001E+02 -0.41591158595E+02  0.43744885248E+02  0.00000000000E+00 0. -1.
</event>
<event>
 7    1  0.2468912E-015  0.9000772E+02  0.7816164E-02  0.1186339E+00
        -11   -1    0    0    0    0  0.00000000000E+00  0.00000000000E+00  0.45593999997E+02  0.45594000000E+02  0.51100000000E-03 0.  1.
         11   -1    0    0    0    0 -0.00000000000E+00 -0.00000000000E+00 -0.45593999997E+02  0.45594000000E+02  0.51100000000E-03 0. -1.
    9900012    2    1    2    0    0  0.71637238552E+00  0.93716066812E+00  0.39956754974E-01  0.90007722043E+02  0.89999983174E+02 0.  0.
         12    1    1    2    0    0 -0.71637238552E+00 -0.93716066812E+00 -0.39956754974E-01  0.11802779566E+01  0.00000000000E+00 0. -1.
         11    1    3    3    0    0  0.92764932102E+01 -0.15131066924E+01 -0.23957522953E+01  0.96996106862E+01  0.51100000000E-03 0. -1.
        -11    1    3    3    0    0  0.29100264300E+02  0.18756407344E+02  0.14496412055E+02  0.37533640398E+02  0.51100000000E-03 0.  1.
         12    1    3    3    0    0 -0.37660385125E+02 -0.16306139983E+02 -0.12060703005E+02  0.42774470959E+02  0.00000000000E+00 0. -1.
</event>
<event>
 7    1  0.2468912E-015  0.9000776E+02  0.7816164E-02  0.1186339E+00
        -11   -1    0    0    0    0  0.00000000000E+00  0.00000000000E+00  0.45593999997E+02  0.45594000000E+02  0.51100000000E-03 0. -1.
         11   -1    0    0    0    0 -0.00000000000E+00 -0.00000000000E+00 -0.45593999997E+02  0.45594000000E+02  0.51100000000E-03 0.  1.
    9900012    2    1    2    0    0 -0.10570286337E+01 -0.49709110157E+00  0.16899651909E+00  0.90007758957E+02  0.90000020575E+02 0.  0.
         12    1    1    2    0    0  0.10570286337E+01  0.49709110157E+00 -0.16899651909E+00  0.11802410428E+01  0.00000000000E+00 0. -1.
         11    1    3    3    0    0  0.84155053925E+01  0.50380218058E+01  0.17370263601E+01  0.99609063625E+01  0.51100000000E-03 0. -1.
        -11    1    3    3    0    0  0.43167385480E+01 -0.29887395844E+02 -0.28270882314E+02  0.41365848826E+02  0.51100000000E-03 0.  1.
         12    1    3    3    0    0 -0.13789272574E+02  0.24352282936E+02  0.26702852473E+02  0.38681003769E+02  0.00000000000E+00 0. -1.
</event>
<event>
 7    1  0.2468912E-015  0.9000771E+02  0.7816164E-02  0.1186339E+00
        -11   -1    0    0    0    0  0.00000000000E+00  0.00000000000E+00  0.45593999997E+02  0.45594000000E+02  0.51100000000E-03 0.  1.
         11   -1    0    0    0    0 -0.00000000000E+00 -0.00000000000E+00 -0.45593999997E+02  0.45594000000E+02  0.51100000000E-03 0. -1.
    9900012    2    1    2    0    0 -0.52599638369E-01 -0.88971288528E+00 -0.77376899742E+00  0.90007714356E+02  0.89999975385E+02 0.  0.
         12    1    1    2    0    0  0.52599638369E-01  0.88971288528E+00  0.77376899742E+00  0.11802856441E+01  0.00000000000E+00 0. -1.
         11    1    3    3    0    0 -0.19394591673E+02 -0.25537853872E+02 -0.18276353560E+02  0.36910124170E+02  0.51100000000E-03 0. -1.
        -11    1    3    3    0    0 -0.99697227979E+01  0.14061096979E+00 -0.20479167046E+01  0.10178855889E+02  0.51100000000E-03 0.  1.
        -12    1    3    3    0    0  0.29311714832E+02  0.24507530017E+02  0.19550501267E+02  0.42918734298E+02  0.00000000000E+00 0.  1.
</event>
<event>
 7    1  0.2468912E-015  0.9000717E+02  0.7816164E-02  0.1186340E+00
        -11   -1    0    0    0    0  0.00000000000E+00  0.00000000000E+00  0.45593999997E+02  0.45594000000E+02  0.51100000000E-03 0.  1.
         11   -1    0    0    0    0 -0.00000000000E+00 -0.00000000000E+00 -0.45593999997E+02  0.45594000000E+02  0.51100000000E-03 0. -1.
    9900012    2    1    2    0    0 -0.83691589337E+00 -0.82672060772E+00  0.10232180637E+00  0.90007167697E+02  0.89999421509E+02 0.  0.
         12    1    1    2    0    0  0.83691589337E+00  0.82672060772E+00 -0.10232180637E+00  0.11808323030E+01  0.00000000000E+00 0. -1.
         11    1    3    3    0    0  0.24379360733E+02 -0.33799908827E+02 -0.11769437029E+02  0.43304811681E+02  0.51100000000E-03 0. -1.
        -11    1    3    3    0    0 -0.33421029201E+01  0.10061678598E+02 -0.39247922020E+01  0.11305353698E+02  0.51100000000E-03 0.  1.
        -12    1    3    3    0    0 -0.21874173706E+02  0.22911509621E+02  0.15796551038E+02  0.35397002319E+02  0.00000000000E+00 0.  1.
</event>
<event>
 7    1  0.2468912E-015  0.9000777E+02  0.7816164E-02  0.1186339E+00
        -11   -1    0    0    0    0  0.00000000000E+00  0.00000000000E+00  0.45593999997E+02  0.45594000000E+02  0.51100000000E-03 0.  1.
         11   -1    0    0    0    0 -0.00000000000E+00 -0.00000000000E+00 -0.45593999997E+02  0.45594000000E+02  0.51100000000E-03 0. -1.
    9900012    2    1    2    0    0  0.54213610309E-01 -0.42445616941E+00  0.10999234420E+01  0.90007773863E+02  0.90000035678E+02 0.  0.
         12    1    1    2    0    0 -0.54213610309E-01  0.42445616941E+00 -0.10999234420E+01  0.11802261366E+01  0.00000000000E+00 0. -1.
         11    1    3    3    0    0  0.57544005391E+01  0.13132402621E+02 -0.18305905603E+01  0.14454209983E+02  0.51100000000E-03 0. -1.
        -11    1    3    3    0    0 -0.25781900878E+02  0.58941004613E+00  0.29624912393E+02  0.39277083034E+02  0.51100000000E-03 0.  1.
         12    1    3    3    0    0  0.20081713949E+02 -0.14146268837E+02 -0.26694398391E+02  0.36276480846E+02  0.00000000000E+00 0. -1.
</event>
<event>
 7    1  0.2468912E-015  0.9000747E+02  0.7816164E-02  0.1186340E+00
        -11   -1    0    0    0    0  0.00000000000E+00  0.00000000000E+00  0.45593999997E+02  0.45594000000E+02  0.51100000000E-03 0.  1.
         11   -1    0    0    0    0 -0.00000000000E+00 -0.00000000000E+00 -0.45593999997E+02  0.45594000000E+02  0.51100000000E-03 0. -1.
    9900012    2    1    2    0    0  0.56469361741E+00  0.33371693519E+00  0.98153690558E+00  0.90007465980E+02  0.89999723731E+02 0.  0.
         12    1    1    2    0    0 -0.56469361741E+00 -0.33371693519E+00 -0.98153690558E+00  0.11805340196E+01  0.00000000000E+00 0. -1.
         11    1    3    3    0    0  0.28588763798E+02 -0.10219663104E+02  0.98519719365E+01  0.31918964281E+02  0.51100000000E-03 0. -1.
        -11    1    3    3    0    0  0.85313074808E+01  0.11030587768E+02  0.97946135028E+01  0.17040878140E+02  0.51100000000E-03 0.  1.
        -12    1    3    3    0    0 -0.36555377661E+02 -0.47720772851E+00 -0.18665048534E+02  0.41047623560E+02  0.00000000000E+00 0.  1.
</event>
<event>
 7    1  0.2468912E-015  0.9000708E+02  0.7816164E-02  0.1186340E+00
        -11   -1    0    0    0    0  0.00000000000E+00  0.00000000000E+00  0.45593999997E+02  0.45594000000E+02  0.51100000000E-03 0.  1.
         11   -1    0    0    0    0 -0.00000000000E+00 -0.00000000000E+00 -0.45593999997E+02  0.45594000000E+02  0.51100000000E-03 0. -1.
    9900012    2    1    2    0    0 -0.90744430303E+00 -0.72025253588E+00 -0.22881125493E+00  0.90007079398E+02  0.89999332043E+02 0.  0.
         12    1    1    2    0    0  0.90744430303E+00  0.72025253588E+00  0.22881125493E+00  0.11809206023E+01  0.00000000000E+00 0. -1.
         11    1    3    3    0    0  0.36115611140E+02  0.91224916973E+01 -0.61665490667E+01  0.37756900700E+02  0.51100000000E-03 0. -1.
        -11    1    3    3    0    0  0.43759097073E+01 -0.26620461347E+01 -0.66445611632E+01  0.83895928806E+01  0.51100000000E-03 0.  1.
        -12    1    3    3    0    0 -0.41398965151E+02 -0.71806980984E+01  0.12582298975E+02  0.43860585817E+02  0.00000000000E+00 0.  1.
</event>
<event>
 7    1  0.2468912E-015  0.9000800E+02  0.7816164E-02  0.1186339E+00
        -11   -1    0    0    0    0  0.00000000000E+00  0.00000000000E+00  0.45593999997E+02  0.45594000000E+02  0.51100000000E-03 0. -1.
         11   -1    0    0    0    0 -0.00000000000E+00 -0.00000000000E+00 -0.45593999997E+02  0.45594000000E+02  0.51100000000E-03 0.  1.
    9900012    2    1    2    0    0 -0.10364967895E+01  0.56213113417E+00 -0.45677919478E-01  0.90007998526E+02  0.90000263306E+02 0.  0.
         12    1    1    2    0    0  0.10364967895E+01 -0.56213113417E+00  0.45677919478E-01  0.11800014741E+01  0.00000000000E+00 0. -1.
         11    1    3    3    0    0 -0.11376710693E+02 -0.24902170100E+02  0.29231424232E+02  0.40050265726E+02  0.51100000000E-03 0. -1.
        -11    1    3    3    0    0  0.10191915256E+01  0.69949710811E+01  0.58604246064E+01  0.91822082649E+01  0.51100000000E-03 0.  1.
        -12    1    3    3    0    0  0.93210223776E+01  0.18469330153E+02 -0.35137526758E+02  0.40775524535E+02  0.00000000000E+00 0.  1.
</event>
<event>
 7    1  0.2468912E-015  0.9000776E+02  0.7816164E-02  0.1186339E+00
        -11   -1    0    0    0    0  0.00000000000E+00  0.00000000000E+00  0.45593999997E+02  0.45594000000E+02  0.51100000000E-03 0.  1.
         11   -1    0    0    0    0 -0.00000000000E+00 -0.00000000000E+00 -0.45593999997E+02  0.45594000000E+02  0.51100000000E-03 0. -1.
    9900012    2    1    2    0    0 -0.10340971707E+01 -0.53041336522E+00  0.20560280813E+00  0.90007759427E+02  0.90000021051E+02 0.  0.
         12    1    1    2    0    0  0.10340971707E+01  0.53041336522E+00 -0.20560280813E+00  0.11802405734E+01  0.00000000000E+00 0. -1.
         11    1    3    3    0    0  0.10568436000E+01 -0.80903464660E+01  0.22011428739E+01  0.84507783397E+01  0.51100000000E-03 0. -1.
        -11    1    3    3    0    0  0.92453764607E+01 -0.20837069350E+02  0.29750984510E+02  0.37480415213E+02  0.51100000000E-03 0.  1.
         12    1    3    3    0    0 -0.11336317231E+02  0.28397002451E+02 -0.31746524576E+02  0.44076565873E+02  0.00000000000E+00 0. -1.
</event>
<event>
 7    1  0.2468912E-015  0.9000777E+02  0.7816164E-02  0.1186339E+00
        -11   -1    0    0    0    0  0.00000000000E+00  0.00000000000E+00  0.45593999997E+02  0.45594000000E+02  0.51100000000E-03 0. -1.
         11   -1    0    0    0    0 -0.00000000000E+00 -0.00000000000E+00 -0.45593999997E+02  0.45594000000E+02  0.51100000000E-03 0.  1.
    9900012    2    1    2    0    0  0.78717882056E+00 -0.87618174023E+00 -0.74852321746E-01  0.90007767901E+02  0.90000029637E+02 0.  0.
         12    1    1    2    0    0 -0.78717882056E+00  0.87618174023E+00  0.74852321746E-01  0.11802320990E+01  0.00000000000E+00 0. -1.
         11    1    3    3    0    0  0.99750363958E+01  0.35979713428E+01 -0.29223987343E+01  0.10999416507E+02  0.51100000000E-03 0. -1.
        -11    1    3    3    0    0  0.17998621520E+02  0.22047172362E+02 -0.19908393777E+02  0.34732871013E+02  0.51100000000E-03 0.  1.
         12    1    3    3    0    0 -0.27186479095E+02 -0.26521325445E+02  0.22755940190E+02  0.44275480380E+02  0.00000000000E+00 0. -1.
</event>
<event>
 7    1  0.2468912E-015  0.9000775E+02  0.7816164E-02  0.1186339E+00
        -11   -1    0    0    0    0  0.00000000000E+00  0.00000000000E+00  0.45593999997E+02  0.45594000000E+02  0.51100000000E-03 0. -1.
         11   -1    0    0    0    0 -0.00000000000E+00 -0.00000000000E+00 -0.45593999997E+02  0.45594000000E+02  0.51100000000E-03 0.  1.
    9900012    2    1    2    0    0 -0.55362082165E+00  0.55337980889E+00 -0.88333016357E+00  0.90007746889E+02  0.90000008348E+02 0.  0.
         12    1    1    2    0    0  0.55362082165E+00 -0.55337980889E+00  0.88333016357E+00  0.11802531105E+01  0.00000000000E+00 0. -1.
         11    1    3    3    0    0 -0.36300980639E+02  0.21536813976E+02 -0.10559120556E+02  0.43509660753E+02  0.51100000000E-03 0. -1.
        -11    1    3    3    0    0  0.28693510970E+01 -0.10936331314E+01 -0.45788571227E+01  0.55131789337E+01  0.51100000000E-03 0.  1.
        -12    1    3    3    0    0  0.32878008721E+02 -0.19889801036E+02  0.14254647515E+02  0.40984907203E+02  0.00000000000E+00 0.  1.
</event>
<event>
 7    1  0.2468912E-015  0.9000774E+02  0.7816164E-02  0.1186339E+00
        -11   -1    0    0    0    0  0.00000000000E+00  0.00000000000E+00  0.45593999997E+02  0.45594000000E+02  0.51100000000E-03 0.  1.
         11   -1    0    0    0    0 -0.00000000000E+00 -0.00000000000E+00 -0.45593999997E+02  0.45594000000E+02  0.51100000000E-03 0. -1.
    9900012    2    1    2    0    0 -0.11755361215E+01  0.99699032770E-01 -0.34421021874E-01  0.90007741606E+02  0.90000002995E+02 0.  0.
         12    1    1    2    0    0  0.11755361215E+01 -0.99699032770E-01  0.34421021874E-01  0.11802583941E+01  0.00000000000E+00 0. -1.
         11    1    3    3    0    0 -0.56943305832E+01 -0.85224203391E+01  0.38004269153E+01  0.10931619012E+02  0.51100000000E-03 0. -1.
        -11    1    3    3    0    0 -0.28022943325E+02 -0.12029033762E+01  0.22595047874E+02  0.36017613994E+02  0.51100000000E-03 0.  1.
         12    1    3    3    0    0  0.32541737787E+02  0.98250227481E+01 -0.26429895812E+02  0.43058508599E+02  0.00000000000E+00 0. -1.
</event>
<event>
 7    1  0.2468912E-015  0.9000768E+02  0.7816164E-02  0.1186339E+00
        -11   -1    0    0    0    0  0.00000000000E+00  0.00000000000E+00  0.45593999997E+02  0.45594000000E+02  0.51100000000E-03 0. -1.
         11   -1    0    0    0    0 -0.00000000000E+00 -0.00000000000E+00 -0.45593999997E+02  0.45594000000E+02  0.51100000000E-03 0.  1.
    9900012    2    1    2    0    0 -0.39160319569E+00  0.10888220515E+01  0.23294170582E+00  0.90007682940E+02  0.89999943555E+02 0.  0.
         12    1    1    2    0    0  0.39160319569E+00 -0.10888220515E+01 -0.23294170582E+00  0.11803170596E+01  0.00000000000E+00 0. -1.
         11    1    3    3    0    0 -0.46303668917E+01  0.36392441020E+02 -0.17216985709E+02  0.40524988070E+02  0.51100000000E-03 0. -1.
        -11    1    3    3    0    0  0.25230181594E+01  0.36803978715E+01  0.82679593157E+01  0.93952169018E+01  0.51100000000E-03 0.  1.
        -12    1    3    3    0    0  0.17157455366E+01 -0.38984016840E+02  0.91819680993E+01  0.40087477968E+02  0.00000000000E+00 0.  1.
</event>
<event>
 7    1  0.2468912E-015  0.9000767E+02  0.7816164E-02  0.1186339E+00
        -11   -1    0    0    0    0  0.00000000000E+00  0.00000000000E+00  0.45593999997E+02  0.45594000000E+02  0.51100000000E-03 0.  1.
         11   -1    0    0    0    0 -0.00000000000E+00 -0.00000000000E+00 -0.45593999997E+02  0.45594000000E+02  0.51100000000E-03 0. -1.
    9900012    2    1    2    0    0 -0.83155451153E+00  0.37366309604E+00  0.74971595564E+00  0.90007669102E+02  0.89999929534E+02 0.  0.
         12    1    1    2    0    0  0.83155451153E+00 -0.37366309604E+00 -0.74971595564E+00  0.11803308981E+01  0.00000000000E+00 0. -1.
         11    1    3    3    0    0  0.93902202663E+01 -0.21318935999E+01 -0.25496187184E+01  0.99610121394E+01  0.51100000000E-03 0. -1.
        -11    1    3    3    0    0 -0.19889001232E+02 -0.35453520546E+02 -0.82310317088E+00  0.40659586671E+02  0.51100000000E-03 0.  1.
         12    1    3    3    0    0  0.96672264545E+01  0.37959077242E+02  0.41224378449E+01  0.39387070292E+02  0.00000000000E+00 0. -1.
</event>
<event>
 7    1  0.2468912E-015  0.9000773E+02  0.7816164E-02  0.1186339E+00
        -11   -1    0    0    0    0  0.00000000000E+00  0.00000000000E+00  0.45593999997E+02  0.45594000000E+02  0.51100000000E-03 0.  1.
         11   -1    0    0    0    0 -0.00000000000E+00 -0.00000000000E+00 -0.45593999997E+02  0.45594000000E+02  0.51100000000E-03 0. -1.
    9900012    2    1    2    0    0  0.84617053673E+00  0.10713922311E+00  0.81582147399E+00  0.90007725427E+02  0.89999986603E+02 0.  0.
         12    1    1    2    0    0 -0.84617053673E+00 -0.10713922311E+00 -0.81582147399E+00  0.11802745730E+01  0.00000000000E+00 0. -1.
         11    1    3    3    0    0  0.23273275459E+02 -0.62716459957E+01  0.28143485462E+02  0.37054482431E+02  0.51100000000E-03 0. -1.
        -11    1    3    3    0    0 -0.11251209390E+01 -0.33178249656E+01  0.90455991886E+01  0.97003466212E+01  0.51100000000E-03 0.  1.
        -12    1    3    3    0    0 -0.21301983983E+02  0.96966101844E+01 -0.36373263176E+02  0.43252896374E+02  0.00000000000E+00 0.  1.
</event>
<event>
 7    1  0.2468912E-015  0.9000773E+02  0.7816164E-02  0.1186339E+00
        -11   -1    0    0    0    0  0.00000000000E+00  0.00000000000E+00  0.45593999997E+02  0.45594000000E+02  0.51100000000E-03 0.  1.
         11   -1    0    0    0    0 -0.00000000000E+00 -0.00000000000E+00 -0.45593999997E+02  0.45594000000E+02  0.51100000000E-03 0. -1.
    9900012    2    1    2    0    0  0.34644364501E+00  0.37047023623E+00  0.10657280837E+01  0.90007725564E+02  0.89999986742E+02 0.  0.
         12    1    1    2    0    0 -0.34644364501E+00 -0.37047023623E+00 -0.10657280837E+01  0.11802744357E+01  0.00000000000E+00 0. -1.
         11    1    3    3    0    0  0.43922208311E+01  0.57850875941E+00 -0.15775055762E+02  0.16385318452E+02  0.51100000000E-03 0. -1.
        -11    1    3    3    0    0  0.11533007013E+02  0.32695388832E+02  0.34844837204E+01  0.34844516480E+02  0.51100000000E-03 0.  1.
        -12    1    3    3    0    0 -0.15578784199E+02 -0.32903427355E+02  0.13356300125E+02  0.38777890632E+02  0.00000000000E+00 0.  1.
</event>
<event>
 7    1  0.2468912E-015  0.9000772E+02  0.7816164E-02  0.1186339E+00
        -11   -1    0    0    0    0  0.00000000000E+00  0.00000000000E+00  0.45593999997E+02  0.45594000000E+02  0.51100000000E-03 0.  1.
         11   -1    0    0    0    0 -0.00000000000E+00 -0.00000000000E+00 -0.45593999997E+02  0.45594000000E+02  0.51100000000E-03 0. -1.
    9900012    2    1    2    0    0 -0.56014746017E+00  0.12699269918E+00  0.10311025602E+01  0.90007718333E+02  0.89999979415E+02 0.  0.
         12    1    1    2    0    0  0.56014746017E+00 -0.12699269918E+00 -0.10311025602E+01  0.11802816666E+01  0.00000000000E+00 0. -1.
         11    1    3    3    0    0  0.94865122221E+01  0.24454283960E+02 -0.30127992781E+02  0.39946237212E+02  0.51100000000E-03 0. -1.
        -11    1    3    3    0    0  0.90553787606E+01 -0.27111110606E+01  0.34506086534E+01  0.10062639218E+02  0.51100000000E-03 0.  1.
        -12    1    3    3    0    0 -0.19102038443E+02 -0.21616180200E+02  0.27708486688E+02  0.39998841904E+02  0.00000000000E+00 0.  1.
</event>
<event>
 7    1  0.2468912E-015  0.9000769E+02  0.7816164E-02  0.1186339E+00
        -11   -1    0    0    0    0  0.00000000000E+00  0.00000000000E+00  0.45593999997E+02  0.45594000000E+02  0.51100000000E-03 0.  1.
         11   -1    0    0    0    0 -0.00000000000E+00 -0.00000000000E+00 -0.45593999997E+02  0.45594000000E+02  0.51100000000E-03 0. -1.
    9900012    2    1    2    0    0  0.18615992647E+00 -0.69237033123E+00  0.93759827152E+00  0.90007693806E+02  0.89999954564E+02 0.  0.
         12    1    1    2    0    0 -0.18615992647E+00  0.69237033123E+00 -0.93759827152E+00  0.11803061944E+01  0.00000000000E+00 0. -1.
         11    1    3    3    0    0 -0.86268822430E+01 -0.59478260412E+01  0.32588080269E+01  0.10973584732E+02  0.51100000000E-03 0. -1.
        -11    1    3    3    0    0  0.32238981033E+02 -0.24746030261E+02  0.22102107657E+01  0.40701387490E+02  0.51100000000E-03 0.  1.
         12    1    3    3    0    0 -0.23425938863E+02  0.30001485971E+02 -0.45314205211E+01  0.38332721584E+02  0.00000000000E+00 0. -1.
</event>
<event>
 7    1  0.2468912E-015  0.9000772E+02  0.7816164E-02  0.1186339E+00
        -11   -1    0    0    0    0  0.00000000000E+00  0.00000000000E+00  0.45593999997E+02  0.45594000000E+02  0.51100000000E-03 0. -1.
         11   -1    0    0    0    0 -0.00000000000E+00 -0.00000000000E+00 -0.45593999997E+02  0.45594000000E+02  0.51100000000E-03 0.  1.
    9900012    2    1    2    0    0 -0.38635179942E+00  0.10605504638E+01  0.34501636375E+00  0.90007715589E+02  0.89999976635E+02 0.  0.
         12    1    1    2    0    0  0.38635179942E+00 -0.10605504638E+01 -0.34501636375E+00  0.11802844108E+01  0.00000000000E+00 0. -1.
         11    1    3    3    0    0 -0.21892746364E+02  0.31223930971E+02  0.81220899404E+01  0.38989672401E+02  0.51100000000E-03 0. -1.
        -11    1    3    3    0    0  0.30370153142E+00  0.61375173651E+01 -0.65206064901E+01  0.89598919239E+01  0.51100000000E-03 0.  1.
        -12    1    3    3    0    0  0.21202693034E+02 -0.36300897873E+02 -0.12564670865E+01  0.42058151264E+02  0.00000000000E+00 0.  1.
</event>
<event>
 7    1  0.2468912E-015  0.9000765E+02  0.7816164E-02  0.1186339E+00
        -11   -1    0    0    0    0  0.00000000000E+00  0.00000000000E+00  0.45593999997E+02  0.45594000000E+02  0.51100000000E-03 0. -1.
         11   -1    0    0    0    0 -0.00000000000E+00 -0.00000000000E+00 -0.45593999997E+02  0.45594000000E+02  0.51100000000E-03 0.  1.
    9900012    2    1    2    0    0 -0.89192170389E+00  0.12938152053E+00  0.76220395769E+00  0.90007653112E+02  0.89999913333E+02 0.  0.
         12    1    1    2    0    0  0.89192170389E+00 -0.12938152053E+00 -0.76220395769E+00  0.11803468884E+01  0.00000000000E+00 0. -1.
         11    1    3    3    0    0  0.24522701263E+02  0.15814594598E+02  0.25940694962E+02  0.39043359677E+02  0.51100000000E-03 0. -1.
        -11    1    3    3    0    0  0.23490946397E+01 -0.87718451466E+01  0.41562723563E+01  0.99868970688E+01  0.51100000000E-03 0.  1.
        -12    1    3    3    0    0 -0.27763717607E+02 -0.69133679307E+01 -0.29334763361E+02  0.40977396366E+02  0.00000000000E+00 0.  1.
</event>
<event>
 7    1  0.2468912E-015  0.9000770E+02  0.7816164E-02  0.1186339E+00
        -11   -1    0    0    0    0  0.00000000000E+00  0.00000000000E+00  0.45593999997E+02  0.45594000000E+02  0.51100000000E-03 0. -1.
         11   -1    0    0    0    0 -0.00000000000E+00 -0.00000000000E+00 -0.45593999997E+02  0.45594000000E+02  0.51100000000E-03 0.  1.
    9900012    2    1    2    0    0 -0.15936356061E+00  0.10936265281E+01 -0.41435562392E+00  0.90007700754E+02  0.89999961604E+02 0.  0.
         12    1    1    2    0    0  0.15936356061E+00 -0.10936265281E+01  0.41435562392E+00  0.11802992462E+01  0.00000000000E+00 0. -1.
         11    1    3    3    0    0 -0.20626292719E+01 -0.70338336239E+01  0.66407367593E+01  0.98908361593E+01  0.51100000000E-03 0. -1.
        -11    1    3    3    0    0 -0.24076961998E+02  0.30527478681E+02  0.12237820638E+02  0.40760168153E+02  0.51100000000E-03 0.  1.
         12    1    3    3    0    0  0.25980227709E+02 -0.22400018529E+02 -0.19292913021E+02  0.39356696441E+02  0.00000000000E+00 0. -1.
</event>
<event>
 7    1  0.2468912E-015  0.9000769E+02  0.7816164E-02  0.1186339E+00
        -11   -1    0    0    0    0  0.00000000000E+00  0.00000000000E+00  0.45593999997E+02  0.45594000000E+02  0.51100000000E-03 0.  1.
         11   -1    0    0    0    0 -0.00000000000E+00 -0.00000000000E+00 -0.45593999997E+02  0.45594000000E+02  0.51100000000E-03 0. -1.
    9900012    2    1    2    0    0  0.81096321750E+00 -0.10593984331E+00  0.85102057577E+00  0.90007694696E+02  0.89999955466E+02 0.  0.
         12    1    1    2    0    0 -0.81096321750E+00  0.10593984331E+00 -0.85102057577E+00  0.11803053041E+01  0.00000000000E+00 0. -1.
         11    1    3    3    0    0 -0.71940788690E+01  0.55917993214E+01 -0.45243673989E+01  0.10173145583E+02  0.51100000000E-03 0. -1.
        -11    1    3    3    0    0 -0.10719716087E+01  0.34664690522E+02 -0.93533302999E+01  0.35920393652E+02  0.51100000000E-03 0.  1.
         12    1    3    3    0    0  0.90770136951E+01 -0.40362429687E+02  0.14728718275E+02  0.43914155461E+02  0.00000000000E+00 0. -1.
</event>
<event>
 7    1  0.2468912E-015  0.9000775E+02  0.7816164E-02  0.1186339E+00
        -11   -1    0    0    0    0  0.00000000000E+00  0.00000000000E+00  0.45593999997E+02  0.45594000000E+02  0.51100000000E-03 0.  1.
         11   -1    0    0    0    0 -0.00000000000E+00 -0.00000000000E+00 -0.45593999997E+02  0.45594000000E+02  0.51100000000E-03 0. -1.
    9900012    2    1    2    0    0  0.44480100729E+00  0.86101537994E+00  0.67364507122E+00  0.90007748712E+02  0.90000010195E+02 0.  0.
         12    1    1    2    0    0 -0.44480100729E+00 -0.86101537994E+00 -0.67364507122E+00  0.11802512879E+01  0.00000000000E+00 0. -1.
         11    1    3    3    0    0  0.33582781582E+01  0.68182526371E-01 -0.42787030312E+02  0.42918674773E+02  0.51100000000E-03 0. -1.
        -11    1    3    3    0    0 -0.71291962802E+01  0.31274170679E+01  0.75102888846E+01  0.10817144564E+02  0.51100000000E-03 0.  1.
        -12    1    3    3    0    0  0.42157191293E+01 -0.23345842144E+01  0.35950386499E+02  0.36271929376E+02  0.00000000000E+00 0.  1.
</event>
<event>
 7    1  0.2468912E-015  0.9000753E+02  0.7816164E-02  0.1186339E+00
        -11   -1    0    0    0    0  0.00000000000E+00  0.00000000000E+00  0.45593999997E+02  0.45594000000E+02  0.51100000000E-03 0.  1.
         11   -1    0    0    0    0 -0.00000000000E+00 -0.00000000000E+00 -0.45593999997E+02  0.45594000000E+02  0.51100000000E-03 0. -1.
    9900012    2    1    2    0    0 -0.10398201187E+01 -0.25011352204E+00  0.49973435224E+00  0.90007526758E+02  0.89999785311E+02 0.  0.
         12    1    1    2    0    0  0.10398201187E+01  0.25011352204E+00 -0.49973435224E+00  0.11804732424E+01  0.00000000000E+00 0. -1.
         11    1    3    3    0    0 -0.72111667139E+00 -0.45386803064E+00  0.87444921576E+01  0.87859062594E+01  0.51100000000E-03 0. -1.
        -11    1    3    3    0    0  0.12267156329E+02 -0.18480420833E+02  0.29714734774E+02  0.37080649152E+02  0.51100000000E-03 0.  1.
         12    1    3    3    0    0 -0.12585859777E+02  0.18684175342E+02 -0.37959492579E+02  0.44140971346E+02  0.00000000000E+00 0. -1.
</event>
<event>
 7    1  0.2468912E-015  0.9000782E+02  0.7816164E-02  0.1186339E+00
        -11   -1    0    0    0    0  0.00000000000E+00  0.00000000000E+00  0.45593999997E+02  0.45594000000E+02  0.51100000000E-03 0. -1.
         11   -1    0    0    0    0 -0.00000000000E+00 -0.00000000000E+00 -0.45593999997E+02  0.45594000000E+02  0.51100000000E-03 0.  1.
    9900012    2    1    2    0    0  0.39464925551E+00 -0.10454038118E+01  0.37973883686E+00  0.90007822577E+02  0.90000085035E+02 0.  0.
         12    1    1    2    0    0 -0.39464925551E+00  0.10454038118E+01 -0.37973883686E+00  0.11801774226E+01  0.00000000000E+00 0. -1.
         11    1    3    3    0    0  0.19009680279E+02  0.11779584556E+02  0.29214156890E+02  0.36791215251E+02  0.51100000000E-03 0. -1.
        -11    1    3    3    0    0  0.34044126675E+01  0.11310700698E+02 -0.52700726360E+01  0.12934281647E+02  0.51100000000E-03 0.  1.
        -12    1    3    3    0    0 -0.22019443691E+02 -0.24135689066E+02 -0.23564345417E+02  0.40282325679E+02  0.00000000000E+00 0.  1.
</event>
<event>
 7    1  0.2468912E-015  0.9000771E+02  0.7816164E-02  0.1186339E+00
        -11   -1    0    0    0    0  0.00000000000E+00  0.00000000000E+00  0.45593999997E+02  0.45594000000E+02  0.51100000000E-03 0. -1.
         11   -1    0    0    0    0 -0.00000000000E+00 -0.00000000000E+00 -0.45593999997E+02  0.45594000000E+02  0.51100000000E-03 0.  1.
    9900012    2    1    2    0    0  0.99383099099E+00  0.58426912798E+00 -0.25302500187E+00  0.90007706772E+02  0.89999967701E+02 0.  0.
         12    1    1    2    0    0 -0.99383099099E+00 -0.58426912798E+00  0.25302500187E+00  0.11802932280E+01  0.00000000000E+00 0. -1.
         11    1    3    3    0    0 -0.27524883500E+02  0.24865752443E+02 -0.86755718790E+01  0.38094493092E+02  0.51100000000E-03 0. -1.
        -11    1    3    3    0    0 -0.72408305911E+01 -0.52935962872E+01  0.70386121784E+01  0.11401484595E+02  0.51100000000E-03 0.  1.
        -12    1    3    3    0    0  0.35759545082E+02 -0.18987887028E+02  0.13839346987E+01  0.40511729085E+02  0.00000000000E+00 0.  1.
</event>
<event>
 7    1  0.2468912E-015  0.9000790E+02  0.7816164E-02  0.1186339E+00
        -11   -1    0    0    0    0  0.00000000000E+00  0.00000000000E+00  0.45593999997E+02  0.45594000000E+02  0.51100000000E-03 0.  1.
         11   -1    0    0    0    0 -0.00000000000E+00 -0.00000000000E+00 -0.45593999997E+02  0.45594000000E+02  0.51100000000E-03 0. -1.
    9900012    2    1    2    0    0 -0.55006814248E+00 -0.10232987499E+01 -0.20718505074E+00  0.90007897912E+02  0.90000161364E+02 0.  0.
         12    1    1    2    0    0  0.55006814248E+00  0.10232987499E+01  0.20718505074E+00  0.11801020881E+01  0.00000000000E+00 0. -1.
         11    1    3    3    0    0  0.19131199257E+01  0.59637003987E+01 -0.92139331977E+01  0.11141019501E+02  0.51100000000E-03 0. -1.
        -11    1    3    3    0    0 -0.24256927176E+02  0.18910367742E+02  0.26650421863E+02  0.40696996326E+02  0.51100000000E-03 0.  1.
         12    1    3    3    0    0  0.21793739108E+02 -0.25897366891E+02 -0.17643673716E+02  0.38169882085E+02  0.00000000000E+00 0. -1.
</event>
<event>
 7    1  0.2468912E-015  0.9000772E+02  0.7816164E-02  0.1186339E+00
        -11   -1    0    0    0    0  0.00000000000E+00  0.00000000000E+00  0.45593999997E+02  0.45594000000E+02  0.51100000000E-03 0. -1.
         11   -1    0    0    0    0 -0.00000000000E+00 -0.00000000000E+00 -0.45593999997E+02  0.45594000000E+02  0.51100000000E-03 0.  1.
    9900012    2    1    2    0    0 -0.92596614778E+00  0.69600515015E+00 -0.22634560389E+00  0.90007716641E+02  0.89999977700E+02 0.  0.
         12    1    1    2    0    0  0.92596614778E+00 -0.69600515015E+00  0.22634560389E+00  0.11802833593E+01  0.00000000000E+00 0. -1.
         11    1    3    3    0    0 -0.12946123060E+02 -0.15876221074E+02  0.35447794768E+02  0.40941453957E+02  0.51100000000E-03 0. -1.
        -11    1    3    3    0    0 -0.72927630336E+01 -0.10647174157E+01 -0.59373556275E+01  0.94641538422E+01  0.51100000000E-03 0.  1.
        -12    1    3    3    0    0  0.19312919945E+02  0.17636943640E+02 -0.29736784745E+02  0.39602108842E+02  0.00000000000E+00 0.  1.
</event>
<event>
 7    1  0.2468912E-015  0.9000786E+02  0.7816164E-02  0.1186339E+00
        -11   -1    0    0    0    0  0.00000000000E+00  0.00000000000E+00  0.45593999997E+02  0.45594000000E+02  0.51100000000E-03 0. -1.
         11   -1    0    0    0    0 -0.00000000000E+00 -0.00000000000E+00 -0.45593999997E+02  0.45594000000E+02  0.51100000000E-03 0.  1.
    9900012    2    1    2    0    0  0.43066519337E+00 -0.21434949216E+00 -0.10776376915E+01  0.90007863903E+02  0.90000126906E+02 0.  0.
         12    1    1    2    0    0 -0.43066519337E+00  0.21434949216E+00  0.10776376915E+01  0.11801360971E+01  0.00000000000E+00 0. -1.
         11    1    3    3    0    0  0.11579146505E+01 -0.96872951848E+01  0.37012482036E+02  0.38276732894E+02  0.51100000000E-03 0. -1.
        -11    1    3    3    0    0 -0.10208116746E+01  0.10877334750E+02  0.24246611625E+01  0.11190953925E+02  0.51100000000E-03 0.  1.
        -12    1    3    3    0    0  0.29356221745E+00 -0.14043890576E+01 -0.40514780890E+02  0.40540177083E+02  0.00000000000E+00 0.  1.
</event>
<event>
 7    1  0.2468912E-015  0.9000774E+02  0.7816164E-02  0.1186339E+00
        -11   -1    0    0    0    0  0.00000000000E+00  0.00000000000E+00  0.45593999997E+02  0.45594000000E+02  0.51100000000E-03 0.  1.
         11   -1    0    0    0    0 -0.00000000000E+00 -0.00000000000E+00 -0.45593999997E+02  0.45594000000E+02  0.51100000000E-03 0. -1.
    9900012    2    1    2    0    0  0.86278224065E-02 -0.30329795718E-01  0.11798421912E+01  0.90007736499E+02  0.89999997821E+02 0.  0.
         12    1    1    2    0    0 -0.86278224065E-02  0.30329795718E-01 -0.11798421912E+01  0.11802635011E+01  0.00000000000E+00 0. -1.
         11    1    3    3    0    0  0.52246090361E+00  0.10355280152E+02  0.12708220642E+01  0.10446041423E+02  0.51100000000E-03 0. -1.
        -11    1    3    3    0    0  0.12338172770E+02  0.23351633904E+02  0.24383408063E+02  0.35945512965E+02  0.51100000000E-03 0.  1.
         12    1    3    3    0    0 -0.12852005851E+02 -0.33737243852E+02 -0.24474387936E+02  0.43616182111E+02  0.00000000000E+00 0. -1.
</event>
<event>
 7    1  0.2468912E-015  0.9000771E+02  0.7816164E-02  0.1186339E+00
        -11   -1    0    0    0    0  0.00000000000E+00  0.00000000000E+00  0.45593999997E+02  0.45594000000E+02  0.51100000000E-03 0. -1.
         11   -1    0    0    0    0 -0.00000000000E+00 -0.00000000000E+00 -0.45593999997E+02  0.45594000000E+02  0.51100000000E-03 0.  1.
    9900012    2    1    2    0    0 -0.11288843120E+01  0.18253810728E+00  0.29219062313E+00  0.90007713886E+02  0.89999974909E+02 0.  0.
         12    1    1    2    0    0  0.11288843120E+01 -0.18253810728E+00 -0.29219062313E+00  0.11802861139E+01  0.00000000000E+00 0. -1.
         11    1    3    3    0    0  0.40690977522E+01  0.76344307673E+01 -0.40616393367E+01  0.95571441352E+01  0.51100000000E-03 0. -1.
        -11    1    3    3    0    0 -0.22733409006E+02  0.21897055873E+02 -0.20978485262E+02  0.37899680541E+02  0.51100000000E-03 0.  1.
         12    1    3    3    0    0  0.17535426942E+02 -0.29348948533E+02  0.25332315222E+02  0.42550889210E+02  0.00000000000E+00 0. -1.
</event>
<event>
 7    1  0.2468912E-015  0.9000771E+02  0.7816164E-02  0.1186339E+00
        -11   -1    0    0    0    0  0.00000000000E+00  0.00000000000E+00  0.45593999997E+02  0.45594000000E+02  0.51100000000E-03 0.  1.
         11   -1    0    0    0    0 -0.00000000000E+00 -0.00000000000E+00 -0.45593999997E+02  0.45594000000E+02  0.51100000000E-03 0. -1.
    9900012    2    1    2    0    0  0.10561840726E+01 -0.11111901772E+00  0.51498154110E+00  0.90007712654E+02  0.89999973661E+02 0.  0.
         12    1    1    2    0    0 -0.10561840726E+01  0.11111901772E+00 -0.51498154110E+00  0.11802873459E+01  0.00000000000E+00 0. -1.
         11    1    3    3    0    0 -0.43933797990E+01 -0.17344376514E+02 -0.22306336281E+01  0.18030665805E+02  0.51100000000E-03 0. -1.
        -11    1    3    3    0    0 -0.27654842216E+02 -0.96077291254E+01  0.99199397524E-01  0.29276417092E+02  0.51100000000E-03 0.  1.
         12    1    3    3    0    0  0.33104406088E+02  0.26840986622E+02  0.26464157717E+01  0.42700629758E+02  0.00000000000E+00 0. -1.
</event>
<event>
 7    1  0.2468912E-015  0.9000766E+02  0.7816164E-02  0.1186339E+00
        -11   -1    0    0    0    0  0.00000000000E+00  0.00000000000E+00  0.45593999997E+02  0.45594000000E+02  0.51100000000E-03 0.  1.
         11   -1    0    0    0    0 -0.00000000000E+00 -0.00000000000E+00 -0.45593999997E+02  0.45594000000E+02  0.51100000000E-03 0. -1.
    9900012    2    1    2    0    0 -0.63415824863E+00 -0.64903471197E+00  0.75484416247E+00  0.90007664263E+02  0.89999924632E+02 0.  0.
         12    1    1    2    0    0  0.63415824863E+00  0.64903471197E+00 -0.75484416247E+00  0.11803357367E+01  0.00000000000E+00 0. -1.
         11    1    3    3    0    0 -0.25007502460E+01  0.18606084561E+02 -0.32958630626E+02  0.37930350215E+02  0.51100000000E-03 0. -1.
        -11    1    3    3    0    0 -0.10794171041E+02  0.71486502524E+00 -0.97977500400E-01  0.10818260503E+02  0.51100000000E-03 0.  1.
        -12    1    3    3    0    0  0.12660763038E+02 -0.19969984298E+02  0.33811452288E+02  0.41259053545E+02  0.00000000000E+00 0.  1.
</event>
<event>
 7    1  0.2468912E-015  0.9000773E+02  0.7816164E-02  0.1186339E+00
        -11   -1    0    0    0    0  0.00000000000E+00  0.00000000000E+00  0.45593999997E+02  0.45594000000E+02  0.51100000000E-03 0.  1.
         11   -1    0    0    0    0 -0.00000000000E+00 -0.00000000000E+00 -0.45593999997E+02  0.45594000000E+02  0.51100000000E-03 0. -1.
    9900012    2    1    2    0    0 -0.32855372349E+00 -0.96681834868E+00 -0.59189870192E+00  0.90007733360E+02  0.89999994640E+02 0.  0.
         12    1    1    2    0    0  0.32855372349E+00  0.96681834868E+00  0.59189870192E+00  0.11802666402E+01  0.00000000000E+00 0. -1.
         11    1    3    3    0    0 -0.76024522024E+01  0.20943016288E+01  0.55789394324E+01  0.96596037317E+01  0.51100000000E-03 0. -1.
        -11    1    3    3    0    0  0.14373122130E+02  0.29834058795E+02  0.19131308956E+02  0.38244799471E+02  0.51100000000E-03 0.  1.
         12    1    3    3    0    0 -0.70992236515E+01 -0.32895178772E+02 -0.25302147090E+02  0.42103330157E+02  0.00000000000E+00 0. -1.
</event>
<event>
 7    1  0.2468912E-015  0.9000702E+02  0.7816164E-02  0.1186340E+00
        -11   -1    0    0    0    0  0.00000000000E+00  0.00000000000E+00  0.45593999997E+02  0.45594000000E+02  0.51100000000E-03 0. -1.
         11   -1    0    0    0    0 -0.00000000000E+00 -0.00000000000E+00 -0.45593999997E+02  0.45594000000E+02  0.51100000000E-03 0.  1.
    9900012    2    1    2    0    0 -0.10543524687E+01 -0.25101951859E+00 -0.46909497910E+00  0.90007017347E+02  0.89999269173E+02 0.  0.
         12    1    1    2    0    0  0.10543524687E+01  0.25101951859E+00  0.46909497910E+00  0.11809826528E+01  0.00000000000E+00 0. -1.
         11    1    3    3    0    0  0.64479800348E+01  0.49774487660E+01  0.14067414780E+02  0.16255571402E+02  0.51100000000E-03 0. -1.
        -11    1    3    3    0    0  0.25366708114E+02 -0.14676963263E+02 -0.24424913190E+02  0.38150485131E+02  0.51100000000E-03 0.  1.
         12    1    3    3    0    0 -0.32869040617E+02  0.94484949789E+01  0.98884034305E+01  0.35600960814E+02  0.00000000000E+00 0. -1.
</event>
<event>
 7    1  0.2468912E-015  0.9000780E+02  0.7816164E-02  0.1186339E+00
        -11   -1    0    0    0    0  0.00000000000E+00  0.00000000000E+00  0.45593999997E+02  0.45594000000E+02  0.51100000000E-03 0.  1.
         11   -1    0    0    0    0 -0.00000000000E+00 -0.00000000000E+00 -0.45593999997E+02  0.45594000000E+02  0.51100000000E-03 0. -1.
    9900012    2    1    2    0    0 -0.92552451589E+00 -0.66430886451E+00  0.30816121502E+00  0.90007802885E+02  0.90000065083E+02 0.  0.
         12    1    1    2    0    0  0.92552451589E+00  0.66430886451E+00 -0.30816121502E+00  0.11801971155E+01  0.00000000000E+00 0. -1.
         11    1    3    3    0    0  0.10092803301E+02 -0.67529968711E+01 -0.20977421519E+02  0.24238808944E+02  0.51100000000E-03 0. -1.
        -11    1    3    3    0    0 -0.29731190046E+02  0.20161438684E+02  0.29751491222E+01  0.36045509900E+02  0.51100000000E-03 0.  1.
         12    1    3    3    0    0  0.18712862230E+02 -0.14072750677E+02  0.18310433612E+02  0.29723484040E+02  0.00000000000E+00 0. -1.
</event>
<event>
 7    1  0.2468912E-015  0.9000787E+02  0.7816164E-02  0.1186339E+00
        -11   -1    0    0    0    0  0.00000000000E+00  0.00000000000E+00  0.45593999997E+02  0.45594000000E+02  0.51100000000E-03 0. -1.
         11   -1    0    0    0    0 -0.00000000000E+00 -0.00000000000E+00 -0.45593999997E+02  0.45594000000E+02  0.51100000000E-03 0.  1.
    9900012    2    1    2    0    0  0.45880467049E-01  0.23734258720E+00 -0.11551059698E+01  0.90007870210E+02  0.90000133296E+02 0.  0.
         12    1    1    2    0    0 -0.45880467049E-01 -0.23734258720E+00  0.11551059698E+01  0.11801297905E+01  0.00000000000E+00 0. -1.
         11    1    3    3    0    0 -0.27739389468E+02 -0.25062393510E+02  0.29394088742E+00  0.37385608167E+02  0.51100000000E-03 0. -1.
        -11    1    3    3    0    0  0.62759278207E+01 -0.76402974038E+01  0.73369998317E+01  0.12312310150E+02  0.51100000000E-03 0.  1.
        -12    1    3    3    0    0  0.21509342114E+02  0.32940033501E+02 -0.87860466888E+01  0.40309951893E+02  0.00000000000E+00 0.  1.
</event>
<event>
 7    1  0.2468912E-015  0.9000768E+02  0.7816164E-02  0.1186339E+00
        -11   -1    0    0    0    0  0.00000000000E+00  0.00000000000E+00  0.45593999997E+02  0.45594000000E+02  0.51100000000E-03 0.  1.
         11   -1    0    0    0    0 -0.00000000000E+00 -0.00000000000E+00 -0.45593999997E+02  0.45594000000E+02  0.51100000000E-03 0. -1.
    9900012    2    1    2    0    0 -0.39891816136E+00 -0.29906553396E+00  0.10698550336E+01  0.90007675601E+02  0.89999936119E+02 0.  0.
         12    1    1    2    0    0  0.39891816136E+00  0.29906553396E+00 -0.10698550336E+01  0.11803243986E+01  0.00000000000E+00 0. -1.
         11    1    3    3    0    0  0.32272205502E+02  0.17472928330E+02  0.78804911362E+00  0.36707213106E+02  0.51100000000E-03 0. -1.
        -11    1    3    3    0    0 -0.10367075162E+02 -0.20484731493E+02  0.14081127094E+02  0.26932853771E+02  0.51100000000E-03 0.  1.
        -12    1    3    3    0    0 -0.22304048501E+02  0.27127376293E+01 -0.13799321174E+02  0.26367608724E+02  0.00000000000E+00 0.  1.
</event>
<event>
 7    1  0.2468912E-015  0.9000776E+02  0.7816164E-02  0.1186339E+00
        -11   -1    0    0    0    0  0.00000000000E+00  0.00000000000E+00  0.45593999997E+02  0.45594000000E+02  0.51100000000E-03 0. -1.
         11   -1    0    0    0    0 -0.00000000000E+00 -0.00000000000E+00 -0.45593999997E+02  0.45594000000E+02  0.51100000000E-03 0.  1.
    9900012    2    1    2    0    0 -0.52476163062E+00 -0.95168147797E+00 -0.46032837913E+00  0.90007756542E+02  0.90000018128E+02 0.  0.
         12    1    1    2    0    0  0.52476163062E+00  0.95168147797E+00  0.46032837913E+00  0.11802434584E+01  0.00000000000E+00 0. -1.
         11    1    3    3    0    0 -0.16945995178E+02  0.29068568839E+02 -0.23086300200E+02  0.40805951823E+02  0.51100000000E-03 0. -1.
        -11    1    3    3    0    0 -0.41632434578E+01  0.12608637826E+01  0.77926556072E+01  0.89245647088E+01  0.51100000000E-03 0.  1.
        -12    1    3    3    0    0  0.20584477006E+02 -0.31281114100E+02  0.14833316214E+02  0.40277240010E+02  0.00000000000E+00 0.  1.
</event>
<event>
 7    1  0.2468912E-015  0.9000778E+02  0.7816164E-02  0.1186339E+00
        -11   -1    0    0    0    0  0.00000000000E+00  0.00000000000E+00  0.45593999997E+02  0.45594000000E+02  0.51100000000E-03 0. -1.
         11   -1    0    0    0    0 -0.00000000000E+00 -0.00000000000E+00 -0.45593999997E+02  0.45594000000E+02  0.51100000000E-03 0.  1.
    9900012    2    1    2    0    0 -0.10541222126E+01 -0.47915608160E+00 -0.22838932192E+00  0.90007777194E+02  0.90000039053E+02 0.  0.
         12    1    1    2    0    0  0.10541222126E+01  0.47915608160E+00  0.22838932192E+00  0.11802228060E+01  0.00000000000E+00 0. -1.
         11    1    3    3    0    0  0.33260329996E+02 -0.14198822291E+02  0.99679017884E+00  0.36178027818E+02  0.51100000000E-03 0. -1.
        -11    1    3    3    0    0  0.13134315130E+01 -0.10596859192E+02 -0.45931992346E+00  0.10687820270E+02  0.51100000000E-03 0.  1.
        -12    1    3    3    0    0 -0.35627883721E+02  0.24316525401E+02 -0.76585957730E+00  0.43141929106E+02  0.00000000000E+00 0.  1.
</event>
<event>
 7    1  0.2468912E-015  0.9000767E+02  0.7816164E-02  0.1186339E+00
        -11   -1    0    0    0    0  0.00000000000E+00  0.00000000000E+00  0.45593999997E+02  0.45594000000E+02  0.51100000000E-03 0. -1.
         11   -1    0    0    0    0 -0.00000000000E+00 -0.00000000000E+00 -0.45593999997E+02  0.45594000000E+02  0.51100000000E-03 0.  1.
    9900012    2    1    2    0    0 -0.11635377520E+01  0.18366838354E+00 -0.75049364124E-01  0.90007666749E+02  0.89999927150E+02 0.  0.
         12    1    1    2    0    0  0.11635377520E+01 -0.18366838354E+00  0.75049364124E-01  0.11803332507E+01  0.00000000000E+00 0. -1.
         11    1    3    3    0    0  0.14981347068E+02  0.15136798658E+02 -0.44588363807E+01  0.21758783415E+02  0.51100000000E-03 0. -1.
        -11    1    3    3    0    0  0.14263601074E+01 -0.30293273415E+01  0.32691043933E+02  0.32862070553E+02  0.51100000000E-03 0.  1.
        -12    1    3    3    0    0 -0.17571244928E+02 -0.11923802933E+02 -0.28307256917E+02  0.35386812781E+02  0.00000000000E+00 0.  1.
</event>
<event>
 7    1  0.2468912E-015  0.9000772E+02  0.7816164E-02  0.1186339E+00
        -11   -1    0    0    0    0  0.00000000000E+00  0.00000000000E+00  0.45593999997E+02  0.45594000000E+02  0.51100000000E-03 0.  1.
         11   -1    0    0    0    0 -0.00000000000E+00 -0.00000000000E+00 -0.45593999997E+02  0.45594000000E+02  0.51100000000E-03 0. -1.
    9900012    2    1    2    0    0  0.33556192636E+00  0.11036208803E+01 -0.24993708292E+00  0.90007724863E+02  0.89999986031E+02 0.  0.
         12    1    1    2    0    0 -0.33556192636E+00 -0.11036208803E+01  0.24993708292E+00  0.11802751371E+01  0.00000000000E+00 0. -1.
         11    1    3    3    0    0  0.45118860850E+01 -0.83077388142E+00 -0.38131523286E+02  0.38406514677E+02  0.51100000000E-03 0. -1.
        -11    1    3    3    0    0 -0.17648966471E+01 -0.39242484740E+00 -0.66766651885E+01  0.69171320456E+01  0.51100000000E-03 0.  1.
        -12    1    3    3    0    0 -0.24114275115E+01  0.23268196091E+01  0.44558251392E+02  0.44684078140E+02  0.00000000000E+00 0.  1.
</event>
<event>
 7    1  0.2468912E-015  0.9000767E+02  0.7816164E-02  0.1186339E+00
        -11   -1    0    0    0    0  0.00000000000E+00  0.00000000000E+00  0.45593999997E+02  0.45594000000E+02  0.51100000000E-03 0.  1.
         11   -1    0    0    0    0 -0.00000000000E+00 -0.00000000000E+00 -0.45593999997E+02  0.45594000000E+02  0.51100000000E-03 0. -1.
    9900012    2    1    2    0    0 -0.35095386820E+00  0.10870822781E+01 -0.29707191798E+00  0.90007674527E+02  0.89999935031E+02 0.  0.
         12    1    1    2    0    0  0.35095386820E+00 -0.10870822781E+01  0.29707191798E+00  0.11803254727E+01  0.00000000000E+00 0. -1.
         11    1    3    3    0    0  0.29305546232E+01 -0.24310588839E+02 -0.18687257506E+02  0.30802702373E+02  0.51100000000E-03 0. -1.
        -11    1    3    3    0    0 -0.53821005533E+01  0.10816465070E+01 -0.16067376257E+02  0.16979327006E+02  0.51100000000E-03 0.  1.
        -12    1    3    3    0    0  0.21005920619E+01  0.24316024611E+02  0.34457561845E+02  0.42225645148E+02  0.00000000000E+00 0.  1.
</event>
<event>
 7    1  0.2468912E-015  0.9000770E+02  0.7816164E-02  0.1186339E+00
        -11   -1    0    0    0    0  0.00000000000E+00  0.00000000000E+00  0.45593999997E+02  0.45594000000E+02  0.51100000000E-03 0.  1.
         11   -1    0    0    0    0 -0.00000000000E+00 -0.00000000000E+00 -0.45593999997E+02  0.45594000000E+02  0.51100000000E-03 0. -1.
    9900012    2    1    2    0    0  0.91628553001E+00  0.39906939327E+00  0.62791671215E+00  0.90007697094E+02  0.89999957895E+02 0.  0.
         12    1    1    2    0    0 -0.91628553001E+00 -0.39906939327E+00 -0.62791671215E+00  0.11803029063E+01  0.00000000000E+00 0. -1.
         11    1    3    3    0    0  0.21264712189E+01 -0.26111280390E+01 -0.91722603313E+01  0.97708868240E+01  0.51100000000E-03 0. -1.
        -11    1    3    3    0    0 -0.20409905499E+02  0.53126300589E+01 -0.29601328034E+02  0.36345933779E+02  0.51100000000E-03 0.  1.
         12    1    3    3    0    0  0.19199719810E+02 -0.23024326266E+01  0.39401505077E+02  0.43890876491E+02  0.00000000000E+00 0. -1.
</event>
<event>
 7    1  0.2468912E-015  0.9000775E+02  0.7816164E-02  0.1186339E+00
        -11   -1    0    0    0    0  0.00000000000E+00  0.00000000000E+00  0.45593999997E+02  0.45594000000E+02  0.51100000000E-03 0.  1.
         11   -1    0    0    0    0 -0.00000000000E+00 -0.00000000000E+00 -0.45593999997E+02  0.45594000000E+02  0.51100000000E-03 0. -1.
    9900012    2    1    2    0    0  0.68579294069E+00 -0.85687508005E+00  0.43410334837E+00  0.90007748935E+02  0.90000010421E+02 0.  0.
         12    1    1    2    0    0 -0.68579294069E+00  0.85687508005E+00 -0.43410334837E+00  0.11802510654E+01  0.00000000000E+00 0. -1.
         11    1    3    3    0    0  0.33923472395E+02 -0.59776494361E+01 -0.83717311361E+01  0.35448838551E+02  0.51100000000E-03 0. -1.
        -11    1    3    3    0    0  0.77204849980E+01 -0.69521188455E+01 -0.18410109785E+01  0.10551168975E+02  0.51100000000E-03 0.  1.
        -12    1    3    3    0    0 -0.40958164453E+02  0.12072893202E+02  0.10646845463E+02  0.44007741409E+02  0.00000000000E+00 0.  1.
</event>
<event>
 7    1  0.2468912E-015  0.9000782E+02  0.7816164E-02  0.1186339E+00
        -11   -1    0    0    0    0  0.00000000000E+00  0.00000000000E+00  0.45593999997E+02  0.45594000000E+02  0.51100000000E-03 0.  1.
         11   -1    0    0    0    0 -0.00000000000E+00 -0.00000000000E+00 -0.45593999997E+02  0.45594000000E+02  0.51100000000E-03 0. -1.
    9900012    2    1    2    0    0 -0.78104359304E+00  0.88462920373E+00  0.15425426405E-01  0.90007815325E+02  0.90000077688E+02 0.  0.
         12    1    1    2    0    0  0.78104359304E+00 -0.88462920373E+00 -0.15425426405E-01  0.11801846746E+01  0.00000000000E+00 0. -1.
         11    1    3    3    0    0  0.12810413675E+02 -0.26920223443E+02 -0.21923445355E+02  0.37005980399E+02  0.51100000000E-03 0. -1.
        -11    1    3    3    0    0  0.75404932938E+01  0.15713502730E+01 -0.55741867149E+01  0.95078777121E+01  0.51100000000E-03 0.  1.
        -12    1    3    3    0    0 -0.21131950562E+02  0.26233502374E+02  0.27513057497E+02  0.43493957214E+02  0.00000000000E+00 0.  1.
</event>
<event>
 7    1  0.2468912E-015  0.9000778E+02  0.7816164E-02  0.1186339E+00
        -11   -1    0    0    0    0  0.00000000000E+00  0.00000000000E+00  0.45593999997E+02  0.45594000000E+02  0.51100000000E-03 0.  1.
         11   -1    0    0    0    0 -0.00000000000E+00 -0.00000000000E+00 -0.45593999997E+02  0.45594000000E+02  0.51100000000E-03 0. -1.
    9900012    2    1    2    0    0  0.93678654668E+00 -0.24002326871E+00 -0.67657025937E+00  0.90007776496E+02  0.90000038346E+02 0.  0.
         12    1    1    2    0    0 -0.93678654668E+00  0.24002326871E+00  0.67657025937E+00  0.11802235040E+01  0.00000000000E+00 0. -1.
         11    1    3    3    0    0  0.45392667703E+01  0.23637149606E+02  0.17569572359E+02  0.29799490893E+02  0.51100000000E-03 0. -1.
        -11    1    3    3    0    0  0.12236246556E+02  0.10840121612E+02 -0.14524413679E+02  0.21867614395E+02  0.51100000000E-03 0.  1.
        -12    1    3    3    0    0 -0.15838726779E+02 -0.34717294486E+02 -0.37217289395E+01  0.38340671209E+02  0.00000000000E+00 0.  1.
</event>
<event>
 7    1  0.2468912E-015  0.9000780E+02  0.7816164E-02  0.1186339E+00
        -11   -1    0    0    0    0  0.00000000000E+00  0.00000000000E+00  0.45593999997E+02  0.45594000000E+02  0.51100000000E-03 0.  1.
         11   -1    0    0    0    0 -0.00000000000E+00 -0.00000000000E+00 -0.45593999997E+02  0.45594000000E+02  0.51100000000E-03 0. -1.
    9900012    2    1    2    0    0 -0.11227892177E+00  0.92654629034E+00  0.72234697432E+00  0.90007796740E+02  0.90000058857E+02 0.  0.
         12    1    1    2    0    0  0.11227892177E+00 -0.92654629034E+00 -0.72234697432E+00  0.11802032603E+01  0.00000000000E+00 0. -1.
         11    1    3    3    0    0  0.29846296094E+01  0.44754215778E+01  0.87719737539E+01  0.10290040622E+02  0.51100000000E-03 0. -1.
        -11    1    3    3    0    0 -0.40561269226E+01 -0.34105841143E+02  0.18689708395E+02  0.39101991840E+02  0.51100000000E-03 0.  1.
         12    1    3    3    0    0  0.95921839139E+00  0.30556965856E+02 -0.26739335175E+02  0.40615764277E+02  0.00000000000E+00 0. -1.
</event>
<event>
 7    1  0.2468912E-015  0.9000781E+02  0.7816164E-02  0.1186339E+00
        -11   -1    0    0    0    0  0.00000000000E+00  0.00000000000E+00  0.45593999997E+02  0.45594000000E+02  0.51100000000E-03 0. -1.
         11   -1    0    0    0    0 -0.00000000000E+00 -0.00000000000E+00 -0.45593999997E+02  0.45594000000E+02  0.51100000000E-03 0.  1.
    9900012    2    1    2    0    0 -0.76321980980E+00 -0.57484435323E+00 -0.69274492126E+00  0.90007811017E+02  0.90000073323E+02 0.  0.
         12    1    1    2    0    0  0.76321980980E+00  0.57484435323E+00  0.69274492126E+00  0.11801889825E+01  0.00000000000E+00 0. -1.
         11    1    3    3    0    0 -0.36041736919E+02  0.15076045906E+02  0.55930642829E+00  0.39071815727E+02  0.51100000000E-03 0. -1.
        -11    1    3    3    0    0  0.89263414337E+00  0.66848795519E+01 -0.67783216987E+01  0.95619064861E+01  0.51100000000E-03 0.  1.
        -12    1    3    3    0    0  0.34385882966E+02 -0.22335769811E+02  0.55262703491E+01  0.41374088804E+02  0.00000000000E+00 0.  1.
</event>
<event>
 7    1  0.2468912E-015  0.9000779E+02  0.7816164E-02  0.1186339E+00
        -11   -1    0    0    0    0  0.00000000000E+00  0.00000000000E+00  0.45593999997E+02  0.45594000000E+02  0.51100000000E-03 0. -1.
         11   -1    0    0    0    0 -0.00000000000E+00 -0.00000000000E+00 -0.45593999997E+02  0.45594000000E+02  0.51100000000E-03 0.  1.
    9900012    2    1    2    0    0 -0.90882651807E+00 -0.34691984836E+00 -0.66826217717E+00  0.90007790968E+02  0.90000053009E+02 0.  0.
         12    1    1    2    0    0  0.90882651807E+00  0.34691984836E+00  0.66826217717E+00  0.11802090317E+01  0.00000000000E+00 0. -1.
         11    1    3    3    0    0  0.21220440557E+02  0.13658105972E+02  0.43433113350E+01  0.25606938704E+02  0.51100000000E-03 0. -1.
        -11    1    3    3    0    0  0.90486060406E+01 -0.24048552149E+02 -0.15499147850E+02  0.30007227730E+02  0.51100000000E-03 0.  1.
         12    1    3    3    0    0 -0.31177873116E+02  0.10043526328E+02  0.10487574338E+02  0.34393624534E+02  0.00000000000E+00 0. -1.
</event>
<event>
 7    1  0.2468912E-015  0.9000778E+02  0.7816164E-02  0.1186339E+00
        -11   -1    0    0    0    0  0.00000000000E+00  0.00000000000E+00  0.45593999997E+02  0.45594000000E+02  0.51100000000E-03 0.  1.
         11   -1    0    0    0    0 -0.00000000000E+00 -0.00000000000E+00 -0.45593999997E+02  0.45594000000E+02  0.51100000000E-03 0. -1.
    9900012    2    1    2    0    0  0.10800504014E+01 -0.25951333091E+00  0.39882517425E+00  0.90007780716E+02  0.90000042622E+02 0.  0.
         12    1    1    2    0    0 -0.10800504014E+01  0.25951333091E+00 -0.39882517425E+00  0.11802192839E+01  0.00000000000E+00 0. -1.
         11    1    3    3    0    0  0.30442467250E+01 -0.70684529658E+00  0.93448399365E+01  0.98535832110E+01  0.51100000000E-03 0. -1.
        -11    1    3    3    0    0 -0.36390023348E+02 -0.14770678799E+02  0.58583132603E+01  0.39708016646E+02  0.51100000000E-03 0.  1.
         12    1    3    3    0    0  0.34425827024E+02  0.15218010764E+02 -0.14804328023E+02  0.40446180859E+02  0.00000000000E+00 0. -1.
</event>
<event>
 7    1  0.2468912E-015  0.9000764E+02  0.7816164E-02  0.1186339E+00
        -11   -1    0    0    0    0  0.00000000000E+00  0.00000000000E+00  0.45593999997E+02  0.45594000000E+02  0.51100000000E-03 0.  1.
         11   -1    0    0    0    0 -0.00000000000E+00 -0.00000000000E+00 -0.45593999997E+02  0.45594000000E+02  0.51100000000E-03 0. -1.
    9900012    2    1    2    0    0 -0.30767504147E+00  0.90563964461E+00  0.69167327736E+00  0.90007636065E+02  0.89999896061E+02 0.  0.
         12    1    1    2    0    0  0.30767504147E+00 -0.90563964461E+00 -0.69167327736E+00  0.11803639352E+01  0.00000000000E+00 0. -1.
         11    1    3    3    0    0 -0.22834265914E+02  0.27458333227E+02 -0.61284726588E+01  0.36234264735E+02  0.51100000000E-03 0. -1.
        -11    1    3    3    0    0  0.30079943865E+00  0.82340017961E+01 -0.63938206454E+01  0.10429295690E+02  0.51100000000E-03 0.  1.
        -12    1    3    3    0    0  0.22225791434E+02 -0.34786695379E+02  0.13213966582E+02  0.43344075640E+02  0.00000000000E+00 0.  1.
</event>
<event>
 7    1  0.2468912E-015  0.9000781E+02  0.7816164E-02  0.1186339E+00
        -11   -1    0    0    0    0  0.00000000000E+00  0.00000000000E+00  0.45593999997E+02  0.45594000000E+02  0.51100000000E-03 0.  1.
         11   -1    0    0    0    0 -0.00000000000E+00 -0.00000000000E+00 -0.45593999997E+02  0.45594000000E+02  0.51100000000E-03 0. -1.
    9900012    2    1    2    0    0 -0.10958217289E+01 -0.43682865056E+00 -0.34776628074E-01  0.90007807666E+02  0.90000069927E+02 0.  0.
         12    1    1    2    0    0  0.10958217289E+01  0.43682865056E+00  0.34776628074E-01  0.11801923340E+01  0.00000000000E+00 0. -1.
         11    1    3    3    0    0  0.21169472121E+02  0.24801859917E+02  0.20830607555E+02  0.38693578493E+02  0.51100000000E-03 0. -1.
        -11    1    3    3    0    0  0.33454073941E+01 -0.44118571241E+01  0.64267371914E+01  0.84828759925E+01  0.51100000000E-03 0.  1.
        -12    1    3    3    0    0 -0.25610701244E+02 -0.20826831444E+02 -0.27292121374E+02  0.42831353181E+02  0.00000000000E+00 0.  1.
</event>
<event>
 7    1  0.2468912E-015  0.9000767E+02  0.7816164E-02  0.1186339E+00
        -11   -1    0    0    0    0  0.00000000000E+00  0.00000000000E+00  0.45593999997E+02  0.45594000000E+02  0.51100000000E-03 0. -1.
         11   -1    0    0    0    0 -0.00000000000E+00 -0.00000000000E+00 -0.45593999997E+02  0.45594000000E+02  0.51100000000E-03 0.  1.
    9900012    2    1    2    0    0 -0.32446301979E+00  0.99952153923E+00  0.53746240698E+00  0.90007667251E+02  0.89999927659E+02 0.  0.
         12    1    1    2    0    0  0.32446301979E+00 -0.99952153923E+00 -0.53746240698E+00  0.11803327486E+01  0.00000000000E+00 0. -1.
         11    1    3    3    0    0  0.53639773192E+00 -0.16743158111E+02 -0.43736404967E+01  0.17313283845E+02  0.51100000000E-03 0. -1.
        -11    1    3    3    0    0  0.80506246883E+01  0.25084587276E+01 -0.31297408790E+02  0.32413465108E+02  0.51100000000E-03 0.  1.
         12    1    3    3    0    0 -0.89114854400E+01  0.15234220923E+02  0.36208511694E+02  0.40280918298E+02  0.00000000000E+00 0. -1.
</event>
<event>
 7    1  0.2468912E-015  0.9000765E+02  0.7816164E-02  0.1186339E+00
        -11   -1    0    0    0    0  0.00000000000E+00  0.00000000000E+00  0.45593999997E+02  0.45594000000E+02  0.51100000000E-03 0. -1.
         11   -1    0    0    0    0 -0.00000000000E+00 -0.00000000000E+00 -0.45593999997E+02  0.45594000000E+02  0.51100000000E-03 0.  1.
    9900012    2    1    2    0    0  0.52226427627E+00 -0.83655390200E+00 -0.64856256652E+00  0.90007654369E+02  0.89999914607E+02 0.  0.
         12    1    1    2    0    0 -0.52226427627E+00  0.83655390200E+00  0.64856256652E+00  0.11803456307E+01  0.00000000000E+00 0. -1.
         11    1    3    3    0    0 -0.71369651558E+01 -0.10648724448E+00 -0.14520584325E+01  0.72839608127E+01  0.51100000000E-03 0. -1.
        -11    1    3    3    0    0  0.14656561797E+02  0.33750122327E+02 -0.19970503901E+02  0.41865338732E+02  0.51100000000E-03 0.  1.
         12    1    3    3    0    0 -0.69973323653E+01 -0.34480188984E+02  0.20773999767E+02  0.40858354825E+02  0.00000000000E+00 0. -1.
</event>
<event>
 7    1  0.2468912E-015  0.9000847E+02  0.7816164E-02  0.1186338E+00
        -11   -1    0    0    0    0  0.00000000000E+00  0.00000000000E+00  0.45593999997E+02  0.45594000000E+02  0.51100000000E-03 0. -1.
         11   -1    0    0    0    0 -0.00000000000E+00 -0.00000000000E+00 -0.45593999997E+02  0.45594000000E+02  0.51100000000E-03 0.  1.
    9900012    2    1    2    0    0 -0.65069743732E+00  0.98373021661E+00  0.12517211990E-01  0.90008470867E+02  0.90000741880E+02 0.  0.
         12    1    1    2    0    0  0.65069743732E+00 -0.98373021661E+00 -0.12517211990E-01  0.11795291326E+01  0.00000000000E+00 0. -1.
         11    1    3    3    0    0  0.36682751119E+01 -0.27180347531E+01  0.11690070330E+02  0.12549968119E+02  0.51100000000E-03 0. -1.
        -11    1    3    3    0    0  0.24653237322E+02  0.27803368470E+02  0.23802483534E+01  0.37235399706E+02  0.51100000000E-03 0.  1.
         12    1    3    3    0    0 -0.28972209871E+02 -0.24101603501E+02 -0.14057801472E+02  0.40223103042E+02  0.00000000000E+00 0. -1.
</event>
<event>
 7    1  0.2468912E-015  0.9000777E+02  0.7816164E-02  0.1186339E+00
        -11   -1    0    0    0    0  0.00000000000E+00  0.00000000000E+00  0.45593999997E+02  0.45594000000E+02  0.51100000000E-03 0. -1.
         11   -1    0    0    0    0 -0.00000000000E+00 -0.00000000000E+00 -0.45593999997E+02  0.45594000000E+02  0.51100000000E-03 0.  1.
    9900012    2    1    2    0    0  0.64850671703E+00 -0.91996349413E+00 -0.35501982202E+00  0.90007774231E+02  0.90000036051E+02 0.  0.
         12    1    1    2    0    0 -0.64850671703E+00  0.91996349413E+00  0.35501982202E+00  0.11802257693E+01  0.00000000000E+00 0. -1.
         11    1    3    3    0    0 -0.99700809552E+01 -0.28046654507E+01 -0.21100634325E+01  0.10569816956E+02  0.51100000000E-03 0. -1.
        -11    1    3    3    0    0  0.31033197203E+02 -0.26537546698E+02 -0.10838962166E+02  0.42246701818E+02  0.51100000000E-03 0.  1.
         12    1    3    3    0    0 -0.20414609531E+02  0.28422248655E+02  0.12594005776E+02  0.37191255456E+02  0.00000000000E+00 0. -1.
</event>
<event>
 7    1  0.2468912E-015  0.9000768E+02  0.7816164E-02  0.1186339E+00
        -11   -1    0    0    0    0  0.00000000000E+00  0.00000000000E+00  0.45593999997E+02  0.45594000000E+02  0.51100000000E-03 0. -1.
         11   -1    0    0    0    0 -0.00000000000E+00 -0.00000000000E+00 -0.45593999997E+02  0.45594000000E+02  0.51100000000E-03 0.  1.
    9900012    2    1    2    0    0  0.70444458976E+00  0.79309188601E+00 -0.51759824846E+00  0.90007684421E+02  0.89999945055E+02 0.  0.
         12    1    1    2    0    0 -0.70444458976E+00 -0.79309188601E+00  0.51759824846E+00  0.11803155792E+01  0.00000000000E+00 0. -1.
         11    1    3    3    0    0  0.79726078892E+01  0.66582394487E+01 -0.40098330940E+01  0.11134333874E+02  0.51100000000E-03 0. -1.
        -11    1    3    3    0    0 -0.47472477070E+01  0.16475005520E+02  0.35695035487E+02  0.39599213709E+02  0.51100000000E-03 0.  1.
         12    1    3    3    0    0 -0.25209155924E+01 -0.22340153083E+02 -0.32202800642E+02  0.39274136838E+02  0.00000000000E+00 0. -1.
</event>
<event>
 7    1  0.2468912E-015  0.9000777E+02  0.7816164E-02  0.1186339E+00
        -11   -1    0    0    0    0  0.00000000000E+00  0.00000000000E+00  0.45593999997E+02  0.45594000000E+02  0.51100000000E-03 0.  1.
         11   -1    0    0    0    0 -0.00000000000E+00 -0.00000000000E+00 -0.45593999997E+02  0.45594000000E+02  0.51100000000E-03 0. -1.
    9900012    2    1    2    0    0 -0.38070284378E+00  0.10916130399E+01 -0.23747177907E+00  0.90007768442E+02  0.90000030186E+02 0.  0.
         12    1    1    2    0    0  0.38070284378E+00 -0.10916130399E+01  0.23747177907E+00  0.11802315578E+01  0.00000000000E+00 0. -1.
         11    1    3    3    0    0  0.31925076460E+02 -0.23947170347E+01  0.20613538590E+02  0.38077068560E+02  0.51100000000E-03 0. -1.
        -11    1    3    3    0    0  0.57444296449E+01  0.68283108906E+01 -0.12881227475E+01  0.90157396834E+01  0.51100000000E-03 0.  1.
        -12    1    3    3    0    0 -0.38050208948E+02 -0.33419808160E+01 -0.19562887622E+02  0.42914960199E+02  0.00000000000E+00 0.  1.
</event>
<event>
 7    1  0.2468912E-015  0.9000771E+02  0.7816164E-02  0.1186339E+00
        -11   -1    0    0    0    0  0.00000000000E+00  0.00000000000E+00  0.45593999997E+02  0.45594000000E+02  0.51100000000E-03 0.  1.
         11   -1    0    0    0    0 -0.00000000000E+00 -0.00000000000E+00 -0.45593999997E+02  0.45594000000E+02  0.51100000000E-03 0. -1.
    9900012    2    1    2    0    0 -0.78989075726E+00 -0.70762142455E+00  0.51810244569E+00  0.90007709513E+02  0.89999970479E+02 0.  0.
         12    1    1    2    0    0  0.78989075726E+00  0.70762142455E+00 -0.51810244569E+00  0.11802904868E+01  0.00000000000E+00 0. -1.
         11    1    3    3    0    0 -0.29350776555E+01  0.21874988456E+01  0.91734951689E+01  0.98768844236E+01  0.51100000000E-03 0. -1.
        -11    1    3    3    0    0  0.35155343059E+02  0.18063411777E+02  0.20899750270E+01  0.39579704225E+02  0.51100000000E-03 0.  1.
         12    1    3    3    0    0 -0.33010156161E+02 -0.20958532047E+02 -0.10745367750E+02  0.40551120865E+02  0.00000000000E+00 0. -1.
</event>
<event>
 7    1  0.2468912E-015  0.9000772E+02  0.7816164E-02  0.1186339E+00
        -11   -1    0    0    0    0  0.00000000000E+00  0.00000000000E+00  0.45593999997E+02  0.45594000000E+02  0.51100000000E-03 0. -1.
         11   -1    0    0    0    0 -0.00000000000E+00 -0.00000000000E+00 -0.45593999997E+02  0.45594000000E+02  0.51100000000E-03 0.  1.
    9900012    2    1    2    0    0 -0.11754509533E+01 -0.21938648392E-01 -0.10442904530E+00  0.90007715427E+02  0.89999976471E+02 0.  0.
         12    1    1    2    0    0  0.11754509533E+01  0.21938648392E-01  0.10442904530E+00  0.11802845731E+01  0.00000000000E+00 0. -1.
         11    1    3    3    0    0  0.18452212193E+01 -0.10522333743E+02  0.26549648189E+01  0.11007869330E+02  0.51100000000E-03 0. -1.
        -11    1    3    3    0    0 -0.40143817535E+02  0.94876712850E+01  0.32593737548E+01  0.41378321742E+02  0.51100000000E-03 0.  1.
         12    1    3    3    0    0  0.37123145362E+02  0.10127238091E+01 -0.60187676190E+01  0.37621524354E+02  0.00000000000E+00 0. -1.
</event>
<event>
 7    1  0.2468912E-015  0.9000736E+02  0.7816164E-02  0.1186340E+00
        -11   -1    0    0    0    0  0.00000000000E+00  0.00000000000E+00  0.45593999997E+02  0.45594000000E+02  0.51100000000E-03 0. -1.
         11   -1    0    0    0    0 -0.00000000000E+00 -0.00000000000E+00 -0.45593999997E+02  0.45594000000E+02  0.51100000000E-03 0.  1.
    9900012    2    1    2    0    0  0.13941117250E+00  0.10199087476E+01  0.57815090380E+00  0.90007361276E+02  0.89999617644E+02 0.  0.
         12    1    1    2    0    0 -0.13941117250E+00 -0.10199087476E+01 -0.57815090380E+00  0.11806387238E+01  0.00000000000E+00 0. -1.
         11    1    3    3    0    0  0.54855398233E+01  0.50153461034E+01  0.42254528624E+01  0.85498126204E+01  0.51100000000E-03 0. -1.
        -11    1    3    3    0    0 -0.11829325528E+02  0.27475063108E+02 -0.28129548060E+02  0.41061947220E+02  0.51100000000E-03 0.  1.
         12    1    3    3    0    0  0.64831968774E+01 -0.31470500463E+02  0.24482246101E+02  0.40395601435E+02  0.00000000000E+00 0. -1.
</event>
<event>
 7    1  0.2468912E-015  0.9000774E+02  0.7816164E-02  0.1186339E+00
        -11   -1    0    0    0    0  0.00000000000E+00  0.00000000000E+00  0.45593999997E+02  0.45594000000E+02  0.51100000000E-03 0.  1.
         11   -1    0    0    0    0 -0.00000000000E+00 -0.00000000000E+00 -0.45593999997E+02  0.45594000000E+02  0.51100000000E-03 0. -1.
    9900012    2    1    2    0    0  0.14793182755E+00 -0.11648860791E+01 -0.11906005210E+00  0.90007737869E+02  0.89999999208E+02 0.  0.
         12    1    1    2    0    0 -0.14793182755E+00  0.11648860791E+01  0.11906005210E+00  0.11802621315E+01  0.00000000000E+00 0. -1.
         11    1    3    3    0    0 -0.21731149780E+02  0.29804285198E+02  0.13245840013E+02  0.39191715513E+02  0.51100000000E-03 0. -1.
        -11    1    3    3    0    0  0.64273078919E+01  0.44665937201E+01  0.35805416037E+01  0.86070334398E+01  0.51100000000E-03 0.  1.
        -12    1    3    3    0    0  0.15451773716E+02 -0.35435764998E+02 -0.16945441669E+02  0.42208988916E+02  0.00000000000E+00 0.  1.
</event>
<event>
 7    1  0.2468912E-015  0.9000773E+02  0.7816164E-02  0.1186339E+00
        -11   -1    0    0    0    0  0.00000000000E+00  0.00000000000E+00  0.45593999997E+02  0.45594000000E+02  0.51100000000E-03 0. -1.
         11   -1    0    0    0    0 -0.00000000000E+00 -0.00000000000E+00 -0.45593999997E+02  0.45594000000E+02  0.51100000000E-03 0.  1.
    9900012    2    1    2    0    0  0.33623006920E+00  0.11135833838E+01 -0.19979443972E+00  0.90007730357E+02  0.89999991598E+02 0.  0.
         12    1    1    2    0    0 -0.33623006920E+00 -0.11135833838E+01  0.19979443972E+00  0.11802696430E+01  0.00000000000E+00 0. -1.
         11    1    3    3    0    0 -0.60618516496E+01 -0.20356882763E+00 -0.60111384367E+01  0.85393952512E+01  0.51100000000E-03 0. -1.
        -11    1    3    3    0    0  0.39929108238E+02 -0.10140194088E+02 -0.10418984562E+02  0.42493675534E+02  0.51100000000E-03 0.  1.
         12    1    3    3    0    0 -0.33531026519E+02  0.11457346299E+02  0.16230328559E+02  0.38974659572E+02  0.00000000000E+00 0. -1.
</event>
<event>
 7    1  0.2468912E-015  0.9000792E+02  0.7816164E-02  0.1186339E+00
        -11   -1    0    0    0    0  0.00000000000E+00  0.00000000000E+00  0.45593999997E+02  0.45594000000E+02  0.51100000000E-03 0.  1.
         11   -1    0    0    0    0 -0.00000000000E+00 -0.00000000000E+00 -0.45593999997E+02  0.45594000000E+02  0.51100000000E-03 0. -1.
    9900012    2    1    2    0    0 -0.10553910717E+01 -0.27626159127E+00 -0.44991885505E+00  0.90007916208E+02  0.90000179901E+02 0.  0.
         12    1    1    2    0    0  0.10553910717E+01  0.27626159127E+00  0.44991885505E+00  0.11800837924E+01  0.00000000000E+00 0. -1.
         11    1    3    3    0    0 -0.85644351283E+01  0.35015366209E+02  0.15540420058E+02  0.39254682213E+02  0.51100000000E-03 0. -1.
        -11    1    3    3    0    0  0.77865685334E+01  0.36365139402E+01  0.18862381501E+00  0.85959561636E+01  0.51100000000E-03 0.  1.
        -12    1    3    3    0    0 -0.27752447683E+00 -0.38928141740E+02 -0.16178962728E+02  0.42157277831E+02  0.00000000000E+00 0.  1.
</event>
<event>
 7    1  0.3350394E-015  0.9000777E+02  0.7816164E-02  0.1186339E+00
        -11   -1    0    0    0    0  0.00000000000E+00  0.00000000000E+00  0.45593999997E+02  0.45594000000E+02  0.51100000000E-03 0. -1.
         11   -1    0    0    0    0 -0.00000000000E+00 -0.00000000000E+00 -0.45593999997E+02  0.45594000000E+02  0.51100000000E-03 0.  1.
    9900012    2    1    2    0    0  0.23430285224E+00  0.71697933640E-01 -0.11545109597E+01  0.90007773761E+02  0.90000035574E+02 0.  0.
         12    1    1    2    0    0 -0.23430285224E+00 -0.71697933640E-01  0.11545109597E+01  0.11802262394E+01  0.00000000000E+00 0. -1.
         11    1    3    3    0    0  0.13820177706E+02  0.17743518612E+02  0.27285856695E+02  0.35360256509E+02  0.51100000000E-03 0. -1.
        -11    1    3    3    0    0  0.70851326052E+01  0.63164956263E+01  0.30689437097E+01  0.99757524420E+01  0.51100000000E-03 0.  1.
        -12    1    3    3    0    0 -0.20671007458E+02 -0.23988316305E+02 -0.31509311365E+02  0.44671764809E+02  0.00000000000E+00 0.  1.
</event>
<event>
 7    1  0.2468912E-015  0.9000774E+02  0.7816164E-02  0.1186339E+00
        -11   -1    0    0    0    0  0.00000000000E+00  0.00000000000E+00  0.45593999997E+02  0.45594000000E+02  0.51100000000E-03 0. -1.
         11   -1    0    0    0    0 -0.00000000000E+00 -0.00000000000E+00 -0.45593999997E+02  0.45594000000E+02  0.51100000000E-03 0.  1.
    9900012    2    1    2    0    0 -0.18268407726E+00 -0.64167802632E+00 -0.97359723559E+00  0.90007739123E+02  0.90000000479E+02 0.  0.
         12    1    1    2    0    0  0.18268407726E+00  0.64167802632E+00  0.97359723559E+00  0.11802608774E+01  0.00000000000E+00 0. -1.
         11    1    3    3    0    0 -0.21771991952E+02 -0.89469081431E+00  0.29393360738E+02  0.36589476096E+02  0.51100000000E-03 0. -1.
        -11    1    3    3    0    0 -0.83822783870E+01 -0.66799872554E+01 -0.79691722539E+00  0.10748018330E+02  0.51100000000E-03 0.  1.
        -12    1    3    3    0    0  0.29971586262E+02  0.69330000434E+01 -0.29570040749E+02  0.42670244697E+02  0.00000000000E+00 0.  1.
</event>
<event>
 7    1  0.2468912E-015  0.9000776E+02  0.7816164E-02  0.1186339E+00
        -11   -1    0    0    0    0  0.00000000000E+00  0.00000000000E+00  0.45593999997E+02  0.45594000000E+02  0.51100000000E-03 0.  1.
         11   -1    0    0    0    0 -0.00000000000E+00 -0.00000000000E+00 -0.45593999997E+02  0.45594000000E+02  0.51100000000E-03 0. -1.
    9900012    2    1    2    0    0 -0.28104831424E+00  0.21295243164E+00  0.11263371758E+01  0.90007757514E+02  0.90000019113E+02 0.  0.
         12    1    1    2    0    0  0.28104831424E+00 -0.21295243164E+00 -0.11263371758E+01  0.11802424864E+01  0.00000000000E+00 0. -1.
         11    1    3    3    0    0 -0.67783558991E+01  0.34763434446E+02 -0.12564613950E+02  0.37580739843E+02  0.51100000000E-03 0. -1.
        -11    1    3    3    0    0  0.13076424390E+02  0.20999061475E+01  0.52464965007E+01  0.14245287166E+02  0.51100000000E-03 0.  1.
        -12    1    3    3    0    0 -0.65791168051E+01 -0.36650388162E+02  0.84444546250E+01  0.38181730504E+02  0.00000000000E+00 0.  1.
</event>
<event>
 7    1  0.2468912E-015  0.9000775E+02  0.7816164E-02  0.1186339E+00
        -11   -1    0    0    0    0  0.00000000000E+00  0.00000000000E+00  0.45593999997E+02  0.45594000000E+02  0.51100000000E-03 0.  1.
         11   -1    0    0    0    0 -0.00000000000E+00 -0.00000000000E+00 -0.45593999997E+02  0.45594000000E+02  0.51100000000E-03 0. -1.
    9900012    2    1    2    0    0  0.27688017831E+00  0.56758670392E+00  0.99708590273E+00  0.90007746808E+02  0.90000008266E+02 0.  0.
         12    1    1    2    0    0 -0.27688017831E+00 -0.56758670392E+00 -0.99708590273E+00  0.11802531919E+01  0.00000000000E+00 0. -1.
         11    1    3    3    0    0  0.29050997206E+01 -0.15457617399E+02 -0.36911424928E+02  0.40122697199E+02  0.51100000000E-03 0. -1.
        -11    1    3    3    0    0 -0.75812911583E+00 -0.79443152845E+01  0.62747617490E+01  0.10151824484E+02  0.51100000000E-03 0.  1.
        -12    1    3    3    0    0 -0.18700904265E+01  0.23969519388E+02  0.31633749081E+02  0.39733225125E+02  0.00000000000E+00 0.  1.
</event>
<event>
 7    1  0.2468912E-015  0.9000774E+02  0.7816164E-02  0.1186339E+00
        -11   -1    0    0    0    0  0.00000000000E+00  0.00000000000E+00  0.45593999997E+02  0.45594000000E+02  0.51100000000E-03 0.  1.
         11   -1    0    0    0    0 -0.00000000000E+00 -0.00000000000E+00 -0.45593999997E+02  0.45594000000E+02  0.51100000000E-03 0. -1.
    9900012    2    1    2    0    0  0.99687183277E-01  0.11604546711E+01 -0.19083579628E+00  0.90007741181E+02  0.90000002565E+02 0.  0.
         12    1    1    2    0    0 -0.99687183277E-01 -0.11604546711E+01  0.19083579628E+00  0.11802588188E+01  0.00000000000E+00 0. -1.
         11    1    3    3    0    0  0.41311737728E+01 -0.19627916211E+00 -0.45860356871E+01  0.61755036908E+01  0.51100000000E-03 0. -1.
        -11    1    3    3    0    0  0.28553126964E+02  0.11564014881E+01  0.30709437374E+02  0.41948633684E+02  0.51100000000E-03 0.  1.
         12    1    3    3    0    0 -0.32584613554E+02  0.20033234508E+00 -0.26314237483E+02  0.41883603807E+02  0.00000000000E+00 0. -1.
</event>
<event>
 7    1  0.2468912E-015  0.9000774E+02  0.7816164E-02  0.1186339E+00
        -11   -1    0    0    0    0  0.00000000000E+00  0.00000000000E+00  0.45593999997E+02  0.45594000000E+02  0.51100000000E-03 0. -1.
         11   -1    0    0    0    0 -0.00000000000E+00 -0.00000000000E+00 -0.45593999997E+02  0.45594000000E+02  0.51100000000E-03 0.  1.
    9900012    2    1    2    0    0 -0.72188413792E+00 -0.47455515274E+00 -0.80416773304E+00  0.90007743653E+02  0.90000005069E+02 0.  0.
         12    1    1    2    0    0  0.72188413792E+00  0.47455515274E+00  0.80416773304E+00  0.11802563469E+01  0.00000000000E+00 0. -1.
         11    1    3    3    0    0 -0.67813161406E+01 -0.11504252784E+01  0.87909080864E+01  0.11161979760E+02  0.51100000000E-03 0. -1.
        -11    1    3    3    0    0 -0.86068256976E+01  0.31760431728E+02 -0.24856697374E+02  0.41239033412E+02  0.51100000000E-03 0.  1.
         12    1    3    3    0    0  0.14666257700E+02 -0.31084561603E+02  0.15261621555E+02  0.37606730481E+02  0.00000000000E+00 0. -1.
</event>
<event>
 7    1  0.2468912E-015  0.9000777E+02  0.7816164E-02  0.1186339E+00
        -11   -1    0    0    0    0  0.00000000000E+00  0.00000000000E+00  0.45593999997E+02  0.45594000000E+02  0.51100000000E-03 0. -1.
         11   -1    0    0    0    0 -0.00000000000E+00 -0.00000000000E+00 -0.45593999997E+02  0.45594000000E+02  0.51100000000E-03 0.  1.
    9900012    2    1    2    0    0 -0.10564289919E+01  0.40319062571E+00 -0.33814147585E+00  0.90007769280E+02  0.90000031034E+02 0.  0.
         12    1    1    2    0    0  0.10564289919E+01 -0.40319062571E+00  0.33814147585E+00  0.11802307203E+01  0.00000000000E+00 0. -1.
         11    1    3    3    0    0  0.68797114299E+01  0.23375052767E+02  0.22310470665E+02  0.33037563814E+02  0.51100000000E-03 0. -1.
        -11    1    3    3    0    0 -0.65090636816E+01 -0.13910092425E+01  0.13382442516E+02  0.14946323450E+02  0.51100000000E-03 0.  1.
        -12    1    3    3    0    0 -0.14270767401E+01 -0.21580852899E+02 -0.36031054657E+02  0.42023882015E+02  0.00000000000E+00 0.  1.
</event>
<event>
 7    1  0.2468912E-015  0.9000768E+02  0.7816164E-02  0.1186339E+00
        -11   -1    0    0    0    0  0.00000000000E+00  0.00000000000E+00  0.45593999997E+02  0.45594000000E+02  0.51100000000E-03 0.  1.
         11   -1    0    0    0    0 -0.00000000000E+00 -0.00000000000E+00 -0.45593999997E+02  0.45594000000E+02  0.51100000000E-03 0. -1.
    9900012    2    1    2    0    0  0.10128633144E+00  0.59344896486E+00  0.10152408935E+01  0.90007680269E+02  0.89999940849E+02 0.  0.
         12    1    1    2    0    0 -0.10128633144E+00 -0.59344896486E+00 -0.10152408935E+01  0.11803197307E+01  0.00000000000E+00 0. -1.
         11    1    3    3    0    0 -0.12187296284E+02  0.33732428816E+02 -0.17467014836E+02  0.39893653030E+02  0.51100000000E-03 0. -1.
        -11    1    3    3    0    0  0.79837232042E+01  0.94558597963E+00 -0.40768286277E+01  0.90141278539E+01  0.51100000000E-03 0.  1.
        -12    1    3    3    0    0  0.43048594110E+01 -0.34084565831E+02  0.22559084357E+02  0.41099899385E+02  0.00000000000E+00 0.  1.
</event>
<event>
 7    1  0.2468912E-015  0.9000776E+02  0.7816164E-02  0.1186339E+00
        -11   -1    0    0    0    0  0.00000000000E+00  0.00000000000E+00  0.45593999997E+02  0.45594000000E+02  0.51100000000E-03 0.  1.
         11   -1    0    0    0    0 -0.00000000000E+00 -0.00000000000E+00 -0.45593999997E+02  0.45594000000E+02  0.51100000000E-03 0. -1.
    9900012    2    1    2    0    0  0.10740673100E+01  0.37688735307E+00  0.31194398894E+00  0.90007756925E+02  0.90000018517E+02 0.  0.
         12    1    1    2    0    0 -0.10740673100E+01 -0.37688735307E+00 -0.31194398894E+00  0.11802430748E+01  0.00000000000E+00 0. -1.
         11    1    3    3    0    0 -0.36217221841E+02 -0.94710328795E+01 -0.11238392035E+02  0.39085663324E+02  0.51100000000E-03 0. -1.
        -11    1    3    3    0    0  0.11784443925E+02 -0.93565479118E+01 -0.37643775154E+01  0.15510920211E+02  0.51100000000E-03 0.  1.
        -12    1    3    3    0    0  0.25506845226E+02  0.19204468144E+02  0.15314713540E+02  0.35411173390E+02  0.00000000000E+00 0.  1.
</event>
<event>
 7    1  0.2468912E-015  0.9000778E+02  0.7816164E-02  0.1186339E+00
        -11   -1    0    0    0    0  0.00000000000E+00  0.00000000000E+00  0.45593999997E+02  0.45594000000E+02  0.51100000000E-03 0.  1.
         11   -1    0    0    0    0 -0.00000000000E+00 -0.00000000000E+00 -0.45593999997E+02  0.45594000000E+02  0.51100000000E-03 0. -1.
    9900012    2    1    2    0    0  0.90684023571E+00 -0.65857780892E+00  0.36991290147E+00  0.90007779894E+02  0.90000041789E+02 0.  0.
         12    1    1    2    0    0 -0.90684023571E+00  0.65857780892E+00 -0.36991290147E+00  0.11802201058E+01  0.00000000000E+00 0. -1.
         11    1    3    3    0    0 -0.91916937971E+01 -0.31041263934E+01 -0.15141432282E+01  0.98191377168E+01  0.51100000000E-03 0. -1.
        -11    1    3    3    0    0  0.10193234091E+02 -0.24256669389E+02  0.31014402869E+02  0.40671626678E+02  0.51100000000E-03 0.  1.
         12    1    3    3    0    0 -0.94700058209E-01  0.26702217974E+02 -0.29130346739E+02  0.39517015499E+02  0.00000000000E+00 0. -1.
</event>
<event>
 7    1  0.2468912E-015  0.9000774E+02  0.7816164E-02  0.1186339E+00
        -11   -1    0    0    0    0  0.00000000000E+00  0.00000000000E+00  0.45593999997E+02  0.45594000000E+02  0.51100000000E-03 0. -1.
         11   -1    0    0    0    0 -0.00000000000E+00 -0.00000000000E+00 -0.45593999997E+02  0.45594000000E+02  0.51100000000E-03 0.  1.
    9900012    2    1    2    0    0 -0.10082012210E+01 -0.13894003955E+00 -0.59769687200E+00  0.90007739187E+02  0.90000000544E+02 0.  0.
         12    1    1    2    0    0  0.10082012210E+01  0.13894003955E+00  0.59769687200E+00  0.11802608133E+01  0.00000000000E+00 0. -1.
         11    1    3    3    0    0 -0.52109120398E+01 -0.23893955219E+01 -0.53481225923E+01  0.78399764522E+01  0.51100000000E-03 0. -1.
        -11    1    3    3    0    0 -0.68958869276E+01 -0.37235150483E+02  0.13548432403E+02  0.40219021729E+02  0.51100000000E-03 0.  1.
         12    1    3    3    0    0  0.11098597746E+02  0.39485605965E+02 -0.87980066830E+01  0.41948741006E+02  0.00000000000E+00 0. -1.
</event>
<event>
 7    1  0.2728036E-015  0.9000753E+02  0.7816164E-02  0.1186339E+00
        -11   -1    0    0    0    0  0.00000000000E+00  0.00000000000E+00  0.45593999997E+02  0.45594000000E+02  0.51100000000E-03 0. -1.
         11   -1    0    0    0    0 -0.00000000000E+00 -0.00000000000E+00 -0.45593999997E+02  0.45594000000E+02  0.51100000000E-03 0.  1.
    9900012    2    1    2    0    0 -0.27488955291E+00 -0.71590211944E+00 -0.89745663357E+00  0.90007530382E+02  0.89999788982E+02 0.  0.
         12    1    1    2    0    0  0.27488955291E+00  0.71590211944E+00  0.89745663357E+00  0.11804696184E+01  0.00000000000E+00 0. -1.
         11    1    3    3    0    0  0.39576412327E+02 -0.11121491391E+02  0.25506286336E+00  0.41110157392E+02  0.51100000000E-03 0. -1.
        -11    1    3    3    0    0 -0.63874299302E+00  0.78015363408E+01  0.47522978517E+01  0.91573083938E+01  0.51100000000E-03 0.  1.
        -12    1    3    3    0    0 -0.39212558887E+02  0.26040529309E+01 -0.59048173486E+01  0.39740064596E+02  0.00000000000E+00 0.  1.
</event>
<event>
 7    1  0.2468912E-015  0.9000744E+02  0.7816164E-02  0.1186340E+00
        -11   -1    0    0    0    0  0.00000000000E+00  0.00000000000E+00  0.45593999997E+02  0.45594000000E+02  0.51100000000E-03 0.  1.
         11   -1    0    0    0    0 -0.00000000000E+00 -0.00000000000E+00 -0.45593999997E+02  0.45594000000E+02  0.51100000000E-03 0. -1.
    9900012    2    1    2    0    0 -0.57271138355E+00  0.87215862810E+00  0.55232458569E+00  0.90007440197E+02  0.89999697607E+02 0.  0.
         12    1    1    2    0    0  0.57271138355E+00 -0.87215862810E+00 -0.55232458569E+00  0.11805598034E+01  0.00000000000E+00 0. -1.
         11    1    3    3    0    0 -0.10083968885E+00 -0.54192278654E+00  0.95773935295E+01  0.95932432487E+01  0.51100000000E-03 0. -1.
        -11    1    3    3    0    0  0.26588138256E+02  0.96940625458E+01  0.23869454582E+02  0.37022355502E+02  0.51100000000E-03 0.  1.
         12    1    3    3    0    0 -0.27060009951E+02 -0.82799811311E+01 -0.32894523526E+02  0.43391841446E+02  0.00000000000E+00 0. -1.
</event>
<event>
 7    1  0.2763206E-015  0.9000774E+02  0.7816164E-02  0.1186339E+00
        -11   -1    0    0    0    0  0.00000000000E+00  0.00000000000E+00  0.45593999997E+02  0.45594000000E+02  0.51100000000E-03 0. -1.
         11   -1    0    0    0    0 -0.00000000000E+00 -0.00000000000E+00 -0.45593999997E+02  0.45594000000E+02  0.51100000000E-03 0.  1.
    9900012    2    1    2    0    0  0.85515210552E+00  0.22526778959E+00 -0.78165229063E+00  0.90007741128E+02  0.90000002511E+02 0.  0.
         12    1    1    2    0    0 -0.85515210552E+00 -0.22526778959E+00  0.78165229063E+00  0.11802588716E+01  0.00000000000E+00 0. -1.
         11    1    3    3    0    0  0.40889907648E+01  0.12905974992E+02  0.35249427990E+02  0.37759849176E+02  0.51100000000E-03 0. -1.
        -11    1    3    3    0    0 -0.63282016601E+01  0.44764235601E+01  0.38997334099E+01  0.86771207823E+01  0.51100000000E-03 0.  1.
        -12    1    3    3    0    0  0.30943630009E+01 -0.17157130762E+02 -0.39930813690E+02  0.43570771170E+02  0.00000000000E+00 0.  1.
</event>
<event>
 7    1  0.2468912E-015  0.9000770E+02  0.7816164E-02  0.1186339E+00
        -11   -1    0    0    0    0  0.00000000000E+00  0.00000000000E+00  0.45593999997E+02  0.45594000000E+02  0.51100000000E-03 0.  1.
         11   -1    0    0    0    0 -0.00000000000E+00 -0.00000000000E+00 -0.45593999997E+02  0.45594000000E+02  0.51100000000E-03 0. -1.
    9900012    2    1    2    0    0 -0.89611827650E+00  0.76809055046E+00  0.10539749723E-01  0.90007702518E+02  0.89999963391E+02 0.  0.
         12    1    1    2    0    0  0.89611827650E+00 -0.76809055046E+00 -0.10539749723E-01  0.11802974818E+01  0.00000000000E+00 0. -1.
         11    1    3    3    0    0  0.18941707702E+01 -0.12912796306E+02  0.22252603194E+02  0.25797413447E+02  0.51100000000E-03 0. -1.
        -11    1    3    3    0    0 -0.28181112876E+02 -0.20272157086E+01 -0.23879045554E+01  0.28354661255E+02  0.51100000000E-03 0.  1.
         12    1    3    3    0    0  0.25390823829E+02  0.15708102565E+02 -0.19854158889E+02  0.35855627817E+02  0.00000000000E+00 0. -1.
</event>
<event>
 7    1  0.4142320E-015  0.9000778E+02  0.7816164E-02  0.1186339E+00
        -11   -1    0    0    0    0  0.00000000000E+00  0.00000000000E+00  0.45593999997E+02  0.45594000000E+02  0.51100000000E-03 0.  1.
         11   -1    0    0    0    0 -0.00000000000E+00 -0.00000000000E+00 -0.45593999997E+02  0.45594000000E+02  0.51100000000E-03 0. -1.
    9900012    2    1    2    0    0  0.56842008237E+00 -0.68733362119E+00  0.77291062023E+00  0.90007779799E+02  0.90000041692E+02 0.  0.
         12    1    1    2    0    0 -0.56842008237E+00  0.68733362119E+00 -0.77291062023E+00  0.11802202014E+01  0.00000000000E+00 0. -1.
         11    1    3    3    0    0  0.33845449430E+02 -0.46922361733E+01 -0.16379302066E+02  0.37892124034E+02  0.51100000000E-03 0. -1.
        -11    1    3    3    0    0  0.29522478778E+01  0.71339009404E+01 -0.53127272062E+01  0.93719464781E+01  0.51100000000E-03 0.  1.
        -12    1    3    3    0    0 -0.36229277225E+02 -0.31289983883E+01  0.22464939893E+02  0.42743709286E+02  0.00000000000E+00 0.  1.
</event>
<event>
 7    1  0.2468912E-015  0.9000811E+02  0.7816164E-02  0.1186338E+00
        -11   -1    0    0    0    0  0.00000000000E+00  0.00000000000E+00  0.45593999997E+02  0.45594000000E+02  0.51100000000E-03 0.  1.
         11   -1    0    0    0    0 -0.00000000000E+00 -0.00000000000E+00 -0.45593999997E+02  0.45594000000E+02  0.51100000000E-03 0. -1.
    9900012    2    1    2    0    0  0.23616532926E+00 -0.10958726522E+01 -0.36799594023E+00  0.90008113588E+02  0.90000379887E+02 0.  0.
         12    1    1    2    0    0 -0.23616532926E+00  0.10958726522E+01  0.36799594023E+00  0.11798864117E+01  0.00000000000E+00 0. -1.
         11    1    3    3    0    0 -0.56635315437E+01 -0.41946053565E+01  0.10322062059E+02  0.12498610685E+02  0.51100000000E-03 0. -1.
        -11    1    3    3    0    0 -0.13275574501E+01 -0.29353224904E+02  0.17257627084E+02  0.34076383521E+02  0.51100000000E-03 0.  1.
         12    1    3    3    0    0  0.72272543231E+01  0.32451957608E+02 -0.27947685084E+02  0.43433119382E+02  0.00000000000E+00 0. -1.
</event>
<event>
 7    1  0.2468912E-015  0.9000776E+02  0.7816164E-02  0.1186339E+00
        -11   -1    0    0    0    0  0.00000000000E+00  0.00000000000E+00  0.45593999997E+02  0.45594000000E+02  0.51100000000E-03 0.  1.
         11   -1    0    0    0    0 -0.00000000000E+00 -0.00000000000E+00 -0.45593999997E+02  0.45594000000E+02  0.51100000000E-03 0. -1.
    9900012    2    1    2    0    0  0.80114655088E+00 -0.84122207468E+00  0.20848581854E+00  0.90007764129E+02  0.90000025815E+02 0.  0.
         12    1    1    2    0    0 -0.80114655088E+00  0.84122207468E+00 -0.20848581854E+00  0.11802358711E+01  0.00000000000E+00 0. -1.
         11    1    3    3    0    0  0.47301493651E+01 -0.17814554224E+01  0.47956163268E+01  0.69674839543E+01  0.51100000000E-03 0. -1.
        -11    1    3    3    0    0 -0.32870379015E+02  0.23676366327E+02  0.12595781420E+02  0.42422704403E+02  0.51100000000E-03 0.  1.
         12    1    3    3    0    0  0.28941376201E+02 -0.22736132979E+02 -0.17182911928E+02  0.40617575772E+02  0.00000000000E+00 0. -1.
</event>
<event>
 7    1  0.2468912E-015  0.9000778E+02  0.7816164E-02  0.1186339E+00
        -11   -1    0    0    0    0  0.00000000000E+00  0.00000000000E+00  0.45593999997E+02  0.45594000000E+02  0.51100000000E-03 0. -1.
         11   -1    0    0    0    0 -0.00000000000E+00 -0.00000000000E+00 -0.45593999997E+02  0.45594000000E+02  0.51100000000E-03 0.  1.
    9900012    2    1    2    0    0  0.84418783605E+00 -0.27460969074E+00  0.77772866609E+00  0.90007777367E+02  0.90000039228E+02 0.  0.
         12    1    1    2    0    0 -0.84418783605E+00  0.27460969074E+00 -0.77772866609E+00  0.11802226327E+01  0.00000000000E+00 0. -1.
         11    1    3    3    0    0  0.10871240910E+02  0.19084430967E+02  0.34523244041E+02  0.40917646115E+02  0.51100000000E-03 0. -1.
        -11    1    3    3    0    0 -0.85055865468E+01  0.44327641767E+01 -0.27330641610E+01  0.99731660329E+01  0.51100000000E-03 0.  1.
        -12    1    3    3    0    0 -0.15214665267E+01 -0.23791804835E+02 -0.31012451214E+02  0.39116965219E+02  0.00000000000E+00 0.  1.
</event>
<event>
 7    1  0.2468912E-015  0.9000775E+02  0.7816164E-02  0.1186339E+00
        -11   -1    0    0    0    0  0.00000000000E+00  0.00000000000E+00  0.45593999997E+02  0.45594000000E+02  0.51100000000E-03 0. -1.
         11   -1    0    0    0    0 -0.00000000000E+00 -0.00000000000E+00 -0.45593999997E+02  0.45594000000E+02  0.51100000000E-03 0.  1.
    9900012    2    1    2    0    0  0.42585563758E+00  0.87557914891E+00 -0.66708918063E+00  0.90007745856E+02  0.90000007301E+02 0.  0.
         12    1    1    2    0    0 -0.42585563758E+00 -0.87557914891E+00  0.66708918063E+00  0.11802541442E+01  0.00000000000E+00 0. -1.
         11    1    3    3    0    0 -0.31132863598E+01 -0.59891764312E+01  0.63723879840E+01  0.92827859591E+01  0.51100000000E-03 0. -1.
        -11    1    3    3    0    0 -0.25259098595E+02 -0.25075478561E+02  0.52978754393E+01  0.35984290618E+02  0.51100000000E-03 0.  1.
         12    1    3    3    0    0  0.28798240592E+02  0.31940234141E+02 -0.12337352604E+02  0.44740669278E+02  0.00000000000E+00 0. -1.
</event>
<event>
 7    1  0.2468912E-015  0.9000774E+02  0.7816164E-02  0.1186339E+00
        -11   -1    0    0    0    0  0.00000000000E+00  0.00000000000E+00  0.45593999997E+02  0.45594000000E+02  0.51100000000E-03 0.  1.
         11   -1    0    0    0    0 -0.00000000000E+00 -0.00000000000E+00 -0.45593999997E+02  0.45594000000E+02  0.51100000000E-03 0. -1.
    9900012    2    1    2    0    0  0.27391152301E+00 -0.99322761153E+00  0.57574553658E+00  0.90007740904E+02  0.90000002284E+02 0.  0.
         12    1    1    2    0    0 -0.27391152301E+00  0.99322761153E+00 -0.57574553658E+00  0.11802590960E+01  0.00000000000E+00 0. -1.
         11    1    3    3    0    0  0.29288542552E+01 -0.19294191764E+01 -0.41058472918E+02  0.41207997334E+02  0.51100000000E-03 0. -1.
        -11    1    3    3    0    0 -0.24875180872E+01  0.91591688229E+01  0.40377138766E+01  0.10314128823E+02  0.51100000000E-03 0.  1.
        -12    1    3    3    0    0 -0.16742464495E+00 -0.82229772580E+01  0.37596504578E+02  0.38485614748E+02  0.00000000000E+00 0.  1.
</event>
<event>
 7    1  0.2468912E-015  0.9000774E+02  0.7816164E-02  0.1186339E+00
        -11   -1    0    0    0    0  0.00000000000E+00  0.00000000000E+00  0.45593999997E+02  0.45594000000E+02  0.51100000000E-03 0. -1.
         11   -1    0    0    0    0 -0.00000000000E+00 -0.00000000000E+00 -0.45593999997E+02  0.45594000000E+02  0.51100000000E-03 0.  1.
    9900012    2    1    2    0    0  0.99080630361E+00 -0.15837090191E+00 -0.62147495584E+00  0.90007741725E+02  0.90000003116E+02 0.  0.
         12    1    1    2    0    0 -0.99080630361E+00  0.15837090191E+00  0.62147495584E+00  0.11802582745E+01  0.00000000000E+00 0. -1.
         11    1    3    3    0    0  0.37558986571E+01  0.10216663786E+02  0.76971990676E+01  0.13331686592E+02  0.51100000000E-03 0. -1.
        -11    1    3    3    0    0  0.89172666630E+01  0.31358014651E+02 -0.68540642378E+01  0.33313974912E+02  0.51100000000E-03 0.  1.
        -12    1    3    3    0    0 -0.11682359017E+02 -0.41733049339E+02 -0.14646097857E+01  0.43362080222E+02  0.00000000000E+00 0.  1.
</event>
<event>
 7    1  0.2468912E-015  0.9000759E+02  0.7816164E-02  0.1186339E+00
        -11   -1    0    0    0    0  0.00000000000E+00  0.00000000000E+00  0.45593999997E+02  0.45594000000E+02  0.51100000000E-03 0.  1.
         11   -1    0    0    0    0 -0.00000000000E+00 -0.00000000000E+00 -0.45593999997E+02  0.45594000000E+02  0.51100000000E-03 0. -1.
    9900012    2    1    2    0    0 -0.66783002628E+00 -0.33293757214E+00  0.91461879641E+00  0.90007588244E+02  0.89999847609E+02 0.  0.
         12    1    1    2    0    0  0.66783002628E+00  0.33293757214E+00 -0.91461879641E+00  0.11804117560E+01  0.00000000000E+00 0. -1.
         11    1    3    3    0    0 -0.23864460952E+00  0.43193421016E+02  0.65982166109E+00  0.43199119612E+02  0.51100000000E-03 0. -1.
        -11    1    3    3    0    0  0.68922396398E+01 -0.81229459286E+01 -0.13691745034E+00  0.10653823936E+02  0.51100000000E-03 0.  1.
        -12    1    3    3    0    0 -0.73214250566E+01 -0.35403412660E+02  0.39171458566E+00  0.36154644696E+02  0.00000000000E+00 0.  1.
</event>
<event>
 7    1  0.2468912E-015  0.9000788E+02  0.7816164E-02  0.1186339E+00
        -11   -1    0    0    0    0  0.00000000000E+00  0.00000000000E+00  0.45593999997E+02  0.45594000000E+02  0.51100000000E-03 0.  1.
         11   -1    0    0    0    0 -0.00000000000E+00 -0.00000000000E+00 -0.45593999997E+02  0.45594000000E+02  0.51100000000E-03 0. -1.
    9900012    2    1    2    0    0 -0.92571120424E+00 -0.55573776154E-01 -0.72983392124E+00  0.90007878298E+02  0.90000141492E+02 0.  0.
         12    1    1    2    0    0  0.92571120424E+00  0.55573776154E-01  0.72983392124E+00  0.11801217017E+01  0.00000000000E+00 0. -1.
         11    1    3    3    0    0  0.81280532689E+01 -0.48180529255E+00 -0.91096238703E+00  0.81931214451E+01  0.51100000000E-03 0. -1.
        -11    1    3    3    0    0  0.29668159713E+02 -0.10135140136E+02  0.19861152886E+02  0.37113153470E+02  0.51100000000E-03 0.  1.
         12    1    3    3    0    0 -0.38721924186E+02  0.10561371652E+02 -0.19680024420E+02  0.44701603383E+02  0.00000000000E+00 0. -1.
</event>
<event>
 7    1  0.2468912E-015  0.9000773E+02  0.7816164E-02  0.1186339E+00
        -11   -1    0    0    0    0  0.00000000000E+00  0.00000000000E+00  0.45593999997E+02  0.45594000000E+02  0.51100000000E-03 0.  1.
         11   -1    0    0    0    0 -0.00000000000E+00 -0.00000000000E+00 -0.45593999997E+02  0.45594000000E+02  0.51100000000E-03 0. -1.
    9900012    2    1    2    0    0  0.42327702267E-01 -0.11615711249E+01  0.20491500342E+00  0.90007733390E+02  0.89999994671E+02 0.  0.
         12    1    1    2    0    0 -0.42327702267E-01  0.11615711249E+01 -0.20491500342E+00  0.11802666102E+01  0.00000000000E+00 0. -1.
         11    1    3    3    0    0  0.19103810014E+02 -0.15599971315E+02 -0.28616282352E+02  0.37778383740E+02  0.51100000000E-03 0. -1.
        -11    1    3    3    0    0  0.48593673447E+01 -0.72972500964E+01 -0.23134226348E+00  0.87702240259E+01  0.51100000000E-03 0.  1.
        -12    1    3    3    0    0 -0.23920849657E+02  0.21735650286E+02  0.29052539619E+02  0.43459125624E+02  0.00000000000E+00 0.  1.
</event>
<event>
 7    1  0.2468912E-015  0.9000774E+02  0.7816164E-02  0.1186339E+00
        -11   -1    0    0    0    0  0.00000000000E+00  0.00000000000E+00  0.45593999997E+02  0.45594000000E+02  0.51100000000E-03 0.  1.
         11   -1    0    0    0    0 -0.00000000000E+00 -0.00000000000E+00 -0.45593999997E+02  0.45594000000E+02  0.51100000000E-03 0. -1.
    9900012    2    1    2    0    0 -0.10917284844E+01  0.31525833355E+00  0.31898518982E+00  0.90007741362E+02  0.90000002748E+02 0.  0.
         12    1    1    2    0    0  0.10917284844E+01 -0.31525833355E+00 -0.31898518982E+00  0.11802586377E+01  0.00000000000E+00 0. -1.
         11    1    3    3    0    0  0.57318560787E+01 -0.89016825148E+01  0.36637054111E+00  0.10593788432E+02  0.51100000000E-03 0. -1.
        -11    1    3    3    0    0  0.32447462923E+02  0.48908622737E+01  0.16321076838E+02  0.36648818990E+02  0.51100000000E-03 0.  1.
         12    1    3    3    0    0 -0.39271047487E+02  0.43260785747E+01 -0.16368462189E+02  0.42765133941E+02  0.00000000000E+00 0. -1.
</event>
<event>
 7    1  0.2468912E-015  0.9000767E+02  0.7816164E-02  0.1186339E+00
        -11   -1    0    0    0    0  0.00000000000E+00  0.00000000000E+00  0.45593999997E+02  0.45594000000E+02  0.51100000000E-03 0. -1.
         11   -1    0    0    0    0 -0.00000000000E+00 -0.00000000000E+00 -0.45593999997E+02  0.45594000000E+02  0.51100000000E-03 0.  1.
    9900012    2    1    2    0    0  0.11112247499E+01 -0.38004090554E+00 -0.11797730648E+00  0.90007673698E+02  0.89999934191E+02 0.  0.
         12    1    1    2    0    0 -0.11112247499E+01  0.38004090554E+00  0.11797730648E+00  0.11803263021E+01  0.00000000000E+00 0. -1.
         11    1    3    3    0    0 -0.26712802780E+02 -0.26625178815E+02  0.15333522337E+02  0.40713522162E+02  0.51100000000E-03 0. -1.
        -11    1    3    3    0    0  0.57393453178E+01  0.45416001328E+00  0.66378550363E+01  0.87867778929E+01  0.51100000000E-03 0.  1.
        -12    1    3    3    0    0  0.22084682213E+02  0.25790977896E+02 -0.22089354680E+02  0.40507373643E+02  0.00000000000E+00 0.  1.
</event>
<event>
 7    1  0.2468912E-015  0.9000775E+02  0.7816164E-02  0.1186339E+00
        -11   -1    0    0    0    0  0.00000000000E+00  0.00000000000E+00  0.45593999997E+02  0.45594000000E+02  0.51100000000E-03 0. -1.
         11   -1    0    0    0    0 -0.00000000000E+00 -0.00000000000E+00 -0.45593999997E+02  0.45594000000E+02  0.51100000000E-03 0.  1.
    9900012    2    1    2    0    0 -0.75499739618E+00  0.16512998245E+00 -0.89201500548E+00  0.90007754369E+02  0.90000015927E+02 0.  0.
         12    1    1    2    0    0  0.75499739618E+00 -0.16512998245E+00  0.89201500548E+00  0.11802456309E+01  0.00000000000E+00 0. -1.
         11    1    3    3    0    0 -0.47236257033E+01 -0.69314909799E+00  0.85038567347E+01  0.97523676654E+01  0.51100000000E-03 0. -1.
        -11    1    3    3    0    0 -0.32031878627E+01 -0.38607210439E+02  0.12320555272E+01  0.38759451382E+02  0.51100000000E-03 0.  1.
         12    1    3    3    0    0  0.71718161698E+01  0.39465489520E+02 -0.10627927267E+02  0.41495935321E+02  0.00000000000E+00 0. -1.
</event>
<event>
 7    1  0.2468912E-015  0.9000758E+02  0.7816164E-02  0.1186339E+00
        -11   -1    0    0    0    0  0.00000000000E+00  0.00000000000E+00  0.45593999997E+02  0.45594000000E+02  0.51100000000E-03 0. -1.
         11   -1    0    0    0    0 -0.00000000000E+00 -0.00000000000E+00 -0.45593999997E+02  0.45594000000E+02  0.51100000000E-03 0.  1.
    9900012    2    1    2    0    0  0.81050971344E+00  0.47200231942E+00 -0.71671232300E+00  0.90007581117E+02  0.89999840388E+02 0.  0.
         12    1    1    2    0    0 -0.81050971344E+00 -0.47200231942E+00  0.71671232300E+00  0.11804188829E+01  0.00000000000E+00 0. -1.
         11    1    3    3    0    0 -0.27464520341E+02 -0.20698938650E+02  0.16245432901E+02  0.38034984280E+02  0.51100000000E-03 0. -1.
        -11    1    3    3    0    0 -0.10605970745E+01 -0.50454319196E+01  0.47721863133E+01  0.70253122265E+01  0.51100000000E-03 0.  1.
        -12    1    3    3    0    0  0.29335627129E+02  0.26216372889E+02 -0.21734331537E+02  0.44947284611E+02  0.00000000000E+00 0.  1.
</event>
<event>
 7    1  0.2468912E-015  0.9000802E+02  0.7816164E-02  0.1186338E+00
        -11   -1    0    0    0    0  0.00000000000E+00  0.00000000000E+00  0.45593999997E+02  0.45594000000E+02  0.51100000000E-03 0.  1.
         11   -1    0    0    0    0 -0.00000000000E+00 -0.00000000000E+00 -0.45593999997E+02  0.45594000000E+02  0.51100000000E-03 0. -1.
    9900012    2    1    2    0    0 -0.58033806381E+00 -0.43981298194E+00  0.92851199059E+00  0.90008015998E+02  0.90000281009E+02 0.  0.
         12    1    1    2    0    0  0.58033806381E+00  0.43981298194E+00 -0.92851199059E+00  0.11799840016E+01  0.00000000000E+00 0. -1.
         11    1    3    3    0    0 -0.80011561609E+01  0.34846792833E+01  0.97710772681E+01  0.13100970989E+02  0.51100000000E-03 0. -1.
        -11    1    3    3    0    0  0.22106559789E+02 -0.13648307400E+02  0.26691090208E+02  0.37247692242E+02  0.51100000000E-03 0.  1.
         12    1    3    3    0    0 -0.14685741692E+02  0.97238151345E+01 -0.35533655485E+02  0.39659352768E+02  0.00000000000E+00 0. -1.
</event>
<event>
 7    1  0.2468912E-015  0.9000779E+02  0.7816164E-02  0.1186339E+00
        -11   -1    0    0    0    0  0.00000000000E+00  0.00000000000E+00  0.45593999997E+02  0.45594000000E+02  0.51100000000E-03 0. -1.
         11   -1    0    0    0    0 -0.00000000000E+00 -0.00000000000E+00 -0.45593999997E+02  0.45594000000E+02  0.51100000000E-03 0.  1.
    9900012    2    1    2    0    0 -0.11324696602E+01 -0.17150494271E+00  0.28459509072E+00  0.90007789916E+02  0.90000051943E+02 0.  0.
         12    1    1    2    0    0  0.11324696602E+01  0.17150494271E+00 -0.28459509072E+00  0.11802100840E+01  0.00000000000E+00 0. -1.
         11    1    3    3    0    0 -0.71591634924E+01 -0.33051910174E+02  0.77934508699E+00  0.33827352351E+02  0.51100000000E-03 0. -1.
        -11    1    3    3    0    0  0.13471106813E+01 -0.76920875756E+01  0.11240042535E+02  0.13686543570E+02  0.51100000000E-03 0.  1.
        -12    1    3    3    0    0  0.46795831508E+01  0.40572492807E+02 -0.11734792531E+02  0.42493893994E+02  0.00000000000E+00 0.  1.
</event>
<event>
 7    1  0.2468912E-015  0.9000782E+02  0.7816164E-02  0.1186339E+00
        -11   -1    0    0    0    0  0.00000000000E+00  0.00000000000E+00  0.45593999997E+02  0.45594000000E+02  0.51100000000E-03 0. -1.
         11   -1    0    0    0    0 -0.00000000000E+00 -0.00000000000E+00 -0.45593999997E+02  0.45594000000E+02  0.51100000000E-03 0.  1.
    9900012    2    1    2    0    0 -0.79112802073E+00  0.39328317818E-02 -0.87574971088E+00  0.90007815028E+02  0.90000077386E+02 0.  0.
         12    1    1    2    0    0  0.79112802073E+00 -0.39328317818E-02  0.87574971088E+00  0.11801849721E+01  0.00000000000E+00 0. -1.
         11    1    3    3    0    0  0.13439571966E+02 -0.67921198865E+01  0.22424093646E+02  0.27011015592E+02  0.51100000000E-03 0. -1.
        -11    1    3    3    0    0  0.15526597016E+02 -0.93207938575E+01  0.51040737037E+01  0.18814993533E+02  0.51100000000E-03 0.  1.
        -12    1    3    3    0    0 -0.29757297003E+02  0.16116846576E+02 -0.28403917061E+02  0.44181805903E+02  0.00000000000E+00 0.  1.
</event>
<event>
 7    1  0.2468912E-015  0.9000778E+02  0.7816164E-02  0.1186339E+00
        -11   -1    0    0    0    0  0.00000000000E+00  0.00000000000E+00  0.45593999997E+02  0.45594000000E+02  0.51100000000E-03 0.  1.
         11   -1    0    0    0    0 -0.00000000000E+00 -0.00000000000E+00 -0.45593999997E+02  0.45594000000E+02  0.51100000000E-03 0. -1.
    9900012    2    1    2    0    0 -0.62342963875E-01 -0.11612723436E+01  0.20117730804E+00  0.90007782897E+02  0.90000044831E+02 0.  0.
         12    1    1    2    0    0  0.62342963875E-01  0.11612723436E+01 -0.20117730804E+00  0.11802171031E+01  0.00000000000E+00 0. -1.
         11    1    3    3    0    0 -0.47647088622E+01 -0.47579017247E+01 -0.58603691864E+01  0.89265898654E+01  0.51100000000E-03 0. -1.
        -11    1    3    3    0    0  0.86345815873E+01 -0.26172540943E+02  0.31408456926E+02  0.41785751942E+02  0.51100000000E-03 0.  1.
         12    1    3    3    0    0 -0.39322156890E+01  0.29769170324E+02 -0.25346910432E+02  0.39295441090E+02  0.00000000000E+00 0. -1.
</event>
<event>
 7    1  0.2468912E-015  0.9000778E+02  0.7816164E-02  0.1186339E+00
        -11   -1    0    0    0    0  0.00000000000E+00  0.00000000000E+00  0.45593999997E+02  0.45594000000E+02  0.51100000000E-03 0.  1.
         11   -1    0    0    0    0 -0.00000000000E+00 -0.00000000000E+00 -0.45593999997E+02  0.45594000000E+02  0.51100000000E-03 0. -1.
    9900012    2    1    2    0    0 -0.20885506613E+00 -0.39186198244E+00  0.10934976636E+01  0.90007782481E+02  0.90000044410E+02 0.  0.
         12    1    1    2    0    0  0.20885506613E+00  0.39186198244E+00 -0.10934976636E+01  0.11802175190E+01  0.00000000000E+00 0. -1.
         11    1    3    3    0    0 -0.31282485260E+02 -0.54200636864E+01 -0.22145174411E+02  0.38708910142E+02  0.51100000000E-03 0. -1.
        -11    1    3    3    0    0  0.82104070700E+00 -0.11264666645E+02  0.44774289878E+01  0.12149658146E+02  0.51100000000E-03 0.  1.
        -12    1    3    3    0    0  0.30252589487E+02  0.16292868349E+02  0.18761243087E+02  0.39149214193E+02  0.00000000000E+00 0.  1.
</event>
<event>
 7    1  0.2468912E-015  0.9000774E+02  0.7816164E-02  0.1186339E+00
        -11   -1    0    0    0    0  0.00000000000E+00  0.00000000000E+00  0.45593999997E+02  0.45594000000E+02  0.51100000000E-03 0. -1.
         11   -1    0    0    0    0 -0.00000000000E+00 -0.00000000000E+00 -0.45593999997E+02  0.45594000000E+02  0.51100000000E-03 0.  1.
    9900012    2    1    2    0    0 -0.95971775864E+00 -0.27919757385E+00 -0.62769176546E+00  0.90007743073E+02  0.90000004481E+02 0.  0.
         12    1    1    2    0    0  0.95971775864E+00  0.27919757385E+00  0.62769176546E+00  0.11802569271E+01  0.00000000000E+00 0. -1.
         11    1    3    3    0    0 -0.90907408211E+01 -0.11784547996E+01 -0.64400558705E+01  0.11202885533E+02  0.51100000000E-03 0. -1.
        -11    1    3    3    0    0  0.23868930802E+02 -0.16573041115E+02 -0.26171569574E+02  0.39106810196E+02  0.51100000000E-03 0.  1.
         12    1    3    3    0    0 -0.15737907740E+02  0.17472298341E+02  0.31983933679E+02  0.39698047344E+02  0.00000000000E+00 0. -1.
</event>
<event>
 7    1  0.2468912E-015  0.9000793E+02  0.7816164E-02  0.1186339E+00
        -11   -1    0    0    0    0  0.00000000000E+00  0.00000000000E+00  0.45593999997E+02  0.45594000000E+02  0.51100000000E-03 0. -1.
         11   -1    0    0    0    0 -0.00000000000E+00 -0.00000000000E+00 -0.45593999997E+02  0.45594000000E+02  0.51100000000E-03 0.  1.
    9900012    2    1    2    0    0 -0.22686531222E+00  0.10265644867E+01 -0.53597219732E+00  0.90007928514E+02  0.90000192370E+02 0.  0.
         12    1    1    2    0    0  0.22686531222E+00 -0.10265644867E+01  0.53597219732E+00  0.11800714858E+01  0.00000000000E+00 0. -1.
         11    1    3    3    0    0 -0.72675418570E+01 -0.13953106752E+01  0.63180239437E+01  0.97304410660E+01  0.51100000000E-03 0. -1.
        -11    1    3    3    0    0 -0.19938602547E+02 -0.24320912461E+02  0.16671844782E+02  0.35595014583E+02  0.51100000000E-03 0.  1.
         12    1    3    3    0    0  0.26979279092E+02  0.26742787623E+02 -0.23525840923E+02  0.44682472865E+02  0.00000000000E+00 0. -1.
</event>
<event>
 7    1  0.2468912E-015  0.9000781E+02  0.7816164E-02  0.1186339E+00
        -11   -1    0    0    0    0  0.00000000000E+00  0.00000000000E+00  0.45593999997E+02  0.45594000000E+02  0.51100000000E-03 0. -1.
         11   -1    0    0    0    0 -0.00000000000E+00 -0.00000000000E+00 -0.45593999997E+02  0.45594000000E+02  0.51100000000E-03 0.  1.
    9900012    2    1    2    0    0  0.24316127586E+00 -0.15451771996E+00 -0.11444883151E+01  0.90007806526E+02  0.90000068772E+02 0.  0.
         12    1    1    2    0    0 -0.24316127586E+00  0.15451771996E+00  0.11444883151E+01  0.11801934737E+01  0.00000000000E+00 0. -1.
         11    1    3    3    0    0 -0.19184998404E+01  0.73985041883E+01 -0.62803606790E+01  0.98924939414E+01  0.51100000000E-03 0. -1.
        -11    1    3    3    0    0  0.56289654477E+01  0.23339446562E+02  0.31325177528E+02  0.39467477311E+02  0.51100000000E-03 0.  1.
         12    1    3    3    0    0 -0.34673043314E+01 -0.30892468470E+02 -0.26189305164E+02  0.40647835274E+02  0.00000000000E+00 0. -1.
</event>
<event>
 7    1  0.2468912E-015  0.9000780E+02  0.7816164E-02  0.1186339E+00
        -11   -1    0    0    0    0  0.00000000000E+00  0.00000000000E+00  0.45593999997E+02  0.45594000000E+02  0.51100000000E-03 0. -1.
         11   -1    0    0    0    0 -0.00000000000E+00 -0.00000000000E+00 -0.45593999997E+02  0.45594000000E+02  0.51100000000E-03 0.  1.
    9900012    2    1    2    0    0 -0.29775573949E+00  0.95196452061E-02 -0.11419860439E+01  0.90007796107E+02  0.90000058216E+02 0.  0.
         12    1    1    2    0    0  0.29775573949E+00 -0.95196452061E-02  0.11419860439E+01  0.11802038927E+01  0.00000000000E+00 0. -1.
         11    1    3    3    0    0 -0.70761079135E+01  0.44138135450E+01  0.47786067347E+01  0.96118747287E+01  0.51100000000E-03 0. -1.
        -11    1    3    3    0    0  0.11068280653E+02  0.36937732923E+02 -0.13859324971E+01  0.38585279049E+02  0.51100000000E-03 0.  1.
         12    1    3    3    0    0 -0.42899284791E+01 -0.41342026823E+02 -0.45346602815E+01  0.41810642330E+02  0.00000000000E+00 0. -1.
</event>
<event>
 7    1  0.2468912E-015  0.9000829E+02  0.7816164E-02  0.1186338E+00
        -11   -1    0    0    0    0  0.00000000000E+00  0.00000000000E+00  0.45593999997E+02  0.45594000000E+02  0.51100000000E-03 0. -1.
         11   -1    0    0    0    0 -0.00000000000E+00 -0.00000000000E+00 -0.45593999997E+02  0.45594000000E+02  0.51100000000E-03 0.  1.
    9900012    2    1    2    0    0  0.29894143207E+00 -0.44690386751E+00 -0.10500608349E+01  0.90008289525E+02  0.90000558145E+02 0.  0.
         12    1    1    2    0    0 -0.29894143207E+00  0.44690386751E+00  0.10500608349E+01  0.11797104745E+01  0.00000000000E+00 0. -1.
         11    1    3    3    0    0 -0.40286267616E+02 -0.12488986108E+02 -0.15391386574E+01  0.42205770701E+02  0.51100000000E-03 0. -1.
        -11    1    3    3    0    0  0.39727841407E+01  0.40919192508E+00 -0.75620073739E+01  0.85518657406E+01  0.51100000000E-03 0.  1.
        -12    1    3    3    0    0  0.36612424907E+02  0.11632890315E+02  0.80510851964E+01  0.39250653084E+02  0.00000000000E+00 0.  1.
</event>
<event>
 7    1  0.2468912E-015  0.9000771E+02  0.7816164E-02  0.1186339E+00
        -11   -1    0    0    0    0  0.00000000000E+00  0.00000000000E+00  0.45593999997E+02  0.45594000000E+02  0.51100000000E-03 0. -1.
         11   -1    0    0    0    0 -0.00000000000E+00 -0.00000000000E+00 -0.45593999997E+02  0.45594000000E+02  0.51100000000E-03 0.  1.
    9900012    2    1    2    0    0  0.10902602279E+01 -0.14634658374E+00 -0.42778583893E+00  0.90007709607E+02  0.89999970574E+02 0.  0.
         12    1    1    2    0    0 -0.10902602279E+01  0.14634658374E+00  0.42778583893E+00  0.11802903927E+01  0.00000000000E+00 0. -1.
         11    1    3    3    0    0  0.48380224538E+01 -0.48608574442E+01  0.75574472919E+01  0.10205361639E+02  0.51100000000E-03 0. -1.
        -11    1    3    3    0    0  0.61265653657E+01  0.41158804271E+02 -0.30682205171E+01  0.41725243553E+02  0.51100000000E-03 0.  1.
         12    1    3    3    0    0 -0.98743275917E+01 -0.36444293410E+02 -0.49170126137E+01  0.38077104415E+02  0.00000000000E+00 0. -1.
</event>
<event>
 7    1  0.2468912E-015  0.9000827E+02  0.7816164E-02  0.1186338E+00
        -11   -1    0    0    0    0  0.00000000000E+00  0.00000000000E+00  0.45593999997E+02  0.45594000000E+02  0.51100000000E-03 0. -1.
         11   -1    0    0    0    0 -0.00000000000E+00 -0.00000000000E+00 -0.45593999997E+02  0.45594000000E+02  0.51100000000E-03 0.  1.
    9900012    2    1    2    0    0  0.98916415931E+00 -0.39260325997E+00 -0.50910690392E+00  0.90008265753E+02  0.90000534059E+02 0.  0.
         12    1    1    2    0    0 -0.98916415931E+00  0.39260325997E+00  0.50910690392E+00  0.11797342469E+01  0.00000000000E+00 0. -1.
         11    1    3    3    0    0  0.10964974025E+02  0.14374050074E+01  0.15981069667E-01  0.11058799400E+02  0.51100000000E-03 0. -1.
        -11    1    3    3    0    0  0.15300629915E+02 -0.10624360787E+02 -0.32373110151E+02  0.37349760094E+02  0.51100000000E-03 0.  1.
         12    1    3    3    0    0 -0.25276439781E+02  0.87943525199E+01  0.31848022178E+02  0.41599706259E+02  0.00000000000E+00 0. -1.
</event>
<event>
 7    1  0.2468912E-015  0.9000775E+02  0.7816164E-02  0.1186339E+00
        -11   -1    0    0    0    0  0.00000000000E+00  0.00000000000E+00  0.45593999997E+02  0.45594000000E+02  0.51100000000E-03 0.  1.
         11   -1    0    0    0    0 -0.00000000000E+00 -0.00000000000E+00 -0.45593999997E+02  0.45594000000E+02  0.51100000000E-03 0. -1.
    9900012    2    1    2    0    0  0.23907063707E+00  0.34164921605E+00  0.11041306606E+01  0.90007752792E+02  0.90000014329E+02 0.  0.
         12    1    1    2    0    0 -0.23907063707E+00 -0.34164921605E+00 -0.11041306606E+01  0.11802472080E+01  0.00000000000E+00 0. -1.
         11    1    3    3    0    0  0.69224756928E+01 -0.31329836532E+01  0.76500099675E+01  0.10782342466E+02  0.51100000000E-03 0. -1.
        -11    1    3    3    0    0  0.22388973334E+02  0.97632476315E+01  0.25631787292E+02  0.35405870294E+02  0.51100000000E-03 0.  1.
         12    1    3    3    0    0 -0.29072378390E+02 -0.62886147623E+01 -0.32177666599E+02  0.43819540032E+02  0.00000000000E+00 0. -1.
</event>
<event>
 7    1  0.2468912E-015  0.9000775E+02  0.7816164E-02  0.1186339E+00
        -11   -1    0    0    0    0  0.00000000000E+00  0.00000000000E+00  0.45593999997E+02  0.45594000000E+02  0.51100000000E-03 0. -1.
         11   -1    0    0    0    0 -0.00000000000E+00 -0.00000000000E+00 -0.45593999997E+02  0.45594000000E+02  0.51100000000E-03 0.  1.
    9900012    2    1    2    0    0  0.84371881445E+00  0.77771586529E+00  0.27620433961E+00  0.90007749077E+02  0.90000010564E+02 0.  0.
         12    1    1    2    0    0 -0.84371881445E+00 -0.77771586529E+00 -0.27620433961E+00  0.11802509234E+01  0.00000000000E+00 0. -1.
         11    1    3    3    0    0  0.25275098785E+02  0.26992444279E+02  0.10568801957E+01  0.36993778703E+02  0.51100000000E-03 0. -1.
        -11    1    3    3    0    0  0.12083450751E+01  0.92009793595E+01  0.15647502762E+00  0.92813039865E+01  0.51100000000E-03 0.  1.
        -12    1    3    3    0    0 -0.25639725045E+02 -0.35415707774E+02 -0.93715088367E+00  0.43732666387E+02  0.00000000000E+00 0.  1.
</event>
<event>
 7    1  0.2468912E-015  0.9000774E+02  0.7816164E-02  0.1186339E+00
        -11   -1    0    0    0    0  0.00000000000E+00  0.00000000000E+00  0.45593999997E+02  0.45594000000E+02  0.51100000000E-03 0. -1.
         11   -1    0    0    0    0 -0.00000000000E+00 -0.00000000000E+00 -0.45593999997E+02  0.45594000000E+02  0.51100000000E-03 0.  1.
    9900012    2    1    2    0    0 -0.65856988266E+00  0.24584336570E+00  0.94808039183E+00  0.90007741689E+02  0.90000003080E+02 0.  0.
         12    1    1    2    0    0  0.65856988266E+00 -0.24584336570E+00 -0.94808039183E+00  0.11802583108E+01  0.00000000000E+00 0. -1.
         11    1    3    3    0    0  0.18461525708E+01  0.12064015861E+02 -0.79390394338E+01  0.14559433553E+02  0.51100000000E-03 0. -1.
        -11    1    3    3    0    0 -0.34620111129E+02  0.99541289095E+01  0.23275680059E+01  0.36097844119E+02  0.51100000000E-03 0.  1.
         12    1    3    3    0    0  0.32115388676E+02 -0.21772301405E+02  0.65595518197E+01  0.39350464017E+02  0.00000000000E+00 0. -1.
</event>
<event>
 7    1  0.2468912E-015  0.9000771E+02  0.7816164E-02  0.1186339E+00
        -11   -1    0    0    0    0  0.00000000000E+00  0.00000000000E+00  0.45593999997E+02  0.45594000000E+02  0.51100000000E-03 0. -1.
         11   -1    0    0    0    0 -0.00000000000E+00 -0.00000000000E+00 -0.45593999997E+02  0.45594000000E+02  0.51100000000E-03 0.  1.
    9900012    2    1    2    0    0  0.85824664118E+00  0.37074084420E+00 -0.72044521271E+00  0.90007713012E+02  0.89999974023E+02 0.  0.
         12    1    1    2    0    0 -0.85824664118E+00 -0.37074084420E+00  0.72044521271E+00  0.11802869885E+01  0.00000000000E+00 0. -1.
         11    1    3    3    0    0 -0.16771123408E+02  0.11800761270E+02  0.23910851776E+02  0.31500117140E+02  0.51100000000E-03 0. -1.
        -11    1    3    3    0    0  0.46604345467E+01 -0.21698686733E+02  0.66101219917E+01  0.23156993956E+02  0.51100000000E-03 0.  1.
         12    1    3    3    0    0  0.12968935503E+02  0.10268666307E+02 -0.31241418981E+02  0.35350601915E+02  0.00000000000E+00 0. -1.
</event>
<event>
 7    1  0.2468912E-015  0.9000711E+02  0.7816164E-02  0.1186340E+00
        -11   -1    0    0    0    0  0.00000000000E+00  0.00000000000E+00  0.45593999997E+02  0.45594000000E+02  0.51100000000E-03 0. -1.
         11   -1    0    0    0    0 -0.00000000000E+00 -0.00000000000E+00 -0.45593999997E+02  0.45594000000E+02  0.51100000000E-03 0.  1.
    9900012    2    1    2    0    0  0.54289968588E+00  0.76462090917E-01  0.10458991620E+01  0.90007114071E+02  0.89999367175E+02 0.  0.
         12    1    1    2    0    0 -0.54289968588E+00 -0.76462090917E-01 -0.10458991620E+01  0.11808859290E+01  0.00000000000E+00 0. -1.
         11    1    3    3    0    0 -0.88534534078E+01 -0.97001599996E+00  0.43614015620E+01  0.99169749486E+01  0.51100000000E-03 0. -1.
        -11    1    3    3    0    0  0.15685242261E+02  0.25706482284E+02 -0.30493626125E+02  0.42856869820E+02  0.51100000000E-03 0.  1.
         12    1    3    3    0    0 -0.62888891677E+01 -0.24660004193E+02  0.27178123725E+02  0.37233269303E+02  0.00000000000E+00 0. -1.
</event>
<event>
 7    1  0.2468912E-015  0.9000776E+02  0.7816164E-02  0.1186339E+00
        -11   -1    0    0    0    0  0.00000000000E+00  0.00000000000E+00  0.45593999997E+02  0.45594000000E+02  0.51100000000E-03 0.  1.
         11   -1    0    0    0    0 -0.00000000000E+00 -0.00000000000E+00 -0.45593999997E+02  0.45594000000E+02  0.51100000000E-03 0. -1.
    9900012    2    1    2    0    0  0.87908518914E+00 -0.78275665199E+00  0.86451722975E-01  0.90007757378E+02  0.90000018976E+02 0.  0.
         12    1    1    2    0    0 -0.87908518914E+00  0.78275665199E+00 -0.86451722975E-01  0.11802426218E+01  0.00000000000E+00 0. -1.
         11    1    3    3    0    0  0.29797008687E+02  0.25101491783E+02  0.43881405158E+00  0.38963305487E+02  0.51100000000E-03 0. -1.
        -11    1    3    3    0    0  0.66053818472E+01 -0.42991550639E+01 -0.48194861645E+01  0.92380328405E+01  0.51100000000E-03 0.  1.
        -12    1    3    3    0    0 -0.35523305345E+02 -0.21585093371E+02  0.44671238359E+01  0.41806419051E+02  0.00000000000E+00 0.  1.
</event>
<event>
 7    1  0.2468912E-015  0.9000773E+02  0.7816164E-02  0.1186339E+00
        -11   -1    0    0    0    0  0.00000000000E+00  0.00000000000E+00  0.45593999997E+02  0.45594000000E+02  0.51100000000E-03 0.  1.
         11   -1    0    0    0    0 -0.00000000000E+00 -0.00000000000E+00 -0.45593999997E+02  0.45594000000E+02  0.51100000000E-03 0. -1.
    9900012    2    1    2    0    0 -0.32926095395E+00  0.33361179284E+00  0.10831993842E+01  0.90007732865E+02  0.89999994139E+02 0.  0.
         12    1    1    2    0    0  0.32926095395E+00 -0.33361179284E+00 -0.10831993842E+01  0.11802671350E+01  0.00000000000E+00 0. -1.
         11    1    3    3    0    0  0.28889214918E+01  0.82235035730E+01  0.85604192580E+01  0.12216900447E+02  0.51100000000E-03 0. -1.
        -11    1    3    3    0    0 -0.11755649170E+02  0.30355729916E+01  0.32916150741E+02  0.35083941778E+02  0.51100000000E-03 0.  1.
         12    1    3    3    0    0  0.85374667245E+01 -0.10925464772E+02 -0.40393370615E+02  0.42706890640E+02  0.00000000000E+00 0. -1.
</event>
<event>
 7    1  0.2468912E-015  0.9000771E+02  0.7816164E-02  0.1186339E+00
        -11   -1    0    0    0    0  0.00000000000E+00  0.00000000000E+00  0.45593999997E+02  0.45594000000E+02  0.51100000000E-03 0.  1.
         11   -1    0    0    0    0 -0.00000000000E+00 -0.00000000000E+00 -0.45593999997E+02  0.45594000000E+02  0.51100000000E-03 0. -1.
    9900012    2    1    2    0    0  0.13560601737E+00  0.45731979094E+00  0.10796100898E+01  0.90007708371E+02  0.89999969322E+02 0.  0.
         12    1    1    2    0    0 -0.13560601737E+00 -0.45731979094E+00 -0.10796100898E+01  0.11802916289E+01  0.00000000000E+00 0. -1.
         11    1    3    3    0    0 -0.27362414392E+02 -0.24653614395E+02  0.12572424527E+02  0.38917454733E+02  0.51100000000E-03 0. -1.
        -11    1    3    3    0    0  0.53143900833E+01 -0.81780675577E+01 -0.16224532201E+01  0.98871576122E+01  0.51100000000E-03 0.  1.
        -12    1    3    3    0    0  0.22183630326E+02  0.33289001744E+02 -0.98703612175E+01  0.41203096026E+02  0.00000000000E+00 0.  1.
</event>
<event>
 7    1  0.2468912E-015  0.9000770E+02  0.7816164E-02  0.1186339E+00
        -11   -1    0    0    0    0  0.00000000000E+00  0.00000000000E+00  0.45593999997E+02  0.45594000000E+02  0.51100000000E-03 0. -1.
         11   -1    0    0    0    0 -0.00000000000E+00 -0.00000000000E+00 -0.45593999997E+02  0.45594000000E+02  0.51100000000E-03 0.  1.
    9900012    2    1    2    0    0  0.95725924045E+00 -0.81931649453E-01 -0.68560290488E+00  0.90007699449E+02  0.89999960281E+02 0.  0.
         12    1    1    2    0    0 -0.95725924045E+00  0.81931649453E-01  0.68560290488E+00  0.11803005515E+01  0.00000000000E+00 0. -1.
         11    1    3    3    0    0  0.94049762746E+01  0.34746949431E+02  0.15407646357E+02  0.39156093267E+02  0.51100000000E-03 0. -1.
        -11    1    3    3    0    0 -0.96606101480E+01  0.26128351422E+01  0.17763616682E+00  0.10009288225E+02  0.51100000000E-03 0.  1.
        -12    1    3    3    0    0  0.12128931139E+01 -0.37441716222E+02 -0.16270885428E+02  0.40842317956E+02  0.00000000000E+00 0.  1.
</event>
<event>
 7    1  0.2468912E-015  0.9000772E+02  0.7816164E-02  0.1186339E+00
        -11   -1    0    0    0    0  0.00000000000E+00  0.00000000000E+00  0.45593999997E+02  0.45594000000E+02  0.51100000000E-03 0.  1.
         11   -1    0    0    0    0 -0.00000000000E+00 -0.00000000000E+00 -0.45593999997E+02  0.45594000000E+02  0.51100000000E-03 0. -1.
    9900012    2    1    2    0    0  0.37020585279E+00  0.92323473316E+00  0.63532435691E+00  0.90007723852E+02  0.89999985007E+02 0.  0.
         12    1    1    2    0    0 -0.37020585279E+00 -0.92323473316E+00 -0.63532435691E+00  0.11802761475E+01  0.00000000000E+00 0. -1.
         11    1    3    3    0    0  0.39706868629E+02 -0.15005802920E+02 -0.63814804641E+01  0.42924734487E+02  0.51100000000E-03 0. -1.
        -11    1    3    3    0    0 -0.14639286617E+01  0.56180988529E+01 -0.30546147621E+01  0.65602433989E+01  0.51100000000E-03 0.  1.
        -12    1    3    3    0    0 -0.37872734115E+02  0.10310938800E+02  0.10071419583E+02  0.40522745967E+02  0.00000000000E+00 0.  1.
</event>
<event>
 7    1  0.2468912E-015  0.9000785E+02  0.7816164E-02  0.1186339E+00
        -11   -1    0    0    0    0  0.00000000000E+00  0.00000000000E+00  0.45593999997E+02  0.45594000000E+02  0.51100000000E-03 0.  1.
         11   -1    0    0    0    0 -0.00000000000E+00 -0.00000000000E+00 -0.45593999997E+02  0.45594000000E+02  0.51100000000E-03 0. -1.
    9900012    2    1    2    0    0 -0.71841636152E+00 -0.71881576941E+00 -0.59995014034E+00  0.90007848167E+02  0.90000110962E+02 0.  0.
         12    1    1    2    0    0  0.71841636152E+00  0.71881576941E+00  0.59995014034E+00  0.11801518333E+01  0.00000000000E+00 0. -1.
         11    1    3    3    0    0 -0.54864817887E+01  0.12711357775E+01  0.87694551278E+01  0.10422121285E+02  0.51100000000E-03 0. -1.
        -11    1    3    3    0    0  0.28466252821E+02 -0.21234622617E+02  0.16882580312E+02  0.39322490583E+02  0.51100000000E-03 0.  1.
         12    1    3    3    0    0 -0.23698187394E+02  0.19244671070E+02 -0.26251985581E+02  0.40263236299E+02  0.00000000000E+00 0. -1.
</event>
<event>
 7    1  0.2468912E-015  0.9000772E+02  0.7816164E-02  0.1186339E+00
        -11   -1    0    0    0    0  0.00000000000E+00  0.00000000000E+00  0.45593999997E+02  0.45594000000E+02  0.51100000000E-03 0.  1.
         11   -1    0    0    0    0 -0.00000000000E+00 -0.00000000000E+00 -0.45593999997E+02  0.45594000000E+02  0.51100000000E-03 0. -1.
    9900012    2    1    2    0    0  0.38977139109E+00  0.91599204872E+00  0.63410403971E+00  0.90007724141E+02  0.89999985299E+02 0.  0.
         12    1    1    2    0    0 -0.38977139109E+00 -0.91599204872E+00 -0.63410403971E+00  0.11802758592E+01  0.00000000000E+00 0. -1.
         11    1    3    3    0    0  0.87231851368E+01  0.28366060643E+01 -0.11955965241E+00  0.91735809620E+01  0.51100000000E-03 0. -1.
        -11    1    3    3    0    0 -0.16375001751E+02  0.22164534067E+02  0.30910436059E+02  0.41410896034E+02  0.51100000000E-03 0.  1.
         12    1    3    3    0    0  0.80415880057E+01 -0.24085148083E+02 -0.30156772366E+02  0.39423247144E+02  0.00000000000E+00 0. -1.
</event>
<event>
 7    1  0.2468912E-015  0.9000776E+02  0.7816164E-02  0.1186339E+00
        -11   -1    0    0    0    0  0.00000000000E+00  0.00000000000E+00  0.45593999997E+02  0.45594000000E+02  0.51100000000E-03 0. -1.
         11   -1    0    0    0    0 -0.00000000000E+00 -0.00000000000E+00 -0.45593999997E+02  0.45594000000E+02  0.51100000000E-03 0.  1.
    9900012    2    1    2    0    0 -0.44762956639E+00  0.65264268903E+00 -0.87558447952E+00  0.90007761512E+02  0.90000023164E+02 0.  0.
         12    1    1    2    0    0  0.44762956639E+00 -0.65264268903E+00  0.87558447952E+00  0.11802384882E+01  0.00000000000E+00 0. -1.
         11    1    3    3    0    0  0.30581677653E+01  0.29130522721E+02  0.23258431470E+02  0.37401796465E+02  0.51100000000E-03 0. -1.
        -11    1    3    3    0    0 -0.11350290351E+02 -0.10766140976E+02  0.60229290475E+01  0.16763488812E+02  0.51100000000E-03 0.  1.
        -12    1    3    3    0    0  0.78444930189E+01 -0.17711739056E+02 -0.30156944997E+02  0.35842476235E+02  0.00000000000E+00 0.  1.
</event>
<event>
 7    1  0.2468912E-015  0.9000765E+02  0.7816164E-02  0.1186339E+00
        -11   -1    0    0    0    0  0.00000000000E+00  0.00000000000E+00  0.45593999997E+02  0.45594000000E+02  0.51100000000E-03 0. -1.
         11   -1    0    0    0    0 -0.00000000000E+00 -0.00000000000E+00 -0.45593999997E+02  0.45594000000E+02  0.51100000000E-03 0.  1.
    9900012    2    1    2    0    0 -0.24584019237E+00 -0.98173937885E+00 -0.60742515623E+00  0.90007654742E+02  0.89999914984E+02 0.  0.
         12    1    1    2    0    0  0.24584019237E+00  0.98173937885E+00  0.60742515623E+00  0.11803452582E+01  0.00000000000E+00 0. -1.
         11    1    3    3    0    0  0.90428121026E+01  0.35528859650E+01  0.26251464894E+01  0.10064136513E+02  0.51100000000E-03 0. -1.
        -11    1    3    3    0    0  0.15612594769E+02 -0.65357083956E+01 -0.35386290008E+02  0.39225732886E+02  0.51100000000E-03 0.  1.
         12    1    3    3    0    0 -0.24901247064E+02  0.20010830518E+01  0.32153718362E+02  0.40717785343E+02  0.00000000000E+00 0. -1.
</event>
<event>
 7    1  0.2468912E-015  0.9000796E+02  0.7816164E-02  0.1186339E+00
        -11   -1    0    0    0    0  0.00000000000E+00  0.00000000000E+00  0.45593999997E+02  0.45594000000E+02  0.51100000000E-03 0.  1.
         11   -1    0    0    0    0 -0.00000000000E+00 -0.00000000000E+00 -0.45593999997E+02  0.45594000000E+02  0.51100000000E-03 0. -1.
    9900012    2    1    2    0    0  0.40512001218E+00 -0.10643869951E+01 -0.30893635387E+00  0.90007964589E+02  0.90000228922E+02 0.  0.
         12    1    1    2    0    0 -0.40512001218E+00  0.10643869951E+01  0.30893635387E+00  0.11800354106E+01  0.00000000000E+00 0. -1.
         11    1    3    3    0    0 -0.16960651682E+01 -0.34960346030E+01  0.89768952713E+01  0.97817965616E+01  0.51100000000E-03 0. -1.
        -11    1    3    3    0    0 -0.21444678562E+02 -0.29927598557E+02  0.61607559216E+01  0.37329483091E+02  0.51100000000E-03 0.  1.
         12    1    3    3    0    0  0.23545863742E+02  0.32359246165E+02 -0.15446587547E+02  0.42896684937E+02  0.00000000000E+00 0. -1.
</event>
<event>
 7    1  0.2946792E-015  0.9000773E+02  0.7816164E-02  0.1186339E+00
        -11   -1    0    0    0    0  0.00000000000E+00  0.00000000000E+00  0.45593999997E+02  0.45594000000E+02  0.51100000000E-03 0.  1.
         11   -1    0    0    0    0 -0.00000000000E+00 -0.00000000000E+00 -0.45593999997E+02  0.45594000000E+02  0.51100000000E-03 0. -1.
    9900012    2    1    2    0    0 -0.36268585363E-01  0.76114193434E+00  0.90133029730E+00  0.90007725134E+02  0.89999986306E+02 0.  0.
         12    1    1    2    0    0  0.36268585363E-01 -0.76114193434E+00 -0.90133029730E+00  0.11802748660E+01  0.00000000000E+00 0. -1.
         11    1    3    3    0    0  0.26330529612E+02  0.22662010755E+02 -0.10606694546E+02  0.36323071050E+02  0.51100000000E-03 0. -1.
        -11    1    3    3    0    0  0.71224425260E+01  0.54282795066E+01  0.40184717928E+01  0.98154735876E+01  0.51100000000E-03 0.  1.
        -12    1    3    3    0    0 -0.33489240723E+02 -0.27329148327E+02  0.74895530506E+01  0.43869180496E+02  0.00000000000E+00 0.  1.
</event>
<event>
 7    1  0.2468912E-015  0.9000772E+02  0.7816164E-02  0.1186339E+00
        -11   -1    0    0    0    0  0.00000000000E+00  0.00000000000E+00  0.45593999997E+02  0.45594000000E+02  0.51100000000E-03 0. -1.
         11   -1    0    0    0    0 -0.00000000000E+00 -0.00000000000E+00 -0.45593999997E+02  0.45594000000E+02  0.51100000000E-03 0.  1.
    9900012    2    1    2    0    0  0.85492984195E-01 -0.91332968722E+00 -0.74269117911E+00  0.90007715985E+02  0.89999977036E+02 0.  0.
         12    1    1    2    0    0 -0.85492984195E-01  0.91332968722E+00  0.74269117911E+00  0.11802840147E+01  0.00000000000E+00 0. -1.
         11    1    3    3    0    0 -0.19287700802E+02  0.22723322826E+02  0.27882851263E+02  0.40814436139E+02  0.51100000000E-03 0. -1.
        -11    1    3    3    0    0  0.17605129009E+02 -0.12559000290E+02 -0.38082591524E+01  0.21958412824E+02  0.51100000000E-03 0.  1.
        -12    1    3    3    0    0  0.17680647771E+01 -0.11077652223E+02 -0.24817283290E+02  0.27234867023E+02  0.00000000000E+00 0.  1.
</event>
<event>
 7    1  0.2468912E-015  0.9000777E+02  0.7816164E-02  0.1186339E+00
        -11   -1    0    0    0    0  0.00000000000E+00  0.00000000000E+00  0.45593999997E+02  0.45594000000E+02  0.51100000000E-03 0. -1.
         11   -1    0    0    0    0 -0.00000000000E+00 -0.00000000000E+00 -0.45593999997E+02  0.45594000000E+02  0.51100000000E-03 0.  1.
    9900012    2    1    2    0    0 -0.10820391450E+01  0.46737862479E+00 -0.60759919675E-01  0.90007769828E+02  0.90000031590E+02 0.  0.
         12    1    1    2    0    0  0.10820391450E+01 -0.46737862479E+00  0.60759919675E-01  0.11802301717E+01  0.00000000000E+00 0. -1.
         11    1    3    3    0    0 -0.38637167532E+01  0.64097529901E+01 -0.38230277816E+01  0.84040931827E+01  0.51100000000E-03 0. -1.
        -11    1    3    3    0    0  0.22832213622E+02  0.17158987285E+00 -0.32499855198E+02  0.39718761438E+02  0.51100000000E-03 0.  1.
         12    1    3    3    0    0 -0.20050536014E+02 -0.61139642382E+01  0.36262123060E+02  0.41884915208E+02  0.00000000000E+00 0. -1.
</event>
<event>
 7    1  0.2468912E-015  0.9000776E+02  0.7816164E-02  0.1186339E+00
        -11   -1    0    0    0    0  0.00000000000E+00  0.00000000000E+00  0.45593999997E+02  0.45594000000E+02  0.51100000000E-03 0. -1.
         11   -1    0    0    0    0 -0.00000000000E+00 -0.00000000000E+00 -0.45593999997E+02  0.45594000000E+02  0.51100000000E-03 0.  1.
    9900012    2    1    2    0    0  0.50475726043E+00  0.42085292212E+00 -0.98033658335E+00  0.90007764053E+02  0.90000025738E+02 0.  0.
         12    1    1    2    0    0 -0.50475726043E+00 -0.42085292212E+00  0.98033658335E+00  0.11802359470E+01  0.00000000000E+00 0. -1.
         11    1    3    3    0    0  0.41930458548E+01  0.43369254896E+02  0.75040615992E+01  0.44212948833E+02  0.51100000000E-03 0. -1.
        -11    1    3    3    0    0 -0.39007931411E+01 -0.65133944783E+01 -0.52194317489E+01  0.92131950377E+01  0.51100000000E-03 0.  1.
        -12    1    3    3    0    0  0.21250454681E+00 -0.36435007495E+02 -0.32649664336E+01  0.36581620182E+02  0.00000000000E+00 0.  1.
</event>
<event>
 7    1  0.2468912E-015  0.9000773E+02  0.7816164E-02  0.1186339E+00
        -11   -1    0    0    0    0  0.00000000000E+00  0.00000000000E+00  0.45593999997E+02  0.45594000000E+02  0.51100000000E-03 0.  1.
         11   -1    0    0    0    0 -0.00000000000E+00 -0.00000000000E+00 -0.45593999997E+02  0.45594000000E+02  0.51100000000E-03 0. -1.
    9900012    2    1    2    0    0  0.21758620707E+00 -0.11538558677E+01 -0.11966282473E+00  0.90007726171E+02  0.89999987356E+02 0.  0.
         12    1    1    2    0    0 -0.21758620707E+00  0.11538558677E+01  0.11966282473E+00  0.11802738295E+01  0.00000000000E+00 0. -1.
         11    1    3    3    0    0 -0.88639350312E+00  0.96843661985E+01  0.94166732770E+00  0.97703316078E+01  0.51100000000E-03 0. -1.
        -11    1    3    3    0    0  0.14451637556E+01  0.17486114784E+02  0.32125962850E+02  0.36605056998E+02  0.51100000000E-03 0.  1.
         12    1    3    3    0    0 -0.34118404537E+00 -0.28324336850E+02 -0.33187293002E+02  0.43632337565E+02  0.00000000000E+00 0. -1.
</event>
<event>
 7    1  0.2468912E-015  0.9000800E+02  0.7816164E-02  0.1186339E+00
        -11   -1    0    0    0    0  0.00000000000E+00  0.00000000000E+00  0.45593999997E+02  0.45594000000E+02  0.51100000000E-03 0. -1.
         11   -1    0    0    0    0 -0.00000000000E+00 -0.00000000000E+00 -0.45593999997E+02  0.45594000000E+02  0.51100000000E-03 0.  1.
    9900012    2    1    2    0    0  0.20050844592E+00 -0.44409639160E+00 -0.10746987325E+01  0.90007998895E+02  0.90000263680E+02 0.  0.
         12    1    1    2    0    0 -0.20050844592E+00  0.44409639160E+00  0.10746987325E+01  0.11800011049E+01  0.00000000000E+00 0. -1.
         11    1    3    3    0    0 -0.84049185817E+01  0.18609664572E+01 -0.53198387369E+01  0.10119611503E+02  0.51100000000E-03 0. -1.
        -11    1    3    3    0    0 -0.35135248257E+02 -0.20634555765E+01  0.76401545915E+01  0.36015489466E+02  0.51100000000E-03 0.  1.
         12    1    3    3    0    0  0.43740675285E+02 -0.24160727228E+00 -0.33950145871E+01  0.43872897927E+02  0.00000000000E+00 0. -1.
</event>
<event>
 7    1  0.2468912E-015  0.9000769E+02  0.7816164E-02  0.1186339E+00
        -11   -1    0    0    0    0  0.00000000000E+00  0.00000000000E+00  0.45593999997E+02  0.45594000000E+02  0.51100000000E-03 0.  1.
         11   -1    0    0    0    0 -0.00000000000E+00 -0.00000000000E+00 -0.45593999997E+02  0.45594000000E+02  0.51100000000E-03 0. -1.
    9900012    2    1    2    0    0  0.10413288121E+01 -0.52306281765E+00 -0.18756186536E+00  0.90007686542E+02  0.89999947204E+02 0.  0.
         12    1    1    2    0    0 -0.10413288121E+01  0.52306281765E+00  0.18756186536E+00  0.11803134582E+01  0.00000000000E+00 0. -1.
         11    1    3    3    0    0  0.15376919701E+02 -0.24681098876E+02 -0.25012046265E+02  0.38356339240E+02  0.51100000000E-03 0. -1.
        -11    1    3    3    0    0  0.72393456443E+01  0.53751984169E+01 -0.50131774973E+01  0.10316628919E+02  0.51100000000E-03 0.  1.
        -12    1    3    3    0    0 -0.21574936533E+02  0.18782837642E+02  0.29837661897E+02  0.41334718383E+02  0.00000000000E+00 0.  1.
</event>
<event>
 7    1  0.2468912E-015  0.9000772E+02  0.7816164E-02  0.1186339E+00
        -11   -1    0    0    0    0  0.00000000000E+00  0.00000000000E+00  0.45593999997E+02  0.45594000000E+02  0.51100000000E-03 0.  1.
         11   -1    0    0    0    0 -0.00000000000E+00 -0.00000000000E+00 -0.45593999997E+02  0.45594000000E+02  0.51100000000E-03 0. -1.
    9900012    2    1    2    0    0  0.54421610062E+00 -0.71752284416E-01  0.10448607399E+01  0.90007723117E+02  0.89999984262E+02 0.  0.
         12    1    1    2    0    0 -0.54421610062E+00  0.71752284416E-01 -0.10448607399E+01  0.11802768829E+01  0.00000000000E+00 0. -1.
         11    1    3    3    0    0  0.33859890073E+02  0.63825574829E+01  0.39710452268E+01  0.34684267273E+02  0.51100000000E-03 0. -1.
        -11    1    3    3    0    0  0.71775064569E+01 -0.13094862702E+01  0.10115305743E+02  0.12471999189E+02  0.51100000000E-03 0.  1.
        -12    1    3    3    0    0 -0.40493180429E+02 -0.51448234972E+01 -0.13041490230E+02  0.42851456656E+02  0.00000000000E+00 0.  1.
</event>
<event>
 7    1  0.2468912E-015  0.9000780E+02  0.7816164E-02  0.1186339E+00
        -11   -1    0    0    0    0  0.00000000000E+00  0.00000000000E+00  0.45593999997E+02  0.45594000000E+02  0.51100000000E-03 0.  1.
         11   -1    0    0    0    0 -0.00000000000E+00 -0.00000000000E+00 -0.45593999997E+02  0.45594000000E+02  0.51100000000E-03 0. -1.
    9900012    2    1    2    0    0  0.25983921823E+00  0.87242394324E+00  0.75115613915E+00  0.90007798534E+02  0.90000060674E+02 0.  0.
         12    1    1    2    0    0 -0.25983921823E+00 -0.87242394324E+00 -0.75115613915E+00  0.11802014665E+01  0.00000000000E+00 0. -1.
         11    1    3    3    0    0  0.30806656020E+02 -0.22378579207E+02  0.15016325790E+02  0.40930928440E+02  0.51100000000E-03 0. -1.
        -11    1    3    3    0    0 -0.62377602146E+01  0.15934110512E+01  0.75228661327E+01  0.99016224117E+01  0.51100000000E-03 0.  1.
        -12    1    3    3    0    0 -0.24309056587E+02  0.21657592099E+02 -0.21788035783E+02  0.39175247682E+02  0.00000000000E+00 0.  1.
</event>
<event>
 7    1  0.2468912E-015  0.9000781E+02  0.7816164E-02  0.1186339E+00
        -11   -1    0    0    0    0  0.00000000000E+00  0.00000000000E+00  0.45593999997E+02  0.45594000000E+02  0.51100000000E-03 0. -1.
         11   -1    0    0    0    0 -0.00000000000E+00 -0.00000000000E+00 -0.45593999997E+02  0.45594000000E+02  0.51100000000E-03 0.  1.
    9900012    2    1    2    0    0 -0.11668725648E+01 -0.13297149170E+00 -0.11647933714E+00  0.90007813389E+02  0.90000075726E+02 0.  0.
         12    1    1    2    0    0  0.11668725648E+01  0.13297149170E+00  0.11647933714E+00  0.11801866107E+01  0.00000000000E+00 0. -1.
         11    1    3    3    0    0  0.41566474830E+01 -0.12159874065E+02  0.38564572609E+02  0.40649311388E+02  0.51100000000E-03 0. -1.
        -11    1    3    3    0    0  0.59364340354E+01 -0.52770280313E+01 -0.37518276883E+01  0.87843317995E+01  0.51100000000E-03 0.  1.
        -12    1    3    3    0    0 -0.11259954083E+02  0.17303930605E+02 -0.34929224258E+02  0.40574170202E+02  0.00000000000E+00 0.  1.
</event>
<event>
 7    1  0.2468912E-015  0.9000873E+02  0.7816164E-02  0.1186337E+00
        -11   -1    0    0    0    0  0.00000000000E+00  0.00000000000E+00  0.45593999997E+02  0.45594000000E+02  0.51100000000E-03 0. -1.
         11   -1    0    0    0    0 -0.00000000000E+00 -0.00000000000E+00 -0.45593999997E+02  0.45594000000E+02  0.51100000000E-03 0.  1.
    9900012    2    1    2    0    0  0.61875686383E+00  0.86737163168E+00  0.50545079482E+00  0.90008731536E+02  0.90001005987E+02 0.  0.
         12    1    1    2    0    0 -0.61875686383E+00 -0.86737163168E+00 -0.50545079482E+00  0.11792684639E+01  0.00000000000E+00 0. -1.
         11    1    3    3    0    0 -0.15169073522E+02  0.62223557468E+00 -0.30849516028E+02  0.34382853402E+02  0.51100000000E-03 0. -1.
        -11    1    3    3    0    0 -0.22402172800E+01  0.61790704310E+01 -0.89334099162E+01  0.11090775349E+02  0.51100000000E-03 0.  1.
        -12    1    3    3    0    0  0.18028047666E+02 -0.59339343740E+01  0.40288376739E+02  0.44535102785E+02  0.00000000000E+00 0.  1.
</event>
<event>
 7    1  0.2468912E-015  0.9000758E+02  0.7816164E-02  0.1186339E+00
        -11   -1    0    0    0    0  0.00000000000E+00  0.00000000000E+00  0.45593999997E+02  0.45594000000E+02  0.51100000000E-03 0.  1.
         11   -1    0    0    0    0 -0.00000000000E+00 -0.00000000000E+00 -0.45593999997E+02  0.45594000000E+02  0.51100000000E-03 0. -1.
    9900012    2    1    2    0    0 -0.59643547573E-01 -0.97748312176E+00  0.65906007115E+00  0.90007580251E+02  0.89999839510E+02 0.  0.
         12    1    1    2    0    0  0.59643547573E-01  0.97748312176E+00 -0.65906007115E+00  0.11804197489E+01  0.00000000000E+00 0. -1.
         11    1    3    3    0    0 -0.43543273222E+01  0.11880589971E+02  0.17342628514E+02  0.21468007558E+02  0.51100000000E-03 0. -1.
        -11    1    3    3    0    0 -0.12043865723E+02 -0.20100043382E+02  0.17983072619E+02  0.29537388961E+02  0.51100000000E-03 0.  1.
         12    1    3    3    0    0  0.16338549497E+02  0.72419702893E+01 -0.34666641062E+02  0.39002183732E+02  0.00000000000E+00 0. -1.
</event>
<event>
 7    1  0.2468912E-015  0.9000761E+02  0.7816164E-02  0.1186339E+00
        -11   -1    0    0    0    0  0.00000000000E+00  0.00000000000E+00  0.45593999997E+02  0.45594000000E+02  0.51100000000E-03 0. -1.
         11   -1    0    0    0    0 -0.00000000000E+00 -0.00000000000E+00 -0.45593999997E+02  0.45594000000E+02  0.51100000000E-03 0.  1.
    9900012    2    1    2    0    0  0.74951423188E+00 -0.19645554759E+00  0.89048289720E+00  0.90007607626E+02  0.89999867247E+02 0.  0.
         12    1    1    2    0    0 -0.74951423188E+00  0.19645554759E+00 -0.89048289720E+00  0.11803923738E+01  0.00000000000E+00 0. -1.
         11    1    3    3    0    0  0.23199860109E+02  0.23521423797E+02  0.24351366280E+02  0.41042416187E+02  0.51100000000E-03 0. -1.
        -11    1    3    3    0    0 -0.39972506361E+01 -0.15371997251E+02  0.24577553430E+01  0.16072239225E+02  0.51100000000E-03 0.  1.
        -12    1    3    3    0    0 -0.18453095241E+02 -0.83458820935E+01 -0.25918638726E+02  0.32892952213E+02  0.00000000000E+00 0.  1.
</event>
<event>
 7    1  0.2468912E-015  0.9000783E+02  0.7816164E-02  0.1186339E+00
        -11   -1    0    0    0    0  0.00000000000E+00  0.00000000000E+00  0.45593999997E+02  0.45594000000E+02  0.51100000000E-03 0.  1.
         11   -1    0    0    0    0 -0.00000000000E+00 -0.00000000000E+00 -0.45593999997E+02  0.45594000000E+02  0.51100000000E-03 0. -1.
    9900012    2    1    2    0    0 -0.24688479670E+00  0.32571974484E+00  0.11071398909E+01  0.90007828744E+02  0.90000091284E+02 0.  0.
         12    1    1    2    0    0  0.24688479670E+00 -0.32571974484E+00 -0.11071398909E+01  0.11801712558E+01  0.00000000000E+00 0. -1.
         11    1    3    3    0    0 -0.33867346941E+01  0.77386298042E+01  0.49568108251E+01  0.97941991480E+01  0.51100000000E-03 0. -1.
        -11    1    3    3    0    0 -0.16678580654E+01 -0.13910058018E+02  0.36482288680E+02  0.39079775488E+02  0.51100000000E-03 0.  1.
         12    1    3    3    0    0  0.48077079629E+01  0.64971479583E+01 -0.40331959614E+02  0.41133854108E+02  0.00000000000E+00 0. -1.
</event>
<event>
 7    1  0.2468912E-015  0.9000771E+02  0.7816164E-02  0.1186339E+00
        -11   -1    0    0    0    0  0.00000000000E+00  0.00000000000E+00  0.45593999997E+02  0.45594000000E+02  0.51100000000E-03 0.  1.
         11   -1    0    0    0    0 -0.00000000000E+00 -0.00000000000E+00 -0.45593999997E+02  0.45594000000E+02  0.51100000000E-03 0. -1.
    9900012    2    1    2    0    0 -0.59291837661E+00 -0.10185569667E+01  0.63797352240E-01  0.90007711646E+02  0.89999972640E+02 0.  0.
         12    1    1    2    0    0  0.59291837661E+00  0.10185569667E+01 -0.63797352239E-01  0.11802883537E+01  0.00000000000E+00 0. -1.
         11    1    3    3    0    0  0.23173784787E+02  0.23333222485E+00 -0.14413098718E+02  0.27291320235E+02  0.51100000000E-03 0. -1.
        -11    1    3    3    0    0 -0.22365007641E+02 -0.24440069856E+02 -0.35409890881E+01  0.33317400639E+02  0.51100000000E-03 0.  1.
         12    1    3    3    0    0 -0.14016955224E+01  0.23188180664E+02  0.18017885158E+02  0.29398990772E+02  0.00000000000E+00 0. -1.
</event>
<event>
 7    1  0.2468912E-015  0.9000770E+02  0.7816164E-02  0.1186339E+00
        -11   -1    0    0    0    0  0.00000000000E+00  0.00000000000E+00  0.45593999997E+02  0.45594000000E+02  0.51100000000E-03 0. -1.
         11   -1    0    0    0    0 -0.00000000000E+00 -0.00000000000E+00 -0.45593999997E+02  0.45594000000E+02  0.51100000000E-03 0.  1.
    9900012    2    1    2    0    0  0.77747552835E+00 -0.46428954028E+00 -0.75701016465E+00  0.90007704544E+02  0.89999965444E+02 0.  0.
         12    1    1    2    0    0 -0.77747552835E+00  0.46428954028E+00  0.75701016465E+00  0.11802954561E+01  0.00000000000E+00 0. -1.
         11    1    3    3    0    0 -0.75801909089E+01 -0.91585254612E+01 -0.16977516672E+02  0.20726165961E+02  0.51100000000E-03 0. -1.
        -11    1    3    3    0    0 -0.14094890712E+02 -0.23267313725E+02  0.12823262641E+02  0.30074406015E+02  0.51100000000E-03 0.  1.
         12    1    3    3    0    0  0.22452557149E+02  0.31961549646E+02  0.33972438666E+01  0.39207132568E+02  0.00000000000E+00 0. -1.
</event>
<event>
 7    1  0.2468912E-015  0.9000777E+02  0.7816164E-02  0.1186339E+00
        -11   -1    0    0    0    0  0.00000000000E+00  0.00000000000E+00  0.45593999997E+02  0.45594000000E+02  0.51100000000E-03 0.  1.
         11   -1    0    0    0    0 -0.00000000000E+00 -0.00000000000E+00 -0.45593999997E+02  0.45594000000E+02  0.51100000000E-03 0. -1.
    9900012    2    1    2    0    0 -0.25331730003E+00 -0.21708778206E-01  0.11525147783E+01  0.90007774920E+02  0.90000036749E+02 0.  0.
         12    1    1    2    0    0  0.25331730003E+00  0.21708778206E-01 -0.11525147783E+01  0.11802250801E+01  0.00000000000E+00 0. -1.
         11    1    3    3    0    0 -0.19899489198E+02  0.27262262912E-01 -0.77061810070E+01  0.21339532318E+02  0.51100000000E-03 0. -1.
        -11    1    3    3    0    0  0.21687222328E+02  0.23898405808E+02  0.24039315790E+02  0.40241248942E+02  0.51100000000E-03 0.  1.
         12    1    3    3    0    0 -0.20410504299E+01 -0.23947376849E+02 -0.15180620004E+02  0.28426993660E+02  0.00000000000E+00 0. -1.
</event>
<event>
 7    1  0.2468912E-015  0.9000778E+02  0.7816164E-02  0.1186339E+00
        -11   -1    0    0    0    0  0.00000000000E+00  0.00000000000E+00  0.45593999997E+02  0.45594000000E+02  0.51100000000E-03 0.  1.
         11   -1    0    0    0    0 -0.00000000000E+00 -0.00000000000E+00 -0.45593999997E+02  0.45594000000E+02  0.51100000000E-03 0. -1.
    9900012    2    1    2    0    0  0.61141859144E+00 -0.87595379162E+00  0.50179072168E+00  0.90007778975E+02  0.90000040858E+02 0.  0.
         12    1    1    2    0    0 -0.61141859144E+00  0.87595379162E+00 -0.50179072168E+00  0.11802210248E+01  0.00000000000E+00 0. -1.
         11    1    3    3    0    0  0.25554171033E+01  0.35762313889E+01 -0.77468581243E+01  0.89069298064E+01  0.51100000000E-03 0. -1.
        -11    1    3    3    0    0  0.37491326109E+02 -0.13283764379E+02 -0.38404302401E+00  0.39776945820E+02  0.51100000000E-03 0.  1.
         12    1    3    3    0    0 -0.39435324621E+02  0.88315791983E+01  0.86326918699E+01  0.41323903349E+02  0.00000000000E+00 0. -1.
</event>
<event>
 7    1  0.2468912E-015  0.9000826E+02  0.7816164E-02  0.1186338E+00
        -11   -1    0    0    0    0  0.00000000000E+00  0.00000000000E+00  0.45593999997E+02  0.45594000000E+02  0.51100000000E-03 0.  1.
         11   -1    0    0    0    0 -0.00000000000E+00 -0.00000000000E+00 -0.45593999997E+02  0.45594000000E+02  0.51100000000E-03 0. -1.
    9900012    2    1    2    0    0  0.74591008047E+00  0.75950903942E+00 -0.50848773657E+00  0.90008256126E+02  0.90000524306E+02 0.  0.
         12    1    1    2    0    0 -0.74591008047E+00 -0.75950903942E+00  0.50848773657E+00  0.11797438736E+01  0.00000000000E+00 0. -1.
         11    1    3    3    0    0  0.87289431208E+01 -0.36494325580E+02 -0.70616181642E+01  0.38182413477E+02  0.51100000000E-03 0. -1.
        -11    1    3    3    0    0 -0.25443280489E+01 -0.64195328204E+01 -0.15455098151E+01  0.70762000892E+01  0.51100000000E-03 0.  1.
        -12    1    3    3    0    0 -0.54387049914E+01  0.43673367440E+02  0.80986402427E+01  0.44749642561E+02  0.00000000000E+00 0.  1.
</event>
<event>
 7    1  0.2918772E-015  0.9000766E+02  0.7816164E-02  0.1186339E+00
        -11   -1    0    0    0    0  0.00000000000E+00  0.00000000000E+00  0.45593999997E+02  0.45594000000E+02  0.51100000000E-03 0. -1.
         11   -1    0    0    0    0 -0.00000000000E+00 -0.00000000000E+00 -0.45593999997E+02  0.45594000000E+02  0.51100000000E-03 0.  1.
    9900012    2    1    2    0    0  0.11069600266E+01  0.16160285675E+00 -0.37645470499E+00  0.90007663553E+02  0.89999923912E+02 0.  0.
         12    1    1    2    0    0 -0.11069600266E+01 -0.16160285675E+00  0.37645470499E+00  0.11803364472E+01  0.00000000000E+00 0. -1.
         11    1    3    3    0    0 -0.10030663330E+02  0.16257136402E+02  0.31093519104E+02  0.36492679011E+02  0.51100000000E-03 0. -1.
        -11    1    3    3    0    0 -0.63784565427E+01 -0.14642599462E+01  0.64935057573E+01  0.92192397918E+01  0.51100000000E-03 0.  1.
        -12    1    3    3    0    0  0.17516079900E+02 -0.14631273599E+02 -0.37963479566E+02  0.44295744750E+02  0.00000000000E+00 0.  1.
</event>
<event>
 7    1  0.2468912E-015  0.9000769E+02  0.7816164E-02  0.1186339E+00
        -11   -1    0    0    0    0  0.00000000000E+00  0.00000000000E+00  0.45593999997E+02  0.45594000000E+02  0.51100000000E-03 0. -1.
         11   -1    0    0    0    0 -0.00000000000E+00 -0.00000000000E+00 -0.45593999997E+02  0.45594000000E+02  0.51100000000E-03 0.  1.
    9900012    2    1    2    0    0  0.39357716834E+00 -0.11205779597E+00 -0.11070992393E+01  0.90007691285E+02  0.89999952010E+02 0.  0.
         12    1    1    2    0    0 -0.39357716834E+00  0.11205779597E+00  0.11070992393E+01  0.11803087150E+01  0.00000000000E+00 0. -1.
         11    1    3    3    0    0 -0.10719405786E+02  0.10706630922E+02 -0.23466560272E+01  0.15331157845E+02  0.51100000000E-03 0. -1.
        -11    1    3    3    0    0  0.20165665681E+02 -0.59298582947E+01 -0.32888350334E+02  0.39031536989E+02  0.51100000000E-03 0.  1.
         12    1    3    3    0    0 -0.90526827268E+01 -0.48888304230E+01  0.34127907122E+02  0.35644996451E+02  0.00000000000E+00 0. -1.
</event>
<event>
 7    1  0.2468912E-015  0.9000759E+02  0.7816164E-02  0.1186339E+00
        -11   -1    0    0    0    0  0.00000000000E+00  0.00000000000E+00  0.45593999997E+02  0.45594000000E+02  0.51100000000E-03 0.  1.
         11   -1    0    0    0    0 -0.00000000000E+00 -0.00000000000E+00 -0.45593999997E+02  0.45594000000E+02  0.51100000000E-03 0. -1.
    9900012    2    1    2    0    0  0.70431605275E+00  0.20106427650E+00  0.92567237551E+00  0.90007594437E+02  0.89999853884E+02 0.  0.
         12    1    1    2    0    0 -0.70431605275E+00 -0.20106427650E+00 -0.92567237551E+00  0.11804055626E+01  0.00000000000E+00 0. -1.
         11    1    3    3    0    0 -0.39495960616E+01 -0.82694815786E+01 -0.12338692990E+01  0.92469491367E+01  0.51100000000E-03 0. -1.
        -11    1    3    3    0    0  0.53841277060E+01 -0.35815773917E+02  0.39443932578E+01  0.36432358294E+02  0.51100000000E-03 0.  1.
         12    1    3    3    0    0 -0.73021559161E+00  0.44286319772E+02 -0.17848515833E+01  0.44328287007E+02  0.00000000000E+00 0. -1.
</event>
<event>
 7    1  0.2468912E-015  0.9000780E+02  0.7816164E-02  0.1186339E+00
        -11   -1    0    0    0    0  0.00000000000E+00  0.00000000000E+00  0.45593999997E+02  0.45594000000E+02  0.51100000000E-03 0.  1.
         11   -1    0    0    0    0 -0.00000000000E+00 -0.00000000000E+00 -0.45593999997E+02  0.45594000000E+02  0.51100000000E-03 0. -1.
    9900012    2    1    2    0    0 -0.86155855406E+00  0.20354827173E+00  0.78047935278E+00  0.90007803804E+02  0.90000066014E+02 0.  0.
         12    1    1    2    0    0  0.86155855406E+00 -0.20354827173E+00 -0.78047935278E+00  0.11801961960E+01  0.00000000000E+00 0. -1.
         11    1    3    3    0    0  0.24885337772E+02  0.12716082191E+02 -0.21005925671E+02  0.34960373222E+02  0.51100000000E-03 0. -1.
        -11    1    3    3    0    0  0.71058369776E+01  0.46740774635E+00 -0.66166552253E+01  0.97206746569E+01  0.51100000000E-03 0.  1.
        -12    1    3    3    0    0 -0.32852733303E+02 -0.12979941666E+02  0.28403060249E+02  0.45326755925E+02  0.00000000000E+00 0.  1.
</event>
<event>
 7    1  0.2468912E-015  0.9000772E+02  0.7816164E-02  0.1186339E+00
        -11   -1    0    0    0    0  0.00000000000E+00  0.00000000000E+00  0.45593999997E+02  0.45594000000E+02  0.51100000000E-03 0.  1.
         11   -1    0    0    0    0 -0.00000000000E+00 -0.00000000000E+00 -0.45593999997E+02  0.45594000000E+02  0.51100000000E-03 0. -1.
    9900012    2    1    2    0    0 -0.10366755455E+01 -0.29087287009E+00 -0.48347796694E+00  0.90007722847E+02  0.89999983989E+02 0.  0.
         12    1    1    2    0    0  0.10366755455E+01  0.29087287009E+00  0.48347796694E+00  0.11802771529E+01  0.00000000000E+00 0. -1.
         11    1    3    3    0    0  0.77600940391E+01  0.39075747269E+01  0.20807716355E+01  0.89340814079E+01  0.51100000000E-03 0. -1.
        -11    1    3    3    0    0  0.99113403342E+01  0.35548504419E+02  0.16578809438E+01  0.36941567416E+02  0.51100000000E-03 0.  1.
         12    1    3    3    0    0 -0.18708109919E+02 -0.39746952016E+02 -0.42221305462E+01  0.44132074024E+02  0.00000000000E+00 0. -1.
</event>
<event>
 7    1  0.2468912E-015  0.9000763E+02  0.7816164E-02  0.1186339E+00
        -11   -1    0    0    0    0  0.00000000000E+00  0.00000000000E+00  0.45593999997E+02  0.45594000000E+02  0.51100000000E-03 0.  1.
         11   -1    0    0    0    0 -0.00000000000E+00 -0.00000000000E+00 -0.45593999997E+02  0.45594000000E+02  0.51100000000E-03 0. -1.
    9900012    2    1    2    0    0  0.84311689641E+00 -0.67625904358E+00 -0.47445998241E+00  0.90007625199E+02  0.89999885052E+02 0.  0.
         12    1    1    2    0    0 -0.84311689641E+00  0.67625904358E+00  0.47445998241E+00  0.11803748006E+01  0.00000000000E+00 0. -1.
         11    1    3    3    0    0 -0.39354018519E+02  0.45647385765E+01 -0.79295264244E+01  0.40403626092E+02  0.51100000000E-03 0. -1.
        -11    1    3    3    0    0 -0.66288200928E+00 -0.33475534911E+01  0.79989935592E+01  0.86965179903E+01  0.51100000000E-03 0.  1.
        -12    1    3    3    0    0  0.40860017424E+02 -0.18934441289E+01 -0.54392711723E+00  0.40907481117E+02  0.00000000000E+00 0.  1.
</event>
<event>
 7    1  0.2468912E-015  0.9000776E+02  0.7816164E-02  0.1186339E+00
        -11   -1    0    0    0    0  0.00000000000E+00  0.00000000000E+00  0.45593999997E+02  0.45594000000E+02  0.51100000000E-03 0.  1.
         11   -1    0    0    0    0 -0.00000000000E+00 -0.00000000000E+00 -0.45593999997E+02  0.45594000000E+02  0.51100000000E-03 0. -1.
    9900012    2    1    2    0    0  0.73142192783E+00  0.31002121084E+00  0.87284839772E+00  0.90007764637E+02  0.90000026330E+02 0.  0.
         12    1    1    2    0    0 -0.73142192783E+00 -0.31002121084E+00 -0.87284839772E+00  0.11802353634E+01  0.00000000000E+00 0. -1.
         11    1    3    3    0    0 -0.32005238049E+02  0.26050688096E+01 -0.16168655577E+02  0.35952010646E+02  0.51100000000E-03 0. -1.
        -11    1    3    3    0    0 -0.71002734582E+01  0.62092713513E+01 -0.10379499054E+01  0.94892715296E+01  0.51100000000E-03 0.  1.
        -12    1    3    3    0    0  0.39836933435E+02 -0.85043189501E+01  0.18079453880E+02  0.44566482461E+02  0.00000000000E+00 0.  1.
</event>
<event>
 7    1  0.2468912E-015  0.9000778E+02  0.7816164E-02  0.1186339E+00
        -11   -1    0    0    0    0  0.00000000000E+00  0.00000000000E+00  0.45593999997E+02  0.45594000000E+02  0.51100000000E-03 0.  1.
         11   -1    0    0    0    0 -0.00000000000E+00 -0.00000000000E+00 -0.45593999997E+02  0.45594000000E+02  0.51100000000E-03 0. -1.
    9900012    2    1    2    0    0 -0.96880616778E+00 -0.31228272290E+00 -0.59733011180E+00  0.90007784277E+02  0.90000046230E+02 0.  0.
         12    1    1    2    0    0  0.96880616778E+00  0.31228272290E+00  0.59733011180E+00  0.11802157227E+01  0.00000000000E+00 0. -1.
         11    1    3    3    0    0 -0.22674018055E+02 -0.97249522068E+01 -0.36685312264E+02  0.44209703984E+02  0.51100000000E-03 0. -1.
        -11    1    3    3    0    0  0.25555860876E+01  0.73215124938E+01  0.50040861183E+01  0.92291084937E+01  0.51100000000E-03 0.  1.
        -12    1    3    3    0    0  0.19149625799E+02  0.20911569901E+01  0.31083896034E+02  0.36568971800E+02  0.00000000000E+00 0.  1.
</event>
<event>
 7    1  0.2468912E-015  0.9000801E+02  0.7816164E-02  0.1186339E+00
        -11   -1    0    0    0    0  0.00000000000E+00  0.00000000000E+00  0.45593999997E+02  0.45594000000E+02  0.51100000000E-03 0. -1.
         11   -1    0    0    0    0 -0.00000000000E+00 -0.00000000000E+00 -0.45593999997E+02  0.45594000000E+02  0.51100000000E-03 0.  1.
    9900012    2    1    2    0    0  0.42870963642E+00  0.76122784232E+00 -0.79316555417E+00  0.90008012129E+02  0.90000277088E+02 0.  0.
         12    1    1    2    0    0 -0.42870963642E+00 -0.76122784232E+00  0.79316555417E+00  0.11799878714E+01  0.00000000000E+00 0. -1.
         11    1    3    3    0    0  0.13145077006E+02  0.38607097014E+02  0.59755119062E+01  0.41219021485E+02  0.51100000000E-03 0. -1.
        -11    1    3    3    0    0  0.20550409004E+01 -0.12459092579E+01  0.66745381823E+01  0.70940075549E+01  0.51100000000E-03 0.  1.
        -12    1    3    3    0    0 -0.14771408270E+02 -0.36599959914E+02 -0.13443215643E+02  0.41694983089E+02  0.00000000000E+00 0.  1.
</event>
<event>
 7    1  0.2468912E-015  0.9000775E+02  0.7816164E-02  0.1186339E+00
        -11   -1    0    0    0    0  0.00000000000E+00  0.00000000000E+00  0.45593999997E+02  0.45594000000E+02  0.51100000000E-03 0.  1.
         11   -1    0    0    0    0 -0.00000000000E+00 -0.00000000000E+00 -0.45593999997E+02  0.45594000000E+02  0.51100000000E-03 0. -1.
    9900012    2    1    2    0    0  0.35458603226E+00  0.80039803841E+00  0.79159917554E+00  0.90007746837E+02  0.90000008295E+02 0.  0.
         12    1    1    2    0    0 -0.35458603226E+00 -0.80039803841E+00 -0.79159917554E+00  0.11802531630E+01  0.00000000000E+00 0. -1.
         11    1    3    3    0    0  0.78010557283E+01 -0.11194947544E+01 -0.62698509882E+01  0.10070787986E+02  0.51100000000E-03 0. -1.
        -11    1    3    3    0    0  0.32290853901E+02  0.13700546590E+02 -0.77501019011E+01  0.35923088707E+02  0.51100000000E-03 0.  1.
         12    1    3    3    0    0 -0.39737323597E+02 -0.11780653797E+02  0.14811552065E+02  0.44013870144E+02  0.00000000000E+00 0. -1.
</event>
<event>
 7    1  0.2468912E-015  0.9000774E+02  0.7816164E-02  0.1186339E+00
        -11   -1    0    0    0    0  0.00000000000E+00  0.00000000000E+00  0.45593999997E+02  0.45594000000E+02  0.51100000000E-03 0. -1.
         11   -1    0    0    0    0 -0.00000000000E+00 -0.00000000000E+00 -0.45593999997E+02  0.45594000000E+02  0.51100000000E-03 0.  1.
    9900012    2    1    2    0    0  0.10907603350E+00  0.78709696597E+00 -0.87268715090E+00  0.90007744910E+02  0.90000006342E+02 0.  0.
         12    1    1    2    0    0 -0.10907603350E+00 -0.78709696597E+00  0.87268715090E+00  0.11802550903E+01  0.00000000000E+00 0. -1.
         11    1    3    3    0    0  0.17944520681E+02 -0.28899784387E+02 -0.21279039119E+02  0.40124816089E+02  0.51100000000E-03 0. -1.
        -11    1    3    3    0    0 -0.24207421884E+01  0.34434411651E+01 -0.74933459297E+01  0.85946211832E+01  0.51100000000E-03 0.  1.
        -12    1    3    3    0    0 -0.15414702459E+02  0.26243440188E+02  0.27899697898E+02  0.41288307638E+02  0.00000000000E+00 0.  1.
</event>
<event>
 7    1  0.2468912E-015  0.9000777E+02  0.7816164E-02  0.1186339E+00
        -11   -1    0    0    0    0  0.00000000000E+00  0.00000000000E+00  0.45593999997E+02  0.45594000000E+02  0.51100000000E-03 0.  1.
         11   -1    0    0    0    0 -0.00000000000E+00 -0.00000000000E+00 -0.45593999997E+02  0.45594000000E+02  0.51100000000E-03 0. -1.
    9900012    2    1    2    0    0 -0.48838458937E+00 -0.56303909422E+00  0.91509891972E+00  0.90007771818E+02  0.90000033606E+02 0.  0.
         12    1    1    2    0    0  0.48838458937E+00  0.56303909422E+00 -0.91509891972E+00  0.11802281820E+01  0.00000000000E+00 0. -1.
         11    1    3    3    0    0  0.35724996833E+02 -0.48543976221E+01 -0.23173677815E+02  0.42858603789E+02  0.51100000000E-03 0. -1.
        -11    1    3    3    0    0 -0.24935642434E+01  0.43176990374E+01  0.88236961815E+01  0.10134989007E+02  0.51100000000E-03 0.  1.
        -12    1    3    3    0    0 -0.33719817179E+02 -0.26340509501E-01  0.15265080553E+02  0.37014179022E+02  0.00000000000E+00 0.  1.
</event>
<event>
 7    1  0.2468912E-015  0.9000773E+02  0.7816164E-02  0.1186339E+00
        -11   -1    0    0    0    0  0.00000000000E+00  0.00000000000E+00  0.45593999997E+02  0.45594000000E+02  0.51100000000E-03 0. -1.
         11   -1    0    0    0    0 -0.00000000000E+00 -0.00000000000E+00 -0.45593999997E+02  0.45594000000E+02  0.51100000000E-03 0.  1.
    9900012    2    1    2    0    0  0.18486524230E+00  0.97713754502E+00  0.63566053959E+00  0.90007730005E+02  0.89999991241E+02 0.  0.
         12    1    1    2    0    0 -0.18486524230E+00 -0.97713754502E+00 -0.63566053959E+00  0.11802699951E+01  0.00000000000E+00 0. -1.
         11    1    3    3    0    0  0.74412332276E+01  0.18850188815E+01  0.86568818792E+01  0.11570084367E+02  0.51100000000E-03 0. -1.
        -11    1    3    3    0    0  0.26636127782E+02 -0.12649213541E+01 -0.28345075380E+02  0.38916919557E+02  0.51100000000E-03 0.  1.
         12    1    3    3    0    0 -0.33892495767E+02  0.35704001765E+00  0.20323854041E+02  0.39520726081E+02  0.00000000000E+00 0. -1.
</event>
<event>
 7    1  0.2468912E-015  0.9000774E+02  0.7816164E-02  0.1186339E+00
        -11   -1    0    0    0    0  0.00000000000E+00  0.00000000000E+00  0.45593999997E+02  0.45594000000E+02  0.51100000000E-03 0. -1.
         11   -1    0    0    0    0 -0.00000000000E+00 -0.00000000000E+00 -0.45593999997E+02  0.45594000000E+02  0.51100000000E-03 0.  1.
    9900012    2    1    2    0    0 -0.23920458568E-01  0.11234553288E+01 -0.36095072670E+00  0.90007741769E+02  0.90000003161E+02 0.  0.
         12    1    1    2    0    0  0.23920458568E-01 -0.11234553288E+01  0.36095072670E+00  0.11802582307E+01  0.00000000000E+00 0. -1.
         11    1    3    3    0    0 -0.37560371035E+01 -0.83655421057E+01 -0.46458148293E+00  0.91818269239E+01  0.51100000000E-03 0. -1.
        -11    1    3    3    0    0 -0.19590290154E+01 -0.29270820421E+02  0.21328591369E+02  0.36270201720E+02  0.51100000000E-03 0.  1.
         12    1    3    3    0    0  0.56911456603E+01  0.38759817855E+02 -0.21224960613E+02  0.44555713125E+02  0.00000000000E+00 0. -1.
</event>
<event>
 7    1  0.2468912E-015  0.9000772E+02  0.7816164E-02  0.1186339E+00
        -11   -1    0    0    0    0  0.00000000000E+00  0.00000000000E+00  0.45593999997E+02  0.45594000000E+02  0.51100000000E-03 0.  1.
         11   -1    0    0    0    0 -0.00000000000E+00 -0.00000000000E+00 -0.45593999997E+02  0.45594000000E+02  0.51100000000E-03 0. -1.
    9900012    2    1    2    0    0  0.69212928286E+00 -0.51434800126E+00  0.80589138701E+00  0.90007721330E+02  0.89999982452E+02 0.  0.
         12    1    1    2    0    0 -0.69212928286E+00  0.51434800126E+00 -0.80589138701E+00  0.11802786697E+01  0.00000000000E+00 0. -1.
         11    1    3    3    0    0  0.10518438593E+02  0.21043831326E+02 -0.26719456602E+02  0.35600698710E+02  0.51100000000E-03 0. -1.
        -11    1    3    3    0    0  0.55413114180E+01  0.79880061904E+01 -0.19703740275E+01  0.99195135566E+01  0.51100000000E-03 0.  1.
        -12    1    3    3    0    0 -0.15367620728E+02 -0.29546185517E+02  0.29495722016E+02  0.44487509064E+02  0.00000000000E+00 0.  1.
</event>
<event>
 7    1  0.2468912E-015  0.9000780E+02  0.7816164E-02  0.1186339E+00
        -11   -1    0    0    0    0  0.00000000000E+00  0.00000000000E+00  0.45593999997E+02  0.45594000000E+02  0.51100000000E-03 0.  1.
         11   -1    0    0    0    0 -0.00000000000E+00 -0.00000000000E+00 -0.45593999997E+02  0.45594000000E+02  0.51100000000E-03 0. -1.
    9900012    2    1    2    0    0  0.75580979073E+00 -0.89033188402E+00  0.17009738996E+00  0.90007799837E+02  0.90000061994E+02 0.  0.
         12    1    1    2    0    0 -0.75580979073E+00  0.89033188402E+00 -0.17009738996E+00  0.11802001633E+01  0.00000000000E+00 0. -1.
         11    1    3    3    0    0 -0.31169945874E+02 -0.80979366255E+01  0.21426615848E+02  0.38681287082E+02  0.51100000000E-03 0. -1.
        -11    1    3    3    0    0  0.74251460755E+01 -0.31803633792E+00  0.90009362206E+01  0.11672651561E+02  0.51100000000E-03 0.  1.
        -12    1    3    3    0    0  0.24500609590E+02  0.75256410794E+01 -0.30257454678E+02  0.39653861193E+02  0.00000000000E+00 0.  1.
</event>
<event>
 7    1  0.2468912E-015  0.9000766E+02  0.7816164E-02  0.1186339E+00
        -11   -1    0    0    0    0  0.00000000000E+00  0.00000000000E+00  0.45593999997E+02  0.45594000000E+02  0.51100000000E-03 0.  1.
         11   -1    0    0    0    0 -0.00000000000E+00 -0.00000000000E+00 -0.45593999997E+02  0.45594000000E+02  0.51100000000E-03 0. -1.
    9900012    2    1    2    0    0 -0.71584663043E+00 -0.33895043577E+00  0.87514766293E+00  0.90007658004E+02  0.89999918289E+02 0.  0.
         12    1    1    2    0    0  0.71584663043E+00  0.33895043577E+00 -0.87514766293E+00  0.11803419963E+01  0.00000000000E+00 0. -1.
         11    1    3    3    0    0  0.20715579152E+02  0.33090454400E+02 -0.17404377906E+02  0.42743721908E+02  0.51100000000E-03 0. -1.
        -11    1    3    3    0    0 -0.95373606816E+01 -0.76481978876E+01 -0.19797133100E+01  0.12384484032E+02  0.51100000000E-03 0.  1.
        -12    1    3    3    0    0 -0.11894065101E+02 -0.25781206948E+02  0.20259238879E+02  0.34879452064E+02  0.00000000000E+00 0.  1.
</event>
<event>
 7    1  0.2468912E-015  0.9000775E+02  0.7816164E-02  0.1186339E+00
        -11   -1    0    0    0    0  0.00000000000E+00  0.00000000000E+00  0.45593999997E+02  0.45594000000E+02  0.51100000000E-03 0. -1.
         11   -1    0    0    0    0 -0.00000000000E+00 -0.00000000000E+00 -0.45593999997E+02  0.45594000000E+02  0.51100000000E-03 0.  1.
    9900012    2    1    2    0    0 -0.75201237095E+00 -0.89123400562E+00 -0.18211747536E+00  0.90007751114E+02  0.90000012628E+02 0.  0.
         12    1    1    2    0    0  0.75201237095E+00  0.89123400562E+00  0.18211747536E+00  0.11802488863E+01  0.00000000000E+00 0. -1.
         11    1    3    3    0    0 -0.40072310953E+01  0.39923462649E+02 -0.11145796331E+02  0.41643361380E+02  0.51100000000E-03 0. -1.
        -11    1    3    3    0    0  0.51533806193E+01 -0.45438442785E+01 -0.51931922499E+01  0.86123805443E+01  0.51100000000E-03 0.  1.
        -12    1    3    3    0    0 -0.18981618949E+01 -0.36270852376E+02  0.16156871105E+02  0.39752009189E+02  0.00000000000E+00 0.  1.
</event>
<event>
 7    1  0.2468912E-015  0.9000720E+02  0.7816164E-02  0.1186340E+00
        -11   -1    0    0    0    0  0.00000000000E+00  0.00000000000E+00  0.45593999997E+02  0.45594000000E+02  0.51100000000E-03 0. -1.
         11   -1    0    0    0    0 -0.00000000000E+00 -0.00000000000E+00 -0.45593999997E+02  0.45594000000E+02  0.51100000000E-03 0.  1.
    9900012    2    1    2    0    0 -0.94887491054E+00 -0.55867238637E-01 -0.70057473218E+00  0.90007199551E+02  0.89999453784E+02 0.  0.
         12    1    1    2    0    0  0.94887491054E+00  0.55867238637E-01  0.70057473218E+00  0.11808004487E+01  0.00000000000E+00 0. -1.
         11    1    3    3    0    0 -0.11000441302E+01  0.91159090795E+01  0.14611512687E+01  0.92975727330E+01  0.51100000000E-03 0. -1.
        -11    1    3    3    0    0 -0.23516228123E+02  0.26050143846E+02  0.10135431161E+02  0.36528755038E+02  0.51100000000E-03 0.  1.
         12    1    3    3    0    0  0.23667397343E+02 -0.35221920164E+02 -0.12297157161E+02  0.44180871781E+02  0.00000000000E+00 0. -1.
</event>
<event>
 7    1  0.2468912E-015  0.9000782E+02  0.7816164E-02  0.1186339E+00
        -11   -1    0    0    0    0  0.00000000000E+00  0.00000000000E+00  0.45593999997E+02  0.45594000000E+02  0.51100000000E-03 0. -1.
         11   -1    0    0    0    0 -0.00000000000E+00 -0.00000000000E+00 -0.45593999997E+02  0.45594000000E+02  0.51100000000E-03 0.  1.
    9900012    2    1    2    0    0 -0.98543237195E+00 -0.28470746371E+00 -0.58368776193E+00  0.90007819207E+02  0.90000081621E+02 0.  0.
         12    1    1    2    0    0  0.98543237195E+00  0.28470746371E+00  0.58368776193E+00  0.11801807925E+01  0.00000000000E+00 0. -1.
         11    1    3    3    0    0 -0.46620466960E+01 -0.23486501668E+00 -0.74528733552E+01  0.87940413055E+01  0.51100000000E-03 0. -1.
        -11    1    3    3    0    0  0.64529095390E+01 -0.19985033858E+02 -0.31515693867E+02  0.37871896968E+02  0.51100000000E-03 0.  1.
         12    1    3    3    0    0 -0.27762952149E+01  0.19935191410E+02  0.38384879460E+02  0.43341880934E+02  0.00000000000E+00 0. -1.
</event>
<event>
 7    1  0.2468912E-015  0.9000775E+02  0.7816164E-02  0.1186339E+00
        -11   -1    0    0    0    0  0.00000000000E+00  0.00000000000E+00  0.45593999997E+02  0.45594000000E+02  0.51100000000E-03 0.  1.
         11   -1    0    0    0    0 -0.00000000000E+00 -0.00000000000E+00 -0.45593999997E+02  0.45594000000E+02  0.51100000000E-03 0. -1.
    9900012    2    1    2    0    0 -0.62197610834E+00  0.84351006456E+00  0.54278875520E+00  0.90007752932E+02  0.90000014471E+02 0.  0.
         12    1    1    2    0    0  0.62197610834E+00 -0.84351006456E+00 -0.54278875520E+00  0.11802470678E+01  0.00000000000E+00 0. -1.
         11    1    3    3    0    0 -0.23759482299E+02  0.25889311376E+02 -0.23505932798E+02  0.42276451123E+02  0.51100000000E-03 0. -1.
        -11    1    3    3    0    0  0.94786128634E+01  0.54776864639E+00 -0.80768693739E+00  0.95287203104E+01  0.51100000000E-03 0.  1.
        -12    1    3    3    0    0  0.13658893328E+02 -0.25593569957E+02  0.24856408490E+02  0.38202581498E+02  0.00000000000E+00 0.  1.
</event>
<event>
 7    1  0.2468912E-015  0.9000786E+02  0.7816164E-02  0.1186339E+00
        -11   -1    0    0    0    0  0.00000000000E+00  0.00000000000E+00  0.45593999997E+02  0.45594000000E+02  0.51100000000E-03 0. -1.
         11   -1    0    0    0    0 -0.00000000000E+00 -0.00000000000E+00 -0.45593999997E+02  0.45594000000E+02  0.51100000000E-03 0.  1.
    9900012    2    1    2    0    0  0.60340691779E+00  0.10055016084E+01 -0.13264508618E+00  0.90007860978E+02  0.90000123943E+02 0.  0.
         12    1    1    2    0    0 -0.60340691779E+00 -0.10055016084E+01  0.13264508618E+00  0.11801390223E+01  0.00000000000E+00 0. -1.
         11    1    3    3    0    0  0.27257345106E+01 -0.50820028640E+01 -0.90307646137E+01  0.10714993770E+02  0.51100000000E-03 0. -1.
        -11    1    3    3    0    0 -0.13701446676E+02 -0.26741999721E+02  0.26697383319E+02  0.40194706946E+02  0.51100000000E-03 0.  1.
         12    1    3    3    0    0  0.11579119083E+02  0.32829504194E+02 -0.17799263791E+02  0.39098160262E+02  0.00000000000E+00 0. -1.
</event>
<event>
 7    1  0.2468912E-015  0.9000782E+02  0.7816164E-02  0.1186339E+00
        -11   -1    0    0    0    0  0.00000000000E+00  0.00000000000E+00  0.45593999997E+02  0.45594000000E+02  0.51100000000E-03 0.  1.
         11   -1    0    0    0    0 -0.00000000000E+00 -0.00000000000E+00 -0.45593999997E+02  0.45594000000E+02  0.51100000000E-03 0. -1.
    9900012    2    1    2    0    0  0.83381679267E-01  0.98226105435E+00  0.64886547165E+00  0.90007823876E+02  0.90000086351E+02 0.  0.
         12    1    1    2    0    0 -0.83381679267E-01 -0.98226105435E+00 -0.64886547165E+00  0.11801761240E+01  0.00000000000E+00 0. -1.
         11    1    3    3    0    0  0.79601181467E+01 -0.39060215033E+01 -0.13536182020E+00  0.88678525009E+01  0.51100000000E-03 0. -1.
        -11    1    3    3    0    0  0.72940242809E+01  0.28638673603E+02  0.28897336461E+02  0.41333188490E+02  0.51100000000E-03 0.  1.
         12    1    3    3    0    0 -0.15170760748E+02 -0.23750391045E+02 -0.28113109170E+02  0.39806782885E+02  0.00000000000E+00 0. -1.
</event>
<event>
 7    1  0.2468912E-015  0.9000746E+02  0.7816164E-02  0.1186340E+00
        -11   -1    0    0    0    0  0.00000000000E+00  0.00000000000E+00  0.45593999997E+02  0.45594000000E+02  0.51100000000E-03 0.  1.
         11   -1    0    0    0    0 -0.00000000000E+00 -0.00000000000E+00 -0.45593999997E+02  0.45594000000E+02  0.51100000000E-03 0. -1.
    9900012    2    1    2    0    0  0.78546716182E+00 -0.16062116198E+00  0.86655739620E+00  0.90007457946E+02  0.89999715591E+02 0.  0.
         12    1    1    2    0    0 -0.78546716182E+00  0.16062116198E+00 -0.86655739620E+00  0.11805420538E+01  0.00000000000E+00 0. -1.
         11    1    3    3    0    0  0.11067649267E+02  0.31918183972E+00 -0.55397047870E+00  0.11086100346E+02  0.51100000000E-03 0. -1.
        -11    1    3    3    0    0  0.27081691442E+01 -0.23170405965E+02  0.31416007140E+02  0.39130134136E+02  0.51100000000E-03 0.  1.
         12    1    3    3    0    0 -0.12990351249E+02  0.22690602963E+02 -0.29995479265E+02  0.39791223463E+02  0.00000000000E+00 0. -1.
</event>
<event>
 7    1  0.2468912E-015  0.9000779E+02  0.7816164E-02  0.1186339E+00
        -11   -1    0    0    0    0  0.00000000000E+00  0.00000000000E+00  0.45593999997E+02  0.45594000000E+02  0.51100000000E-03 0.  1.
         11   -1    0    0    0    0 -0.00000000000E+00 -0.00000000000E+00 -0.45593999997E+02  0.45594000000E+02  0.51100000000E-03 0. -1.
    9900012    2    1    2    0    0  0.10662879977E+01  0.12658175171E+00 -0.48979192992E+00  0.90007792743E+02  0.90000054808E+02 0.  0.
         12    1    1    2    0    0 -0.10662879977E+01 -0.12658175171E+00  0.48979192992E+00  0.11802072566E+01  0.00000000000E+00 0. -1.
         11    1    3    3    0    0 -0.30645110763E+02  0.94227243160E+01 -0.19373663275E+02  0.37459970317E+02  0.51100000000E-03 0. -1.
        -11    1    3    3    0    0 -0.70874871513E+01 -0.57456716996E+01 -0.28127422465E+00  0.91282163017E+01  0.51100000000E-03 0.  1.
        -12    1    3    3    0    0  0.38798885912E+02 -0.35504708647E+01  0.19165145569E+02  0.43419606125E+02  0.00000000000E+00 0.  1.
</event>
<event>
 7    1  0.2468912E-015  0.9000772E+02  0.7816164E-02  0.1186339E+00
        -11   -1    0    0    0    0  0.00000000000E+00  0.00000000000E+00  0.45593999997E+02  0.45594000000E+02  0.51100000000E-03 0. -1.
         11   -1    0    0    0    0 -0.00000000000E+00 -0.00000000000E+00 -0.45593999997E+02  0.45594000000E+02  0.51100000000E-03 0.  1.
    9900012    2    1    2    0    0  0.66371382997E-01  0.10046459085E+01 -0.61589925041E+00  0.90007724418E+02  0.89999985581E+02 0.  0.
         12    1    1    2    0    0 -0.66371382997E-01 -0.10046459085E+01  0.61589925041E+00  0.11802755816E+01  0.00000000000E+00 0. -1.
         11    1    3    3    0    0  0.67612194001E+01 -0.68430937288E+01 -0.17795423733E+02  0.20229165224E+02  0.51100000000E-03 0. -1.
        -11    1    3    3    0    0 -0.12574451523E+00 -0.16990570882E+02 -0.18945789305E+02  0.25448737557E+02  0.51100000000E-03 0.  1.
         12    1    3    3    0    0 -0.65691035018E+01  0.24838310519E+02  0.36125313787E+02  0.44329821638E+02  0.00000000000E+00 0. -1.
</event>
<event>
 7    1  0.2527963E-015  0.9000768E+02  0.7816164E-02  0.1186339E+00
        -11   -1    0    0    0    0  0.00000000000E+00  0.00000000000E+00  0.45593999997E+02  0.45594000000E+02  0.51100000000E-03 0.  1.
         11   -1    0    0    0    0 -0.00000000000E+00 -0.00000000000E+00 -0.45593999997E+02  0.45594000000E+02  0.51100000000E-03 0. -1.
    9900012    2    1    2    0    0 -0.42248103337E+00 -0.52984443108E+00  0.96639696898E+00  0.90007682904E+02  0.89999943519E+02 0.  0.
         12    1    1    2    0    0  0.42248103337E+00  0.52984443108E+00 -0.96639696898E+00  0.11803170957E+01  0.00000000000E+00 0. -1.
         11    1    3    3    0    0 -0.20274421850E+02 -0.22858992509E+02 -0.20611499327E+02  0.36856744629E+02  0.51100000000E-03 0. -1.
        -11    1    3    3    0    0 -0.19566309024E+01  0.14573153884E+01 -0.95102929007E+01  0.98182403692E+01  0.51100000000E-03 0.  1.
        -12    1    3    3    0    0  0.21808571719E+02  0.20871832689E+02  0.31088189197E+02  0.43332697906E+02  0.00000000000E+00 0.  1.
</event>
<event>
 7    1  0.2468912E-015  0.9000772E+02  0.7816164E-02  0.1186339E+00
        -11   -1    0    0    0    0  0.00000000000E+00  0.00000000000E+00  0.45593999997E+02  0.45594000000E+02  0.51100000000E-03 0.  1.
         11   -1    0    0    0    0 -0.00000000000E+00 -0.00000000000E+00 -0.45593999997E+02  0.45594000000E+02  0.51100000000E-03 0. -1.
    9900012    2    1    2    0    0  0.46251615221E+00 -0.48338021008E-01  0.10848083346E+01  0.90007717458E+02  0.89999978529E+02 0.  0.
         12    1    1    2    0    0 -0.46251615221E+00  0.48338021008E-01 -0.10848083346E+01  0.11802825417E+01  0.00000000000E+00 0. -1.
         11    1    3    3    0    0  0.38092292413E+01  0.84805442151E+00  0.83373262413E+01  0.92054566877E+01  0.51100000000E-03 0. -1.
        -11    1    3    3    0    0 -0.14768772684E+02 -0.16606855232E+02  0.30857677941E+02  0.38027629107E+02  0.51100000000E-03 0.  1.
         12    1    3    3    0    0  0.11422059595E+02  0.15710462789E+02 -0.38110195848E+02  0.42774631664E+02  0.00000000000E+00 0. -1.
</event>
<event>
 7    1  0.2468912E-015  0.9000764E+02  0.7816164E-02  0.1186339E+00
        -11   -1    0    0    0    0  0.00000000000E+00  0.00000000000E+00  0.45593999997E+02  0.45594000000E+02  0.51100000000E-03 0.  1.
         11   -1    0    0    0    0 -0.00000000000E+00 -0.00000000000E+00 -0.45593999997E+02  0.45594000000E+02  0.51100000000E-03 0. -1.
    9900012    2    1    2    0    0  0.11144980417E+01  0.13503282040E+00 -0.36457896105E+00  0.90007636680E+02  0.89999896684E+02 0.  0.
         12    1    1    2    0    0 -0.11144980417E+01 -0.13503282040E+00  0.36457896105E+00  0.11803633196E+01  0.00000000000E+00 0. -1.
         11    1    3    3    0    0 -0.81358529322E+01 -0.19190167522E+01  0.20622536922E+01  0.86097397627E+01  0.51100000000E-03 0. -1.
        -11    1    3    3    0    0  0.21592732798E+02  0.12303050149E+02  0.33698067182E+02  0.41870883496E+02  0.51100000000E-03 0.  1.
         12    1    3    3    0    0 -0.12342381824E+02 -0.10249000576E+02 -0.36124899836E+02  0.39527013422E+02  0.00000000000E+00 0. -1.
</event>
<event>
 7    1  0.2468912E-015  0.9000774E+02  0.7816164E-02  0.1186339E+00
        -11   -1    0    0    0    0  0.00000000000E+00  0.00000000000E+00  0.45593999997E+02  0.45594000000E+02  0.51100000000E-03 0. -1.
         11   -1    0    0    0    0 -0.00000000000E+00 -0.00000000000E+00 -0.45593999997E+02  0.45594000000E+02  0.51100000000E-03 0.  1.
    9900012    2    1    2    0    0  0.10951947132E+01 -0.40284431649E+00 -0.17686280713E+00  0.90007739242E+02  0.90000000600E+02 0.  0.
         12    1    1    2    0    0 -0.10951947132E+01  0.40284431649E+00  0.17686280713E+00  0.11802607575E+01  0.00000000000E+00 0. -1.
         11    1    3    3    0    0 -0.14236027599E+02 -0.22362181424E+02  0.27208842762E+02  0.37987534331E+02  0.51100000000E-03 0. -1.
        -11    1    3    3    0    0  0.27551966050E+01 -0.70009696173E+01  0.30944957657E+01  0.81351452488E+01  0.51100000000E-03 0.  1.
        -12    1    3    3    0    0  0.12576025707E+02  0.28960306725E+02 -0.30480201335E+02  0.43885059663E+02  0.00000000000E+00 0.  1.
</event>
<event>
 7    1  0.2468912E-015  0.9000777E+02  0.7816164E-02  0.1186339E+00
        -11   -1    0    0    0    0  0.00000000000E+00  0.00000000000E+00  0.45593999997E+02  0.45594000000E+02  0.51100000000E-03 0. -1.
         11   -1    0    0    0    0 -0.00000000000E+00 -0.00000000000E+00 -0.45593999997E+02  0.45594000000E+02  0.51100000000E-03 0.  1.
    9900012    2    1    2    0    0 -0.36625474465E+00  0.10906692177E+01 -0.26313865129E+00  0.90007769586E+02  0.90000031344E+02 0.  0.
         12    1    1    2    0    0  0.36625474465E+00 -0.10906692177E+01  0.26313865129E+00  0.11802304141E+01  0.00000000000E+00 0. -1.
         11    1    3    3    0    0  0.10959144225E+02  0.21074316580E+01  0.21319390013E+01  0.11361746103E+02  0.51100000000E-03 0. -1.
        -11    1    3    3    0    0 -0.15384146208E+02 -0.27957442826E+02 -0.27102238337E+02  0.41866715742E+02  0.51100000000E-03 0.  1.
         12    1    3    3    0    0  0.40587472385E+01  0.26940680385E+02  0.24707160685E+02  0.36779307740E+02  0.00000000000E+00 0. -1.
</event>
<event>
 7    1  0.2468912E-015  0.9000767E+02  0.7816164E-02  0.1186339E+00
        -11   -1    0    0    0    0  0.00000000000E+00  0.00000000000E+00  0.45593999997E+02  0.45594000000E+02  0.51100000000E-03 0.  1.
         11   -1    0    0    0    0 -0.00000000000E+00 -0.00000000000E+00 -0.45593999997E+02  0.45594000000E+02  0.51100000000E-03 0. -1.
    9900012    2    1    2    0    0  0.83467060356E+00 -0.28998674501E+00  0.78256837134E+00  0.90007669290E+02  0.89999929725E+02 0.  0.
         12    1    1    2    0    0 -0.83467060356E+00  0.28998674501E+00 -0.78256837134E+00  0.11803307098E+01  0.00000000000E+00 0. -1.
         11    1    3    3    0    0 -0.75220775394E+01  0.38713793265E+01 -0.37574486615E+01  0.92567623445E+01  0.51100000000E-03 0. -1.
        -11    1    3    3    0    0 -0.33880205229E+02  0.38340413945E+01  0.13790677706E+02  0.36779763072E+02  0.51100000000E-03 0.  1.
         12    1    3    3    0    0  0.42236953372E+02 -0.79954074660E+01 -0.92506606731E+01  0.43971143874E+02  0.00000000000E+00 0. -1.
</event>
<event>
 7    1  0.2468912E-015  0.9000773E+02  0.7816164E-02  0.1186339E+00
        -11   -1    0    0    0    0  0.00000000000E+00  0.00000000000E+00  0.45593999997E+02  0.45594000000E+02  0.51100000000E-03 0.  1.
         11   -1    0    0    0    0 -0.00000000000E+00 -0.00000000000E+00 -0.45593999997E+02  0.45594000000E+02  0.51100000000E-03 0. -1.
    9900012    2    1    2    0    0  0.11637309090E+01  0.14305052444E+00  0.13528934487E+00  0.90007730417E+02  0.89999991659E+02 0.  0.
         12    1    1    2    0    0 -0.11637309090E+01 -0.14305052444E+00 -0.13528934487E+00  0.11802695828E+01  0.00000000000E+00 0. -1.
         11    1    3    3    0    0  0.24521098891E+02 -0.26401023048E+02 -0.12459051233E+02  0.38125139563E+02  0.51100000000E-03 0. -1.
        -11    1    3    3    0    0 -0.19326377180E+01 -0.51868331264E+01 -0.69589649922E+01  0.88918794669E+01  0.51100000000E-03 0.  1.
        -12    1    3    3    0    0 -0.21424730264E+02  0.31730906699E+02  0.19553305570E+02  0.42990711387E+02  0.00000000000E+00 0.  1.
</event>
<event>
 7    1  0.2468912E-015  0.9000776E+02  0.7816164E-02  0.1186339E+00
        -11   -1    0    0    0    0  0.00000000000E+00  0.00000000000E+00  0.45593999997E+02  0.45594000000E+02  0.51100000000E-03 0. -1.
         11   -1    0    0    0    0 -0.00000000000E+00 -0.00000000000E+00 -0.45593999997E+02  0.45594000000E+02  0.51100000000E-03 0.  1.
    9900012    2    1    2    0    0  0.10402143335E+01  0.41873534544E+00 -0.36820021221E+00  0.90007764199E+02  0.90000025887E+02 0.  0.
         12    1    1    2    0    0 -0.10402143335E+01 -0.41873534544E+00  0.36820021221E+00  0.11802358007E+01  0.00000000000E+00 0. -1.
         11    1    3    3    0    0 -0.49241371367E+01 -0.38018539007E+01  0.56992522872E+01  0.84369838519E+01  0.51100000000E-03 0. -1.
        -11    1    3    3    0    0  0.18306465783E+02 -0.35020718965E+02 -0.82797078818E+01  0.40374880919E+02  0.51100000000E-03 0.  1.
         12    1    3    3    0    0 -0.12342114313E+02  0.39241308212E+02  0.22122553824E+01  0.41195899429E+02  0.00000000000E+00 0. -1.
</event>
<event>
 7    1  0.2468912E-015  0.9000771E+02  0.7816164E-02  0.1186339E+00
        -11   -1    0    0    0    0  0.00000000000E+00  0.00000000000E+00  0.45593999997E+02  0.45594000000E+02  0.51100000000E-03 0.  1.
         11   -1    0    0    0    0 -0.00000000000E+00 -0.00000000000E+00 -0.45593999997E+02  0.45594000000E+02  0.51100000000E-03 0. -1.
    9900012    2    1    2    0    0 -0.46847769294E+00  0.60612818231E+00 -0.89789545763E+00  0.90007712334E+02  0.89999973337E+02 0.  0.
         12    1    1    2    0    0  0.46847769294E+00 -0.60612818231E+00  0.89789545763E+00  0.11802876662E+01  0.00000000000E+00 0. -1.
         11    1    3    3    0    0  0.20565195573E+02 -0.81121194043E+01 -0.26402874123E+02  0.34436107684E+02  0.51100000000E-03 0. -1.
        -11    1    3    3    0    0  0.57792579358E+01 -0.39360979052E+01 -0.81373258461E+01  0.10728875113E+02  0.51100000000E-03 0.  1.
        -12    1    3    3    0    0 -0.26812931202E+02  0.12654345492E+02  0.33642304512E+02  0.44842729537E+02  0.00000000000E+00 0.  1.
</event>
<event>
 7    1  0.2468912E-015  0.9000772E+02  0.7816164E-02  0.1186339E+00
        -11   -1    0    0    0    0  0.00000000000E+00  0.00000000000E+00  0.45593999997E+02  0.45594000000E+02  0.51100000000E-03 0. -1.
         11   -1    0    0    0    0 -0.00000000000E+00 -0.00000000000E+00 -0.45593999997E+02  0.45594000000E+02  0.51100000000E-03 0.  1.
    9900012    2    1    2    0    0 -0.35572954220E+00  0.42426253905E+00 -0.10423597452E+01  0.90007722046E+02  0.89999983177E+02 0.  0.
         12    1    1    2    0    0  0.35572954220E+00 -0.42426253905E+00  0.10423597452E+01  0.11802779535E+01  0.00000000000E+00 0. -1.
         11    1    3    3    0    0  0.64039815247E+01 -0.40356253993E+01 -0.75081782218E+01  0.10661613021E+02  0.51100000000E-03 0. -1.
        -11    1    3    3    0    0  0.18023178093E+02 -0.30274623398E+02  0.97296248166E+01  0.36552063824E+02  0.51100000000E-03 0.  1.
         12    1    3    3    0    0 -0.24782889160E+02  0.34734511336E+02 -0.32638063399E+01  0.42794045202E+02  0.00000000000E+00 0. -1.
</event>
<event>
 7    1  0.2468912E-015  0.9000771E+02  0.7816164E-02  0.1186339E+00
        -11   -1    0    0    0    0  0.00000000000E+00  0.00000000000E+00  0.45593999997E+02  0.45594000000E+02  0.51100000000E-03 0.  1.
         11   -1    0    0    0    0 -0.00000000000E+00 -0.00000000000E+00 -0.45593999997E+02  0.45594000000E+02  0.51100000000E-03 0. -1.
    9900012    2    1    2    0    0 -0.68457317366E+00 -0.35396971616E+00  0.89394527596E+00  0.90007714803E+02  0.89999975838E+02 0.  0.
         12    1    1    2    0    0  0.68457317366E+00  0.35396971616E+00 -0.89394527596E+00  0.11802851971E+01  0.00000000000E+00 0. -1.
         11    1    3    3    0    0 -0.94099241880E+01  0.55738206213E+00 -0.40051569326E+01  0.10242003237E+02  0.51100000000E-03 0. -1.
        -11    1    3    3    0    0 -0.24245372159E+02  0.26274611406E+02 -0.44317406733E+01  0.36025457684E+02  0.51100000000E-03 0.  1.
         12    1    3    3    0    0  0.32970723173E+02 -0.27185963184E+02  0.93308428819E+01  0.43740253882E+02  0.00000000000E+00 0. -1.
</event>
<event>
 7    1  0.2468912E-015  0.9000776E+02  0.7816164E-02  0.1186339E+00
        -11   -1    0    0    0    0  0.00000000000E+00  0.00000000000E+00  0.45593999997E+02  0.45594000000E+02  0.51100000000E-03 0. -1.
         11   -1    0    0    0    0 -0.00000000000E+00 -0.00000000000E+00 -0.45593999997E+02  0.45594000000E+02  0.51100000000E-03 0.  1.
    9900012    2    1    2    0    0 -0.72682343045E+00  0.30129872798E+00 -0.87972825137E+00  0.90007756373E+02  0.90000017957E+02 0.  0.
         12    1    1    2    0    0  0.72682343045E+00 -0.30129872798E+00  0.87972825137E+00  0.11802436269E+01  0.00000000000E+00 0. -1.
         11    1    3    3    0    0  0.83784927061E+01 -0.24367241909E+01 -0.31295955958E+01  0.92699047279E+01  0.51100000000E-03 0. -1.
        -11    1    3    3    0    0 -0.23626851122E+02  0.84751802819E+01 -0.33422201169E+02  0.41798328986E+02  0.51100000000E-03 0.  1.
         12    1    3    3    0    0  0.14521534986E+02 -0.57371573629E+01  0.35672068513E+02  0.38939522660E+02  0.00000000000E+00 0. -1.
</event>
<event>
 7    1  0.2468912E-015  0.9000772E+02  0.7816164E-02  0.1186339E+00
        -11   -1    0    0    0    0  0.00000000000E+00  0.00000000000E+00  0.45593999997E+02  0.45594000000E+02  0.51100000000E-03 0.  1.
         11   -1    0    0    0    0 -0.00000000000E+00 -0.00000000000E+00 -0.45593999997E+02  0.45594000000E+02  0.51100000000E-03 0. -1.
    9900012    2    1    2    0    0 -0.40077185125E+00  0.60521031786E+00 -0.93067390909E+00  0.90007723960E+02  0.89999985116E+02 0.  0.
         12    1    1    2    0    0  0.40077185125E+00 -0.60521031786E+00  0.93067390909E+00  0.11802760400E+01  0.00000000000E+00 0. -1.
         11    1    3    3    0    0  0.28715045912E+01 -0.11932317218E+02 -0.39075212154E+02  0.40957269659E+02  0.51100000000E-03 0. -1.
        -11    1    3    3    0    0  0.36209421729E+01  0.11328323716E+02  0.17881726354E+01  0.12026624717E+02  0.51100000000E-03 0.  1.
        -12    1    3    3    0    0 -0.68932186153E+01  0.12092038200E+01  0.36356365609E+02  0.37023829584E+02  0.00000000000E+00 0.  1.
</event>
<event>
 7    1  0.2468912E-015  0.9000772E+02  0.7816164E-02  0.1186339E+00
        -11   -1    0    0    0    0  0.00000000000E+00  0.00000000000E+00  0.45593999997E+02  0.45594000000E+02  0.51100000000E-03 0. -1.
         11   -1    0    0    0    0 -0.00000000000E+00 -0.00000000000E+00 -0.45593999997E+02  0.45594000000E+02  0.51100000000E-03 0.  1.
    9900012    2    1    2    0    0  0.10936422299E+01  0.64124179757E-01 -0.43920009380E+00  0.90007719542E+02  0.89999980640E+02 0.  0.
         12    1    1    2    0    0 -0.10936422299E+01 -0.64124179757E-01  0.43920009380E+00  0.11802804581E+01  0.00000000000E+00 0. -1.
         11    1    3    3    0    0 -0.38772447660E+02  0.24224641456E+01  0.16474107301E+02  0.42196768143E+02  0.51100000000E-03 0. -1.
        -11    1    3    3    0    0  0.78205951765E+01 -0.10875414836E+01  0.46516067172E+01  0.91641639393E+01  0.51100000000E-03 0.  1.
        -12    1    3    3    0    0  0.32045494714E+02 -0.12707984823E+01 -0.21564914112E+02  0.38646787459E+02  0.00000000000E+00 0.  1.
</event>
<event>
 7    1  0.2468912E-015  0.9000775E+02  0.7816164E-02  0.1186339E+00
        -11   -1    0    0    0    0  0.00000000000E+00  0.00000000000E+00  0.45593999997E+02  0.45594000000E+02  0.51100000000E-03 0.  1.
         11   -1    0    0    0    0 -0.00000000000E+00 -0.00000000000E+00 -0.45593999997E+02  0.45594000000E+02  0.51100000000E-03 0. -1.
    9900012    2    1    2    0    0 -0.31377776640E+00 -0.10367274064E+01  0.46874412008E+00  0.90007753732E+02  0.90000015282E+02 0.  0.
         12    1    1    2    0    0  0.31377776640E+00  0.10367274064E+01 -0.46874412008E+00  0.11802462675E+01  0.00000000000E+00 0. -1.
         11    1    3    3    0    0 -0.25439753474E+02  0.20279463567E+02  0.53122387698E+01  0.32964489688E+02  0.51100000000E-03 0. -1.
        -11    1    3    3    0    0 -0.98186651601E+01  0.28869326375E+01  0.76044873752E+01  0.12750246824E+02  0.51100000000E-03 0.  1.
        -12    1    3    3    0    0  0.34944640868E+02 -0.24203123611E+02 -0.12447982025E+02  0.44293017220E+02  0.00000000000E+00 0.  1.
</event>
<event>
 7    1  0.2468912E-015  0.9000773E+02  0.7816164E-02  0.1186339E+00
        -11   -1    0    0    0    0  0.00000000000E+00  0.00000000000E+00  0.45593999997E+02  0.45594000000E+02  0.51100000000E-03 0.  1.
         11   -1    0    0    0    0 -0.00000000000E+00 -0.00000000000E+00 -0.45593999997E+02  0.45594000000E+02  0.51100000000E-03 0. -1.
    9900012    2    1    2    0    0 -0.44111995707E+00  0.10841385527E+01 -0.15192874109E+00  0.90007734962E+02  0.89999996263E+02 0.  0.
         12    1    1    2    0    0  0.44111995707E+00 -0.10841385527E+01  0.15192874109E+00  0.11802650381E+01  0.00000000000E+00 0. -1.
         11    1    3    3    0    0  0.74468772300E+01 -0.52956614906E+01  0.10388529021E+02  0.13835517576E+02  0.51100000000E-03 0. -1.
        -11    1    3    3    0    0 -0.16985740060E+02 -0.13338302221E+02  0.25917834546E+02  0.33736624303E+02  0.51100000000E-03 0.  1.
         12    1    3    3    0    0  0.90977428730E+01  0.19718102264E+02 -0.36458292308E+02  0.42435593083E+02  0.00000000000E+00 0. -1.
</event>
<event>
 7    1  0.2468912E-015  0.9000775E+02  0.7816164E-02  0.1186339E+00
        -11   -1    0    0    0    0  0.00000000000E+00  0.00000000000E+00  0.45593999997E+02  0.45594000000E+02  0.51100000000E-03 0. -1.
         11   -1    0    0    0    0 -0.00000000000E+00 -0.00000000000E+00 -0.45593999997E+02  0.45594000000E+02  0.51100000000E-03 0.  1.
    9900012    2    1    2    0    0 -0.20103339833E+00 -0.11276690372E+01 -0.28447991649E+00  0.90007753963E+02  0.90000015515E+02 0.  0.
         12    1    1    2    0    0  0.20103339833E+00  0.11276690372E+01  0.28447991649E+00  0.11802460369E+01  0.00000000000E+00 0. -1.
         11    1    3    3    0    0  0.26043986143E+02  0.11141672643E+02  0.22535731291E+02  0.36197862763E+02  0.51100000000E-03 0. -1.
        -11    1    3    3    0    0  0.84596449262E+01 -0.11031479306E+02 -0.49650168163E+01  0.14761792581E+02  0.51100000000E-03 0.  1.
        -12    1    3    3    0    0 -0.34704664467E+02 -0.12378623746E+01 -0.17855194392E+02  0.39048098620E+02  0.00000000000E+00 0.  1.
</event>
<event>
 7    1  0.2468912E-015  0.9000780E+02  0.7816164E-02  0.1186339E+00
        -11   -1    0    0    0    0  0.00000000000E+00  0.00000000000E+00  0.45593999997E+02  0.45594000000E+02  0.51100000000E-03 0.  1.
         11   -1    0    0    0    0 -0.00000000000E+00 -0.00000000000E+00 -0.45593999997E+02  0.45594000000E+02  0.51100000000E-03 0. -1.
    9900012    2    1    2    0    0 -0.55595139162E+00  0.52016485161E+00  0.90178930121E+00  0.90007797743E+02  0.90000059874E+02 0.  0.
         12    1    1    2    0    0  0.55595139162E+00 -0.52016485161E+00 -0.90178930121E+00  0.11802022566E+01  0.00000000000E+00 0. -1.
         11    1    3    3    0    0  0.53051885938E+00 -0.35072511124E+01  0.90070778486E+01  0.96803776918E+01  0.51100000000E-03 0. -1.
        -11    1    3    3    0    0 -0.19107222295E+02 -0.27279346076E+01  0.31129058817E+02  0.36627119381E+02  0.51100000000E-03 0.  1.
         12    1    3    3    0    0  0.18020752044E+02  0.67553505715E+01 -0.39234347364E+02  0.43700300670E+02  0.00000000000E+00 0. -1.
</event>
<event>
 7    1  0.2468912E-015  0.9000765E+02  0.7816164E-02  0.1186339E+00
        -11   -1    0    0    0    0  0.00000000000E+00  0.00000000000E+00  0.45593999997E+02  0.45594000000E+02  0.51100000000E-03 0.  1.
         11   -1    0    0    0    0 -0.00000000000E+00 -0.00000000000E+00 -0.45593999997E+02  0.45594000000E+02  0.51100000000E-03 0. -1.
    9900012    2    1    2    0    0 -0.63613501301E+00 -0.57507317147E+00  0.81107373485E+00  0.90007653648E+02  0.89999913876E+02 0.  0.
         12    1    1    2    0    0  0.63613501301E+00  0.57507317147E+00 -0.81107373485E+00  0.11803463520E+01  0.00000000000E+00 0. -1.
         11    1    3    3    0    0  0.59321557664E+01  0.10052105474E+02 -0.18311341544E+01  0.11814751332E+02  0.51100000000E-03 0. -1.
        -11    1    3    3    0    0 -0.31168204092E+02  0.20956262471E+02  0.59353136532E+01  0.38024332098E+02  0.51100000000E-03 0.  1.
         12    1    3    3    0    0  0.24599913313E+02 -0.31583441116E+02 -0.32931057639E+01  0.40168570217E+02  0.00000000000E+00 0. -1.
</event>
<event>
 7    1  0.2468912E-015  0.9000770E+02  0.7816164E-02  0.1186339E+00
        -11   -1    0    0    0    0  0.00000000000E+00  0.00000000000E+00  0.45593999997E+02  0.45594000000E+02  0.51100000000E-03 0. -1.
         11   -1    0    0    0    0 -0.00000000000E+00 -0.00000000000E+00 -0.45593999997E+02  0.45594000000E+02  0.51100000000E-03 0.  1.
    9900012    2    1    2    0    0  0.76482415635E+00 -0.83089760288E+00 -0.34315880238E+00  0.90007701402E+02  0.89999962261E+02 0.  0.
         12    1    1    2    0    0 -0.76482415635E+00  0.83089760288E+00  0.34315880238E+00  0.11802985979E+01  0.00000000000E+00 0. -1.
         11    1    3    3    0    0  0.18706959077E+02 -0.25065722178E+02 -0.15394024542E+02  0.34859958951E+02  0.51100000000E-03 0. -1.
        -11    1    3    3    0    0  0.12562689064E+00  0.91192266826E+01 -0.14639118179E+02  0.17247604435E+02  0.51100000000E-03 0.  1.
        -12    1    3    3    0    0 -0.18067761812E+02  0.15115597893E+02  0.29689983919E+02  0.37900138016E+02  0.00000000000E+00 0.  1.
</event>
<event>
 7    1  0.2468912E-015  0.9000759E+02  0.7816164E-02  0.1186339E+00
        -11   -1    0    0    0    0  0.00000000000E+00  0.00000000000E+00  0.45593999997E+02  0.45594000000E+02  0.51100000000E-03 0.  1.
         11   -1    0    0    0    0 -0.00000000000E+00 -0.00000000000E+00 -0.45593999997E+02  0.45594000000E+02  0.51100000000E-03 0. -1.
    9900012    2    1    2    0    0 -0.26067225010E+00  0.45337059888E+00  0.10582409146E+01  0.90007589582E+02  0.89999848964E+02 0.  0.
         12    1    1    2    0    0  0.26067225010E+00 -0.45337059888E+00 -0.10582409146E+01  0.11804104181E+01  0.00000000000E+00 0. -1.
         11    1    3    3    0    0  0.27841244587E+02  0.17379024043E+02 -0.20076938605E+02  0.38474002142E+02  0.51100000000E-03 0. -1.
        -11    1    3    3    0    0 -0.50369678064E+00 -0.91786631022E+01 -0.68569435256E+01  0.11468183883E+02  0.51100000000E-03 0.  1.
        -12    1    3    3    0    0 -0.27598220056E+02 -0.77469903419E+01  0.27992123045E+02  0.40065403557E+02  0.00000000000E+00 0.  1.
</event>
<event>
 7    1  0.2468912E-015  0.9000773E+02  0.7816164E-02  0.1186339E+00
        -11   -1    0    0    0    0  0.00000000000E+00  0.00000000000E+00  0.45593999997E+02  0.45594000000E+02  0.51100000000E-03 0.  1.
         11   -1    0    0    0    0 -0.00000000000E+00 -0.00000000000E+00 -0.45593999997E+02  0.45594000000E+02  0.51100000000E-03 0. -1.
    9900012    2    1    2    0    0 -0.38942157730E-01  0.11754752813E+01 -0.98864573950E-01  0.90007731881E+02  0.89999993142E+02 0.  0.
         12    1    1    2    0    0  0.38942157730E-01 -0.11754752813E+01  0.98864573950E-01  0.11802681190E+01  0.00000000000E+00 0. -1.
         11    1    3    3    0    0  0.63124155193E+01 -0.42137343327E+01  0.61062194891E+01  0.97410504272E+01  0.51100000000E-03 0. -1.
        -11    1    3    3    0    0  0.10574993675E+02  0.20243193215E+02  0.29954337699E+02  0.37668019725E+02  0.51100000000E-03 0.  1.
         12    1    3    3    0    0 -0.16926351352E+02 -0.14853983600E+02 -0.36159421762E+02  0.42598661729E+02  0.00000000000E+00 0. -1.
</event>
<event>
 7    1  0.2468912E-015  0.9000775E+02  0.7816164E-02  0.1186339E+00
        -11   -1    0    0    0    0  0.00000000000E+00  0.00000000000E+00  0.45593999997E+02  0.45594000000E+02  0.51100000000E-03 0. -1.
         11   -1    0    0    0    0 -0.00000000000E+00 -0.00000000000E+00 -0.45593999997E+02  0.45594000000E+02  0.51100000000E-03 0.  1.
    9900012    2    1    2    0    0  0.84342751038E+00  0.79503829491E+00  0.22256809497E+00  0.90007749004E+02  0.90000010491E+02 0.  0.
         12    1    1    2    0    0 -0.84342751038E+00 -0.79503829491E+00 -0.22256809497E+00  0.11802509956E+01  0.00000000000E+00 0. -1.
         11    1    3    3    0    0  0.10913533945E+02  0.26263711861E+01 -0.36863716478E+01  0.11814922131E+02  0.51100000000E-03 0. -1.
        -11    1    3    3    0    0  0.18442294191E+02  0.12507773872E+02 -0.26146028747E+02  0.34353710742E+02  0.51100000000E-03 0.  1.
         12    1    3    3    0    0 -0.28512400626E+02 -0.14339106763E+02  0.30054968490E+02  0.43839116131E+02  0.00000000000E+00 0. -1.
</event>
<event>
 7    1  0.2468912E-015  0.9000774E+02  0.7816164E-02  0.1186339E+00
        -11   -1    0    0    0    0  0.00000000000E+00  0.00000000000E+00  0.45593999997E+02  0.45594000000E+02  0.51100000000E-03 0.  1.
         11   -1    0    0    0    0 -0.00000000000E+00 -0.00000000000E+00 -0.45593999997E+02  0.45594000000E+02  0.51100000000E-03 0. -1.
    9900012    2    1    2    0    0 -0.82180602480E+00  0.76648930235E+00  0.36073870610E+00  0.90007744347E+02  0.90000005772E+02 0.  0.
         12    1    1    2    0    0  0.82180602480E+00 -0.76648930235E+00 -0.36073870610E+00  0.11802556533E+01  0.00000000000E+00 0. -1.
         11    1    3    3    0    0 -0.52318549942E+01  0.25773831345E+02  0.17192796881E+02  0.31420613516E+02  0.51100000000E-03 0. -1.
        -11    1    3    3    0    0  0.49600497535E+01 -0.27493937289E+02  0.11448239312E+02  0.30192397467E+02  0.51100000000E-03 0.  1.
         12    1    3    3    0    0 -0.55000078412E+00  0.24865952467E+01 -0.28280297488E+02  0.28394733363E+02  0.00000000000E+00 0. -1.
</event>
<event>
 7    1  0.2468912E-015  0.9000758E+02  0.7816164E-02  0.1186339E+00
        -11   -1    0    0    0    0  0.00000000000E+00  0.00000000000E+00  0.45593999997E+02  0.45594000000E+02  0.51100000000E-03 0.  1.
         11   -1    0    0    0    0 -0.00000000000E+00 -0.00000000000E+00 -0.45593999997E+02  0.45594000000E+02  0.51100000000E-03 0. -1.
    9900012    2    1    2    0    0  0.12308120861E-01 -0.11167910252E+01 -0.38210977458E+00  0.90007584156E+02  0.89999843467E+02 0.  0.
         12    1    1    2    0    0 -0.12308120861E-01  0.11167910252E+01  0.38210977458E+00  0.11804158436E+01  0.00000000000E+00 0. -1.
         11    1    3    3    0    0 -0.40916333321E+01 -0.41894299724E+01  0.18117085897E+02  0.19039999697E+02  0.51100000000E-03 0. -1.
        -11    1    3    3    0    0 -0.13899314565E+02 -0.16294768874E+02  0.16546905597E+02  0.27064931611E+02  0.51100000000E-03 0.  1.
         12    1    3    3    0    0  0.18003256018E+02  0.19367407821E+02 -0.35046101268E+02  0.43902652848E+02  0.00000000000E+00 0. -1.
</event>
<event>
 7    1  0.2468912E-015  0.9000764E+02  0.7816164E-02  0.1186339E+00
        -11   -1    0    0    0    0  0.00000000000E+00  0.00000000000E+00  0.45593999997E+02  0.45594000000E+02  0.51100000000E-03 0. -1.
         11   -1    0    0    0    0 -0.00000000000E+00 -0.00000000000E+00 -0.45593999997E+02  0.45594000000E+02  0.51100000000E-03 0.  1.
    9900012    2    1    2    0    0 -0.53022767901E+00  0.43639335723E+00 -0.96004196473E+00  0.90007635172E+02  0.89999895156E+02 0.  0.
         12    1    1    2    0    0  0.53022767901E+00 -0.43639335723E+00  0.96004196473E+00  0.11803648283E+01  0.00000000000E+00 0. -1.
         11    1    3    3    0    0  0.40223157173E+02 -0.97363760159E+01 -0.74879897530E+00  0.41391546130E+02  0.51100000000E-03 0. -1.
        -11    1    3    3    0    0 -0.30602761651E+01  0.46110578805E+00 -0.83019186822E+01  0.88600091885E+01  0.51100000000E-03 0.  1.
        -12    1    3    3    0    0 -0.37693108687E+02  0.97116635850E+01  0.80906756927E+01  0.39756079853E+02  0.00000000000E+00 0.  1.
</event>
<event>
 7    1  0.2468912E-015  0.9000762E+02  0.7816164E-02  0.1186339E+00
        -11   -1    0    0    0    0  0.00000000000E+00  0.00000000000E+00  0.45593999997E+02  0.45594000000E+02  0.51100000000E-03 0.  1.
         11   -1    0    0    0    0 -0.00000000000E+00 -0.00000000000E+00 -0.45593999997E+02  0.45594000000E+02  0.51100000000E-03 0. -1.
    9900012    2    1    2    0    0  0.56960791663E+00  0.91911681986E-01  0.10297583137E+01  0.90007617384E+02  0.89999877133E+02 0.  0.
         12    1    1    2    0    0 -0.56960791663E+00 -0.91911681986E-01 -0.10297583137E+01  0.11803826162E+01  0.00000000000E+00 0. -1.
         11    1    3    3    0    0  0.52763146589E+01 -0.22753951895E+00 -0.90336495226E+01  0.10464133723E+02  0.51100000000E-03 0. -1.
        -11    1    3    3    0    0 -0.39167170179E+01  0.35399800960E+02 -0.12591717069E+02  0.37776155431E+02  0.51100000000E-03 0.  1.
         12    1    3    3    0    0 -0.78998972435E+00 -0.35080349759E+02  0.22655124905E+02  0.41767328229E+02  0.00000000000E+00 0. -1.
</event>
<event>
 7    1  0.2468912E-015  0.9000769E+02  0.7816164E-02  0.1186339E+00
        -11   -1    0    0    0    0  0.00000000000E+00  0.00000000000E+00  0.45593999997E+02  0.45594000000E+02  0.51100000000E-03 0.  1.
         11   -1    0    0    0    0 -0.00000000000E+00 -0.00000000000E+00 -0.45593999997E+02  0.45594000000E+02  0.51100000000E-03 0. -1.
    9900012    2    1    2    0    0 -0.62814444747E+00  0.98825133652E+00  0.14805758054E+00  0.90007691905E+02  0.89999952639E+02 0.  0.
         12    1    1    2    0    0  0.62814444747E+00 -0.98825133652E+00 -0.14805758054E+00  0.11803080946E+01  0.00000000000E+00 0. -1.
         11    1    3    3    0    0  0.95572799224E+00 -0.41590856961E+02 -0.11790838646E+01  0.41618541995E+02  0.51100000000E-03 0. -1.
        -11    1    3    3    0    0  0.42431145783E+01  0.49176142611E+01  0.73476936815E+01  0.98069135840E+01  0.51100000000E-03 0.  1.
        -12    1    3    3    0    0 -0.58269870180E+01  0.37661494036E+02 -0.60205522364E+01  0.38582236327E+02  0.00000000000E+00 0.  1.
</event>
<event>
 7    1  0.2468912E-015  0.9000782E+02  0.7816164E-02  0.1186339E+00
        -11   -1    0    0    0    0  0.00000000000E+00  0.00000000000E+00  0.45593999997E+02  0.45594000000E+02  0.51100000000E-03 0. -1.
         11   -1    0    0    0    0 -0.00000000000E+00 -0.00000000000E+00 -0.45593999997E+02  0.45594000000E+02  0.51100000000E-03 0.  1.
    9900012    2    1    2    0    0 -0.84893300643E+00  0.78148312799E+00 -0.24782480590E+00  0.90007821936E+02  0.90000084385E+02 0.  0.
         12    1    1    2    0    0  0.84893300643E+00 -0.78148312799E+00  0.24782480590E+00  0.11801780642E+01  0.00000000000E+00 0. -1.
         11    1    3    3    0    0  0.93495727674E+01 -0.10476818055E+00 -0.28188056645E+01  0.97658155287E+01  0.51100000000E-03 0. -1.
        -11    1    3    3    0    0 -0.33278439699E+02  0.28480683474E+02  0.55147264907E+01  0.44147662322E+02  0.51100000000E-03 0.  1.
         12    1    3    3    0    0  0.23079933926E+02 -0.27594432166E+02 -0.29437456321E+01  0.36094344085E+02  0.00000000000E+00 0. -1.
</event>
<event>
 7    1  0.2468912E-015  0.9000773E+02  0.7816164E-02  0.1186339E+00
        -11   -1    0    0    0    0  0.00000000000E+00  0.00000000000E+00  0.45593999997E+02  0.45594000000E+02  0.51100000000E-03 0.  1.
         11   -1    0    0    0    0 -0.00000000000E+00 -0.00000000000E+00 -0.45593999997E+02  0.45594000000E+02  0.51100000000E-03 0. -1.
    9900012    2    1    2    0    0 -0.36416158496E+00  0.92146869777E+00  0.64134683127E+00  0.90007727159E+02  0.89999988358E+02 0.  0.
         12    1    1    2    0    0  0.36416158496E+00 -0.92146869777E+00 -0.64134683127E+00  0.11802728409E+01  0.00000000000E+00 0. -1.
         11    1    3    3    0    0  0.18988450559E+02 -0.31883095235E+01 -0.32948018500E+02  0.38161479211E+02  0.51100000000E-03 0. -1.
        -11    1    3    3    0    0  0.62385158607E+01 -0.62070830605E+01  0.57436268034E+00  0.88191186076E+01  0.51100000000E-03 0.  1.
        -12    1    3    3    0    0 -0.25591128005E+02  0.10316861282E+02  0.33015002651E+02  0.43027129341E+02  0.00000000000E+00 0.  1.
</event>
<event>
 7    1  0.2468912E-015  0.9000772E+02  0.7816164E-02  0.1186339E+00
        -11   -1    0    0    0    0  0.00000000000E+00  0.00000000000E+00  0.45593999997E+02  0.45594000000E+02  0.51100000000E-03 0.  1.
         11   -1    0    0    0    0 -0.00000000000E+00 -0.00000000000E+00 -0.45593999997E+02  0.45594000000E+02  0.51100000000E-03 0. -1.
    9900012    2    1    2    0    0 -0.27279465070E+00  0.95484360918E+00  0.63789282558E+00  0.90007724398E+02  0.89999985560E+02 0.  0.
         12    1    1    2    0    0  0.27279465070E+00 -0.95484360918E+00 -0.63789282558E+00  0.11802756019E+01  0.00000000000E+00 0. -1.
         11    1    3    3    0    0 -0.17644794577E+01  0.10101838403E+02 -0.53673479085E-01  0.10254921160E+02  0.51100000000E-03 0. -1.
        -11    1    3    3    0    0 -0.11279984371E+02 -0.42413254284E+02 -0.26188638347E+01  0.43965675640E+02  0.51100000000E-03 0.  1.
         12    1    3    3    0    0  0.12771669178E+02  0.33266259490E+02  0.33104301393E+01  0.35787127599E+02  0.00000000000E+00 0. -1.
</event>
<event>
 7    1  0.2468912E-015  0.9000773E+02  0.7816164E-02  0.1186339E+00
        -11   -1    0    0    0    0  0.00000000000E+00  0.00000000000E+00  0.45593999997E+02  0.45594000000E+02  0.51100000000E-03 0.  1.
         11   -1    0    0    0    0 -0.00000000000E+00 -0.00000000000E+00 -0.45593999997E+02  0.45594000000E+02  0.51100000000E-03 0. -1.
    9900012    2    1    2    0    0  0.90583815035E+00 -0.28649726179E+00  0.70028737184E+00  0.90007734844E+02  0.89999996144E+02 0.  0.
         12    1    1    2    0    0 -0.90583815035E+00  0.28649726179E+00 -0.70028737184E+00  0.11802651561E+01  0.00000000000E+00 0. -1.
         11    1    3    3    0    0  0.35536737368E+02  0.25944618808E+01  0.12811575130E+02  0.37864592864E+02  0.51100000000E-03 0. -1.
        -11    1    3    3    0    0  0.35458724220E+01  0.91285542918E+01  0.14219551320E+01  0.98957400607E+01  0.51100000000E-03 0.  1.
        -12    1    3    3    0    0 -0.38176771640E+02 -0.12009513434E+02 -0.13533242890E+02  0.42247401919E+02  0.00000000000E+00 0.  1.
</event>
<event>
 7    1  0.2468912E-015  0.9000774E+02  0.7816164E-02  0.1186339E+00
        -11   -1    0    0    0    0  0.00000000000E+00  0.00000000000E+00  0.45593999997E+02  0.45594000000E+02  0.51100000000E-03 0.  1.
         11   -1    0    0    0    0 -0.00000000000E+00 -0.00000000000E+00 -0.45593999997E+02  0.45594000000E+02  0.51100000000E-03 0. -1.
    9900012    2    1    2    0    0  0.63906975849E+00 -0.30812212766E+00  0.94322334485E+00  0.90007737453E+02  0.89999998787E+02 0.  0.
         12    1    1    2    0    0 -0.63906975849E+00  0.30812212766E+00 -0.94322334485E+00  0.11802625471E+01  0.00000000000E+00 0. -1.
         11    1    3    3    0    0 -0.25392744209E+02 -0.25679618160E+02  0.26691702182E+01  0.36212687241E+02  0.51100000000E-03 0. -1.
        -11    1    3    3    0    0  0.19215877526E+01 -0.10049858473E+02  0.30615670961E+01  0.10680138022E+02  0.51100000000E-03 0.  1.
        -12    1    3    3    0    0  0.24110226215E+02  0.35421354505E+02 -0.47875139695E+01  0.43114912190E+02  0.00000000000E+00 0.  1.
</event>
<event>
 7    1  0.2468912E-015  0.9000780E+02  0.7816164E-02  0.1186339E+00
        -11   -1    0    0    0    0  0.00000000000E+00  0.00000000000E+00  0.45593999997E+02  0.45594000000E+02  0.51100000000E-03 0. -1.
         11   -1    0    0    0    0 -0.00000000000E+00 -0.00000000000E+00 -0.45593999997E+02  0.45594000000E+02  0.51100000000E-03 0.  1.
    9900012    2    1    2    0    0  0.54557018420E+00  0.23789067362E+00 -0.10191378731E+01  0.90007796288E+02  0.90000058399E+02 0.  0.
         12    1    1    2    0    0 -0.54557018420E+00 -0.23789067362E+00  0.10191378731E+01  0.11802037124E+01  0.00000000000E+00 0. -1.
         11    1    3    3    0    0  0.32914204345E+01  0.66538119105E+01  0.44380008659E+01  0.86488446260E+01  0.51100000000E-03 0. -1.
        -11    1    3    3    0    0 -0.35214936421E+02  0.52383750857E+01 -0.23271542582E+02  0.42533481107E+02  0.51100000000E-03 0.  1.
         12    1    3    3    0    0  0.32469086171E+02 -0.11654296323E+02  0.17814403843E+02  0.38825470555E+02  0.00000000000E+00 0. -1.
</event>
<event>
 7    1  0.2468912E-015  0.9000736E+02  0.7816164E-02  0.1186340E+00
        -11   -1    0    0    0    0  0.00000000000E+00  0.00000000000E+00  0.45593999997E+02  0.45594000000E+02  0.51100000000E-03 0. -1.
         11   -1    0    0    0    0 -0.00000000000E+00 -0.00000000000E+00 -0.45593999997E+02  0.45594000000E+02  0.51100000000E-03 0.  1.
    9900012    2    1    2    0    0 -0.70565233546E+00 -0.11989710204E+00 -0.93893296764E+00  0.90007357950E+02  0.89999614274E+02 0.  0.
         12    1    1    2    0    0  0.70565233546E+00  0.11989710204E+00  0.93893296764E+00  0.11806420505E+01  0.00000000000E+00 0. -1.
         11    1    3    3    0    0 -0.28506721734E+02  0.55505373351E+01  0.52784900018E+00  0.29046863403E+02  0.51100000000E-03 0. -1.
        -11    1    3    3    0    0  0.58451482837E+01 -0.98685910327E+01 -0.25608027459E+02  0.28059328539E+02  0.51100000000E-03 0.  1.
         12    1    3    3    0    0  0.21955921115E+02  0.41981565956E+01  0.24141245492E+02  0.32901166008E+02  0.00000000000E+00 0. -1.
</event>
<event>
 7    1  0.2468912E-015  0.9000769E+02  0.7816164E-02  0.1186339E+00
        -11   -1    0    0    0    0  0.00000000000E+00  0.00000000000E+00  0.45593999997E+02  0.45594000000E+02  0.51100000000E-03 0.  1.
         11   -1    0    0    0    0 -0.00000000000E+00 -0.00000000000E+00 -0.45593999997E+02  0.45594000000E+02  0.51100000000E-03 0. -1.
    9900012    2    1    2    0    0 -0.93373242889E+00  0.22164589515E+00 -0.68712306803E+00  0.90007694420E+02  0.89999955186E+02 0.  0.
         12    1    1    2    0    0  0.93373242889E+00 -0.22164589515E+00  0.68712306803E+00  0.11803055800E+01  0.00000000000E+00 0. -1.
         11    1    3    3    0    0 -0.60537660413E+01 -0.65758606345E+01 -0.43151592265E+01  0.99252519252E+01  0.51100000000E-03 0. -1.
        -11    1    3    3    0    0 -0.66054064365E+01  0.65104116216E+01  0.40417807350E+02  0.41468252976E+02  0.51100000000E-03 0.  1.
         12    1    3    3    0    0  0.11725440049E+02  0.28709490811E+00 -0.36789771192E+02  0.38614189518E+02  0.00000000000E+00 0. -1.
</event>
<event>
 7    1  0.2468912E-015  0.9000775E+02  0.7816164E-02  0.1186339E+00
        -11   -1    0    0    0    0  0.00000000000E+00  0.00000000000E+00  0.45593999997E+02  0.45594000000E+02  0.51100000000E-03 0. -1.
         11   -1    0    0    0    0 -0.00000000000E+00 -0.00000000000E+00 -0.45593999997E+02  0.45594000000E+02  0.51100000000E-03 0.  1.
    9900012    2    1    2    0    0 -0.20987981436E+00  0.10766233780E+01  0.43569804086E+00  0.90007745698E+02  0.90000007141E+02 0.  0.
         12    1    1    2    0    0  0.20987981436E+00 -0.10766233780E+01 -0.43569804086E+00  0.11802543020E+01  0.00000000000E+00 0. -1.
         11    1    3    3    0    0 -0.58195375888E+01  0.81825191656E+01 -0.20268503728E+01  0.10243474037E+02  0.51100000000E-03 0. -1.
        -11    1    3    3    0    0 -0.16945008324E+02 -0.81192382908E+01 -0.32854063707E+02  0.37847653030E+02  0.51100000000E-03 0.  1.
         12    1    3    3    0    0  0.22554666098E+02  0.10133425031E+01  0.35316612121E+02  0.41916618632E+02  0.00000000000E+00 0. -1.
</event>
<event>
 7    1  0.2468912E-015  0.9000771E+02  0.7816164E-02  0.1186339E+00
        -11   -1    0    0    0    0  0.00000000000E+00  0.00000000000E+00  0.45593999997E+02  0.45594000000E+02  0.51100000000E-03 0.  1.
         11   -1    0    0    0    0 -0.00000000000E+00 -0.00000000000E+00 -0.45593999997E+02  0.45594000000E+02  0.51100000000E-03 0. -1.
    9900012    2    1    2    0    0  0.90345011320E+00 -0.75853527257E+00 -0.38418177408E-01  0.90007714516E+02  0.89999975548E+02 0.  0.
         12    1    1    2    0    0 -0.90345011320E+00  0.75853527257E+00  0.38418177408E-01  0.11802854837E+01  0.00000000000E+00 0. -1.
         11    1    3    3    0    0  0.25901755791E+02 -0.28817239394E+02 -0.16651551378E+02  0.42173550987E+02  0.51100000000E-03 0. -1.
        -11    1    3    3    0    0 -0.79823253329E+01 -0.37001271592E+01  0.39415523379E+01  0.96407620969E+01  0.51100000000E-03 0.  1.
        -12    1    3    3    0    0 -0.17015980345E+02  0.31758831280E+02  0.12671580862E+02  0.38193401432E+02  0.00000000000E+00 0.  1.
</event>
<event>
 7    1  0.2468912E-015  0.9000776E+02  0.7816164E-02  0.1186339E+00
        -11   -1    0    0    0    0  0.00000000000E+00  0.00000000000E+00  0.45593999997E+02  0.45594000000E+02  0.51100000000E-03 0. -1.
         11   -1    0    0    0    0 -0.00000000000E+00 -0.00000000000E+00 -0.45593999997E+02  0.45594000000E+02  0.51100000000E-03 0.  1.
    9900012    2    1    2    0    0  0.94262905915E+00 -0.15255950508E+00 -0.69364500429E+00  0.90007759627E+02  0.90000021254E+02 0.  0.
         12    1    1    2    0    0 -0.94262905915E+00  0.15255950508E+00  0.69364500429E+00  0.11802403729E+01  0.00000000000E+00 0. -1.
         11    1    3    3    0    0  0.26333319658E+01  0.69657862739E+01 -0.60055940071E+01  0.95668059088E+01  0.51100000000E-03 0. -1.
        -11    1    3    3    0    0 -0.90309800627E+00 -0.12234566313E+01 -0.37342720849E+02  0.37373670315E+02  0.51100000000E-03 0.  1.
         12    1    3    3    0    0 -0.78760490036E+00 -0.58948891477E+01  0.42654669852E+02  0.43067283403E+02  0.00000000000E+00 0. -1.
</event>
<event>
 7    1  0.2468912E-015  0.9000751E+02  0.7816164E-02  0.1186339E+00
        -11   -1    0    0    0    0  0.00000000000E+00  0.00000000000E+00  0.45593999997E+02  0.45594000000E+02  0.51100000000E-03 0.  1.
         11   -1    0    0    0    0 -0.00000000000E+00 -0.00000000000E+00 -0.45593999997E+02  0.45594000000E+02  0.51100000000E-03 0. -1.
    9900012    2    1    2    0    0  0.11414419681E+01 -0.27792812661E+00 -0.11582037309E+00  0.90007513588E+02  0.89999771967E+02 0.  0.
         12    1    1    2    0    0 -0.11414419681E+01  0.27792812661E+00  0.11582037309E+00  0.11804864120E+01  0.00000000000E+00 0. -1.
         11    1    3    3    0    0  0.32169975491E+02  0.46131298541E+01 -0.24818205163E+02  0.40891705735E+02  0.51100000000E-03 0. -1.
        -11    1    3    3    0    0 -0.35996774885E+00  0.86616769670E+01  0.29912245506E+01  0.91706951336E+01  0.51100000000E-03 0.  1.
        -12    1    3    3    0    0 -0.30668565774E+02 -0.13552734948E+02  0.21711160239E+02  0.39945112719E+02  0.00000000000E+00 0.  1.
</event>
<event>
 7    1  0.2468912E-015  0.9000784E+02  0.7816164E-02  0.1186339E+00
        -11   -1    0    0    0    0  0.00000000000E+00  0.00000000000E+00  0.45593999997E+02  0.45594000000E+02  0.51100000000E-03 0.  1.
         11   -1    0    0    0    0 -0.00000000000E+00 -0.00000000000E+00 -0.45593999997E+02  0.45594000000E+02  0.51100000000E-03 0. -1.
    9900012    2    1    2    0    0 -0.34940435585E+00 -0.52815214017E+00  0.99586045698E+00  0.90007844867E+02  0.90000107620E+02 0.  0.
         12    1    1    2    0    0  0.34940435585E+00  0.52815214017E+00 -0.99586045698E+00  0.11801551325E+01  0.00000000000E+00 0. -1.
         11    1    3    3    0    0  0.62394871460E+01 -0.34025895337E+02 -0.18091607188E+02  0.39038429838E+02  0.51100000000E-03 0. -1.
        -11    1    3    3    0    0  0.23107025996E+01  0.28055667432E+01  0.18659437871E+02  0.19010133434E+02  0.51100000000E-03 0.  1.
        -12    1    3    3    0    0 -0.88995941014E+01  0.30692176453E+02  0.42802977340E+00  0.31959281595E+02  0.00000000000E+00 0.  1.
</event>
<event>
 7    1  0.2468912E-015  0.9000779E+02  0.7816164E-02  0.1186339E+00
        -11   -1    0    0    0    0  0.00000000000E+00  0.00000000000E+00  0.45593999997E+02  0.45594000000E+02  0.51100000000E-03 0.  1.
         11   -1    0    0    0    0 -0.00000000000E+00 -0.00000000000E+00 -0.45593999997E+02  0.45594000000E+02  0.51100000000E-03 0. -1.
    9900012    2    1    2    0    0  0.78770768946E+00 -0.59028034256E+00  0.65113192000E+00  0.90007793635E+02  0.90000055711E+02 0.  0.
         12    1    1    2    0    0 -0.78770768946E+00  0.59028034256E+00 -0.65113192000E+00  0.11802063650E+01  0.00000000000E+00 0. -1.
         11    1    3    3    0    0 -0.14412096232E+02 -0.70862437154E+01 -0.40141274148E+02  0.43234769090E+02  0.51100000000E-03 0. -1.
        -11    1    3    3    0    0  0.38835211096E+01 -0.19290076211E+01  0.85864847141E+00  0.44204167303E+01  0.51100000000E-03 0.  1.
        -12    1    3    3    0    0  0.11316282812E+02  0.84249709939E+01  0.39933757597E+02  0.42352607815E+02  0.00000000000E+00 0.  1.
</event>
<event>
 7    1  0.2468912E-015  0.9000774E+02  0.7816164E-02  0.1186339E+00
        -11   -1    0    0    0    0  0.00000000000E+00  0.00000000000E+00  0.45593999997E+02  0.45594000000E+02  0.51100000000E-03 0.  1.
         11   -1    0    0    0    0 -0.00000000000E+00 -0.00000000000E+00 -0.45593999997E+02  0.45594000000E+02  0.51100000000E-03 0. -1.
    9900012    2    1    2    0    0  0.10827560631E+01 -0.46272723093E+00 -0.80806282780E-01  0.90007742893E+02  0.90000004300E+02 0.  0.
         12    1    1    2    0    0 -0.10827560631E+01  0.46272723093E+00  0.80806282780E-01  0.11802571066E+01  0.00000000000E+00 0. -1.
         11    1    3    3    0    0  0.19187233416E+02  0.26752878133E+02  0.16093785949E+02  0.36645277472E+02  0.51100000000E-03 0. -1.
        -11    1    3    3    0    0  0.57699617213E+01  0.70064410976E+01 -0.20050050222E+01  0.92953063704E+01  0.51100000000E-03 0.  1.
        -12    1    3    3    0    0 -0.23874439075E+02 -0.34222046461E+02 -0.14169587210E+02  0.44067159051E+02  0.00000000000E+00 0.  1.
</event>
<event>
 7    1  0.2468912E-015  0.9000773E+02  0.7816164E-02  0.1186339E+00
        -11   -1    0    0    0    0  0.00000000000E+00  0.00000000000E+00  0.45593999997E+02  0.45594000000E+02  0.51100000000E-03 0.  1.
         11   -1    0    0    0    0 -0.00000000000E+00 -0.00000000000E+00 -0.45593999997E+02  0.45594000000E+02  0.51100000000E-03 0. -1.
    9900012    2    1    2    0    0 -0.15516434782E+00  0.10241656564E+01  0.56573227935E+00  0.90007727032E+02  0.89999988229E+02 0.  0.
         12    1    1    2    0    0  0.15516434782E+00 -0.10241656564E+01 -0.56573227935E+00  0.11802729678E+01  0.00000000000E+00 0. -1.
         11    1    3    3    0    0  0.13729576424E+01  0.65392936956E+01 -0.81511585281E+01  0.10539865290E+02  0.51100000000E-03 0. -1.
        -11    1    3    3    0    0  0.31736410120E+02 -0.85812615175E+01  0.25945835358E+02  0.41881071491E+02  0.51100000000E-03 0.  1.
         12    1    3    3    0    0 -0.33264532111E+02  0.30661334783E+01 -0.17228944550E+02  0.37586790251E+02  0.00000000000E+00 0. -1.
</event>
<event>
 7    1  0.2468912E-015  0.9000798E+02  0.7816164E-02  0.1186339E+00
        -11   -1    0    0    0    0  0.00000000000E+00  0.00000000000E+00  0.45593999997E+02  0.45594000000E+02  0.51100000000E-03 0.  1.
         11   -1    0    0    0    0 -0.00000000000E+00 -0.00000000000E+00 -0.45593999997E+02  0.45594000000E+02  0.51100000000E-03 0. -1.
    9900012    2    1    2    0    0 -0.89061628161E+00  0.25380365169E+00  0.73132687760E+00  0.90007977688E+02  0.90000242193E+02 0.  0.
         12    1    1    2    0    0  0.89061628161E+00 -0.25380365169E+00 -0.73132687760E+00  0.11800223119E+01  0.00000000000E+00 0. -1.
         11    1    3    3    0    0 -0.31301682976E+01 -0.16537935373E+01  0.78782364677E+01  0.86371058079E+01  0.51100000000E-03 0. -1.
        -11    1    3    3    0    0  0.39262137765E+01 -0.31977995689E+02  0.19998527462E+02  0.37920290925E+02  0.51100000000E-03 0.  1.
         12    1    3    3    0    0 -0.16866617606E+01  0.33885592878E+02 -0.27145437052E+02  0.43450580955E+02  0.00000000000E+00 0. -1.
</event>
<event>
 7    1  0.2468912E-015  0.9000786E+02  0.7816164E-02  0.1186339E+00
        -11   -1    0    0    0    0  0.00000000000E+00  0.00000000000E+00  0.45593999997E+02  0.45594000000E+02  0.51100000000E-03 0. -1.
         11   -1    0    0    0    0 -0.00000000000E+00 -0.00000000000E+00 -0.45593999997E+02  0.45594000000E+02  0.51100000000E-03 0.  1.
    9900012    2    1    2    0    0 -0.52980838362E+00  0.50798183038E+00  0.92411209741E+00  0.90007862028E+02  0.90000125007E+02 0.  0.
         12    1    1    2    0    0  0.52980838362E+00 -0.50798183038E+00 -0.92411209741E+00  0.11801379716E+01  0.00000000000E+00 0. -1.
         11    1    3    3    0    0  0.20125284994E+02 -0.95006144790E+01  0.33710417924E+02  0.40394071947E+02  0.51100000000E-03 0. -1.
        -11    1    3    3    0    0  0.31894856910E+01  0.69897801141E+01  0.14144953684E+01  0.78122111098E+01  0.51100000000E-03 0.  1.
        -12    1    3    3    0    0 -0.23844579068E+02  0.30188161953E+01 -0.34200801195E+02  0.41801578972E+02  0.00000000000E+00 0.  1.
</event>
<event>
 7    1  0.2468912E-015  0.9000743E+02  0.7816164E-02  0.1186340E+00
        -11   -1    0    0    0    0  0.00000000000E+00  0.00000000000E+00  0.45593999997E+02  0.45594000000E+02  0.51100000000E-03 0.  1.
         11   -1    0    0    0    0 -0.00000000000E+00 -0.00000000000E+00 -0.45593999997E+02  0.45594000000E+02  0.51100000000E-03 0. -1.
    9900012    2    1    2    0    0 -0.82211389423E+00  0.10861496935E+00  0.84027799511E+00  0.90007434214E+02  0.89999691545E+02 0.  0.
         12    1    1    2    0    0  0.82211389423E+00 -0.10861496935E+00 -0.84027799511E+00  0.11805657863E+01  0.00000000000E+00 0. -1.
         11    1    3    3    0    0  0.63835075288E+01  0.57756869239E+01  0.43978703556E+01  0.96669018687E+01  0.51100000000E-03 0. -1.
        -11    1    3    3    0    0  0.16396973716E+02  0.28803835210E+02  0.12724619826E+02  0.35502642434E+02  0.51100000000E-03 0.  1.
         12    1    3    3    0    0 -0.23602595139E+02 -0.34470907164E+02 -0.16282212186E+02  0.44837889911E+02  0.00000000000E+00 0. -1.
</event>
<event>
 7    1  0.2468912E-015  0.9000774E+02  0.7816164E-02  0.1186339E+00
        -11   -1    0    0    0    0  0.00000000000E+00  0.00000000000E+00  0.45593999997E+02  0.45594000000E+02  0.51100000000E-03 0.  1.
         11   -1    0    0    0    0 -0.00000000000E+00 -0.00000000000E+00 -0.45593999997E+02  0.45594000000E+02  0.51100000000E-03 0. -1.
    9900012    2    1    2    0    0  0.51948309010E+00 -0.36418931263E+00  0.99524350801E+00  0.90007743173E+02  0.90000004583E+02 0.  0.
         12    1    1    2    0    0 -0.51948309010E+00  0.36418931263E+00 -0.99524350801E+00  0.11802568265E+01  0.00000000000E+00 0. -1.
         11    1    3    3    0    0 -0.32905084824E+01 -0.36317096541E+01 -0.91948274470E+01  0.10419290433E+02  0.51100000000E-03 0. -1.
        -11    1    3    3    0    0  0.37709209233E+02  0.49388306038E+01  0.21654551101E+02  0.43764095928E+02  0.51100000000E-03 0.  1.
         12    1    3    3    0    0 -0.33899217661E+02 -0.16713102623E+01 -0.11464480146E+02  0.35824356813E+02  0.00000000000E+00 0. -1.
</event>
<event>
 7    1  0.2468912E-015  0.9000785E+02  0.7816164E-02  0.1186339E+00
        -11   -1    0    0    0    0  0.00000000000E+00  0.00000000000E+00  0.45593999997E+02  0.45594000000E+02  0.51100000000E-03 0.  1.
         11   -1    0    0    0    0 -0.00000000000E+00 -0.00000000000E+00 -0.45593999997E+02  0.45594000000E+02  0.51100000000E-03 0. -1.
    9900012    2    1    2    0    0 -0.64380727953E+00  0.47031706156E+00  0.87010215824E+00  0.90007845893E+02  0.90000108658E+02 0.  0.
         12    1    1    2    0    0  0.64380727953E+00 -0.47031706156E+00 -0.87010215824E+00  0.11801541075E+01  0.00000000000E+00 0. -1.
         11    1    3    3    0    0  0.68149949862E+01  0.77236129074E+01 -0.70390815093E+00  0.10324429280E+02  0.51100000000E-03 0. -1.
        -11    1    3    3    0    0  0.23615174285E+02 -0.11953771274E+00  0.29160066184E+02  0.37523328822E+02  0.51100000000E-03 0.  1.
         12    1    3    3    0    0 -0.31073976551E+02 -0.71337581331E+01 -0.27586055875E+02  0.42160087791E+02  0.00000000000E+00 0. -1.
</event>
<event>
 7    1  0.2468912E-015  0.9000774E+02  0.7816164E-02  0.1186339E+00
        -11   -1    0    0    0    0  0.00000000000E+00  0.00000000000E+00  0.45593999997E+02  0.45594000000E+02  0.51100000000E-03 0. -1.
         11   -1    0    0    0    0 -0.00000000000E+00 -0.00000000000E+00 -0.45593999997E+02  0.45594000000E+02  0.51100000000E-03 0.  1.
    9900012    2    1    2    0    0 -0.34781960890E+00  0.10524447000E+01  0.40544527533E+00  0.90007744012E+02  0.90000005432E+02 0.  0.
         12    1    1    2    0    0  0.34781960890E+00 -0.10524447000E+01 -0.40544527533E+00  0.11802559885E+01  0.00000000000E+00 0. -1.
         11    1    3    3    0    0 -0.10173744833E+02  0.61157016486E+00  0.19880232033E+01  0.10384186946E+02  0.51100000000E-03 0. -1.
        -11    1    3    3    0    0  0.14939687324E+02  0.30610784308E+02 -0.24019378759E+02  0.41679070641E+02  0.51100000000E-03 0.  1.
         12    1    3    3    0    0 -0.51137620999E+01 -0.30169909773E+02  0.22436800831E+02  0.37944486425E+02  0.00000000000E+00 0. -1.
</event>
<event>
 7    1  0.2468912E-015  0.9000807E+02  0.7816164E-02  0.1186338E+00
        -11   -1    0    0    0    0  0.00000000000E+00  0.00000000000E+00  0.45593999997E+02  0.45594000000E+02  0.51100000000E-03 0.  1.
         11   -1    0    0    0    0 -0.00000000000E+00 -0.00000000000E+00 -0.45593999997E+02  0.45594000000E+02  0.51100000000E-03 0. -1.
    9900012    2    1    2    0    0 -0.10948407174E+01  0.39755486605E+00  0.18845791461E+00  0.90008066759E+02  0.90000332439E+02 0.  0.
         12    1    1    2    0    0  0.10948407174E+01 -0.39755486605E+00 -0.18845791461E+00  0.11799332411E+01  0.00000000000E+00 0. -1.
         11    1    3    3    0    0 -0.82378743580E+01 -0.10143619468E+01  0.64705233770E+01  0.10524218600E+02  0.51100000000E-03 0. -1.
        -11    1    3    3    0    0 -0.31177839683E+02  0.13749315190E+02  0.10808986516E+02  0.35748224365E+02  0.51100000000E-03 0.  1.
         12    1    3    3    0    0  0.38320873323E+02 -0.12337398377E+02 -0.17091051978E+02  0.43735623795E+02  0.00000000000E+00 0. -1.
</event>
<event>
 7    1  0.2468912E-015  0.9000781E+02  0.7816164E-02  0.1186339E+00
        -11   -1    0    0    0    0  0.00000000000E+00  0.00000000000E+00  0.45593999997E+02  0.45594000000E+02  0.51100000000E-03 0.  1.
         11   -1    0    0    0    0 -0.00000000000E+00 -0.00000000000E+00 -0.45593999997E+02  0.45594000000E+02  0.51100000000E-03 0. -1.
    9900012    2    1    2    0    0  0.55360292946E+00 -0.10289396171E+01  0.16631344051E+00  0.90007808024E+02  0.90000070290E+02 0.  0.
         12    1    1    2    0    0 -0.55360292946E+00  0.10289396171E+01 -0.16631344051E+00  0.11801919758E+01  0.00000000000E+00 0. -1.
         11    1    3    3    0    0  0.24047801180E+02  0.92137565422E+01 -0.28658153335E+02  0.38528947611E+02  0.51100000000E-03 0. -1.
        -11    1    3    3    0    0 -0.10945198081E+00  0.10010138318E+02  0.13448066995E+01  0.10100661077E+02  0.51100000000E-03 0.  1.
        -12    1    3    3    0    0 -0.23384746269E+02 -0.20252834477E+02  0.27479660076E+02  0.41378199336E+02  0.00000000000E+00 0.  1.
</event>
<event>
 7    1  0.2468912E-015  0.9000771E+02  0.7816164E-02  0.1186339E+00
        -11   -1    0    0    0    0  0.00000000000E+00  0.00000000000E+00  0.45593999997E+02  0.45594000000E+02  0.51100000000E-03 0. -1.
         11   -1    0    0    0    0 -0.00000000000E+00 -0.00000000000E+00 -0.45593999997E+02  0.45594000000E+02  0.51100000000E-03 0.  1.
    9900012    2    1    2    0    0 -0.87784952620E+00  0.19675895689E+00 -0.76403258302E+00  0.90007712041E+02  0.89999973040E+02 0.  0.
         12    1    1    2    0    0  0.87784952620E+00 -0.19675895689E+00  0.76403258302E+00  0.11802879588E+01  0.00000000000E+00 0. -1.
         11    1    3    3    0    0 -0.27964340099E+02 -0.20426484319E+02  0.11505129251E+02  0.36491280851E+02  0.51100000000E-03 0. -1.
        -11    1    3    3    0    0 -0.14879328715E+01 -0.27157717022E+01  0.99684622846E+01  0.10438371556E+02  0.51100000000E-03 0.  1.
        -12    1    3    3    0    0  0.28574423445E+02  0.23339014978E+02 -0.22237624119E+02  0.43078059634E+02  0.00000000000E+00 0.  1.
</event>
<event>
 7    1  0.2468912E-015  0.9000783E+02  0.7816164E-02  0.1186339E+00
        -11   -1    0    0    0    0  0.00000000000E+00  0.00000000000E+00  0.45593999997E+02  0.45594000000E+02  0.51100000000E-03 0.  1.
         11   -1    0    0    0    0 -0.00000000000E+00 -0.00000000000E+00 -0.45593999997E+02  0.45594000000E+02  0.51100000000E-03 0. -1.
    9900012    2    1    2    0    0  0.10618171924E+01  0.47298956058E+00 -0.20404141588E+00  0.90007827227E+02  0.90000089746E+02 0.  0.
         12    1    1    2    0    0 -0.10618171924E+01 -0.47298956058E+00  0.20404141588E+00  0.11801727729E+01  0.00000000000E+00 0. -1.
         11    1    3    3    0    0 -0.10521414064E+02 -0.36284194017E+02 -0.10664552061E+02  0.39255261562E+02  0.51100000000E-03 0. -1.
        -11    1    3    3    0    0 -0.86054298216E+01  0.13006377550E+01  0.31541663021E+00  0.87088787393E+01  0.51100000000E-03 0.  1.
        -12    1    3    3    0    0  0.20188661078E+02  0.35456545823E+02  0.10145094014E+02  0.42043686926E+02  0.00000000000E+00 0.  1.
</event>
<event>
 7    1  0.2468912E-015  0.9000764E+02  0.7816164E-02  0.1186339E+00
        -11   -1    0    0    0    0  0.00000000000E+00  0.00000000000E+00  0.45593999997E+02  0.45594000000E+02  0.51100000000E-03 0. -1.
         11   -1    0    0    0    0 -0.00000000000E+00 -0.00000000000E+00 -0.45593999997E+02  0.45594000000E+02  0.51100000000E-03 0.  1.
    9900012    2    1    2    0    0  0.69262015481E+00  0.95274092712E+00 -0.76216643964E-01  0.90007641186E+02  0.89999901250E+02 0.  0.
         12    1    1    2    0    0 -0.69262015481E+00 -0.95274092712E+00  0.76216643964E-01  0.11803588140E+01  0.00000000000E+00 0. -1.
         11    1    3    3    0    0  0.51420211522E+01 -0.73938097865E+01 -0.62493820005E+01  0.10961914994E+02  0.51100000000E-03 0. -1.
        -11    1    3    3    0    0  0.17846020931E+02 -0.11550857708E+02 -0.27021828447E+02  0.34381419251E+02  0.51100000000E-03 0.  1.
         12    1    3    3    0    0 -0.22295421929E+02  0.19897408422E+02  0.33194993803E+02  0.44664306941E+02  0.00000000000E+00 0. -1.
</event>
<event>
 7    1  0.2468912E-015  0.9000778E+02  0.7816164E-02  0.1186339E+00
        -11   -1    0    0    0    0  0.00000000000E+00  0.00000000000E+00  0.45593999997E+02  0.45594000000E+02  0.51100000000E-03 0.  1.
         11   -1    0    0    0    0 -0.00000000000E+00 -0.00000000000E+00 -0.45593999997E+02  0.45594000000E+02  0.51100000000E-03 0. -1.
    9900012    2    1    2    0    0  0.11262325868E+01  0.10027574269E+00  0.33833254397E+00  0.90007777998E+02  0.90000039867E+02 0.  0.
         12    1    1    2    0    0 -0.11262325868E+01 -0.10027574269E+00 -0.33833254397E+00  0.11802220022E+01  0.00000000000E+00 0. -1.
         11    1    3    3    0    0 -0.69683600875E+01 -0.13112577559E+01 -0.75951315990E+01  0.10390546833E+02  0.51100000000E-03 0. -1.
        -11    1    3    3    0    0 -0.13281622518E+02 -0.26302140338E+02  0.26822695861E+02  0.39845465195E+02  0.51100000000E-03 0.  1.
         12    1    3    3    0    0  0.21376215192E+02  0.27713673837E+02 -0.18889231719E+02  0.39771765970E+02  0.00000000000E+00 0. -1.
</event>
<event>
 7    1  0.2468912E-015  0.9000772E+02  0.7816164E-02  0.1186339E+00
        -11   -1    0    0    0    0  0.00000000000E+00  0.00000000000E+00  0.45593999997E+02  0.45594000000E+02  0.51100000000E-03 0.  1.
         11   -1    0    0    0    0 -0.00000000000E+00 -0.00000000000E+00 -0.45593999997E+02  0.45594000000E+02  0.51100000000E-03 0. -1.
    9900012    2    1    2    0    0 -0.99364565507E+00  0.11024732560E+00  0.62735808609E+00  0.90007718538E+02  0.89999979623E+02 0.  0.
         12    1    1    2    0    0  0.99364565507E+00 -0.11024732560E+00 -0.62735808609E+00  0.11802814617E+01  0.00000000000E+00 0. -1.
         11    1    3    3    0    0  0.40829156880E+01  0.14201503801E+01  0.58626120385E+01  0.72840406227E+01  0.51100000000E-03 0. -1.
        -11    1    3    3    0    0  0.23990821891E+02 -0.16838398653E+02 -0.29663813261E+02  0.41701714853E+02  0.51100000000E-03 0.  1.
         12    1    3    3    0    0 -0.29067383234E+02  0.15528495598E+02  0.24428559309E+02  0.41021963063E+02  0.00000000000E+00 0. -1.
</event>
<event>
 7    1  0.2468912E-015  0.9000763E+02  0.7816164E-02  0.1186339E+00
        -11   -1    0    0    0    0  0.00000000000E+00  0.00000000000E+00  0.45593999997E+02  0.45594000000E+02  0.51100000000E-03 0.  1.
         11   -1    0    0    0    0 -0.00000000000E+00 -0.00000000000E+00 -0.45593999997E+02  0.45594000000E+02  0.51100000000E-03 0. -1.
    9900012    2    1    2    0    0 -0.92049769380E+00  0.62928134827E+00  0.38724605098E+00  0.90007631192E+02  0.89999891123E+02 0.  0.
         12    1    1    2    0    0  0.92049769380E+00 -0.62928134827E+00 -0.38724605098E+00  0.11803688083E+01  0.00000000000E+00 0. -1.
         11    1    3    3    0    0  0.22101629887E+02  0.33489555027E+00 -0.27092834941E+02  0.34965924900E+02  0.51100000000E-03 0. -1.
        -11    1    3    3    0    0  0.32412587707E+01 -0.62360396957E+01 -0.78506766358E+01  0.10536938521E+02  0.51100000000E-03 0.  1.
        -12    1    3    3    0    0 -0.26263386351E+02  0.65304254937E+01  0.35330757628E+02  0.44504767771E+02  0.00000000000E+00 0.  1.
</event>
<event>
 7    1  0.2468912E-015  0.9000765E+02  0.7816164E-02  0.1186339E+00
        -11   -1    0    0    0    0  0.00000000000E+00  0.00000000000E+00  0.45593999997E+02  0.45594000000E+02  0.51100000000E-03 0.  1.
         11   -1    0    0    0    0 -0.00000000000E+00 -0.00000000000E+00 -0.45593999997E+02  0.45594000000E+02  0.51100000000E-03 0. -1.
    9900012    2    1    2    0    0 -0.10085430259E+01 -0.35642109487E+00  0.49902215356E+00  0.90007653381E+02  0.89999913605E+02 0.  0.
         12    1    1    2    0    0  0.10085430259E+01  0.35642109487E+00 -0.49902215356E+00  0.11803466193E+01  0.00000000000E+00 0. -1.
         11    1    3    3    0    0 -0.10057055264E+02 -0.71144673273E+01 -0.38349585155E+02  0.40279656003E+02  0.51100000000E-03 0. -1.
        -11    1    3    3    0    0 -0.67344580953E+01  0.48409858035E+01  0.61051585953E+00  0.83162972087E+01  0.51100000000E-03 0.  1.
        -12    1    3    3    0    0  0.15782970333E+02  0.19170604289E+01  0.38238091449E+02  0.41411700169E+02  0.00000000000E+00 0.  1.
</event>
<event>
 7    1  0.2468912E-015  0.9000772E+02  0.7816164E-02  0.1186339E+00
        -11   -1    0    0    0    0  0.00000000000E+00  0.00000000000E+00  0.45593999997E+02  0.45594000000E+02  0.51100000000E-03 0.  1.
         11   -1    0    0    0    0 -0.00000000000E+00 -0.00000000000E+00 -0.45593999997E+02  0.45594000000E+02  0.51100000000E-03 0. -1.
    9900012    2    1    2    0    0  0.87805758778E+00  0.34282512391E+00 -0.71032165078E+00  0.90007715695E+02  0.89999976742E+02 0.  0.
         12    1    1    2    0    0 -0.87805758778E+00 -0.34282512391E+00  0.71032165078E+00  0.11802843050E+01  0.00000000000E+00 0. -1.
         11    1    3    3    0    0  0.31665505321E+02  0.19063729589E+02 -0.11646702461E+02  0.38752750762E+02  0.51100000000E-03 0. -1.
        -11    1    3    3    0    0 -0.22996096399E-01  0.51572169174E+01 -0.67404758862E+01  0.84871332372E+01  0.51100000000E-03 0.  1.
        -12    1    3    3    0    0 -0.30764451637E+02 -0.23878121383E+02  0.17676856697E+02  0.42767831696E+02  0.00000000000E+00 0.  1.
</event>
<event>
 7    1  0.2468912E-015  0.9000773E+02  0.7816164E-02  0.1186339E+00
        -11   -1    0    0    0    0  0.00000000000E+00  0.00000000000E+00  0.45593999997E+02  0.45594000000E+02  0.51100000000E-03 0.  1.
         11   -1    0    0    0    0 -0.00000000000E+00 -0.00000000000E+00 -0.45593999997E+02  0.45594000000E+02  0.51100000000E-03 0. -1.
    9900012    2    1    2    0    0 -0.30081239697E+00 -0.68509497930E+00  0.91279234178E+00  0.90007731773E+02  0.89999993032E+02 0.  0.
         12    1    1    2    0    0  0.30081239697E+00  0.68509497930E+00 -0.91279234178E+00  0.11802682272E+01  0.00000000000E+00 0. -1.
         11    1    3    3    0    0 -0.18863984144E+02 -0.15699258177E+01 -0.37002796674E+02  0.41563463845E+02  0.51100000000E-03 0. -1.
        -11    1    3    3    0    0 -0.38943141216E+01  0.56186135569E+01  0.57668217492E+01  0.89437539169E+01  0.51100000000E-03 0.  1.
        -12    1    3    3    0    0  0.22457485869E+02 -0.47337827185E+01  0.32148767266E+02  0.39500514011E+02  0.00000000000E+00 0.  1.
</event>
<event>
 7    1  0.2468912E-015  0.9000773E+02  0.7816164E-02  0.1186339E+00
        -11   -1    0    0    0    0  0.00000000000E+00  0.00000000000E+00  0.45593999997E+02  0.45594000000E+02  0.51100000000E-03 0. -1.
         11   -1    0    0    0    0 -0.00000000000E+00 -0.00000000000E+00 -0.45593999997E+02  0.45594000000E+02  0.51100000000E-03 0.  1.
    9900012    2    1    2    0    0 -0.47066695812E+00  0.10806771830E+01 -0.60376745608E-01  0.90007730577E+02  0.89999991821E+02 0.  0.
         12    1    1    2    0    0  0.47066695812E+00 -0.10806771830E+01  0.60376745608E-01  0.11802694230E+01  0.00000000000E+00 0. -1.
         11    1    3    3    0    0 -0.13126505169E+01  0.11757294789E+02 -0.23157570656E+01  0.12054864710E+02  0.51100000000E-03 0. -1.
        -11    1    3    3    0    0  0.34109651758E+02  0.72915327569E+01 -0.12940735088E+02  0.37203459757E+02  0.51100000000E-03 0.  1.
         12    1    3    3    0    0 -0.33267668199E+02 -0.17968150363E+02  0.15196115408E+02  0.40749406110E+02  0.00000000000E+00 0. -1.
</event>
<event>
 7    1  0.2468912E-015  0.9000775E+02  0.7816164E-02  0.1186339E+00
        -11   -1    0    0    0    0  0.00000000000E+00  0.00000000000E+00  0.45593999997E+02  0.45594000000E+02  0.51100000000E-03 0. -1.
         11   -1    0    0    0    0 -0.00000000000E+00 -0.00000000000E+00 -0.45593999997E+02  0.45594000000E+02  0.51100000000E-03 0.  1.
    9900012    2    1    2    0    0 -0.40269856872E+00 -0.40155371496E+00 -0.10342094043E+01  0.90007745529E+02  0.90000006970E+02 0.  0.
         12    1    1    2    0    0  0.40269856872E+00  0.40155371496E+00  0.10342094043E+01  0.11802544705E+01  0.00000000000E+00 0. -1.
         11    1    3    3    0    0  0.30183340678E+01 -0.29252331623E+02  0.24823106873E+02  0.38483709294E+02  0.51100000000E-03 0. -1.
        -11    1    3    3    0    0 -0.86589212257E+00 -0.76520339998E+01 -0.67662803347E+01  0.10251143513E+02  0.51100000000E-03 0.  1.
        -12    1    3    3    0    0 -0.25551405139E+01  0.36502811908E+02 -0.19091035943E+02  0.41272892722E+02  0.00000000000E+00 0.  1.
</event>
<event>
 7    1  0.2468912E-015  0.9000772E+02  0.7816164E-02  0.1186339E+00
        -11   -1    0    0    0    0  0.00000000000E+00  0.00000000000E+00  0.45593999997E+02  0.45594000000E+02  0.51100000000E-03 0.  1.
         11   -1    0    0    0    0 -0.00000000000E+00 -0.00000000000E+00 -0.45593999997E+02  0.45594000000E+02  0.51100000000E-03 0. -1.
    9900012    2    1    2    0    0  0.35558318746E+00  0.98829416281E+00 -0.53841198217E+00  0.90007723669E+02  0.89999984821E+02 0.  0.
         12    1    1    2    0    0 -0.35558318746E+00 -0.98829416281E+00  0.53841198217E+00  0.11802763312E+01  0.00000000000E+00 0. -1.
         11    1    3    3    0    0  0.41059094963E-01  0.83363336145E+01  0.91964498774E+00  0.83870072819E+01  0.51100000000E-03 0. -1.
        -11    1    3    3    0    0  0.31167531417E+02 -0.27347006275E+01  0.25521684525E+02  0.40376354261E+02  0.51100000000E-03 0.  1.
         12    1    3    3    0    0 -0.30853007324E+02 -0.46133388242E+01 -0.26979741495E+02  0.41244362126E+02  0.00000000000E+00 0. -1.
</event>
<event>
 7    1  0.2468912E-015  0.9000767E+02  0.7816164E-02  0.1186339E+00
        -11   -1    0    0    0    0  0.00000000000E+00  0.00000000000E+00  0.45593999997E+02  0.45594000000E+02  0.51100000000E-03 0. -1.
         11   -1    0    0    0    0 -0.00000000000E+00 -0.00000000000E+00 -0.45593999997E+02  0.45594000000E+02  0.51100000000E-03 0.  1.
    9900012    2    1    2    0    0  0.11470380754E+01 -0.27121854993E+00  0.62668302951E-01  0.90007668197E+02  0.89999928618E+02 0.  0.
         12    1    1    2    0    0 -0.11470380754E+01  0.27121854993E+00 -0.62668302951E-01  0.11803318026E+01  0.00000000000E+00 0. -1.
         11    1    3    3    0    0 -0.23176754067E+01 -0.25667051400E+00 -0.10249104375E+02  0.10511024679E+02  0.51100000000E-03 0. -1.
        -11    1    3    3    0    0 -0.28474109380E+02 -0.24499324081E+02  0.11345627525E+02  0.39239202969E+02  0.51100000000E-03 0.  1.
         12    1    3    3    0    0  0.31938822862E+02  0.24484776045E+02 -0.10338548470E+01  0.40257440550E+02  0.00000000000E+00 0. -1.
</event>
<event>
 7    1  0.2468912E-015  0.9000805E+02  0.7816164E-02  0.1186338E+00
        -11   -1    0    0    0    0  0.00000000000E+00  0.00000000000E+00  0.45593999997E+02  0.45594000000E+02  0.51100000000E-03 0.  1.
         11   -1    0    0    0    0 -0.00000000000E+00 -0.00000000000E+00 -0.45593999997E+02  0.45594000000E+02  0.51100000000E-03 0. -1.
    9900012    2    1    2    0    0  0.36387290203E+00  0.11072075682E+01  0.18428735071E+00  0.90008053427E+02  0.90000318931E+02 0.  0.
         12    1    1    2    0    0 -0.36387290203E+00 -0.11072075682E+01 -0.18428735071E+00  0.11799465732E+01  0.00000000000E+00 0. -1.
         11    1    3    3    0    0  0.50865510636E+01  0.40367411688E+02 -0.65126573851E+01  0.41204558420E+02  0.51100000000E-03 0. -1.
        -11    1    3    3    0    0 -0.96793289396E+01 -0.11254701715E+01  0.28680186237E+01  0.10157835543E+02  0.51100000000E-03 0.  1.
        -12    1    3    3    0    0  0.49566507781E+01 -0.38134733948E+02  0.38289261121E+01  0.38645659464E+02  0.00000000000E+00 0.  1.
</event>
<event>
 7    1  0.2468912E-015  0.9000861E+02  0.7816164E-02  0.1186337E+00
        -11   -1    0    0    0    0  0.00000000000E+00  0.00000000000E+00  0.45593999997E+02  0.45594000000E+02  0.51100000000E-03 0. -1.
         11   -1    0    0    0    0 -0.00000000000E+00 -0.00000000000E+00 -0.45593999997E+02  0.45594000000E+02  0.51100000000E-03 0.  1.
    9900012    2    1    2    0    0  0.96715853555E+00 -0.19733277903E-01 -0.67466873041E+00  0.90008609085E+02  0.90000881920E+02 0.  0.
         12    1    1    2    0    0 -0.96715853555E+00  0.19733277903E-01  0.67466873041E+00  0.11793909152E+01  0.00000000000E+00 0. -1.
         11    1    3    3    0    0  0.74962007328E+01  0.75386301532E+01  0.23103467639E+02  0.25432148695E+02  0.51100000000E-03 0. -1.
        -11    1    3    3    0    0  0.17677482411E+02 -0.17081711080E+02  0.57286156729E+01  0.25240746336E+02  0.51100000000E-03 0.  1.
        -12    1    3    3    0    0 -0.24206524608E+02  0.95233476494E+01 -0.29506752042E+02  0.39335714054E+02  0.00000000000E+00 0.  1.
</event>
<event>
 7    1  0.2468912E-015  0.9000771E+02  0.7816164E-02  0.1186339E+00
        -11   -1    0    0    0    0  0.00000000000E+00  0.00000000000E+00  0.45593999997E+02  0.45594000000E+02  0.51100000000E-03 0.  1.
         11   -1    0    0    0    0 -0.00000000000E+00 -0.00000000000E+00 -0.45593999997E+02  0.45594000000E+02  0.51100000000E-03 0. -1.
    9900012    2    1    2    0    0 -0.67115856945E+00 -0.87592231869E+00  0.41879881339E+00  0.90007709282E+02  0.89999970244E+02 0.  0.
         12    1    1    2    0    0  0.67115856945E+00  0.87592231869E+00 -0.41879881339E+00  0.11802907183E+01  0.00000000000E+00 0. -1.
         11    1    3    3    0    0 -0.51295802563E+01  0.33332449639E+02 -0.16111756242E+02  0.37375840887E+02  0.51100000000E-03 0. -1.
        -11    1    3    3    0    0  0.79503552870E+01  0.50716083493E+01 -0.98604056259E+00  0.94816473616E+01  0.51100000000E-03 0.  1.
        -12    1    3    3    0    0 -0.34919336001E+01 -0.39279980307E+02  0.17516595618E+02  0.43150221033E+02  0.00000000000E+00 0.  1.
</event>
<event>
 7    1  0.2468912E-015  0.9000769E+02  0.7816164E-02  0.1186339E+00
        -11   -1    0    0    0    0  0.00000000000E+00  0.00000000000E+00  0.45593999997E+02  0.45594000000E+02  0.51100000000E-03 0.  1.
         11   -1    0    0    0    0 -0.00000000000E+00 -0.00000000000E+00 -0.45593999997E+02  0.45594000000E+02  0.51100000000E-03 0. -1.
    9900012    2    1    2    0    0 -0.26536955283E+00  0.11411630780E+01 -0.14304203988E+00  0.90007688518E+02  0.89999949206E+02 0.  0.
         12    1    1    2    0    0  0.26536955283E+00 -0.11411630780E+01  0.14304203988E+00  0.11803114823E+01  0.00000000000E+00 0. -1.
         11    1    3    3    0    0  0.12031726066E+02  0.26137700439E+01 -0.83424029853E+00  0.12340590873E+02  0.51100000000E-03 0. -1.
        -11    1    3    3    0    0 -0.61173800100E+01  0.20540542238E+02  0.32234291051E+02  0.38708987760E+02  0.51100000000E-03 0.  1.
         12    1    3    3    0    0 -0.61797156088E+01 -0.22013149204E+02 -0.31543092792E+02  0.38958109884E+02  0.00000000000E+00 0. -1.
</event>
<event>
 7    1  0.2468912E-015  0.9000773E+02  0.7816164E-02  0.1186339E+00
        -11   -1    0    0    0    0  0.00000000000E+00  0.00000000000E+00  0.45593999997E+02  0.45594000000E+02  0.51100000000E-03 0. -1.
         11   -1    0    0    0    0 -0.00000000000E+00 -0.00000000000E+00 -0.45593999997E+02  0.45594000000E+02  0.51100000000E-03 0.  1.
    9900012    2    1    2    0    0  0.11548358502E+01 -0.93481477394E-01  0.22505020769E+00  0.90007732139E+02  0.89999993403E+02 0.  0.
         12    1    1    2    0    0 -0.11548358502E+01  0.93481477394E-01 -0.22505020769E+00  0.11802678609E+01  0.00000000000E+00 0. -1.
         11    1    3    3    0    0 -0.19836744384E+02 -0.33325793857E+02  0.17132598627E+02  0.42398477566E+02  0.51100000000E-03 0. -1.
        -11    1    3    3    0    0  0.90465905034E+01 -0.13821046955E+00 -0.29556868539E+01  0.95181924182E+01  0.51100000000E-03 0.  1.
        -12    1    3    3    0    0  0.11944989731E+02  0.33370522849E+02 -0.13951861566E+02  0.38091062154E+02  0.00000000000E+00 0.  1.
</event>
<event>
 7    1  0.2468912E-015  0.9000788E+02  0.7816164E-02  0.1186339E+00
        -11   -1    0    0    0    0  0.00000000000E+00  0.00000000000E+00  0.45593999997E+02  0.45594000000E+02  0.51100000000E-03 0.  1.
         11   -1    0    0    0    0 -0.00000000000E+00 -0.00000000000E+00 -0.45593999997E+02  0.45594000000E+02  0.51100000000E-03 0. -1.
    9900012    2    1    2    0    0 -0.24182850733E+00 -0.97140139611E+00  0.62497099934E+00  0.90007876935E+02  0.90000140110E+02 0.  0.
         12    1    1    2    0    0  0.24182850733E+00  0.97140139611E+00 -0.62497099934E+00  0.11801230653E+01  0.00000000000E+00 0. -1.
         11    1    3    3    0    0 -0.48353401800E+01  0.78008323007E+00 -0.59485756545E+01  0.77054913588E+01  0.51100000000E-03 0. -1.
        -11    1    3    3    0    0 -0.21312204549E+02  0.92676340910E+01  0.35182429017E+02  0.42165180139E+02  0.51100000000E-03 0.  1.
         12    1    3    3    0    0  0.25905716221E+02 -0.11019118717E+02 -0.28608882363E+02  0.40137205437E+02  0.00000000000E+00 0. -1.
</event>
<event>
 7    1  0.2468912E-015  0.9000776E+02  0.7816164E-02  0.1186339E+00
        -11   -1    0    0    0    0  0.00000000000E+00  0.00000000000E+00  0.45593999997E+02  0.45594000000E+02  0.51100000000E-03 0. -1.
         11   -1    0    0    0    0 -0.00000000000E+00 -0.00000000000E+00 -0.45593999997E+02  0.45594000000E+02  0.51100000000E-03 0.  1.
    9900012    2    1    2    0    0  0.53510049276E+00  0.93000617324E+00 -0.49165717479E+00  0.90007758162E+02  0.90000019769E+02 0.  0.
         12    1    1    2    0    0 -0.53510049276E+00 -0.93000617324E+00  0.49165717479E+00  0.11802418384E+01  0.00000000000E+00 0. -1.
         11    1    3    3    0    0  0.19294935719E+02  0.20655499437E+02 -0.24030389771E+02  0.37099916902E+02  0.51100000000E-03 0. -1.
        -11    1    3    3    0    0  0.52957637818E+00  0.89072735836E+01 -0.29442223908E+01  0.93961917595E+01  0.51100000000E-03 0.  1.
        -12    1    3    3    0    0 -0.19289411605E+02 -0.28632766847E+02  0.26482954987E+02  0.43511649500E+02  0.00000000000E+00 0.  1.
</event>
<event>
 7    1  0.2468912E-015  0.9000779E+02  0.7816164E-02  0.1186339E+00
        -11   -1    0    0    0    0  0.00000000000E+00  0.00000000000E+00  0.45593999997E+02  0.45594000000E+02  0.51100000000E-03 0. -1.
         11   -1    0    0    0    0 -0.00000000000E+00 -0.00000000000E+00 -0.45593999997E+02  0.45594000000E+02  0.51100000000E-03 0.  1.
    9900012    2    1    2    0    0 -0.27352548710E+00 -0.11434477257E+01  0.10300982794E+00  0.90007788189E+02  0.90000050193E+02 0.  0.
         12    1    1    2    0    0  0.27352548710E+00  0.11434477257E+01 -0.10300982794E+00  0.11802118107E+01  0.00000000000E+00 0. -1.
         11    1    3    3    0    0 -0.12999391838E+02  0.67410166309E+01 -0.26076575934E+01  0.14873646889E+02  0.51100000000E-03 0. -1.
        -11    1    3    3    0    0 -0.15204913046E+02  0.12050452795E+02 -0.24562792117E+02  0.31300695682E+02  0.51100000000E-03 0.  1.
         12    1    3    3    0    0  0.27930779398E+02 -0.19934917151E+02  0.27273459539E+02  0.43833445619E+02  0.00000000000E+00 0. -1.
</event>
<event>
 7    1  0.2468912E-015  0.9000770E+02  0.7816164E-02  0.1186339E+00
        -11   -1    0    0    0    0  0.00000000000E+00  0.00000000000E+00  0.45593999997E+02  0.45594000000E+02  0.51100000000E-03 0.  1.
         11   -1    0    0    0    0 -0.00000000000E+00 -0.00000000000E+00 -0.45593999997E+02  0.45594000000E+02  0.51100000000E-03 0. -1.
    9900012    2    1    2    0    0  0.20798998975E+00  0.41976772457E+00  0.10833523965E+01  0.90007696144E+02  0.89999956933E+02 0.  0.
         12    1    1    2    0    0 -0.20798998975E+00 -0.41976772457E+00 -0.10833523965E+01  0.11803038564E+01  0.00000000000E+00 0. -1.
         11    1    3    3    0    0  0.14778430075E+01  0.22027410382E+01 -0.43682016834E+02  0.43762480311E+02  0.51100000000E-03 0. -1.
        -11    1    3    3    0    0  0.59528108254E+00 -0.46633344037E+01  0.77025101196E+01  0.90238411850E+01  0.51100000000E-03 0.  1.
        -12    1    3    3    0    0 -0.18651341003E+01  0.28803610901E+01  0.37062859111E+02  0.37221374648E+02  0.00000000000E+00 0.  1.
</event>
<event>
 7    1  0.2468912E-015  0.9000781E+02  0.7816164E-02  0.1186339E+00
        -11   -1    0    0    0    0  0.00000000000E+00  0.00000000000E+00  0.45593999997E+02  0.45594000000E+02  0.51100000000E-03 0.  1.
         11   -1    0    0    0    0 -0.00000000000E+00 -0.00000000000E+00 -0.45593999997E+02  0.45594000000E+02  0.51100000000E-03 0. -1.
    9900012    2    1    2    0    0  0.76162472162E+00 -0.43519361946E+00 -0.78953997022E+00  0.90007813969E+02  0.90000076313E+02 0.  0.
         12    1    1    2    0    0 -0.76162472162E+00  0.43519361946E+00  0.78953997022E+00  0.11801860309E+01  0.00000000000E+00 0. -1.
         11    1    3    3    0    0 -0.30303171476E+02 -0.13263175031E+02  0.46437219619E+01  0.33402966445E+02  0.51100000000E-03 0. -1.
        -11    1    3    3    0    0 -0.38015253268E+01 -0.10093036163E+02  0.72483127672E+01  0.12994576255E+02  0.51100000000E-03 0.  1.
        -12    1    3    3    0    0  0.34866321525E+02  0.22921017575E+02 -0.12681574699E+02  0.43610271269E+02  0.00000000000E+00 0.  1.
</event>
<event>
 7    1  0.2468912E-015  0.9000775E+02  0.7816164E-02  0.1186339E+00
        -11   -1    0    0    0    0  0.00000000000E+00  0.00000000000E+00  0.45593999997E+02  0.45594000000E+02  0.51100000000E-03 0. -1.
         11   -1    0    0    0    0 -0.00000000000E+00 -0.00000000000E+00 -0.45593999997E+02  0.45594000000E+02  0.51100000000E-03 0.  1.
    9900012    2    1    2    0    0  0.44313347849E+00 -0.10395543555E+01 -0.34051574169E+00  0.90007749388E+02  0.90000010879E+02 0.  0.
         12    1    1    2    0    0 -0.44313347849E+00  0.10395543555E+01  0.34051574169E+00  0.11802506124E+01  0.00000000000E+00 0. -1.
         11    1    3    3    0    0 -0.12963551432E+02 -0.24458896189E+02 -0.10464547873E+02  0.29593885026E+02  0.51100000000E-03 0. -1.
        -11    1    3    3    0    0  0.13693565019E+02 -0.15343676015E+02  0.99653022472E+00  0.20589686479E+02  0.51100000000E-03 0.  1.
         12    1    3    3    0    0 -0.28688010817E+00  0.38763017848E+02  0.91275019063E+01  0.39824177882E+02  0.00000000000E+00 0. -1.
</event>
<event>
 7    1  0.2468912E-015  0.9000751E+02  0.7816164E-02  0.1186340E+00
        -11   -1    0    0    0    0  0.00000000000E+00  0.00000000000E+00  0.45593999997E+02  0.45594000000E+02  0.51100000000E-03 0.  1.
         11   -1    0    0    0    0 -0.00000000000E+00 -0.00000000000E+00 -0.45593999997E+02  0.45594000000E+02  0.51100000000E-03 0. -1.
    9900012    2    1    2    0    0  0.16989182545E+00  0.59294980059E+00  0.10065350792E+01  0.90007506220E+02  0.89999764502E+02 0.  0.
         12    1    1    2    0    0 -0.16989182545E+00 -0.59294980059E+00 -0.10065350792E+01  0.11804937797E+01  0.00000000000E+00 0. -1.
         11    1    3    3    0    0 -0.59150362515E+01 -0.15465575406E+02 -0.34616080224E+02  0.38372446975E+02  0.51100000000E-03 0. -1.
        -11    1    3    3    0    0 -0.63047732774E+01 -0.68770508000E+01  0.28421696310E+01  0.97530468192E+01  0.51100000000E-03 0.  1.
        -12    1    3    3    0    0  0.12389701354E+02  0.22935576007E+02  0.32780445672E+02  0.41882012426E+02  0.00000000000E+00 0.  1.
</event>
<event>
 7    1  0.2468912E-015  0.9000769E+02  0.7816164E-02  0.1186339E+00
        -11   -1    0    0    0    0  0.00000000000E+00  0.00000000000E+00  0.45593999997E+02  0.45594000000E+02  0.51100000000E-03 0. -1.
         11   -1    0    0    0    0 -0.00000000000E+00 -0.00000000000E+00 -0.45593999997E+02  0.45594000000E+02  0.51100000000E-03 0.  1.
    9900012    2    1    2    0    0  0.49162466193E+00 -0.76532234247E+00 -0.75214484086E+00  0.90007688618E+02  0.89999949308E+02 0.  0.
         12    1    1    2    0    0 -0.49162466193E+00  0.76532234247E+00  0.75214484086E+00  0.11803113817E+01  0.00000000000E+00 0. -1.
         11    1    3    3    0    0  0.15553103570E+02 -0.49216196552E+01 -0.25461470824E+02  0.30239177692E+02  0.51100000000E-03 0. -1.
        -11    1    3    3    0    0 -0.65964658155E+01  0.14930283575E+02 -0.12212985509E+02  0.20385871190E+02  0.51100000000E-03 0.  1.
         12    1    3    3    0    0 -0.84650130927E+01 -0.10773986262E+02  0.36922311492E+02  0.39382639736E+02  0.00000000000E+00 0. -1.
</event>
<event>
 7    1  0.2468912E-015  0.9000768E+02  0.7816164E-02  0.1186339E+00
        -11   -1    0    0    0    0  0.00000000000E+00  0.00000000000E+00  0.45593999997E+02  0.45594000000E+02  0.51100000000E-03 0. -1.
         11   -1    0    0    0    0 -0.00000000000E+00 -0.00000000000E+00 -0.45593999997E+02  0.45594000000E+02  0.51100000000E-03 0.  1.
    9900012    2    1    2    0    0  0.48857621752E+00 -0.10546831264E+01  0.20517567077E+00  0.90007677894E+02  0.89999938442E+02 0.  0.
         12    1    1    2    0    0 -0.48857621752E+00  0.10546831264E+01 -0.20517567077E+00  0.11803221057E+01  0.00000000000E+00 0. -1.
         11    1    3    3    0    0 -0.39622327211E+01 -0.34122048974E+01 -0.56113743220E+01  0.76700686073E+01  0.51100000000E-03 0. -1.
        -11    1    3    3    0    0 -0.22627388335E+02  0.20564798628E+02 -0.23428146415E+02  0.38519964826E+02  0.51100000000E-03 0.  1.
         12    1    3    3    0    0  0.27078197274E+02 -0.18207276857E+02  0.29244696408E+02  0.43817644461E+02  0.00000000000E+00 0. -1.
</event>
<event>
 7    1  0.2468912E-015  0.9000772E+02  0.7816164E-02  0.1186339E+00
        -11   -1    0    0    0    0  0.00000000000E+00  0.00000000000E+00  0.45593999997E+02  0.45594000000E+02  0.51100000000E-03 0.  1.
         11   -1    0    0    0    0 -0.00000000000E+00 -0.00000000000E+00 -0.45593999997E+02  0.45594000000E+02  0.51100000000E-03 0. -1.
    9900012    2    1    2    0    0 -0.27644529835E+00  0.10662605314E+01 -0.42393060871E+00  0.90007724318E+02  0.89999985479E+02 0.  0.
         12    1    1    2    0    0  0.27644529835E+00 -0.10662605314E+01  0.42393060871E+00  0.11802756817E+01  0.00000000000E+00 0. -1.
         11    1    3    3    0    0  0.21677076471E+01 -0.19688282306E+01 -0.10263703973E+02  0.10673277873E+02  0.51100000000E-03 0. -1.
        -11    1    3    3    0    0  0.27243118795E+02  0.25114884871E+02 -0.85369071327E+01  0.38023989104E+02  0.51100000000E-03 0.  1.
         12    1    3    3    0    0 -0.29687271741E+02 -0.22079796109E+02  0.18376680497E+02  0.41310457341E+02  0.00000000000E+00 0. -1.
</event>
<event>
 7    1  0.2468912E-015  0.9000772E+02  0.7816164E-02  0.1186339E+00
        -11   -1    0    0    0    0  0.00000000000E+00  0.00000000000E+00  0.45593999997E+02  0.45594000000E+02  0.51100000000E-03 0. -1.
         11   -1    0    0    0    0 -0.00000000000E+00 -0.00000000000E+00 -0.45593999997E+02  0.45594000000E+02  0.51100000000E-03 0.  1.
    9900012    2    1    2    0    0 -0.11173239435E+01  0.37568962872E+00  0.59228858559E-01  0.90007718868E+02  0.89999979958E+02 0.  0.
         12    1    1    2    0    0  0.11173239435E+01 -0.37568962872E+00 -0.59228858559E-01  0.11802811316E+01  0.00000000000E+00 0. -1.
         11    1    3    3    0    0  0.15319178101E+02 -0.12612196664E+02  0.26812209717E+02  0.33356248479E+02  0.51100000000E-03 0. -1.
        -11    1    3    3    0    0  0.99607242345E+01  0.29164920438E+00  0.68359903721E+01  0.12084363912E+02  0.51100000000E-03 0.  1.
        -12    1    3    3    0    0 -0.26397226279E+02  0.12696237089E+02 -0.33588971230E+02  0.44567106478E+02  0.00000000000E+00 0.  1.
</event>
<event>
 7    1  0.2468912E-015  0.9000770E+02  0.7816164E-02  0.1186339E+00
        -11   -1    0    0    0    0  0.00000000000E+00  0.00000000000E+00  0.45593999997E+02  0.45594000000E+02  0.51100000000E-03 0.  1.
         11   -1    0    0    0    0 -0.00000000000E+00 -0.00000000000E+00 -0.45593999997E+02  0.45594000000E+02  0.51100000000E-03 0. -1.
    9900012    2    1    2    0    0  0.33547237797E+00  0.56562826271E+00 -0.98011736871E+00  0.90007700418E+02  0.89999961263E+02 0.  0.
         12    1    1    2    0    0 -0.33547237797E+00 -0.56562826271E+00  0.98011736871E+00  0.11802995825E+01  0.00000000000E+00 0. -1.
         11    1    3    3    0    0 -0.14126509140E+01 -0.92901220257E+01 -0.67135618912E+00  0.94208635088E+01  0.51100000000E-03 0. -1.
        -11    1    3    3    0    0  0.18226729975E+02 -0.30628892756E+02  0.68514024937E+01  0.36294413805E+02  0.51100000000E-03 0.  1.
         12    1    3    3    0    0 -0.16478606683E+02  0.40484643044E+02 -0.71601636733E+01  0.44292423104E+02  0.00000000000E+00 0. -1.
</event>
<event>
 7    1  0.2468912E-015  0.9000768E+02  0.7816164E-02  0.1186339E+00
        -11   -1    0    0    0    0  0.00000000000E+00  0.00000000000E+00  0.45593999997E+02  0.45594000000E+02  0.51100000000E-03 0.  1.
         11   -1    0    0    0    0 -0.00000000000E+00 -0.00000000000E+00 -0.45593999997E+02  0.45594000000E+02  0.51100000000E-03 0. -1.
    9900012    2    1    2    0    0  0.10356180363E+01 -0.56441208339E+00  0.45665197659E-01  0.90007681811E+02  0.89999942411E+02 0.  0.
         12    1    1    2    0    0 -0.10356180363E+01  0.56441208339E+00 -0.45665197659E-01  0.11803181890E+01  0.00000000000E+00 0. -1.
         11    1    3    3    0    0  0.42022740441E+02  0.76666776715E+01  0.65285788795E+01  0.43212394092E+02  0.51100000000E-03 0. -1.
        -11    1    3    3    0    0 -0.46425319826E+01 -0.45053806513E+01 -0.79269345603E+01  0.10231708059E+02  0.51100000000E-03 0.  1.
        -12    1    3    3    0    0 -0.36344590422E+02 -0.37257091036E+01  0.14440208785E+01  0.36563579660E+02  0.00000000000E+00 0.  1.
</event>
<event>
 7    1  0.4360146E-015  0.9000778E+02  0.7816164E-02  0.1186339E+00
        -11   -1    0    0    0    0  0.00000000000E+00  0.00000000000E+00  0.45593999997E+02  0.45594000000E+02  0.51100000000E-03 0. -1.
         11   -1    0    0    0    0 -0.00000000000E+00 -0.00000000000E+00 -0.45593999997E+02  0.45594000000E+02  0.51100000000E-03 0.  1.
    9900012    2    1    2    0    0 -0.96339139284E+00  0.56334488336E+00 -0.38397279448E+00  0.90007781571E+02  0.90000043488E+02 0.  0.
         12    1    1    2    0    0  0.96339139284E+00 -0.56334488336E+00  0.38397279448E+00  0.11802184291E+01  0.00000000000E+00 0. -1.
         11    1    3    3    0    0  0.14279965074E+02 -0.12022594553E+02  0.37972120058E+02  0.42312434157E+02  0.51100000000E-03 0. -1.
        -11    1    3    3    0    0 -0.39781113358E+01 -0.55736568674E+01 -0.74314465823E+01  0.10105316385E+02  0.51100000000E-03 0.  1.
        -12    1    3    3    0    0 -0.11265245131E+02  0.18159596304E+02 -0.30924646271E+02  0.37590031029E+02  0.00000000000E+00 0.  1.
</event>
<event>
 7    1  0.2468912E-015  0.9000775E+02  0.7816164E-02  0.1186339E+00
        -11   -1    0    0    0    0  0.00000000000E+00  0.00000000000E+00  0.45593999997E+02  0.45594000000E+02  0.51100000000E-03 0.  1.
         11   -1    0    0    0    0 -0.00000000000E+00 -0.00000000000E+00 -0.45593999997E+02  0.45594000000E+02  0.51100000000E-03 0. -1.
    9900012    2    1    2    0    0 -0.11745877593E+01  0.99434498600E-01  0.58770264820E-01  0.90007746820E+02  0.90000008278E+02 0.  0.
         12    1    1    2    0    0  0.11745877593E+01 -0.99434498600E-01 -0.58770264820E-01  0.11802531796E+01  0.00000000000E+00 0. -1.
         11    1    3    3    0    0 -0.20837530026E+01 -0.76775320102E+01  0.17907898376E+01  0.81543517735E+01  0.51100000000E-03 0. -1.
        -11    1    3    3    0    0  0.28513540897E+01 -0.19455603269E+02  0.32549967065E+02  0.38028293084E+02  0.51100000000E-03 0.  1.
         12    1    3    3    0    0 -0.19421888465E+01  0.27232569778E+02 -0.34281986637E+02  0.43825101963E+02  0.00000000000E+00 0. -1.
</event>
<event>
 7    1  0.2468912E-015  0.9000766E+02  0.7816164E-02  0.1186339E+00
        -11   -1    0    0    0    0  0.00000000000E+00  0.00000000000E+00  0.45593999997E+02  0.45594000000E+02  0.51100000000E-03 0. -1.
         11   -1    0    0    0    0 -0.00000000000E+00 -0.00000000000E+00 -0.45593999997E+02  0.45594000000E+02  0.51100000000E-03 0.  1.
    9900012    2    1    2    0    0 -0.48761060969E+00  0.80082377897E+00 -0.71701920239E+00  0.90007661333E+02  0.89999921663E+02 0.  0.
         12    1    1    2    0    0  0.48761060969E+00 -0.80082377897E+00  0.71701920239E+00  0.11803386668E+01  0.00000000000E+00 0. -1.
         11    1    3    3    0    0  0.32376940817E+02 -0.32848202699E+01  0.28764804586E+02  0.43433516137E+02  0.51100000000E-03 0. -1.
        -11    1    3    3    0    0 -0.25252626571E+01  0.47665013721E+01 -0.68419116281E+01  0.87125336043E+01  0.51100000000E-03 0.  1.
        -12    1    3    3    0    0 -0.30339288770E+02 -0.68085732324E+00 -0.22639912160E+02  0.37861611592E+02  0.00000000000E+00 0.  1.
</event>
<event>
 7    1  0.2468912E-015  0.9000775E+02  0.7816164E-02  0.1186339E+00
        -11   -1    0    0    0    0  0.00000000000E+00  0.00000000000E+00  0.45593999997E+02  0.45594000000E+02  0.51100000000E-03 0. -1.
         11   -1    0    0    0    0 -0.00000000000E+00 -0.00000000000E+00 -0.45593999997E+02  0.45594000000E+02  0.51100000000E-03 0.  1.
    9900012    2    1    2    0    0  0.79706145898E+00  0.40233261848E+00 -0.77188960880E+00  0.90007749148E+02  0.90000010637E+02 0.  0.
         12    1    1    2    0    0 -0.79706145898E+00 -0.40233261848E+00  0.77188960880E+00  0.11802508519E+01  0.00000000000E+00 0. -1.
         11    1    3    3    0    0 -0.63595713172E+01  0.63632685169E+01  0.76523271646E+01  0.11810734306E+02  0.51100000000E-03 0. -1.
        -11    1    3    3    0    0  0.22511602191E+02  0.27271249664E+02  0.10632006536E+02  0.36926045750E+02  0.51100000000E-03 0.  1.
         12    1    3    3    0    0 -0.15354969415E+02 -0.33232185563E+02 -0.19056223309E+02  0.41270969092E+02  0.00000000000E+00 0. -1.
</event>
<event>
 7    1  0.2468912E-015  0.9000882E+02  0.7816164E-02  0.1186337E+00
        -11   -1    0    0    0    0  0.00000000000E+00  0.00000000000E+00  0.45593999997E+02  0.45594000000E+02  0.51100000000E-03 0. -1.
         11   -1    0    0    0    0 -0.00000000000E+00 -0.00000000000E+00 -0.45593999997E+02  0.45594000000E+02  0.51100000000E-03 0.  1.
    9900012    2    1    2    0    0  0.28461871526E+00  0.13533864860E+00 -0.11362803250E+01  0.90008823448E+02  0.90001099111E+02 0.  0.
         12    1    1    2    0    0 -0.28461871526E+00 -0.13533864860E+00  0.11362803250E+01  0.11791765516E+01  0.00000000000E+00 0. -1.
         11    1    3    3    0    0  0.30390430424E+01 -0.71537202598E+01 -0.46624119060E+01  0.90636406158E+01  0.51100000000E-03 0. -1.
        -11    1    3    3    0    0 -0.30185232183E+02  0.31196970166E+02 -0.46271914227E+01  0.43655584868E+02  0.51100000000E-03 0.  1.
         12    1    3    3    0    0  0.27430807856E+02 -0.23907911257E+02  0.81533230037E+01  0.37289597964E+02  0.00000000000E+00 0. -1.
</event>
<event>
 7    1  0.2959236E-015  0.9000776E+02  0.7816164E-02  0.1186339E+00
        -11   -1    0    0    0    0  0.00000000000E+00  0.00000000000E+00  0.45593999997E+02  0.45594000000E+02  0.51100000000E-03 0.  1.
         11   -1    0    0    0    0 -0.00000000000E+00 -0.00000000000E+00 -0.45593999997E+02  0.45594000000E+02  0.51100000000E-03 0. -1.
    9900012    2    1    2    0    0  0.95232696776E+00 -0.68878233234E-01  0.69375281714E+00  0.90007761111E+02  0.90000022757E+02 0.  0.
         12    1    1    2    0    0 -0.95232696776E+00  0.68878233234E-01 -0.69375281714E+00  0.11802388893E+01  0.00000000000E+00 0. -1.
         11    1    3    3    0    0  0.10692874791E+02  0.12426310739E+02 -0.35079822028E+02  0.38721372440E+02  0.51100000000E-03 0. -1.
        -11    1    3    3    0    0 -0.74260122289E+01  0.53827228243E+01 -0.20397718287E+01  0.93957454202E+01  0.51100000000E-03 0.  1.
        -12    1    3    3    0    0 -0.23145355939E+01 -0.17877911797E+02  0.37813346674E+02  0.41890643250E+02  0.00000000000E+00 0.  1.
</event>
<event>
 7    1  0.2468912E-015  0.9000769E+02  0.7816164E-02  0.1186339E+00
        -11   -1    0    0    0    0  0.00000000000E+00  0.00000000000E+00  0.45593999997E+02  0.45594000000E+02  0.51100000000E-03 0.  1.
         11   -1    0    0    0    0 -0.00000000000E+00 -0.00000000000E+00 -0.45593999997E+02  0.45594000000E+02  0.51100000000E-03 0. -1.
    9900012    2    1    2    0    0 -0.51942013779E+00  0.74943247846E+00  0.74944932368E+00  0.90007694697E+02  0.89999955467E+02 0.  0.
         12    1    1    2    0    0  0.51942013779E+00 -0.74943247846E+00 -0.74944932368E+00  0.11803053029E+01  0.00000000000E+00 0. -1.
         11    1    3    3    0    0  0.34353420523E+01  0.76389562226E+01 -0.33257798722E+01  0.90119941859E+01  0.51100000000E-03 0. -1.
        -11    1    3    3    0    0  0.33065769386E+02  0.51776448462E+01  0.19930736788E+02  0.38953656829E+02  0.51100000000E-03 0.  1.
         12    1    3    3    0    0 -0.37020531576E+02 -0.12067168590E+02 -0.15855507592E+02  0.42042043682E+02  0.00000000000E+00 0. -1.
</event>
<event>
 7    1  0.2468912E-015  0.9000774E+02  0.7816164E-02  0.1186339E+00
        -11   -1    0    0    0    0  0.00000000000E+00  0.00000000000E+00  0.45593999997E+02  0.45594000000E+02  0.51100000000E-03 0. -1.
         11   -1    0    0    0    0 -0.00000000000E+00 -0.00000000000E+00 -0.45593999997E+02  0.45594000000E+02  0.51100000000E-03 0.  1.
    9900012    2    1    2    0    0 -0.34503551917E-01 -0.76726110541E+00 -0.89617747848E+00  0.90007739786E+02  0.90000001152E+02 0.  0.
         12    1    1    2    0    0  0.34503551917E-01  0.76726110541E+00  0.89617747848E+00  0.11802602136E+01  0.00000000000E+00 0. -1.
         11    1    3    3    0    0  0.32111047910E+02 -0.13080288086E+02  0.54924183087E+01  0.35105270166E+02  0.51100000000E-03 0. -1.
        -11    1    3    3    0    0  0.80171719638E+01  0.11877006062E+02 -0.25451877327E+01  0.14553910132E+02  0.51100000000E-03 0.  1.
        -12    1    3    3    0    0 -0.40162723426E+02  0.43602091893E+00 -0.38434080544E+01  0.40348559487E+02  0.00000000000E+00 0.  1.
</event>
<event>
 7    1  0.2468912E-015  0.9000774E+02  0.7816164E-02  0.1186339E+00
        -11   -1    0    0    0    0  0.00000000000E+00  0.00000000000E+00  0.45593999997E+02  0.45594000000E+02  0.51100000000E-03 0. -1.
         11   -1    0    0    0    0 -0.00000000000E+00 -0.00000000000E+00 -0.45593999997E+02  0.45594000000E+02  0.51100000000E-03 0.  1.
    9900012    2    1    2    0    0  0.77238814129E+00  0.37165710254E+00 -0.81135569353E+00  0.90007741340E+02  0.90000002726E+02 0.  0.
         12    1    1    2    0    0 -0.77238814129E+00 -0.37165710254E+00  0.81135569353E+00  0.11802586598E+01  0.00000000000E+00 0. -1.
         11    1    3    3    0    0  0.26117380280E+02 -0.28517793752E+02  0.20668845060E+02  0.43847272088E+02  0.51100000000E-03 0. -1.
        -11    1    3    3    0    0 -0.60837310309E+00  0.20602321412E+01  0.18605658354E+01  0.28418972179E+01  0.51100000000E-03 0.  1.
        -12    1    3    3    0    0 -0.24736619036E+02  0.26829218714E+02 -0.23340766589E+02  0.43318572034E+02  0.00000000000E+00 0.  1.
</event>
<event>
 7    1  0.2468912E-015  0.9000783E+02  0.7816164E-02  0.1186339E+00
        -11   -1    0    0    0    0  0.00000000000E+00  0.00000000000E+00  0.45593999997E+02  0.45594000000E+02  0.51100000000E-03 0.  1.
         11   -1    0    0    0    0 -0.00000000000E+00 -0.00000000000E+00 -0.45593999997E+02  0.45594000000E+02  0.51100000000E-03 0. -1.
    9900012    2    1    2    0    0  0.59499816794E+00 -0.10167020615E+01 -0.71387962665E-01  0.90007829613E+02  0.90000092164E+02 0.  0.
         12    1    1    2    0    0 -0.59499816794E+00  0.10167020615E+01  0.71387962665E-01  0.11801703873E+01  0.00000000000E+00 0. -1.
         11    1    3    3    0    0 -0.86781063518E+01 -0.83188386682E+00 -0.23991267807E+01  0.90419782233E+01  0.51100000000E-03 0. -1.
        -11    1    3    3    0    0 -0.24171635373E+02  0.17506159664E+02  0.23157384166E+02  0.37775627387E+02  0.51100000000E-03 0.  1.
         12    1    3    3    0    0  0.33444739893E+02 -0.17690977858E+02 -0.20829645348E+02  0.43190224003E+02  0.00000000000E+00 0. -1.
</event>
<event>
 7    1  0.2468912E-015  0.9000770E+02  0.7816164E-02  0.1186339E+00
        -11   -1    0    0    0    0  0.00000000000E+00  0.00000000000E+00  0.45593999997E+02  0.45594000000E+02  0.51100000000E-03 0.  1.
         11   -1    0    0    0    0 -0.00000000000E+00 -0.00000000000E+00 -0.45593999997E+02  0.45594000000E+02  0.51100000000E-03 0. -1.
    9900012    2    1    2    0    0 -0.30059214225E+00  0.46753144862E+00  0.10412322335E+01  0.90007700947E+02  0.89999961799E+02 0.  0.
         12    1    1    2    0    0  0.30059214225E+00 -0.46753144862E+00 -0.10412322335E+01  0.11802990534E+01  0.00000000000E+00 0. -1.
         11    1    3    3    0    0  0.97036153646E+00 -0.83245922612E+01  0.61312524824E+01  0.10384252264E+02  0.51100000000E-03 0. -1.
        -11    1    3    3    0    0  0.14164830223E+02  0.12694566854E+02  0.33139950551E+02  0.38210610642E+02  0.51100000000E-03 0.  1.
         12    1    3    3    0    0 -0.15435783902E+02 -0.39024431443E+01 -0.38229970800E+02  0.41412838040E+02  0.00000000000E+00 0. -1.
</event>
<event>
 7    1  0.2468912E-015  0.9000777E+02  0.7816164E-02  0.1186339E+00
        -11   -1    0    0    0    0  0.00000000000E+00  0.00000000000E+00  0.45593999997E+02  0.45594000000E+02  0.51100000000E-03 0.  1.
         11   -1    0    0    0    0 -0.00000000000E+00 -0.00000000000E+00 -0.45593999997E+02  0.45594000000E+02  0.51100000000E-03 0. -1.
    9900012    2    1    2    0    0  0.44769433900E+00 -0.28916466869E+00  0.10530408050E+01  0.90007770631E+02  0.90000032403E+02 0.  0.
         12    1    1    2    0    0 -0.44769433900E+00  0.28916466869E+00 -0.10530408050E+01  0.11802293691E+01  0.00000000000E+00 0. -1.
         11    1    3    3    0    0  0.30819957848E+02 -0.22717143155E+01 -0.22048668825E+02  0.37962801332E+02  0.51100000000E-03 0. -1.
        -11    1    3    3    0    0 -0.64493012264E+01  0.24837052496E+01 -0.94111332906E+01  0.11676116998E+02  0.51100000000E-03 0.  1.
        -12    1    3    3    0    0 -0.23922962283E+02 -0.50115560273E+00  0.32512842921E+02  0.40368852301E+02  0.00000000000E+00 0.  1.
</event>
<event>
 7    1  0.2468912E-015  0.9000773E+02  0.7816164E-02  0.1186339E+00
        -11   -1    0    0    0    0  0.00000000000E+00  0.00000000000E+00  0.45593999997E+02  0.45594000000E+02  0.51100000000E-03 0. -1.
         11   -1    0    0    0    0 -0.00000000000E+00 -0.00000000000E+00 -0.45593999997E+02  0.45594000000E+02  0.51100000000E-03 0.  1.
    9900012    2    1    2    0    0 -0.97073969285E+00  0.27311364914E+00 -0.61327497162E+00  0.90007731892E+02  0.89999993153E+02 0.  0.
         12    1    1    2    0    0  0.97073969285E+00 -0.27311364914E+00  0.61327497162E+00  0.11802681083E+01  0.00000000000E+00 0. -1.
         11    1    3    3    0    0  0.84634198146E+00 -0.11781976677E+01  0.39859716826E+02  0.39886106230E+02  0.51100000000E-03 0. -1.
        -11    1    3    3    0    0 -0.10603113539E+02  0.10487017403E+02 -0.12568783141E+02  0.19503278202E+02  0.51100000000E-03 0.  1.
        -12    1    3    3    0    0  0.87860318647E+01 -0.90357060858E+01 -0.27904208656E+02  0.30618347459E+02  0.00000000000E+00 0.  1.
</event>
<event>
 7    1  0.2468912E-015  0.9000772E+02  0.7816164E-02  0.1186339E+00
        -11   -1    0    0    0    0  0.00000000000E+00  0.00000000000E+00  0.45593999997E+02  0.45594000000E+02  0.51100000000E-03 0.  1.
         11   -1    0    0    0    0 -0.00000000000E+00 -0.00000000000E+00 -0.45593999997E+02  0.45594000000E+02  0.51100000000E-03 0. -1.
    9900012    2    1    2    0    0  0.23045931722E+00  0.33973558259E-01  0.11570617526E+01  0.90007721389E+02  0.89999982512E+02 0.  0.
         12    1    1    2    0    0 -0.23045931722E+00 -0.33973558259E-01 -0.11570617526E+01  0.11802786107E+01  0.00000000000E+00 0. -1.
         11    1    3    3    0    0  0.14600890138E+02 -0.23945129212E+01 -0.81091255161E+01  0.16872391705E+02  0.51100000000E-03 0. -1.
        -11    1    3    3    0    0  0.96529205865E+01  0.26955465055E+02  0.22424478627E+02  0.36368024611E+02  0.51100000000E-03 0.  1.
         12    1    3    3    0    0 -0.24023351407E+02 -0.24526978576E+02 -0.13158291358E+02  0.36767305073E+02  0.00000000000E+00 0. -1.
</event>
<event>
 7    1  0.2468912E-015  0.9000773E+02  0.7816164E-02  0.1186339E+00
        -11   -1    0    0    0    0  0.00000000000E+00  0.00000000000E+00  0.45593999997E+02  0.45594000000E+02  0.51100000000E-03 0. -1.
         11   -1    0    0    0    0 -0.00000000000E+00 -0.00000000000E+00 -0.45593999997E+02  0.45594000000E+02  0.51100000000E-03 0.  1.
    9900012    2    1    2    0    0 -0.70280269660E+00 -0.55612533976E+00  0.76800782943E+00  0.90007727553E+02  0.89999988756E+02 0.  0.
         12    1    1    2    0    0  0.70280269660E+00  0.55612533976E+00 -0.76800782943E+00  0.11802724473E+01  0.00000000000E+00 0. -1.
         11    1    3    3    0    0  0.34391502301E+01 -0.48187779164E+01  0.64576965556E+01  0.87607202888E+01  0.51100000000E-03 0. -1.
        -11    1    3    3    0    0  0.32867661595E+02 -0.10232830634E+02  0.13666483884E+02  0.37037370094E+02  0.51100000000E-03 0.  1.
         12    1    3    3    0    0 -0.37009614522E+02  0.14495483211E+02 -0.19356172610E+02  0.44209637169E+02  0.00000000000E+00 0. -1.
</event>
<event>
 7    1  0.2468912E-015  0.9000774E+02  0.7816164E-02  0.1186339E+00
        -11   -1    0    0    0    0  0.00000000000E+00  0.00000000000E+00  0.45593999997E+02  0.45594000000E+02  0.51100000000E-03 0.  1.
         11   -1    0    0    0    0 -0.00000000000E+00 -0.00000000000E+00 -0.45593999997E+02  0.45594000000E+02  0.51100000000E-03 0. -1.
    9900012    2    1    2    0    0 -0.49691714202E-01  0.23568529274E+00  0.11554166892E+01  0.90007743863E+02  0.90000005282E+02 0.  0.
         12    1    1    2    0    0  0.49691714202E-01 -0.23568529274E+00 -0.11554166892E+01  0.11802561371E+01  0.00000000000E+00 0. -1.
         11    1    3    3    0    0 -0.95107334939E+01  0.97469810251E+01  0.52607349239E+01  0.14599076097E+02  0.51100000000E-03 0. -1.
        -11    1    3    3    0    0  0.40971290642E+02 -0.70519078053E+01  0.64829220105E+01  0.42076173051E+02  0.51100000000E-03 0.  1.
         12    1    3    3    0    0 -0.31510248863E+02 -0.24593879271E+01 -0.10588240245E+02  0.33332494714E+02  0.00000000000E+00 0. -1.
</event>
<event>
 7    1  0.2468912E-015  0.9000773E+02  0.7816164E-02  0.1186339E+00
        -11   -1    0    0    0    0  0.00000000000E+00  0.00000000000E+00  0.45593999997E+02  0.45594000000E+02  0.51100000000E-03 0.  1.
         11   -1    0    0    0    0 -0.00000000000E+00 -0.00000000000E+00 -0.45593999997E+02  0.45594000000E+02  0.51100000000E-03 0. -1.
    9900012    2    1    2    0    0 -0.11653916001E+01 -0.14250786236E+00 -0.12075400674E+00  0.90007734097E+02  0.89999995387E+02 0.  0.
         12    1    1    2    0    0  0.11653916001E+01  0.14250786236E+00  0.12075400674E+00  0.11802659033E+01  0.00000000000E+00 0. -1.
         11    1    3    3    0    0  0.51449471446E+01 -0.35759469971E+01  0.68334203476E+01  0.92711116893E+01  0.51100000000E-03 0. -1.
        -11    1    3    3    0    0  0.65461669797E+00  0.10412214285E+02  0.35578248135E+02  0.37076333016E+02  0.51100000000E-03 0.  1.
         12    1    3    3    0    0 -0.69649554426E+01 -0.69787751505E+01 -0.42532422489E+02  0.43660289391E+02  0.00000000000E+00 0. -1.
</event>
<event>
 7    1  0.2468912E-015  0.9000771E+02  0.7816164E-02  0.1186339E+00
        -11   -1    0    0    0    0  0.00000000000E+00  0.00000000000E+00  0.45593999997E+02  0.45594000000E+02  0.51100000000E-03 0. -1.
         11   -1    0    0    0    0 -0.00000000000E+00 -0.00000000000E+00 -0.45593999997E+02  0.45594000000E+02  0.51100000000E-03 0.  1.
    9900012    2    1    2    0    0  0.57252303354E+00  0.10304717899E+01  0.58594420769E-01  0.90007708494E+02  0.89999969446E+02 0.  0.
         12    1    1    2    0    0 -0.57252303354E+00 -0.10304717899E+01 -0.58594420769E-01  0.11802915063E+01  0.00000000000E+00 0. -1.
         11    1    3    3    0    0 -0.36448530290E+02  0.22504947673E+01 -0.11265083589E+02  0.38215993975E+02  0.51100000000E-03 0. -1.
        -11    1    3    3    0    0 -0.57052573234E+01 -0.42461624776E+01 -0.10918987503E+01  0.71952831810E+01  0.51100000000E-03 0.  1.
        -12    1    3    3    0    0  0.42726310647E+02  0.30261395002E+01  0.12415576760E+02  0.44596431338E+02  0.00000000000E+00 0.  1.
</event>
<event>
 7    1  0.2468912E-015  0.9000752E+02  0.7816164E-02  0.1186339E+00
        -11   -1    0    0    0    0  0.00000000000E+00  0.00000000000E+00  0.45593999997E+02  0.45594000000E+02  0.51100000000E-03 0. -1.
         11   -1    0    0    0    0 -0.00000000000E+00 -0.00000000000E+00 -0.45593999997E+02  0.45594000000E+02  0.51100000000E-03 0.  1.
    9900012    2    1    2    0    0 -0.10643801717E+01  0.35487086677E+00 -0.36700876438E+00  0.90007519625E+02  0.89999778084E+02 0.  0.
         12    1    1    2    0    0  0.10643801717E+01 -0.35487086677E+00  0.36700876438E+00  0.11804803747E+01  0.00000000000E+00 0. -1.
         11    1    3    3    0    0  0.62496531913E+01 -0.23497851898E+00 -0.78154759749E+01  0.10009747494E+02  0.51100000000E-03 0. -1.
        -11    1    3    3    0    0 -0.21590863895E+02 -0.34453218887E+02 -0.29172414228E+01  0.40763954582E+02  0.51100000000E-03 0.  1.
         12    1    3    3    0    0  0.14276830532E+02  0.35043068273E+02  0.10365708633E+02  0.39233817549E+02  0.00000000000E+00 0. -1.
</event>
<event>
 7    1  0.2468912E-015  0.9000779E+02  0.7816164E-02  0.1186339E+00
        -11   -1    0    0    0    0  0.00000000000E+00  0.00000000000E+00  0.45593999997E+02  0.45594000000E+02  0.51100000000E-03 0.  1.
         11   -1    0    0    0    0 -0.00000000000E+00 -0.00000000000E+00 -0.45593999997E+02  0.45594000000E+02  0.51100000000E-03 0. -1.
    9900012    2    1    2    0    0 -0.78349538716E+00 -0.26119790601E+00  0.84309783306E+00  0.90007786746E+02  0.90000048731E+02 0.  0.
         12    1    1    2    0    0  0.78349538716E+00  0.26119790601E+00 -0.84309783306E+00  0.11802132536E+01  0.00000000000E+00 0. -1.
         11    1    3    3    0    0 -0.63816881098E+01  0.56787375441E+01 -0.97410018253E+01  0.12956122879E+02  0.51100000000E-03 0. -1.
        -11    1    3    3    0    0 -0.98108487647E+01  0.22957282240E+02  0.29961255451E+02  0.38999569098E+02  0.51100000000E-03 0.  1.
         12    1    3    3    0    0  0.15409041487E+02 -0.28897217690E+02 -0.19377155793E+02  0.38052094770E+02  0.00000000000E+00 0. -1.
</event>
<event>
 7    1  0.2981270E-015  0.9000774E+02  0.7816164E-02  0.1186339E+00
        -11   -1    0    0    0    0  0.00000000000E+00  0.00000000000E+00  0.45593999997E+02  0.45594000000E+02  0.51100000000E-03 0. -1.
         11   -1    0    0    0    0 -0.00000000000E+00 -0.00000000000E+00 -0.45593999997E+02  0.45594000000E+02  0.51100000000E-03 0.  1.
    9900012    2    1    2    0    0  0.81431248429E+00 -0.20714664843E-02 -0.85435096954E+00  0.90007735330E+02  0.89999996636E+02 0.  0.
         12    1    1    2    0    0 -0.81431248429E+00  0.20714664843E-02  0.85435096954E+00  0.11802646704E+01  0.00000000000E+00 0. -1.
         11    1    3    3    0    0 -0.15805289347E+02 -0.30294981949E+02  0.13049343948E+02  0.36577021207E+02  0.51100000000E-03 0. -1.
        -11    1    3    3    0    0 -0.15734715784E+01 -0.82377741759E+01 -0.54166615733E+01  0.99838348866E+01  0.51100000000E-03 0.  1.
        -12    1    3    3    0    0  0.18193073410E+02  0.38530684658E+02 -0.84870333446E+01  0.43446879236E+02  0.00000000000E+00 0.  1.
</event>
<event>
 7    1  0.2468912E-015  0.9000829E+02  0.7816164E-02  0.1186338E+00
        -11   -1    0    0    0    0  0.00000000000E+00  0.00000000000E+00  0.45593999997E+02  0.45594000000E+02  0.51100000000E-03 0.  1.
         11   -1    0    0    0    0 -0.00000000000E+00 -0.00000000000E+00 -0.45593999997E+02  0.45594000000E+02  0.51100000000E-03 0. -1.
    9900012    2    1    2    0    0 -0.52613007863E+00 -0.72730812124E+00  0.76545551043E+00  0.90008291519E+02  0.90000560165E+02 0.  0.
         12    1    1    2    0    0  0.52613007863E+00  0.72730812124E+00 -0.76545551043E+00  0.11797084815E+01  0.00000000000E+00 0. -1.
         11    1    3    3    0    0  0.13748983085E+02 -0.22679625673E+02 -0.31135180411E+02  0.40899870611E+02  0.51100000000E-03 0. -1.
        -11    1    3    3    0    0 -0.50367333730E+01 -0.60284569039E+01  0.61722294467E+01  0.99903649741E+01  0.51100000000E-03 0.  1.
        -12    1    3    3    0    0 -0.92383797906E+01  0.27980774456E+02  0.25728406474E+02  0.39118055933E+02  0.00000000000E+00 0.  1.
</event>
<event>
 7    1  0.2468912E-015  0.9000761E+02  0.7816164E-02  0.1186339E+00
        -11   -1    0    0    0    0  0.00000000000E+00  0.00000000000E+00  0.45593999997E+02  0.45594000000E+02  0.51100000000E-03 0.  1.
         11   -1    0    0    0    0 -0.00000000000E+00 -0.00000000000E+00 -0.45593999997E+02  0.45594000000E+02  0.51100000000E-03 0. -1.
    9900012    2    1    2    0    0  0.88984129993E-01  0.11770294762E+01  0.36815417458E-02  0.90007605948E+02  0.89999865547E+02 0.  0.
         12    1    1    2    0    0 -0.88984129993E-01 -0.11770294762E+01 -0.36815417458E-02  0.11803940515E+01  0.00000000000E+00 0. -1.
         11    1    3    3    0    0 -0.15074095338E+01 -0.79766917353E+01 -0.54417532961E+01  0.97730534502E+01  0.51100000000E-03 0. -1.
        -11    1    3    3    0    0 -0.32996321128E+02 -0.16538875520E+02  0.10975223918E+01  0.36925548975E+02  0.51100000000E-03 0.  1.
         12    1    3    3    0    0  0.34592714792E+02  0.25692596732E+02  0.43479124460E+01  0.43309003523E+02  0.00000000000E+00 0. -1.
</event>
<event>
 7    1  0.2468912E-015  0.9000768E+02  0.7816164E-02  0.1186339E+00
        -11   -1    0    0    0    0  0.00000000000E+00  0.00000000000E+00  0.45593999997E+02  0.45594000000E+02  0.51100000000E-03 0.  1.
         11   -1    0    0    0    0 -0.00000000000E+00 -0.00000000000E+00 -0.45593999997E+02  0.45594000000E+02  0.51100000000E-03 0. -1.
    9900012    2    1    2    0    0 -0.36146345463E+00 -0.11087908768E+01 -0.18187755079E+00  0.90007681195E+02  0.89999941787E+02 0.  0.
         12    1    1    2    0    0  0.36146345463E+00  0.11087908768E+01  0.18187755079E+00  0.11803188048E+01  0.00000000000E+00 0. -1.
         11    1    3    3    0    0 -0.11131768504E+01  0.86109613249E+01  0.26184640925E-01  0.86826553274E+01  0.51100000000E-03 0. -1.
        -11    1    3    3    0    0 -0.26303993049E+02  0.22049575704E+02 -0.14438414353E+02  0.37236429049E+02  0.51100000000E-03 0.  1.
         12    1    3    3    0    0  0.27055706445E+02 -0.31769327906E+02  0.14230352161E+02  0.44088596819E+02  0.00000000000E+00 0. -1.
</event>
<event>
 7    1  0.2468912E-015  0.9000767E+02  0.7816164E-02  0.1186339E+00
        -11   -1    0    0    0    0  0.00000000000E+00  0.00000000000E+00  0.45593999997E+02  0.45594000000E+02  0.51100000000E-03 0.  1.
         11   -1    0    0    0    0 -0.00000000000E+00 -0.00000000000E+00 -0.45593999997E+02  0.45594000000E+02  0.51100000000E-03 0. -1.
    9900012    2    1    2    0    0  0.75774746310E+00 -0.57295906224E+00  0.70050460162E+00  0.90007673773E+02  0.89999934267E+02 0.  0.
         12    1    1    2    0    0 -0.75774746310E+00  0.57295906224E+00 -0.70050460162E+00  0.11803262268E+01  0.00000000000E+00 0. -1.
         11    1    3    3    0    0  0.33082672723E+01 -0.15385055582E+01 -0.78384605741E+01  0.86459872849E+01  0.51100000000E-03 0. -1.
        -11    1    3    3    0    0  0.26661884300E+02  0.28971729391E+02 -0.23837940445E+01  0.39444893873E+02  0.51100000000E-03 0.  1.
         12    1    3    3    0    0 -0.29212404109E+02 -0.28006182895E+02  0.10922759220E+02  0.41916792615E+02  0.00000000000E+00 0. -1.
</event>
<event>
 7    1  0.2468912E-015  0.9000773E+02  0.7816164E-02  0.1186339E+00
        -11   -1    0    0    0    0  0.00000000000E+00  0.00000000000E+00  0.45593999997E+02  0.45594000000E+02  0.51100000000E-03 0.  1.
         11   -1    0    0    0    0 -0.00000000000E+00 -0.00000000000E+00 -0.45593999997E+02  0.45594000000E+02  0.51100000000E-03 0. -1.
    9900012    2    1    2    0    0  0.10321753313E+01 -0.40838379592E-01  0.57094596629E+00  0.90007731817E+02  0.89999993077E+02 0.  0.
         12    1    1    2    0    0 -0.10321753313E+01  0.40838379592E-01 -0.57094596629E+00  0.11802681832E+01  0.00000000000E+00 0. -1.
         11    1    3    3    0    0 -0.26042623813E+02 -0.26867224425E+02  0.16408159388E+02  0.40856990811E+02  0.51100000000E-03 0. -1.
        -11    1    3    3    0    0  0.54826548058E+01 -0.45981740744E+01 -0.70045144682E+01  0.10013287758E+02  0.51100000000E-03 0.  1.
        -12    1    3    3    0    0  0.21592144338E+02  0.31424560120E+02 -0.88326989537E+01  0.39137453247E+02  0.00000000000E+00 0.  1.
</event>
<event>
 7    1  0.2468912E-015  0.9000775E+02  0.7816164E-02  0.1186339E+00
        -11   -1    0    0    0    0  0.00000000000E+00  0.00000000000E+00  0.45593999997E+02  0.45594000000E+02  0.51100000000E-03 0.  1.
         11   -1    0    0    0    0 -0.00000000000E+00 -0.00000000000E+00 -0.45593999997E+02  0.45594000000E+02  0.51100000000E-03 0. -1.
    9900012    2    1    2    0    0  0.12354505700E+00  0.42541240132E+00  0.10939614668E+01  0.90007749695E+02  0.90000011191E+02 0.  0.
         12    1    1    2    0    0 -0.12354505700E+00 -0.42541240132E+00 -0.10939614668E+01  0.11802503053E+01  0.00000000000E+00 0. -1.
         11    1    3    3    0    0  0.42667575607E+01  0.28743419247E+01  0.87966505122E+01  0.10190589879E+02  0.51100000000E-03 0. -1.
        -11    1    3    3    0    0  0.35408708174E+02  0.61754535462E+01 -0.14521140020E+02  0.38765659401E+02  0.51100000000E-03 0.  1.
         12    1    3    3    0    0 -0.39551920678E+02 -0.86243830695E+01  0.68184509748E+01  0.41051500415E+02  0.00000000000E+00 0. -1.
</event>
<event>
 7    1  0.2468912E-015  0.9000769E+02  0.7816164E-02  0.1186339E+00
        -11   -1    0    0    0    0  0.00000000000E+00  0.00000000000E+00  0.45593999997E+02  0.45594000000E+02  0.51100000000E-03 0. -1.
         11   -1    0    0    0    0 -0.00000000000E+00 -0.00000000000E+00 -0.45593999997E+02  0.45594000000E+02  0.51100000000E-03 0.  1.
    9900012    2    1    2    0    0 -0.22552378385E+00  0.42894269733E+00 -0.10762375919E+01  0.90007686411E+02  0.89999947071E+02 0.  0.
         12    1    1    2    0    0  0.22552378385E+00 -0.42894269733E+00  0.10762375919E+01  0.11803135893E+01  0.00000000000E+00 0. -1.
         11    1    3    3    0    0 -0.51629826223E+01  0.75463286742E+01 -0.22593533650E+01  0.94185000879E+01  0.51100000000E-03 0. -1.
        -11    1    3    3    0    0 -0.19031662088E+02 -0.30908663134E+02 -0.19280735604E+02  0.41101050890E+02  0.51100000000E-03 0.  1.
         12    1    3    3    0    0  0.23969120927E+02  0.23791277157E+02  0.20463851377E+02  0.39488135433E+02  0.00000000000E+00 0. -1.
</event>
<event>
 7    1  0.2468912E-015  0.9000692E+02  0.7816164E-02  0.1186341E+00
        -11   -1    0    0    0    0  0.00000000000E+00  0.00000000000E+00  0.45593999997E+02  0.45594000000E+02  0.51100000000E-03 0. -1.
         11   -1    0    0    0    0 -0.00000000000E+00 -0.00000000000E+00 -0.45593999997E+02  0.45594000000E+02  0.51100000000E-03 0.  1.
    9900012    2    1    2    0    0 -0.10823960177E+01  0.30337019738E+00 -0.36241551551E+00  0.90006915913E+02  0.89999166399E+02 0.  0.
         12    1    1    2    0    0  0.10823960177E+01 -0.30337019738E+00  0.36241551551E+00  0.11810840874E+01  0.00000000000E+00 0. -1.
         11    1    3    3    0    0 -0.22546537191E+01 -0.88728342849E+01 -0.78110101212E+01  0.12034223324E+02  0.51100000000E-03 0. -1.
        -11    1    3    3    0    0  0.35143832372E+02 -0.12487750864E+02  0.46302231966E+01  0.37582866342E+02  0.51100000000E-03 0.  1.
         12    1    3    3    0    0 -0.33971574670E+02  0.21663955346E+02  0.28183714091E+01  0.40389826246E+02  0.00000000000E+00 0. -1.
</event>
<event>
 7    1  0.2468912E-015  0.9000774E+02  0.7816164E-02  0.1186339E+00
        -11   -1    0    0    0    0  0.00000000000E+00  0.00000000000E+00  0.45593999997E+02  0.45594000000E+02  0.51100000000E-03 0. -1.
         11   -1    0    0    0    0 -0.00000000000E+00 -0.00000000000E+00 -0.45593999997E+02  0.45594000000E+02  0.51100000000E-03 0.  1.
    9900012    2    1    2    0    0 -0.35574876384E+00  0.49214064334E+00 -0.10120525623E+01  0.90007741560E+02  0.90000002949E+02 0.  0.
         12    1    1    2    0    0  0.35574876384E+00 -0.49214064334E+00  0.10120525623E+01  0.11802584398E+01  0.00000000000E+00 0. -1.
         11    1    3    3    0    0  0.46088232086E+01  0.71746769592E+01 -0.27033149988E+01  0.89456778995E+01  0.51100000000E-03 0. -1.
        -11    1    3    3    0    0 -0.28414481297E+02 -0.94511512626E+01 -0.29437135975E+02  0.41991094083E+02  0.51100000000E-03 0.  1.
         12    1    3    3    0    0  0.23449909325E+02  0.27686149467E+01  0.31128398412E+02  0.39070969578E+02  0.00000000000E+00 0. -1.
</event>
<event>
 7    1  0.2468912E-015  0.9000774E+02  0.7816164E-02  0.1186339E+00
        -11   -1    0    0    0    0  0.00000000000E+00  0.00000000000E+00  0.45593999997E+02  0.45594000000E+02  0.51100000000E-03 0.  1.
         11   -1    0    0    0    0 -0.00000000000E+00 -0.00000000000E+00 -0.45593999997E+02  0.45594000000E+02  0.51100000000E-03 0. -1.
    9900012    2    1    2    0    0  0.83373786183E+00  0.14277159918E+00  0.82310930549E+00  0.90007740927E+02  0.90000002307E+02 0.  0.
         12    1    1    2    0    0 -0.83373786183E+00 -0.14277159918E+00 -0.82310930549E+00  0.11802590735E+01  0.00000000000E+00 0. -1.
         11    1    3    3    0    0 -0.88381932406E+01  0.40586359093E+01 -0.34778578454E+01  0.10328682426E+02  0.51100000000E-03 0. -1.
        -11    1    3    3    0    0 -0.26646712850E+02 -0.15163411386E+02  0.22005287468E+02  0.37738694033E+02  0.51100000000E-03 0.  1.
         12    1    3    3    0    0  0.36318643952E+02  0.11247547075E+02 -0.17704320317E+02  0.41940364467E+02  0.00000000000E+00 0. -1.
</event>
<event>
 7    1  0.2468912E-015  0.9000767E+02  0.7816164E-02  0.1186339E+00
        -11   -1    0    0    0    0  0.00000000000E+00  0.00000000000E+00  0.45593999997E+02  0.45594000000E+02  0.51100000000E-03 0. -1.
         11   -1    0    0    0    0 -0.00000000000E+00 -0.00000000000E+00 -0.45593999997E+02  0.45594000000E+02  0.51100000000E-03 0.  1.
    9900012    2    1    2    0    0 -0.46586753435E-01 -0.90833822993E+00 -0.75228888471E+00  0.90007666474E+02  0.89999926872E+02 0.  0.
         12    1    1    2    0    0  0.46586753435E-01  0.90833822993E+00  0.75228888471E+00  0.11803335256E+01  0.00000000000E+00 0. -1.
         11    1    3    3    0    0  0.23069294691E+01  0.61126164651E+01  0.62134261566E+00  0.65629315501E+01  0.51100000000E-03 0. -1.
        -11    1    3    3    0    0 -0.11215693427E+02  0.16866947371E+02 -0.35490455361E+02  0.40863897448E+02  0.51100000000E-03 0.  1.
         12    1    3    3    0    0  0.88621772043E+01 -0.23887902066E+02  0.34116823860E+02  0.42580837477E+02  0.00000000000E+00 0. -1.
</event>
<event>
 7    1  0.2468912E-015  0.9000789E+02  0.7816164E-02  0.1186339E+00
        -11   -1    0    0    0    0  0.00000000000E+00  0.00000000000E+00  0.45593999997E+02  0.45594000000E+02  0.51100000000E-03 0. -1.
         11   -1    0    0    0    0 -0.00000000000E+00 -0.00000000000E+00 -0.45593999997E+02  0.45594000000E+02  0.51100000000E-03 0.  1.
    9900012    2    1    2    0    0 -0.80601886941E+00  0.57583975673E+00  0.64140028380E+00  0.90007893154E+02  0.90000156544E+02 0.  0.
         12    1    1    2    0    0  0.80601886941E+00 -0.57583975673E+00 -0.64140028380E+00  0.11801068457E+01  0.00000000000E+00 0. -1.
         11    1    3    3    0    0  0.36170526701E+02  0.91585867131E+01  0.10320874970E+02  0.38713139537E+02  0.51100000000E-03 0. -1.
        -11    1    3    3    0    0  0.15904568204E+00 -0.93895701088E+01  0.58179822320E+01  0.11047091919E+02  0.51100000000E-03 0.  1.
        -12    1    3    3    0    0 -0.37135591252E+02  0.80682315243E+00 -0.15497456919E+02  0.40247661698E+02  0.00000000000E+00 0.  1.
</event>
<event>
 7    1  0.2468912E-015  0.9000789E+02  0.7816164E-02  0.1186339E+00
        -11   -1    0    0    0    0  0.00000000000E+00  0.00000000000E+00  0.45593999997E+02  0.45594000000E+02  0.51100000000E-03 0. -1.
         11   -1    0    0    0    0 -0.00000000000E+00 -0.00000000000E+00 -0.45593999997E+02  0.45594000000E+02  0.51100000000E-03 0.  1.
    9900012    2    1    2    0    0  0.85870405197E+00 -0.70937962780E+00 -0.38996834897E+00  0.90007886693E+02  0.90000149997E+02 0.  0.
         12    1    1    2    0    0 -0.85870405197E+00  0.70937962780E+00  0.38996834897E+00  0.11801133074E+01  0.00000000000E+00 0. -1.
         11    1    3    3    0    0  0.54255360650E+01 -0.42590631887E+01 -0.38457199087E+01  0.78971908117E+01  0.51100000000E-03 0. -1.
        -11    1    3    3    0    0  0.13056604795E+02 -0.55289627441E+01 -0.35595526534E+02  0.38315608664E+02  0.51100000000E-03 0.  1.
         12    1    3    3    0    0 -0.17623436808E+02  0.90786463051E+01  0.39051278093E+02  0.43795087217E+02  0.00000000000E+00 0. -1.
</event>
<event>
 7    1  0.2468912E-015  0.9000814E+02  0.7816164E-02  0.1186338E+00
        -11   -1    0    0    0    0  0.00000000000E+00  0.00000000000E+00  0.45593999997E+02  0.45594000000E+02  0.51100000000E-03 0.  1.
         11   -1    0    0    0    0 -0.00000000000E+00 -0.00000000000E+00 -0.45593999997E+02  0.45594000000E+02  0.51100000000E-03 0. -1.
    9900012    2    1    2    0    0 -0.57205357861E+00 -0.10207334795E+01 -0.15143698609E+00  0.90008137595E+02  0.90000404211E+02 0.  0.
         12    1    1    2    0    0  0.57205357861E+00  0.10207334795E+01  0.15143698609E+00  0.11798624046E+01  0.00000000000E+00 0. -1.
         11    1    3    3    0    0 -0.67428778579E+00 -0.24557750705E+02 -0.28078167001E+02  0.37308460785E+02  0.51100000000E-03 0. -1.
        -11    1    3    3    0    0 -0.61654970660E+00 -0.10332220223E+02  0.99102005856E+01  0.14329933153E+02  0.51100000000E-03 0.  1.
        -12    1    3    3    0    0  0.71878391378E+00  0.33869237448E+02  0.18016529429E+02  0.38369743657E+02  0.00000000000E+00 0.  1.
</event>
<event>
 7    1  0.2468912E-015  0.9000776E+02  0.7816164E-02  0.1186339E+00
        -11   -1    0    0    0    0  0.00000000000E+00  0.00000000000E+00  0.45593999997E+02  0.45594000000E+02  0.51100000000E-03 0.  1.
         11   -1    0    0    0    0 -0.00000000000E+00 -0.00000000000E+00 -0.45593999997E+02  0.45594000000E+02  0.51100000000E-03 0. -1.
    9900012    2    1    2    0    0 -0.75439128861E-01  0.25108094348E+00  0.11507570186E+01  0.90007756628E+02  0.90000018215E+02 0.  0.
         12    1    1    2    0    0  0.75439128861E-01 -0.25108094348E+00 -0.11507570186E+01  0.11802433724E+01  0.00000000000E+00 0. -1.
         11    1    3    3    0    0  0.15826408479E+02  0.45320145427E+01  0.57928529991E+01  0.17451977174E+02  0.51100000000E-03 0. -1.
        -11    1    3    3    0    0  0.10115176986E+02  0.11028743040E+02  0.25709771834E+02  0.29747980545E+02  0.51100000000E-03 0.  1.
        -12    1    3    3    0    0 -0.26017024594E+02 -0.15309676640E+02 -0.30351867814E+02  0.42807798908E+02  0.00000000000E+00 0.  1.
</event>
<event>
 7    1  0.2468912E-015  0.9000787E+02  0.7816164E-02  0.1186339E+00
        -11   -1    0    0    0    0  0.00000000000E+00  0.00000000000E+00  0.45593999997E+02  0.45594000000E+02  0.51100000000E-03 0.  1.
         11   -1    0    0    0    0 -0.00000000000E+00 -0.00000000000E+00 -0.45593999997E+02  0.45594000000E+02  0.51100000000E-03 0. -1.
    9900012    2    1    2    0    0  0.22451775524E+00  0.16877845390E-01  0.11584499930E+01  0.90007873113E+02  0.90000136238E+02 0.  0.
         12    1    1    2    0    0 -0.22451775524E+00 -0.16877845390E-01 -0.11584499930E+01  0.11801268874E+01  0.00000000000E+00 0. -1.
         11    1    3    3    0    0  0.13018518740E+02  0.24221965623E+02 -0.22666350812E+02  0.35636342520E+02  0.51100000000E-03 0. -1.
        -11    1    3    3    0    0  0.44837508940E+01  0.89457824566E+01 -0.65191644061E-01  0.10006762516E+02  0.51100000000E-03 0.  1.
        -12    1    3    3    0    0 -0.17277751879E+02 -0.33150870235E+02  0.23889992449E+02  0.44364768076E+02  0.00000000000E+00 0.  1.
</event>
<event>
 7    1  0.2468912E-015  0.9000770E+02  0.7816164E-02  0.1186339E+00
        -11   -1    0    0    0    0  0.00000000000E+00  0.00000000000E+00  0.45593999997E+02  0.45594000000E+02  0.51100000000E-03 0.  1.
         11   -1    0    0    0    0 -0.00000000000E+00 -0.00000000000E+00 -0.45593999997E+02  0.45594000000E+02  0.51100000000E-03 0. -1.
    9900012    2    1    2    0    0 -0.15883938106E+00  0.68715664578E-02  0.11695391872E+01  0.90007703818E+02  0.89999964708E+02 0.  0.
         12    1    1    2    0    0  0.15883938106E+00 -0.68715664578E-02 -0.11695391872E+01  0.11802961822E+01  0.00000000000E+00 0. -1.
         11    1    3    3    0    0  0.20334710763E+01 -0.27462626198E+01  0.95597666145E+01  0.10152147604E+02  0.51100000000E-03 0. -1.
        -11    1    3    3    0    0 -0.11320201002E+02  0.19506470425E+01  0.34310705237E+02  0.36182543702E+02  0.51100000000E-03 0.  1.
         12    1    3    3    0    0  0.91278905448E+01  0.80248714370E+00 -0.42700932664E+02  0.43673012512E+02  0.00000000000E+00 0. -1.
</event>
<event>
 7    1  0.2468912E-015  0.9000774E+02  0.7816164E-02  0.1186339E+00
        -11   -1    0    0    0    0  0.00000000000E+00  0.00000000000E+00  0.45593999997E+02  0.45594000000E+02  0.51100000000E-03 0. -1.
         11   -1    0    0    0    0 -0.00000000000E+00 -0.00000000000E+00 -0.45593999997E+02  0.45594000000E+02  0.51100000000E-03 0.  1.
    9900012    2    1    2    0    0  0.93169818356E+00  0.54157292376E+00 -0.48129088043E+00  0.90007744244E+02  0.90000005668E+02 0.  0.
         12    1    1    2    0    0 -0.93169818356E+00 -0.54157292376E+00  0.48129088043E+00  0.11802557556E+01  0.00000000000E+00 0. -1.
         11    1    3    3    0    0  0.87360778068E+01 -0.31639667429E+01  0.34955386752E+01  0.99271613207E+01  0.51100000000E-03 0. -1.
        -11    1    3    3    0    0  0.24441844241E+02 -0.14813927730E+02  0.20842088440E+02  0.35372996134E+02  0.51100000000E-03 0.  1.
         12    1    3    3    0    0 -0.32246223864E+02  0.18519467396E+02 -0.24818917996E+02  0.44707586790E+02  0.00000000000E+00 0. -1.
</event>
<event>
 7    1  0.2468912E-015  0.9000773E+02  0.7816164E-02  0.1186339E+00
        -11   -1    0    0    0    0  0.00000000000E+00  0.00000000000E+00  0.45593999997E+02  0.45594000000E+02  0.51100000000E-03 0. -1.
         11   -1    0    0    0    0 -0.00000000000E+00 -0.00000000000E+00 -0.45593999997E+02  0.45594000000E+02  0.51100000000E-03 0.  1.
    9900012    2    1    2    0    0 -0.11753564511E+01  0.79709148592E-01  0.72192192607E-01  0.90007733908E+02  0.89999995195E+02 0.  0.
         12    1    1    2    0    0  0.11753564511E+01 -0.79709148592E-01 -0.72192192607E-01  0.11802660921E+01  0.00000000000E+00 0. -1.
         11    1    3    3    0    0 -0.78862120780E+01 -0.29755098644E+02  0.26018328355E+02  0.40305231012E+02  0.51100000000E-03 0. -1.
        -11    1    3    3    0    0  0.56053851170E+01  0.70871237563E-01  0.44416394021E+01  0.71521693130E+01  0.51100000000E-03 0.  1.
        -12    1    3    3    0    0  0.11054705099E+01  0.29763936555E+02 -0.30387775565E+02  0.42550333583E+02  0.00000000000E+00 0.  1.
</event>
<event>
 7    1  0.2468912E-015  0.9000779E+02  0.7816164E-02  0.1186339E+00
        -11   -1    0    0    0    0  0.00000000000E+00  0.00000000000E+00  0.45593999997E+02  0.45594000000E+02  0.51100000000E-03 0. -1.
         11   -1    0    0    0    0 -0.00000000000E+00 -0.00000000000E+00 -0.45593999997E+02  0.45594000000E+02  0.51100000000E-03 0.  1.
    9900012    2    1    2    0    0  0.11710693121E+01 -0.12796478672E+00 -0.71545821619E-01  0.90007789373E+02  0.90000051392E+02 0.  0.
         12    1    1    2    0    0 -0.11710693121E+01  0.12796478672E+00  0.71545821619E-01  0.11802106274E+01  0.00000000000E+00 0. -1.
         11    1    3    3    0    0  0.71204184293E+01  0.27944964755E+02  0.18961937620E+02  0.34513424813E+02  0.51100000000E-03 0. -1.
        -11    1    3    3    0    0 -0.20469007515E+00  0.11619498937E+02 -0.14798467204E+01  0.11715144052E+02  0.51100000000E-03 0.  1.
        -12    1    3    3    0    0 -0.57446590421E+01 -0.39692428479E+02 -0.17553636721E+02  0.43779220507E+02  0.00000000000E+00 0.  1.
</event>
<event>
 7    1  0.2468912E-015  0.9000787E+02  0.7816164E-02  0.1186339E+00
        -11   -1    0    0    0    0  0.00000000000E+00  0.00000000000E+00  0.45593999997E+02  0.45594000000E+02  0.51100000000E-03 0.  1.
         11   -1    0    0    0    0 -0.00000000000E+00 -0.00000000000E+00 -0.45593999997E+02  0.45594000000E+02  0.51100000000E-03 0. -1.
    9900012    2    1    2    0    0 -0.79789526605E+00  0.62079395412E+00  0.60884424824E+00  0.90007867250E+02  0.90000130298E+02 0.  0.
         12    1    1    2    0    0  0.79789526605E+00 -0.62079395412E+00 -0.60884424824E+00  0.11801327500E+01  0.00000000000E+00 0. -1.
         11    1    3    3    0    0 -0.81287514338E+01 -0.14929743449E+02  0.45553444727E+01  0.17599005735E+02  0.51100000000E-03 0. -1.
        -11    1    3    3    0    0 -0.13774593125E+02 -0.23374454781E+02 -0.70168485550E+01  0.28023931130E+02  0.51100000000E-03 0.  1.
         12    1    3    3    0    0  0.21105449292E+02  0.38924992185E+02  0.30703483306E+01  0.44384930385E+02  0.00000000000E+00 0. -1.
</event>
<event>
 7    1  0.2468912E-015  0.9000777E+02  0.7816164E-02  0.1186339E+00
        -11   -1    0    0    0    0  0.00000000000E+00  0.00000000000E+00  0.45593999997E+02  0.45594000000E+02  0.51100000000E-03 0.  1.
         11   -1    0    0    0    0 -0.00000000000E+00 -0.00000000000E+00 -0.45593999997E+02  0.45594000000E+02  0.51100000000E-03 0. -1.
    9900012    2    1    2    0    0  0.74799130406E+00  0.35117095281E+00  0.84269256614E+00  0.90007770027E+02  0.90000031791E+02 0.  0.
         12    1    1    2    0    0 -0.74799130406E+00 -0.35117095281E+00 -0.84269256614E+00  0.11802299734E+01  0.00000000000E+00 0. -1.
         11    1    3    3    0    0 -0.46457928365E+00 -0.26832130419E+02 -0.32930219754E+02  0.42480329919E+02  0.51100000000E-03 0. -1.
        -11    1    3    3    0    0 -0.14426479079E+01  0.92786248852E+01  0.20724347282E+00  0.93923938836E+01  0.51100000000E-03 0.  1.
        -12    1    3    3    0    0  0.26552184956E+01  0.17904676487E+02  0.33565668847E+02  0.38135046224E+02  0.00000000000E+00 0.  1.
</event>
<event>
 7    1  0.2468912E-015  0.9000777E+02  0.7816164E-02  0.1186339E+00
        -11   -1    0    0    0    0  0.00000000000E+00  0.00000000000E+00  0.45593999997E+02  0.45594000000E+02  0.51100000000E-03 0. -1.
         11   -1    0    0    0    0 -0.00000000000E+00 -0.00000000000E+00 -0.45593999997E+02  0.45594000000E+02  0.51100000000E-03 0.  1.
    9900012    2    1    2    0    0  0.11237003230E+01  0.44131361916E-01 -0.35817720225E+00  0.90007770827E+02  0.90000032602E+02 0.  0.
         12    1    1    2    0    0 -0.11237003230E+01 -0.44131361916E-01  0.35817720225E+00  0.11802291732E+01  0.00000000000E+00 0. -1.
         11    1    3    3    0    0 -0.64521688632E+01 -0.35274644265E+02  0.65816472020E+01  0.36458868485E+02  0.51100000000E-03 0. -1.
        -11    1    3    3    0    0 -0.79155945160E+01 -0.35621284835E+01  0.50109048346E+01  0.10022702400E+02  0.51100000000E-03 0.  1.
        -12    1    3    3    0    0  0.15491463702E+02  0.38880904110E+02 -0.11950729239E+02  0.43526199942E+02  0.00000000000E+00 0.  1.
</event>
<event>
 7    1  0.2468912E-015  0.9000777E+02  0.7816164E-02  0.1186339E+00
        -11   -1    0    0    0    0  0.00000000000E+00  0.00000000000E+00  0.45593999997E+02  0.45594000000E+02  0.51100000000E-03 0. -1.
         11   -1    0    0    0    0 -0.00000000000E+00 -0.00000000000E+00 -0.45593999997E+02  0.45594000000E+02  0.51100000000E-03 0.  1.
    9900012    2    1    2    0    0  0.35309927810E+00 -0.66685054449E+00 -0.90751477802E+00  0.90007766201E+02  0.90000027914E+02 0.  0.
         12    1    1    2    0    0 -0.35309927810E+00  0.66685054449E+00  0.90751477802E+00  0.11802337994E+01  0.00000000000E+00 0. -1.
         11    1    3    3    0    0 -0.53885992907E+01  0.71843411418E+01  0.50602537548E+01  0.10308148635E+02  0.51100000000E-03 0. -1.
        -11    1    3    3    0    0  0.53940245849E+01  0.34948255462E+02  0.44726169716E+01  0.35643798394E+02  0.51100000000E-03 0.  1.
         12    1    3    3    0    0  0.34767398390E+00 -0.42799447149E+02 -0.10440385505E+02  0.44055819172E+02  0.00000000000E+00 0. -1.
</event>
<event>
 7    1  0.2468912E-015  0.9000852E+02  0.7816164E-02  0.1186337E+00
        -11   -1    0    0    0    0  0.00000000000E+00  0.00000000000E+00  0.45593999997E+02  0.45594000000E+02  0.51100000000E-03 0.  1.
         11   -1    0    0    0    0 -0.00000000000E+00 -0.00000000000E+00 -0.45593999997E+02  0.45594000000E+02  0.51100000000E-03 0. -1.
    9900012    2    1    2    0    0 -0.23559469049E+00  0.82203428663E+00  0.81236217416E+00  0.90008518110E+02  0.90000789746E+02 0.  0.
         12    1    1    2    0    0  0.23559469049E+00 -0.82203428663E+00 -0.81236217416E+00  0.11794818899E+01  0.00000000000E+00 0. -1.
         11    1    3    3    0    0  0.34591512320E+01  0.14926176648E+02 -0.91932427880E+01  0.17868189326E+02  0.51100000000E-03 0. -1.
        -11    1    3    3    0    0  0.12269607913E+02 -0.75628590438E+01 -0.27393363503E+02  0.30953779729E+02  0.51100000000E-03 0.  1.
         12    1    3    3    0    0 -0.15964353835E+02 -0.65412833174E+01  0.37398968465E+02  0.41186549055E+02  0.00000000000E+00 0. -1.
</event>
<event>
 7    1  0.2468912E-015  0.9000741E+02  0.7816164E-02  0.1186340E+00
        -11   -1    0    0    0    0  0.00000000000E+00  0.00000000000E+00  0.45593999997E+02  0.45594000000E+02  0.51100000000E-03 0. -1.
         11   -1    0    0    0    0 -0.00000000000E+00 -0.00000000000E+00 -0.45593999997E+02  0.45594000000E+02  0.51100000000E-03 0.  1.
    9900012    2    1    2    0    0 -0.15482608060E+00  0.64058390353E+00 -0.97952346022E+00  0.90007413255E+02  0.89999670310E+02 0.  0.
         12    1    1    2    0    0  0.15482608060E+00 -0.64058390353E+00  0.97952346022E+00  0.11805867447E+01  0.00000000000E+00 0. -1.
         11    1    3    3    0    0 -0.10477029493E+01 -0.30588424917E+02 -0.10258954901E+02  0.32279956262E+02  0.51100000000E-03 0. -1.
        -11    1    3    3    0    0 -0.75489555594E+01 -0.93757637910E+01 -0.61002119939E+01  0.13494601266E+02  0.51100000000E-03 0.  1.
        -12    1    3    3    0    0  0.84418324280E+01  0.40604772611E+02  0.15379643435E+02  0.44232855727E+02  0.00000000000E+00 0.  1.
</event>
<event>
 7    1  0.2468912E-015  0.9000769E+02  0.7816164E-02  0.1186339E+00
        -11   -1    0    0    0    0  0.00000000000E+00  0.00000000000E+00  0.45593999997E+02  0.45594000000E+02  0.51100000000E-03 0.  1.
         11   -1    0    0    0    0 -0.00000000000E+00 -0.00000000000E+00 -0.45593999997E+02  0.45594000000E+02  0.51100000000E-03 0. -1.
    9900012    2    1    2    0    0  0.39545441409E-01 -0.70639204286E+00  0.94476059791E+00  0.90007692350E+02  0.89999953089E+02 0.  0.
         12    1    1    2    0    0 -0.39545441409E-01  0.70639204286E+00 -0.94476059791E+00  0.11803076495E+01  0.00000000000E+00 0. -1.
         11    1    3    3    0    0 -0.35182178006E+02  0.17460040990E+02  0.57646591792E+01  0.39697228824E+02  0.51100000000E-03 0. -1.
        -11    1    3    3    0    0 -0.26220327759E+01  0.30143938188E+01 -0.56676435652E+01  0.69342490448E+01  0.51100000000E-03 0.  1.
        -12    1    3    3    0    0  0.37843756223E+02 -0.21180826852E+02  0.84774498387E+00  0.43376214482E+02  0.00000000000E+00 0.  1.
</event>
<event>
 7    1  0.2468912E-015  0.9000775E+02  0.7816164E-02  0.1186339E+00
        -11   -1    0    0    0    0  0.00000000000E+00  0.00000000000E+00  0.45593999997E+02  0.45594000000E+02  0.51100000000E-03 0. -1.
         11   -1    0    0    0    0 -0.00000000000E+00 -0.00000000000E+00 -0.45593999997E+02  0.45594000000E+02  0.51100000000E-03 0.  1.
    9900012    2    1    2    0    0  0.63870846046E+00 -0.18936654406E+00 -0.97426236335E+00  0.90007747765E+02  0.90000009236E+02 0.  0.
         12    1    1    2    0    0 -0.63870846046E+00  0.18936654406E+00  0.97426236335E+00  0.11802522350E+01  0.00000000000E+00 0. -1.
         11    1    3    3    0    0  0.75479973310E+01 -0.35339741143E+01 -0.57503249880E+01  0.10125585142E+02  0.51100000000E-03 0. -1.
        -11    1    3    3    0    0  0.21552723313E+02 -0.28884026810E+02 -0.30901367807E+01  0.36171201702E+02  0.51100000000E-03 0.  1.
         12    1    3    3    0    0 -0.28462012184E+02  0.32228634380E+02  0.78661994053E+01  0.43710960921E+02  0.00000000000E+00 0. -1.
</event>
<event>
 7    1  0.2468912E-015  0.9000829E+02  0.7816164E-02  0.1186338E+00
        -11   -1    0    0    0    0  0.00000000000E+00  0.00000000000E+00  0.45593999997E+02  0.45594000000E+02  0.51100000000E-03 0.  1.
         11   -1    0    0    0    0 -0.00000000000E+00 -0.00000000000E+00 -0.45593999997E+02  0.45594000000E+02  0.51100000000E-03 0. -1.
    9900012    2    1    2    0    0  0.58967453937E+00 -0.52406122931E+00  0.87712951807E+00  0.90008291381E+02  0.90000560025E+02 0.  0.
         12    1    1    2    0    0 -0.58967453937E+00  0.52406122931E+00 -0.87712951807E+00  0.11797086191E+01  0.00000000000E+00 0. -1.
         11    1    3    3    0    0 -0.12663446510E+00  0.75279619562E+01 -0.39110586631E+01  0.84842576357E+01  0.51100000000E-03 0. -1.
        -11    1    3    3    0    0 -0.26076348767E+01  0.35907284597E+02  0.93716095973E+01  0.37201611705E+02  0.51100000000E-03 0.  1.
         12    1    3    3    0    0  0.33239438811E+01 -0.43959307782E+02 -0.45834214161E+01  0.44322422040E+02  0.00000000000E+00 0. -1.
</event>
<event>
 7    1  0.2468912E-015  0.9000777E+02  0.7816164E-02  0.1186339E+00
        -11   -1    0    0    0    0  0.00000000000E+00  0.00000000000E+00  0.45593999997E+02  0.45594000000E+02  0.51100000000E-03 0.  1.
         11   -1    0    0    0    0 -0.00000000000E+00 -0.00000000000E+00 -0.45593999997E+02  0.45594000000E+02  0.51100000000E-03 0. -1.
    9900012    2    1    2    0    0 -0.11068144953E+00 -0.90917802109E+00  0.74437010304E+00  0.90007770400E+02  0.90000032170E+02 0.  0.
         12    1    1    2    0    0  0.11068144953E+00  0.90917802109E+00 -0.74437010304E+00  0.11802295995E+01  0.00000000000E+00 0. -1.
         11    1    3    3    0    0  0.27753156424E+01 -0.83506851726E+01  0.56855349188E+01  0.10476718348E+02  0.51100000000E-03 0. -1.
        -11    1    3    3    0    0 -0.37686897847E+01 -0.35793721923E+02  0.11894098437E+00  0.35991772657E+02  0.51100000000E-03 0.  1.
         12    1    3    3    0    0  0.88269269280E+00  0.43235229075E+02 -0.50601058002E+01  0.43539279395E+02  0.00000000000E+00 0. -1.
</event>
<event>
 7    1  0.2468912E-015  0.9000772E+02  0.7816164E-02  0.1186339E+00
        -11   -1    0    0    0    0  0.00000000000E+00  0.00000000000E+00  0.45593999997E+02  0.45594000000E+02  0.51100000000E-03 0. -1.
         11   -1    0    0    0    0 -0.00000000000E+00 -0.00000000000E+00 -0.45593999997E+02  0.45594000000E+02  0.51100000000E-03 0.  1.
    9900012    2    1    2    0    0  0.69916127956E+00  0.92215962252E+00 -0.23208579197E+00  0.90007716695E+02  0.89999977756E+02 0.  0.
         12    1    1    2    0    0 -0.69916127956E+00 -0.92215962252E+00  0.23208579197E+00  0.11802833046E+01  0.00000000000E+00 0. -1.
         11    1    3    3    0    0  0.68941630316E+01 -0.13980055171E+02  0.16524916641E+02  0.22716608390E+02  0.51100000000E-03 0. -1.
        -11    1    3    3    0    0 -0.11460586863E+02 -0.22807497054E+02  0.40090753355E+00  0.25528174636E+02  0.51100000000E-03 0.  1.
        -12    1    3    3    0    0  0.52655851113E+01  0.37709711848E+02 -0.17157909967E+02  0.41762933669E+02  0.00000000000E+00 0.  1.
</event>
<event>
 7    1  0.2468912E-015  0.9000772E+02  0.7816164E-02  0.1186339E+00
        -11   -1    0    0    0    0  0.00000000000E+00  0.00000000000E+00  0.45593999997E+02  0.45594000000E+02  0.51100000000E-03 0.  1.
         11   -1    0    0    0    0 -0.00000000000E+00 -0.00000000000E+00 -0.45593999997E+02  0.45594000000E+02  0.51100000000E-03 0. -1.
    9900012    2    1    2    0    0  0.62408635354E+00 -0.91809327870E+00  0.40084137982E+00  0.90007723398E+02  0.89999984547E+02 0.  0.
         12    1    1    2    0    0 -0.62408635354E+00  0.91809327870E+00 -0.40084137982E+00  0.11802766018E+01  0.00000000000E+00 0. -1.
         11    1    3    3    0    0 -0.24705219508E+02 -0.22044457120E+02 -0.17372283690E+02  0.37391204869E+02  0.51100000000E-03 0. -1.
        -11    1    3    3    0    0 -0.94515095323E+01  0.15648643316E+01  0.42784182858E+01  0.10492125433E+02  0.51100000000E-03 0.  1.
        -12    1    3    3    0    0  0.34780815394E+02  0.19561499509E+02  0.13494706784E+02  0.42124393096E+02  0.00000000000E+00 0.  1.
</event>
<event>
 7    1  0.2468912E-015  0.9000774E+02  0.7816164E-02  0.1186339E+00
        -11   -1    0    0    0    0  0.00000000000E+00  0.00000000000E+00  0.45593999997E+02  0.45594000000E+02  0.51100000000E-03 0. -1.
         11   -1    0    0    0    0 -0.00000000000E+00 -0.00000000000E+00 -0.45593999997E+02  0.45594000000E+02  0.51100000000E-03 0.  1.
    9900012    2    1    2    0    0  0.10445268099E+01  0.26978643211E+00  0.47874203950E+00  0.90007739471E+02  0.90000000832E+02 0.  0.
         12    1    1    2    0    0 -0.10445268099E+01 -0.26978643211E+00 -0.47874203950E+00  0.11802605288E+01  0.00000000000E+00 0. -1.
         11    1    3    3    0    0 -0.50632385631E+01  0.21615130650E+01  0.70517534199E+01  0.89462701744E+01  0.51100000000E-03 0. -1.
        -11    1    3    3    0    0 -0.37221353926E+02 -0.28389381345E+01 -0.78954376898E+00  0.37337811096E+02  0.51100000000E-03 0.  1.
         12    1    3    3    0    0  0.43329119299E+02  0.94721150159E+00 -0.57834676115E+01  0.43723658201E+02  0.00000000000E+00 0. -1.
</event>
<event>
 7    1  0.2468912E-015  0.9000785E+02  0.7816164E-02  0.1186339E+00
        -11   -1    0    0    0    0  0.00000000000E+00  0.00000000000E+00  0.45593999997E+02  0.45594000000E+02  0.51100000000E-03 0. -1.
         11   -1    0    0    0    0 -0.00000000000E+00 -0.00000000000E+00 -0.45593999997E+02  0.45594000000E+02  0.51100000000E-03 0.  1.
    9900012    2    1    2    0    0 -0.76564618960E+00 -0.54299566351E+00 -0.71532272376E+00  0.90007853832E+02  0.90000116703E+02 0.  0.
         12    1    1    2    0    0  0.76564618960E+00  0.54299566351E+00  0.71532272376E+00  0.11801461678E+01  0.00000000000E+00 0. -1.
         11    1    3    3    0    0  0.34255348019E+01  0.34619465930E+02  0.25716729488E+02  0.43261898777E+02  0.51100000000E-03 0. -1.
        -11    1    3    3    0    0 -0.22213112436E+01 -0.77750763358E+01  0.73508378171E+00  0.81195063949E+01  0.51100000000E-03 0.  1.
        -12    1    3    3    0    0 -0.19698697479E+01 -0.27387385257E+02 -0.27167135994E+02  0.38626448661E+02  0.00000000000E+00 0.  1.
</event>
<event>
 7    1  0.2468912E-015  0.9000786E+02  0.7816164E-02  0.1186339E+00
        -11   -1    0    0    0    0  0.00000000000E+00  0.00000000000E+00  0.45593999997E+02  0.45594000000E+02  0.51100000000E-03 0.  1.
         11   -1    0    0    0    0 -0.00000000000E+00 -0.00000000000E+00 -0.45593999997E+02  0.45594000000E+02  0.51100000000E-03 0. -1.
    9900012    2    1    2    0    0  0.81676317804E+00 -0.76894529562E+00  0.36653839620E+00  0.90007860452E+02  0.90000123410E+02 0.  0.
         12    1    1    2    0    0 -0.81676317804E+00  0.76894529562E+00 -0.36653839620E+00  0.11801395479E+01  0.00000000000E+00 0. -1.
         11    1    3    3    0    0  0.35111561692E+01  0.11188606128E+01  0.11094408156E+02  0.11690421691E+02  0.51100000000E-03 0. -1.
        -11    1    3    3    0    0  0.23660629061E+02 -0.65129587884E+01  0.24101313915E+02  0.34396472674E+02  0.51100000000E-03 0.  1.
         12    1    3    3    0    0 -0.26355022052E+02  0.46251528800E+01 -0.34829183675E+02  0.43920966087E+02  0.00000000000E+00 0. -1.
</event>
<event>
 7    1  0.2468912E-015  0.9000758E+02  0.7816164E-02  0.1186339E+00
        -11   -1    0    0    0    0  0.00000000000E+00  0.00000000000E+00  0.45593999997E+02  0.45594000000E+02  0.51100000000E-03 0.  1.
         11   -1    0    0    0    0 -0.00000000000E+00 -0.00000000000E+00 -0.45593999997E+02  0.45594000000E+02  0.51100000000E-03 0. -1.
    9900012    2    1    2    0    0  0.65095729384E-01  0.79072339600E+00 -0.87402563723E+00  0.90007575603E+02  0.89999834801E+02 0.  0.
         12    1    1    2    0    0 -0.65095729384E-01 -0.79072339600E+00  0.87402563723E+00  0.11804243972E+01  0.00000000000E+00 0. -1.
         11    1    3    3    0    0 -0.87096521339E+01  0.13029246510E-01  0.26590928835E+01  0.91065353060E+01  0.51100000000E-03 0. -1.
        -11    1    3    3    0    0 -0.26576643938E+02  0.20608367032E+02  0.14392004651E+02  0.36580768073E+02  0.51100000000E-03 0.  1.
         12    1    3    3    0    0  0.35351391801E+02 -0.19830672882E+02 -0.17925123172E+02  0.44320272223E+02  0.00000000000E+00 0. -1.
</event>
<event>
 7    1  0.2468912E-015  0.9000772E+02  0.7816164E-02  0.1186339E+00
        -11   -1    0    0    0    0  0.00000000000E+00  0.00000000000E+00  0.45593999997E+02  0.45594000000E+02  0.51100000000E-03 0. -1.
         11   -1    0    0    0    0 -0.00000000000E+00 -0.00000000000E+00 -0.45593999997E+02  0.45594000000E+02  0.51100000000E-03 0.  1.
    9900012    2    1    2    0    0  0.10587843591E+01  0.19463527604E+00 -0.48389754629E+00  0.90007718659E+02  0.89999979745E+02 0.  0.
         12    1    1    2    0    0 -0.10587843591E+01 -0.19463527604E+00  0.48389754629E+00  0.11802813415E+01  0.00000000000E+00 0. -1.
         11    1    3    3    0    0 -0.19777204106E+02 -0.26360946801E+02 -0.15721380097E+02  0.36512999205E+02  0.51100000000E-03 0. -1.
        -11    1    3    3    0    0 -0.26655427084E+01 -0.24987657499E+00  0.17566815620E+02  0.17769652993E+02  0.51100000000E-03 0.  1.
        -12    1    3    3    0    0  0.23501531173E+02  0.26805458652E+02 -0.23293330687E+01  0.35725066460E+02  0.00000000000E+00 0.  1.
</event>
<event>
 7    1  0.2468912E-015  0.9000765E+02  0.7816164E-02  0.1186339E+00
        -11   -1    0    0    0    0  0.00000000000E+00  0.00000000000E+00  0.45593999997E+02  0.45594000000E+02  0.51100000000E-03 0. -1.
         11   -1    0    0    0    0 -0.00000000000E+00 -0.00000000000E+00 -0.45593999997E+02  0.45594000000E+02  0.51100000000E-03 0.  1.
    9900012    2    1    2    0    0  0.77623950624E+00  0.87583275418E+00  0.15359443222E+00  0.90007651732E+02  0.89999911935E+02 0.  0.
         12    1    1    2    0    0 -0.77623950624E+00 -0.87583275418E+00 -0.15359443222E+00  0.11803482681E+01  0.00000000000E+00 0. -1.
         11    1    3    3    0    0 -0.20041303995E+02  0.27131955381E+01  0.29946752978E+02  0.36136177303E+02  0.51100000000E-03 0. -1.
        -11    1    3    3    0    0  0.43129451343E+01 -0.10300826305E+01  0.99154814753E+01  0.10861829455E+02  0.51100000000E-03 0.  1.
        -12    1    3    3    0    0  0.16504598367E+02 -0.80728015341E+00 -0.39708640021E+02  0.43009644975E+02  0.00000000000E+00 0.  1.
</event>
<event>
 7    1  0.2468912E-015  0.9000775E+02  0.7816164E-02  0.1186339E+00
        -11   -1    0    0    0    0  0.00000000000E+00  0.00000000000E+00  0.45593999997E+02  0.45594000000E+02  0.51100000000E-03 0.  1.
         11   -1    0    0    0    0 -0.00000000000E+00 -0.00000000000E+00 -0.45593999997E+02  0.45594000000E+02  0.51100000000E-03 0. -1.
    9900012    2    1    2    0    0  0.22419264238E+00  0.77926649905E+00  0.85759583697E+00  0.90007750350E+02  0.90000011854E+02 0.  0.
         12    1    1    2    0    0 -0.22419264238E+00 -0.77926649905E+00 -0.85759583697E+00  0.11802496503E+01  0.00000000000E+00 0. -1.
         11    1    3    3    0    0  0.84672064517E+01  0.31425871624E+01  0.16314877027E+01  0.91777552568E+01  0.51100000000E-03 0. -1.
        -11    1    3    3    0    0  0.24516283713E+02  0.27099366498E+00  0.27951479881E+02  0.37180732005E+02  0.51100000000E-03 0.  1.
         12    1    3    3    0    0 -0.32759297522E+02 -0.26343143283E+01 -0.28725371747E+02  0.43649263088E+02  0.00000000000E+00 0. -1.
</event>
<event>
 7    1  0.2468912E-015  0.9000766E+02  0.7816164E-02  0.1186339E+00
        -11   -1    0    0    0    0  0.00000000000E+00  0.00000000000E+00  0.45593999997E+02  0.45594000000E+02  0.51100000000E-03 0.  1.
         11   -1    0    0    0    0 -0.00000000000E+00 -0.00000000000E+00 -0.45593999997E+02  0.45594000000E+02  0.51100000000E-03 0. -1.
    9900012    2    1    2    0    0 -0.10631123987E+01  0.48316656835E+00  0.17187901877E+00  0.90007660938E+02  0.89999921262E+02 0.  0.
         12    1    1    2    0    0  0.10631123987E+01 -0.48316656835E+00 -0.17187901877E+00  0.11803390623E+01  0.00000000000E+00 0. -1.
         11    1    3    3    0    0  0.33187059181E+02  0.76830546628E+01  0.22746907991E+02  0.40961348237E+02  0.51100000000E-03 0. -1.
        -11    1    3    3    0    0 -0.42696319087E+01  0.76306295820E+01 -0.92461233824E-01  0.87444161494E+01  0.51100000000E-03 0.  1.
        -12    1    3    3    0    0 -0.29980539671E+02 -0.14830517676E+02 -0.22482567738E+02  0.40301896551E+02  0.00000000000E+00 0.  1.
</event>
<event>
 7    1  0.2468912E-015  0.9000727E+02  0.7816164E-02  0.1186340E+00
        -11   -1    0    0    0    0  0.00000000000E+00  0.00000000000E+00  0.45593999997E+02  0.45594000000E+02  0.51100000000E-03 0.  1.
         11   -1    0    0    0    0 -0.00000000000E+00 -0.00000000000E+00 -0.45593999997E+02  0.45594000000E+02  0.51100000000E-03 0. -1.
    9900012    2    1    2    0    0 -0.82663152371E-01 -0.97039685010E+00  0.66754352893E+00  0.90007272425E+02  0.89999527620E+02 0.  0.
         12    1    1    2    0    0  0.82663152371E-01  0.97039685010E+00 -0.66754352893E+00  0.11807275750E+01  0.00000000000E+00 0. -1.
         11    1    3    3    0    0 -0.26580786284E+02 -0.24566470374E+02 -0.64351876132E+01  0.36762226619E+02  0.51100000000E-03 0. -1.
        -11    1    3    3    0    0 -0.68060542253E+01 -0.49257402172E+01  0.39498322556E+01  0.92836666201E+01  0.51100000000E-03 0.  1.
        -12    1    3    3    0    0  0.33304177357E+02  0.28521813741E+02  0.31528988866E+01  0.43961379186E+02  0.00000000000E+00 0.  1.
</event>
<event>
 7    1  0.2468912E-015  0.9000775E+02  0.7816164E-02  0.1186339E+00
        -11   -1    0    0    0    0  0.00000000000E+00  0.00000000000E+00  0.45593999997E+02  0.45594000000E+02  0.51100000000E-03 0.  1.
         11   -1    0    0    0    0 -0.00000000000E+00 -0.00000000000E+00 -0.45593999997E+02  0.45594000000E+02  0.51100000000E-03 0. -1.
    9900012    2    1    2    0    0  0.10523427089E+01 -0.41234667371E+00 -0.33989750776E+00  0.90007752029E+02  0.90000013556E+02 0.  0.
         12    1    1    2    0    0 -0.10523427089E+01  0.41234667371E+00  0.33989750776E+00  0.11802479706E+01  0.00000000000E+00 0. -1.
         11    1    3    3    0    0  0.25198714354E+01  0.86848787707E+00 -0.86112103336E+01  0.90142646353E+01  0.51100000000E-03 0. -1.
        -11    1    3    3    0    0  0.21853959752E+02  0.81514109540E+01  0.36415451897E+02  0.43244955712E+02  0.51100000000E-03 0.  1.
         12    1    3    3    0    0 -0.23321488478E+02 -0.94322455048E+01 -0.28144139071E+02  0.37748531682E+02  0.00000000000E+00 0. -1.
</event>
<event>
 7    1  0.2468912E-015  0.9000774E+02  0.7816164E-02  0.1186339E+00
        -11   -1    0    0    0    0  0.00000000000E+00  0.00000000000E+00  0.45593999997E+02  0.45594000000E+02  0.51100000000E-03 0.  1.
         11   -1    0    0    0    0 -0.00000000000E+00 -0.00000000000E+00 -0.45593999997E+02  0.45594000000E+02  0.51100000000E-03 0. -1.
    9900012    2    1    2    0    0  0.40431017624E+00 -0.36298422974E+00  0.10477529221E+01  0.90007741361E+02  0.90000002747E+02 0.  0.
         12    1    1    2    0    0 -0.40431017624E+00  0.36298422974E+00 -0.10477529221E+01  0.11802586392E+01  0.00000000000E+00 0. -1.
         11    1    3    3    0    0 -0.14195922786E+02  0.35808598408E+02  0.10782929182E+02  0.40000643816E+02  0.51100000000E-03 0. -1.
        -11    1    3    3    0    0 -0.57926854376E+01 -0.11180455566E+01  0.40705786189E+01  0.71676245018E+01  0.51100000000E-03 0.  1.
        -12    1    3    3    0    0  0.20392918400E+02 -0.35053537082E+02 -0.13805754879E+02  0.42839473043E+02  0.00000000000E+00 0.  1.
</event>
<event>
 7    1  0.2468912E-015  0.9000787E+02  0.7816164E-02  0.1186339E+00
        -11   -1    0    0    0    0  0.00000000000E+00  0.00000000000E+00  0.45593999997E+02  0.45594000000E+02  0.51100000000E-03 0.  1.
         11   -1    0    0    0    0 -0.00000000000E+00 -0.00000000000E+00 -0.45593999997E+02  0.45594000000E+02  0.51100000000E-03 0. -1.
    9900012    2    1    2    0    0 -0.40543177406E+00 -0.60210795787E+00  0.93047724286E+00  0.90007874237E+02  0.90000137377E+02 0.  0.
         12    1    1    2    0    0  0.40543177406E+00  0.60210795787E+00 -0.93047724286E+00  0.11801257627E+01  0.00000000000E+00 0. -1.
         11    1    3    3    0    0  0.32224529282E+02 -0.14113533319E+02 -0.53611393116E+01  0.35585866930E+02  0.51100000000E-03 0. -1.
        -11    1    3    3    0    0  0.41243192261E+01  0.15774648806E+02  0.66176416907E+01  0.17596668316E+02  0.51100000000E-03 0.  1.
        -12    1    3    3    0    0 -0.36754280282E+02 -0.22632234448E+01 -0.32602513628E+00  0.36825338991E+02  0.00000000000E+00 0.  1.
</event>
<event>
 7    1  0.2468912E-015  0.9000773E+02  0.7816164E-02  0.1186339E+00
        -11   -1    0    0    0    0  0.00000000000E+00  0.00000000000E+00  0.45593999997E+02  0.45594000000E+02  0.51100000000E-03 0.  1.
         11   -1    0    0    0    0 -0.00000000000E+00 -0.00000000000E+00 -0.45593999997E+02  0.45594000000E+02  0.51100000000E-03 0. -1.
    9900012    2    1    2    0    0 -0.55496249163E+00  0.18958341472E+00  0.10242634223E+01  0.90007728507E+02  0.89999989724E+02 0.  0.
         12    1    1    2    0    0  0.55496249163E+00 -0.18958341472E+00 -0.10242634223E+01  0.11802714927E+01  0.00000000000E+00 0. -1.
         11    1    3    3    0    0 -0.41622212673E+01  0.43268339627E+02  0.62961862398E+01  0.43921694655E+02  0.51100000000E-03 0. -1.
        -11    1    3    3    0    0 -0.22940379168E+00 -0.73592698523E+01 -0.69459058170E+01  0.10122108809E+02  0.51100000000E-03 0.  1.
        -12    1    3    3    0    0  0.38366625674E+01 -0.35719486360E+02  0.16739829995E+01  0.35963925044E+02  0.00000000000E+00 0.  1.
</event>
<event>
 7    1  0.2468912E-015  0.9000763E+02  0.7816164E-02  0.1186339E+00
        -11   -1    0    0    0    0  0.00000000000E+00  0.00000000000E+00  0.45593999997E+02  0.45594000000E+02  0.51100000000E-03 0.  1.
         11   -1    0    0    0    0 -0.00000000000E+00 -0.00000000000E+00 -0.45593999997E+02  0.45594000000E+02  0.51100000000E-03 0. -1.
    9900012    2    1    2    0    0 -0.11043645835E+01 -0.17804376285E+00  0.37675959213E+00  0.90007632047E+02  0.89999891990E+02 0.  0.
         12    1    1    2    0    0  0.11043645835E+01  0.17804376285E+00 -0.37675959213E+00  0.11803679532E+01  0.00000000000E+00 0. -1.
         11    1    3    3    0    0  0.33324268926E+01 -0.84210403710E+01 -0.25228546676E+01  0.94012651201E+01  0.51100000000E-03 0. -1.
        -11    1    3    3    0    0 -0.36845713593E+01 -0.27801728081E+02 -0.22954953236E+02  0.36241440764E+02  0.51100000000E-03 0.  1.
         12    1    3    3    0    0 -0.75222011678E+00  0.36044724689E+02  0.25854567496E+02  0.44364926162E+02  0.00000000000E+00 0. -1.
</event>
<event>
 7    1  0.2468912E-015  0.9000770E+02  0.7816164E-02  0.1186339E+00
        -11   -1    0    0    0    0  0.00000000000E+00  0.00000000000E+00  0.45593999997E+02  0.45594000000E+02  0.51100000000E-03 0. -1.
         11   -1    0    0    0    0 -0.00000000000E+00 -0.00000000000E+00 -0.45593999997E+02  0.45594000000E+02  0.51100000000E-03 0.  1.
    9900012    2    1    2    0    0  0.28544191475E+00  0.42661420072E+00 -0.10628390682E+01  0.90007701882E+02  0.89999962747E+02 0.  0.
         12    1    1    2    0    0 -0.28544191475E+00 -0.42661420072E+00  0.10628390682E+01  0.11802981182E+01  0.00000000000E+00 0. -1.
         11    1    3    3    0    0 -0.13748664386E+02 -0.17017492433E+02 -0.29990217312E+02  0.37121879745E+02  0.51100000000E-03 0. -1.
        -11    1    3    3    0    0 -0.70513070961E+01 -0.29540327005E+01 -0.41287284206E+01  0.86887075904E+01  0.51100000000E-03 0.  1.
        -12    1    3    3    0    0  0.21085413397E+02  0.20398139334E+02  0.33056106665E+02  0.44197114546E+02  0.00000000000E+00 0.  1.
</event>
<event>
 7    1  0.2468912E-015  0.9000773E+02  0.7816164E-02  0.1186339E+00
        -11   -1    0    0    0    0  0.00000000000E+00  0.00000000000E+00  0.45593999997E+02  0.45594000000E+02  0.51100000000E-03 0.  1.
         11   -1    0    0    0    0 -0.00000000000E+00 -0.00000000000E+00 -0.45593999997E+02  0.45594000000E+02  0.51100000000E-03 0. -1.
    9900012    2    1    2    0    0  0.50934154994E+00 -0.82206313461E+00 -0.67661981736E+00  0.90007732662E+02  0.89999993933E+02 0.  0.
         12    1    1    2    0    0 -0.50934154994E+00  0.82206313461E+00  0.67661981736E+00  0.11802673379E+01  0.00000000000E+00 0. -1.
         11    1    3    3    0    0 -0.44213515036E+01 -0.94829102984E+01 -0.33619128362E+01  0.10989831438E+02  0.51100000000E-03 0. -1.
        -11    1    3    3    0    0  0.32734978304E+02  0.63194594832E+01  0.26299585737E+02  0.42463897406E+02  0.51100000000E-03 0.  1.
         12    1    3    3    0    0 -0.27804285251E+02  0.23413876806E+01 -0.23614292718E+02  0.36554003818E+02  0.00000000000E+00 0. -1.
</event>
<event>
 7    1  0.2468912E-015  0.9000787E+02  0.7816164E-02  0.1186339E+00
        -11   -1    0    0    0    0  0.00000000000E+00  0.00000000000E+00  0.45593999997E+02  0.45594000000E+02  0.51100000000E-03 0. -1.
         11   -1    0    0    0    0 -0.00000000000E+00 -0.00000000000E+00 -0.45593999997E+02  0.45594000000E+02  0.51100000000E-03 0.  1.
    9900012    2    1    2    0    0  0.65085520356E-01 -0.91436945775E+00 -0.74323871551E+00  0.90007868050E+02  0.90000131109E+02 0.  0.
         12    1    1    2    0    0 -0.65085520356E-01  0.91436945775E+00  0.74323871551E+00  0.11801319496E+01  0.00000000000E+00 0. -1.
         11    1    3    3    0    0 -0.76595755142E-01 -0.29839644514E+01  0.86079481303E+01  0.91108002959E+01  0.51100000000E-03 0. -1.
        -11    1    3    3    0    0 -0.21838479369E+02 -0.18435411945E+02 -0.32263183711E+02  0.43101004839E+02  0.51100000000E-03 0.  1.
         12    1    3    3    0    0  0.21980160645E+02  0.20505006939E+02  0.22911996865E+02  0.37796062915E+02  0.00000000000E+00 0. -1.
</event>
<event>
 7    1  0.2468912E-015  0.9000778E+02  0.7816164E-02  0.1186339E+00
        -11   -1    0    0    0    0  0.00000000000E+00  0.00000000000E+00  0.45593999997E+02  0.45594000000E+02  0.51100000000E-03 0.  1.
         11   -1    0    0    0    0 -0.00000000000E+00 -0.00000000000E+00 -0.45593999997E+02  0.45594000000E+02  0.51100000000E-03 0. -1.
    9900012    2    1    2    0    0 -0.53108761340E+00  0.54370873736E+00  0.90291401141E+00  0.90007776735E+02  0.90000038587E+02 0.  0.
         12    1    1    2    0    0  0.53108761340E+00 -0.54370873736E+00 -0.90291401141E+00  0.11802232654E+01  0.00000000000E+00 0. -1.
         11    1    3    3    0    0 -0.31648873382E+02 -0.43918238630E+01  0.20283174892E+01  0.32016454759E+02  0.51100000000E-03 0. -1.
        -11    1    3    3    0    0 -0.60604834598E+01 -0.10256108236E+02 -0.11449861921E+02  0.16523212587E+02  0.51100000000E-03 0.  1.
        -12    1    3    3    0    0  0.37178269229E+02  0.15191640837E+02  0.10324458443E+02  0.41468109389E+02  0.00000000000E+00 0.  1.
</event>
<event>
 7    1  0.2468912E-015  0.9000839E+02  0.7816164E-02  0.1186338E+00
        -11   -1    0    0    0    0  0.00000000000E+00  0.00000000000E+00  0.45593999997E+02  0.45594000000E+02  0.51100000000E-03 0. -1.
         11   -1    0    0    0    0 -0.00000000000E+00 -0.00000000000E+00 -0.45593999997E+02  0.45594000000E+02  0.51100000000E-03 0.  1.
    9900012    2    1    2    0    0  0.51691011329E+00  0.10113463929E+01 -0.31852481035E+00  0.90008391740E+02  0.90000661709E+02 0.  0.
         12    1    1    2    0    0 -0.51691011329E+00 -0.10113463929E+01  0.31852481035E+00  0.11796082597E+01  0.00000000000E+00 0. -1.
         11    1    3    3    0    0  0.89439727744E+01 -0.32428117943E+01  0.14920745186E+01  0.96299929363E+01  0.51100000000E-03 0. -1.
        -11    1    3    3    0    0 -0.41300501544E+00  0.22468675208E+02 -0.35051223091E+02  0.41636524581E+02  0.51100000000E-03 0.  1.
         12    1    3    3    0    0 -0.80140576457E+01 -0.18214517021E+02  0.33240623762E+02  0.38741874223E+02  0.00000000000E+00 0. -1.
</event>
<event>
 7    1  0.2468912E-015  0.9000768E+02  0.7816164E-02  0.1186339E+00
        -11   -1    0    0    0    0  0.00000000000E+00  0.00000000000E+00  0.45593999997E+02  0.45594000000E+02  0.51100000000E-03 0. -1.
         11   -1    0    0    0    0 -0.00000000000E+00 -0.00000000000E+00 -0.45593999997E+02  0.45594000000E+02  0.51100000000E-03 0.  1.
    9900012    2    1    2    0    0  0.12479688284E+00  0.71721582382E+00 -0.92907410401E+00  0.90007681615E+02  0.89999942212E+02 0.  0.
         12    1    1    2    0    0 -0.12479688284E+00 -0.71721582382E+00  0.92907410401E+00  0.11803183853E+01  0.00000000000E+00 0. -1.
         11    1    3    3    0    0  0.17979147586E+01 -0.11756738512E+01  0.85814596819E+01  0.88462510147E+01  0.51100000000E-03 0. -1.
        -11    1    3    3    0    0  0.34701473698E+02  0.19910036913E+02 -0.50426419066E+01  0.40324063341E+02  0.51100000000E-03 0.  1.
         12    1    3    3    0    0 -0.36374591574E+02 -0.18017147238E+02 -0.44678918793E+01  0.40837367259E+02  0.00000000000E+00 0. -1.
</event>
<event>
 7    1  0.2468912E-015  0.9000798E+02  0.7816164E-02  0.1186339E+00
        -11   -1    0    0    0    0  0.00000000000E+00  0.00000000000E+00  0.45593999997E+02  0.45594000000E+02  0.51100000000E-03 0. -1.
         11   -1    0    0    0    0 -0.00000000000E+00 -0.00000000000E+00 -0.45593999997E+02  0.45594000000E+02  0.51100000000E-03 0.  1.
    9900012    2    1    2    0    0 -0.66859074108E+00 -0.12526892415E+00  0.96423542985E+00  0.90007976336E+02  0.90000240824E+02 0.  0.
         12    1    1    2    0    0  0.66859074108E+00  0.12526892415E+00 -0.96423542985E+00  0.11800236636E+01  0.00000000000E+00 0. -1.
         11    1    3    3    0    0  0.26189505397E+02  0.28317918323E+02  0.15801413669E+02  0.41683082483E+02  0.51100000000E-03 0. -1.
        -11    1    3    3    0    0  0.45663453128E+00  0.10017360005E-01 -0.83385003235E+01  0.83510001407E+01  0.51100000000E-03 0.  1.
        -12    1    3    3    0    0 -0.27314730669E+02 -0.28453204607E+02 -0.64986779157E+01  0.39973893713E+02  0.00000000000E+00 0.  1.
</event>
<event>
 7    1  0.2468912E-015  0.9000770E+02  0.7816164E-02  0.1186339E+00
        -11   -1    0    0    0    0  0.00000000000E+00  0.00000000000E+00  0.45593999997E+02  0.45594000000E+02  0.51100000000E-03 0.  1.
         11   -1    0    0    0    0 -0.00000000000E+00 -0.00000000000E+00 -0.45593999997E+02  0.45594000000E+02  0.51100000000E-03 0. -1.
    9900012    2    1    2    0    0  0.79544273766E+00  0.83275153021E+00  0.25867671981E+00  0.90007695842E+02  0.89999956627E+02 0.  0.
         12    1    1    2    0    0 -0.79544273766E+00 -0.83275153021E+00 -0.25867671981E+00  0.11803041580E+01  0.00000000000E+00 0. -1.
         11    1    3    3    0    0 -0.31061861143E+02  0.63533021790E+01  0.85281005640E+01  0.32831877280E+02  0.51100000000E-03 0. -1.
        -11    1    3    3    0    0 -0.88831606943E+01  0.78729625113E+01 -0.79551471441E+01  0.14289102455E+02  0.51100000000E-03 0.  1.
        -12    1    3    3    0    0  0.40740464575E+02 -0.13393513160E+02 -0.31427670012E+00  0.42886716107E+02  0.00000000000E+00 0.  1.
</event>
<event>
 7    1  0.2468912E-015  0.9000753E+02  0.7816164E-02  0.1186339E+00
        -11   -1    0    0    0    0  0.00000000000E+00  0.00000000000E+00  0.45593999997E+02  0.45594000000E+02  0.51100000000E-03 0. -1.
         11   -1    0    0    0    0 -0.00000000000E+00 -0.00000000000E+00 -0.45593999997E+02  0.45594000000E+02  0.51100000000E-03 0.  1.
    9900012    2    1    2    0    0 -0.81107706558E+00 -0.76193193900E+00  0.39386443372E+00  0.90007527434E+02  0.89999785996E+02 0.  0.
         12    1    1    2    0    0  0.81107706558E+00  0.76193193900E+00 -0.39386443372E+00  0.11804725656E+01  0.00000000000E+00 0. -1.
         11    1    3    3    0    0 -0.29327243720E+01  0.87761172767E+01 -0.20684780688E+01  0.94815456798E+01  0.51100000000E-03 0. -1.
        -11    1    3    3    0    0  0.95321973720E+01 -0.37900046009E+02 -0.19711477289E+02  0.43770065244E+02  0.51100000000E-03 0.  1.
         12    1    3    3    0    0 -0.74105500655E+01  0.28361996794E+02  0.22173819792E+02  0.36755916511E+02  0.00000000000E+00 0. -1.
</event>
<event>
 7    1  0.2468912E-015  0.9000773E+02  0.7816164E-02  0.1186339E+00
        -11   -1    0    0    0    0  0.00000000000E+00  0.00000000000E+00  0.45593999997E+02  0.45594000000E+02  0.51100000000E-03 0. -1.
         11   -1    0    0    0    0 -0.00000000000E+00 -0.00000000000E+00 -0.45593999997E+02  0.45594000000E+02  0.51100000000E-03 0.  1.
    9900012    2    1    2    0    0 -0.10650863253E+01  0.36786609444E+00  0.35114007795E+00  0.90007731514E+02  0.89999992770E+02 0.  0.
         12    1    1    2    0    0  0.10650863253E+01 -0.36786609444E+00 -0.35114007795E+00  0.11802684856E+01  0.00000000000E+00 0. -1.
         11    1    3    3    0    0  0.24580627908E+01  0.39518992155E+00  0.80256148295E+01  0.84029007736E+01  0.51100000000E-03 0. -1.
        -11    1    3    3    0    0 -0.36501974447E+02 -0.38131516645E+01 -0.24758748094E+02  0.44271095216E+02  0.51100000000E-03 0.  1.
         12    1    3    3    0    0  0.32978825331E+02  0.37858278374E+01  0.17084273342E+02  0.37333735525E+02  0.00000000000E+00 0. -1.
</event>
<event>
 7    1  0.2468912E-015  0.9000770E+02  0.7816164E-02  0.1186339E+00
        -11   -1    0    0    0    0  0.00000000000E+00  0.00000000000E+00  0.45593999997E+02  0.45594000000E+02  0.51100000000E-03 0.  1.
         11   -1    0    0    0    0 -0.00000000000E+00 -0.00000000000E+00 -0.45593999997E+02  0.45594000000E+02  0.51100000000E-03 0. -1.
    9900012    2    1    2    0    0 -0.29028672681E+00 -0.11293670238E+01  0.18264795313E+00  0.90007704896E+02  0.89999965800E+02 0.  0.
         12    1    1    2    0    0  0.29028672681E+00  0.11293670238E+01 -0.18264795313E+00  0.11802951042E+01  0.00000000000E+00 0. -1.
         11    1    3    3    0    0 -0.69969921992E+01  0.18042052075E+01  0.56495702539E+01  0.91722789197E+01  0.51100000000E-03 0. -1.
        -11    1    3    3    0    0 -0.21222875712E+02  0.30265081299E+02 -0.59956113880E+01  0.37447736322E+02  0.51100000000E-03 0.  1.
         12    1    3    3    0    0  0.27929581185E+02 -0.33198653530E+02  0.52868908724E+00  0.43387689654E+02  0.00000000000E+00 0. -1.
</event>
<event>
 7    1  0.2468912E-015  0.9000776E+02  0.7816164E-02  0.1186339E+00
        -11   -1    0    0    0    0  0.00000000000E+00  0.00000000000E+00  0.45593999997E+02  0.45594000000E+02  0.51100000000E-03 0. -1.
         11   -1    0    0    0    0 -0.00000000000E+00 -0.00000000000E+00 -0.45593999997E+02  0.45594000000E+02  0.51100000000E-03 0.  1.
    9900012    2    1    2    0    0  0.33398174236E+00  0.60465321155E+00 -0.95698374720E+00  0.90007759684E+02  0.90000021312E+02 0.  0.
         12    1    1    2    0    0 -0.33398174236E+00 -0.60465321155E+00  0.95698374720E+00  0.11802403157E+01  0.00000000000E+00 0. -1.
         11    1    3    3    0    0 -0.24681486979E+02 -0.11498654192E+02  0.24373009162E+02  0.36543650934E+02  0.51100000000E-03 0. -1.
        -11    1    3    3    0    0 -0.66112751490E+01 -0.36415343374E+01  0.30569362398E+01  0.81433771165E+01  0.51100000000E-03 0.  1.
        -12    1    3    3    0    0  0.31626743870E+02  0.15744841741E+02 -0.28386929149E+02  0.45320731634E+02  0.00000000000E+00 0.  1.
</event>
<event>
 7    1  0.2468912E-015  0.9000768E+02  0.7816164E-02  0.1186339E+00
        -11   -1    0    0    0    0  0.00000000000E+00  0.00000000000E+00  0.45593999997E+02  0.45594000000E+02  0.51100000000E-03 0.  1.
         11   -1    0    0    0    0 -0.00000000000E+00 -0.00000000000E+00 -0.45593999997E+02  0.45594000000E+02  0.51100000000E-03 0. -1.
    9900012    2    1    2    0    0  0.43578377615E+00  0.12748197571E-01  0.10968544061E+01  0.90007678178E+02  0.89999938730E+02 0.  0.
         12    1    1    2    0    0 -0.43578377615E+00 -0.12748197571E-01 -0.10968544061E+01  0.11803218223E+01  0.00000000000E+00 0. -1.
         11    1    3    3    0    0 -0.33828598591E+02 -0.20347462492E+01  0.10440314988E+02  0.35461450228E+02  0.51100000000E-03 0. -1.
        -11    1    3    3    0    0 -0.82019724638E+01  0.16552440722E+01 -0.87035015940E+01  0.12073240058E+02  0.51100000000E-03 0.  1.
        -12    1    3    3    0    0  0.42466354831E+02  0.39225037455E+00 -0.63995898779E+00  0.42472987892E+02  0.00000000000E+00 0.  1.
</event>
<event>
 7    1  0.2468912E-015  0.9000780E+02  0.7816164E-02  0.1186339E+00
        -11   -1    0    0    0    0  0.00000000000E+00  0.00000000000E+00  0.45593999997E+02  0.45594000000E+02  0.51100000000E-03 0.  1.
         11   -1    0    0    0    0 -0.00000000000E+00 -0.00000000000E+00 -0.45593999997E+02  0.45594000000E+02  0.51100000000E-03 0. -1.
    9900012    2    1    2    0    0 -0.61975537142E-02 -0.22822177349E+00  0.11579118903E+01  0.90007795131E+02  0.90000057227E+02 0.  0.
         12    1    1    2    0    0  0.61975537142E-02  0.22822177349E+00 -0.11579118903E+01  0.11802048692E+01  0.00000000000E+00 0. -1.
         11    1    3    3    0    0  0.15744510575E+02  0.12848382577E+02 -0.34386386844E+02  0.39942385363E+02  0.51100000000E-03 0. -1.
        -11    1    3    3    0    0 -0.89628929080E+01 -0.62524547767E+00 -0.26139091409E+01  0.93571845362E+01  0.51100000000E-03 0.  1.
        -12    1    3    3    0    0 -0.67878152208E+01 -0.12451358873E+02  0.38158207875E+02  0.40708225231E+02  0.00000000000E+00 0.  1.
</event>
<event>
 7    1  0.2468912E-015  0.9000777E+02  0.7816164E-02  0.1186339E+00
        -11   -1    0    0    0    0  0.00000000000E+00  0.00000000000E+00  0.45593999997E+02  0.45594000000E+02  0.51100000000E-03 0. -1.
         11   -1    0    0    0    0 -0.00000000000E+00 -0.00000000000E+00 -0.45593999997E+02  0.45594000000E+02  0.51100000000E-03 0.  1.
    9900012    2    1    2    0    0 -0.56299472303E+00  0.11954820334E+00  0.10303864210E+01  0.90007766545E+02  0.90000028264E+02 0.  0.
         12    1    1    2    0    0  0.56299472303E+00 -0.11954820334E+00 -0.10303864210E+01  0.11802334547E+01  0.00000000000E+00 0. -1.
         11    1    3    3    0    0  0.89092224029E+01  0.41450284990E+01 -0.23755346378E+01  0.10109335792E+02  0.51100000000E-03 0. -1.
        -11    1    3    3    0    0  0.24997254560E+02  0.15730318600E+02 -0.18181850576E+02  0.34682637578E+02  0.51100000000E-03 0.  1.
         12    1    3    3    0    0 -0.34469471686E+02 -0.19755798895E+02  0.21587771634E+02  0.45215793175E+02  0.00000000000E+00 0. -1.
</event>
<event>
 7    1  0.2468912E-015  0.9000774E+02  0.7816164E-02  0.1186339E+00
        -11   -1    0    0    0    0  0.00000000000E+00  0.00000000000E+00  0.45593999997E+02  0.45594000000E+02  0.51100000000E-03 0. -1.
         11   -1    0    0    0    0 -0.00000000000E+00 -0.00000000000E+00 -0.45593999997E+02  0.45594000000E+02  0.51100000000E-03 0.  1.
    9900012    2    1    2    0    0 -0.31302064844E+00 -0.69715205677E+00  0.89944915268E+00  0.90007740836E+02  0.90000002215E+02 0.  0.
         12    1    1    2    0    0  0.31302064844E+00  0.69715205677E+00 -0.89944915268E+00  0.11802591643E+01  0.00000000000E+00 0. -1.
         11    1    3    3    0    0  0.35666452182E+02  0.14343191321E+01 -0.15430348367E+02  0.38887642428E+02  0.51100000000E-03 0. -1.
        -11    1    3    3    0    0  0.31631426057E+01  0.59743074084E+01 -0.21338603150E+01  0.70888066880E+01  0.51100000000E-03 0.  1.
        -12    1    3    3    0    0 -0.39142615436E+02 -0.81057785973E+01  0.18463657835E+02  0.44031291720E+02  0.00000000000E+00 0.  1.
</event>
<event>
 7    1  0.2468912E-015  0.9000774E+02  0.7816164E-02  0.1186339E+00
        -11   -1    0    0    0    0  0.00000000000E+00  0.00000000000E+00  0.45593999997E+02  0.45594000000E+02  0.51100000000E-03 0. -1.
         11   -1    0    0    0    0 -0.00000000000E+00 -0.00000000000E+00 -0.45593999997E+02  0.45594000000E+02  0.51100000000E-03 0.  1.
    9900012    2    1    2    0    0  0.84443524118E+00 -0.61072442402E+00 -0.55404559359E+00  0.90007736589E+02  0.89999997912E+02 0.  0.
         12    1    1    2    0    0 -0.84443524118E+00  0.61072442402E+00  0.55404559359E+00  0.11802634106E+01  0.00000000000E+00 0. -1.
         11    1    3    3    0    0  0.27081694758E+02  0.16766956982E+02  0.23874126064E+02  0.39806066535E+02  0.51100000000E-03 0. -1.
        -11    1    3    3    0    0 -0.56999108205E+01 -0.35133607576E+01  0.73251172849E+01  0.99242143605E+01  0.51100000000E-03 0.  1.
        -12    1    3    3    0    0 -0.20537348697E+02 -0.13864320648E+02 -0.31753288942E+02  0.40277455694E+02  0.00000000000E+00 0.  1.
</event>
<event>
 7    1  0.2468912E-015  0.9000761E+02  0.7816164E-02  0.1186339E+00
        -11   -1    0    0    0    0  0.00000000000E+00  0.00000000000E+00  0.45593999997E+02  0.45594000000E+02  0.51100000000E-03 0.  1.
         11   -1    0    0    0    0 -0.00000000000E+00 -0.00000000000E+00 -0.45593999997E+02  0.45594000000E+02  0.51100000000E-03 0. -1.
    9900012    2    1    2    0    0  0.12255831727E+00 -0.11666480997E+01  0.13130318591E+00  0.90007606482E+02  0.89999866088E+02 0.  0.
         12    1    1    2    0    0 -0.12255831727E+00  0.11666480997E+01 -0.13130318591E+00  0.11803935176E+01  0.00000000000E+00 0. -1.
         11    1    3    3    0    0 -0.39936659050E+01  0.10018983072E+02 -0.18482143275E+01  0.10942818906E+02  0.51100000000E-03 0. -1.
        -11    1    3    3    0    0  0.11926654398E+02  0.21075561850E+01  0.37999952720E+02  0.39883371036E+02  0.51100000000E-03 0.  1.
         12    1    3    3    0    0 -0.78104301760E+01 -0.13293187356E+02 -0.36020435207E+02  0.39181416540E+02  0.00000000000E+00 0. -1.
</event>
<event>
 7    1  0.2468912E-015  0.9000690E+02  0.7816164E-02  0.1186341E+00
        -11   -1    0    0    0    0  0.00000000000E+00  0.00000000000E+00  0.45593999997E+02  0.45594000000E+02  0.51100000000E-03 0. -1.
         11   -1    0    0    0    0 -0.00000000000E+00 -0.00000000000E+00 -0.45593999997E+02  0.45594000000E+02  0.51100000000E-03 0.  1.
    9900012    2    1    2    0    0 -0.42703120219E+00 -0.11009343569E+01  0.24281598924E-01  0.90006898098E+02  0.89999148349E+02 0.  0.
         12    1    1    2    0    0  0.42703120219E+00  0.11009343569E+01 -0.24281598924E-01  0.11811019016E+01  0.00000000000E+00 0. -1.
         11    1    3    3    0    0  0.23729042774E+02  0.95065559020E+01  0.26704622371E+02  0.36967268391E+02  0.51100000000E-03 0. -1.
        -11    1    3    3    0    0  0.76235503770E+01 -0.30650017463E+01  0.31553173161E+01  0.88016352845E+01  0.51100000000E-03 0.  1.
        -12    1    3    3    0    0 -0.31779624353E+02 -0.75424885126E+01 -0.29835658088E+02  0.44237994423E+02  0.00000000000E+00 0.  1.
</event>
<event>
 7    1  0.2468912E-015  0.9000773E+02  0.7816164E-02  0.1186339E+00
        -11   -1    0    0    0    0  0.00000000000E+00  0.00000000000E+00  0.45593999997E+02  0.45594000000E+02  0.51100000000E-03 0.  1.
         11   -1    0    0    0    0 -0.00000000000E+00 -0.00000000000E+00 -0.45593999997E+02  0.45594000000E+02  0.51100000000E-03 0. -1.
    9900012    2    1    2    0    0  0.92081298921E+00 -0.19734933093E+00  0.71146566473E+00  0.90007734474E+02  0.89999995769E+02 0.  0.
         12    1    1    2    0    0 -0.92081298921E+00  0.19734933093E+00 -0.71146566473E+00  0.11802655259E+01  0.00000000000E+00 0. -1.
         11    1    3    3    0    0 -0.34665841370E+01  0.40922927617E+01 -0.26732694947E+01  0.59925316586E+01  0.51100000000E-03 0. -1.
        -11    1    3    3    0    0  0.62219842116E+01  0.39421145713E+02 -0.18613006783E+01  0.39952525044E+02  0.51100000000E-03 0.  1.
         12    1    3    3    0    0 -0.18345870854E+01 -0.43710787806E+02  0.52460358377E+01  0.44062677772E+02  0.00000000000E+00 0. -1.
</event>
<event>
 7    1  0.2746118E-015  0.9000739E+02  0.7816164E-02  0.1186340E+00
        -11   -1    0    0    0    0  0.00000000000E+00  0.00000000000E+00  0.45593999997E+02  0.45594000000E+02  0.51100000000E-03 0.  1.
         11   -1    0    0    0    0 -0.00000000000E+00 -0.00000000000E+00 -0.45593999997E+02  0.45594000000E+02  0.51100000000E-03 0. -1.
    9900012    2    1    2    0    0  0.53695869717E+00 -0.72067400655E+00  0.76559983954E+00  0.90007390505E+02  0.89999647259E+02 0.  0.
         12    1    1    2    0    0 -0.53695869717E+00  0.72067400655E+00 -0.76559983954E+00  0.11806094953E+01  0.00000000000E+00 0. -1.
         11    1    3    3    0    0  0.74858053177E+01  0.37233162953E+01 -0.39903438072E+02  0.40769899874E+02  0.51100000000E-03 0. -1.
        -11    1    3    3    0    0  0.80281845352E+01  0.24231831404E+01  0.45565169845E+01  0.95438677042E+01  0.51100000000E-03 0.  1.
        -12    1    3    3    0    0 -0.14977031156E+02 -0.68671734422E+01  0.36112520927E+02  0.39693622927E+02  0.00000000000E+00 0.  1.
</event>
<event>
 7    1  0.2468912E-015  0.9000783E+02  0.7816164E-02  0.1186339E+00
        -11   -1    0    0    0    0  0.00000000000E+00  0.00000000000E+00  0.45593999997E+02  0.45594000000E+02  0.51100000000E-03 0.  1.
         11   -1    0    0    0    0 -0.00000000000E+00 -0.00000000000E+00 -0.45593999997E+02  0.45594000000E+02  0.51100000000E-03 0. -1.
    9900012    2    1    2    0    0  0.41090175707E+00 -0.41991718198E+00 -0.10235373974E+01  0.90007830734E+02  0.90000093299E+02 0.  0.
         12    1    1    2    0    0 -0.41090175707E+00  0.41991718198E+00  0.10235373974E+01  0.11801692665E+01  0.00000000000E+00 0. -1.
         11    1    3    3    0    0  0.18066100277E+02  0.15537983079E+02 -0.88993365827E+01  0.25436412665E+02  0.51100000000E-03 0. -1.
        -11    1    3    3    0    0  0.19862002954E+02  0.18153575019E+01 -0.59534783385E+01  0.20814384180E+02  0.51100000000E-03 0.  1.
        -12    1    3    3    0    0 -0.37517201474E+02 -0.17773257762E+02  0.13829277524E+02  0.43757033889E+02  0.00000000000E+00 0.  1.
</event>
<event>
 7    1  0.2468912E-015  0.9000838E+02  0.7816164E-02  0.1186338E+00
        -11   -1    0    0    0    0  0.00000000000E+00  0.00000000000E+00  0.45593999997E+02  0.45594000000E+02  0.51100000000E-03 0.  1.
         11   -1    0    0    0    0 -0.00000000000E+00 -0.00000000000E+00 -0.45593999997E+02  0.45594000000E+02  0.51100000000E-03 0. -1.
    9900012    2    1    2    0    0  0.24452824855E+00  0.26212476602E+00  0.11238284091E+01  0.90008384067E+02  0.90000653934E+02 0.  0.
         12    1    1    2    0    0 -0.24452824855E+00 -0.26212476602E+00 -0.11238284091E+01  0.11796159334E+01  0.00000000000E+00 0. -1.
         11    1    3    3    0    0  0.24024587557E+02 -0.19842908039E+02 -0.19408819972E+02  0.36709999996E+02  0.51100000000E-03 0. -1.
        -11    1    3    3    0    0  0.24404403975E+01 -0.81406286813E+01 -0.18955561436E+01  0.87073944447E+01  0.51100000000E-03 0.  1.
        -12    1    3    3    0    0 -0.26220499706E+02  0.28245661487E+02  0.22428204525E+02  0.44590989626E+02  0.00000000000E+00 0.  1.
</event>
<event>
 7    1  0.2468912E-015  0.9000785E+02  0.7816164E-02  0.1186339E+00
        -11   -1    0    0    0    0  0.00000000000E+00  0.00000000000E+00  0.45593999997E+02  0.45594000000E+02  0.51100000000E-03 0.  1.
         11   -1    0    0    0    0 -0.00000000000E+00 -0.00000000000E+00 -0.45593999997E+02  0.45594000000E+02  0.51100000000E-03 0. -1.
    9900012    2    1    2    0    0 -0.78198980834E+00 -0.64010340137E+00 -0.60952451746E+00  0.90007847229E+02  0.90000110013E+02 0.  0.
         12    1    1    2    0    0  0.78198980834E+00  0.64010340137E+00  0.60952451746E+00  0.11801527707E+01  0.00000000000E+00 0. -1.
         11    1    3    3    0    0  0.22082252396E+02 -0.60655278730E+01 -0.32393243104E+02  0.39670375575E+02  0.51100000000E-03 0. -1.
        -11    1    3    3    0    0  0.23890913205E+01  0.95240378933E+01  0.37299173533E+00  0.98261985644E+01  0.51100000000E-03 0.  1.
        -12    1    3    3    0    0 -0.25253333524E+02 -0.40986134216E+01  0.31410726851E+02  0.40511273090E+02  0.00000000000E+00 0.  1.
</event>
<event>
 7    1  0.2468912E-015  0.9000779E+02  0.7816164E-02  0.1186339E+00
        -11   -1    0    0    0    0  0.00000000000E+00  0.00000000000E+00  0.45593999997E+02  0.45594000000E+02  0.51100000000E-03 0.  1.
         11   -1    0    0    0    0 -0.00000000000E+00 -0.00000000000E+00 -0.45593999997E+02  0.45594000000E+02  0.51100000000E-03 0. -1.
    9900012    2    1    2    0    0 -0.40026175767E+00 -0.62312891663E-01  0.11085178859E+01  0.90007786344E+02  0.90000048323E+02 0.  0.
         12    1    1    2    0    0  0.40026175767E+00  0.62312891663E-01 -0.11085178859E+01  0.11802136563E+01  0.00000000000E+00 0. -1.
         11    1    3    3    0    0 -0.77455914353E+01  0.56563070997E+01  0.54536089003E+01  0.11033124987E+02  0.51100000000E-03 0. -1.
        -11    1    3    3    0    0  0.28337208753E+02  0.69326358668E+01  0.26613619233E+02  0.39488524522E+02  0.51100000000E-03 0.  1.
         12    1    3    3    0    0 -0.20991879076E+02 -0.12651255858E+02 -0.30958710247E+02  0.39486136834E+02  0.00000000000E+00 0. -1.
</event>
<event>
 7    1  0.2468912E-015  0.9000778E+02  0.7816164E-02  0.1186339E+00
        -11   -1    0    0    0    0  0.00000000000E+00  0.00000000000E+00  0.45593999997E+02  0.45594000000E+02  0.51100000000E-03 0.  1.
         11   -1    0    0    0    0 -0.00000000000E+00 -0.00000000000E+00 -0.45593999997E+02  0.45594000000E+02  0.51100000000E-03 0. -1.
    9900012    2    1    2    0    0  0.16516996631E+00  0.11155289611E+01  0.34817131047E+00  0.90007784239E+02  0.90000046191E+02 0.  0.
         12    1    1    2    0    0 -0.16516996631E+00 -0.11155289611E+01 -0.34817131047E+00  0.11802157609E+01  0.00000000000E+00 0. -1.
         11    1    3    3    0    0 -0.94306690964E+01  0.44746818113E+01 -0.13090893266E+01  0.10520171674E+02  0.51100000000E-03 0. -1.
        -11    1    3    3    0    0  0.26714416980E+02  0.30764547473E+02 -0.38056249320E+01  0.40921879688E+02  0.51100000000E-03 0.  1.
         12    1    3    3    0    0 -0.17118577918E+02 -0.34123700323E+02  0.54628855691E+01  0.38565732878E+02  0.00000000000E+00 0. -1.
</event>
<event>
 7    1  0.2468912E-015  0.9000778E+02  0.7816164E-02  0.1186339E+00
        -11   -1    0    0    0    0  0.00000000000E+00  0.00000000000E+00  0.45593999997E+02  0.45594000000E+02  0.51100000000E-03 0. -1.
         11   -1    0    0    0    0 -0.00000000000E+00 -0.00000000000E+00 -0.45593999997E+02  0.45594000000E+02  0.51100000000E-03 0.  1.
    9900012    2    1    2    0    0 -0.82940636890E+00  0.38426331952E+00  0.74656208707E+00  0.90007776219E+02  0.90000038065E+02 0.  0.
         12    1    1    2    0    0  0.82940636890E+00 -0.38426331952E+00 -0.74656208707E+00  0.11802237810E+01  0.00000000000E+00 0. -1.
         11    1    3    3    0    0 -0.15814004829E+01 -0.26461691389E+02  0.34439395115E+02  0.43460256267E+02  0.51100000000E-03 0. -1.
        -11    1    3    3    0    0  0.67026004488E+01  0.26871219214E+01 -0.70063287723E+01  0.10061516790E+02  0.51100000000E-03 0.  1.
        -12    1    3    3    0    0 -0.59506063348E+01  0.24158832787E+02 -0.26686504255E+02  0.36486003162E+02  0.00000000000E+00 0.  1.
</event>
<event>
 7    1  0.2468912E-015  0.9000771E+02  0.7816164E-02  0.1186339E+00
        -11   -1    0    0    0    0  0.00000000000E+00  0.00000000000E+00  0.45593999997E+02  0.45594000000E+02  0.51100000000E-03 0.  1.
         11   -1    0    0    0    0 -0.00000000000E+00 -0.00000000000E+00 -0.45593999997E+02  0.45594000000E+02  0.51100000000E-03 0. -1.
    9900012    2    1    2    0    0  0.17094115544E+00  0.65994050130E+00  0.96350972924E+00  0.90007706247E+02  0.89999967170E+02 0.  0.
         12    1    1    2    0    0 -0.17094115544E+00 -0.65994050130E+00 -0.96350972924E+00  0.11802937525E+01  0.00000000000E+00 0. -1.
         11    1    3    3    0    0 -0.37250489286E+02  0.99804945289E+01  0.83968987497E+01  0.39467925356E+02  0.51100000000E-03 0. -1.
        -11    1    3    3    0    0 -0.36590897230E+01 -0.79723693045E+01 -0.89577683567E-02  0.87719832667E+01  0.51100000000E-03 0.  1.
        -12    1    3    3    0    0  0.41080520164E+02 -0.13481847231E+01 -0.74244312521E+01  0.41767797625E+02  0.00000000000E+00 0.  1.
</event>
<event>
 7    1  0.2468912E-015  0.9000760E+02  0.7816164E-02  0.1186339E+00
        -11   -1    0    0    0    0  0.00000000000E+00  0.00000000000E+00  0.45593999997E+02  0.45594000000E+02  0.51100000000E-03 0.  1.
         11   -1    0    0    0    0 -0.00000000000E+00 -0.00000000000E+00 -0.45593999997E+02  0.45594000000E+02  0.51100000000E-03 0. -1.
    9900012    2    1    2    0    0  0.41494002447E+00 -0.10526070003E+01 -0.33642279521E+00  0.90007603025E+02  0.89999862585E+02 0.  0.
         12    1    1    2    0    0 -0.41494002447E+00  0.10526070003E+01  0.33642279521E+00  0.11803969748E+01  0.00000000000E+00 0. -1.
         11    1    3    3    0    0  0.51815580120E+01 -0.79024385779E+01 -0.36480615889E+01  0.10129433969E+02  0.51100000000E-03 0. -1.
        -11    1    3    3    0    0 -0.13418949743E+02 -0.29170947918E+02  0.21465742498E+02  0.38623704067E+02  0.51100000000E-03 0.  1.
         12    1    3    3    0    0  0.86523317558E+01  0.36020779495E+02 -0.18154103704E+02  0.41254464989E+02  0.00000000000E+00 0. -1.
</event>
<event>
 7    1  0.2468912E-015  0.9000774E+02  0.7816164E-02  0.1186339E+00
        -11   -1    0    0    0    0  0.00000000000E+00  0.00000000000E+00  0.45593999997E+02  0.45594000000E+02  0.51100000000E-03 0. -1.
         11   -1    0    0    0    0 -0.00000000000E+00 -0.00000000000E+00 -0.45593999997E+02  0.45594000000E+02  0.51100000000E-03 0.  1.
    9900012    2    1    2    0    0 -0.12430027746E+00  0.11466509126E+01 -0.25051049741E+00  0.90007739697E+02  0.90000001061E+02 0.  0.
         12    1    1    2    0    0  0.12430027746E+00 -0.11466509126E+01  0.25051049741E+00  0.11802603034E+01  0.00000000000E+00 0. -1.
         11    1    3    3    0    0  0.39666025156E+02 -0.10080002708E+02  0.56027553074E+01  0.41308484281E+02  0.51100000000E-03 0. -1.
        -11    1    3    3    0    0 -0.51272463579E+01 -0.69213506549E+01 -0.40842616652E+01  0.95328350302E+01  0.51100000000E-03 0.  1.
        -12    1    3    3    0    0 -0.34663079076E+02  0.18148004276E+02 -0.17690041395E+01  0.39166420386E+02  0.00000000000E+00 0.  1.
</event>
<event>
 7    1  0.2468912E-015  0.9000711E+02  0.7816164E-02  0.1186340E+00
        -11   -1    0    0    0    0  0.00000000000E+00  0.00000000000E+00  0.45593999997E+02  0.45594000000E+02  0.51100000000E-03 0.  1.
         11   -1    0    0    0    0 -0.00000000000E+00 -0.00000000000E+00 -0.45593999997E+02  0.45594000000E+02  0.51100000000E-03 0. -1.
    9900012    2    1    2    0    0 -0.93670491563E+00 -0.64327147229E+00  0.32136513290E+00  0.90007114809E+02  0.89999367922E+02 0.  0.
         12    1    1    2    0    0  0.93670491563E+00  0.64327147229E+00 -0.32136513290E+00  0.11808851911E+01  0.00000000000E+00 0. -1.
         11    1    3    3    0    0  0.28296903461E+01 -0.11496940345E+02 -0.11084528221E+01  0.11891822933E+02  0.51100000000E-03 0. -1.
        -11    1    3    3    0    0  0.12518437869E+02 -0.92902018653E+01  0.33465054490E+02  0.36917868434E+02  0.51100000000E-03 0.  1.
         12    1    3    3    0    0 -0.16284833131E+02  0.20143870738E+02 -0.32035236535E+02  0.41197423442E+02  0.00000000000E+00 0. -1.
</event>
<event>
 7    1  0.2468912E-015  0.9000767E+02  0.7816164E-02  0.1186339E+00
        -11   -1    0    0    0    0  0.00000000000E+00  0.00000000000E+00  0.45593999997E+02  0.45594000000E+02  0.51100000000E-03 0.  1.
         11   -1    0    0    0    0 -0.00000000000E+00 -0.00000000000E+00 -0.45593999997E+02  0.45594000000E+02  0.51100000000E-03 0. -1.
    9900012    2    1    2    0    0  0.68822555998E+00 -0.16898891938E+00  0.94391210300E+00  0.90007668803E+02  0.89999929231E+02 0.  0.
         12    1    1    2    0    0 -0.68822555998E+00  0.16898891938E+00 -0.94391210300E+00  0.11803311969E+01  0.00000000000E+00 0. -1.
         11    1    3    3    0    0 -0.51279275778E+01 -0.70888867181E+01 -0.48957489629E+01  0.10025782479E+02  0.51100000000E-03 0. -1.
        -11    1    3    3    0    0 -0.22291036779E+02 -0.25728358021E+02  0.12749358281E+02  0.36350857816E+02  0.51100000000E-03 0.  1.
         12    1    3    3    0    0  0.28107189917E+02  0.32648255819E+02 -0.69096972155E+01  0.43631028508E+02  0.00000000000E+00 0. -1.
</event>
<event>
 7    1  0.2468912E-015  0.9000774E+02  0.7816164E-02  0.1186339E+00
        -11   -1    0    0    0    0  0.00000000000E+00  0.00000000000E+00  0.45593999997E+02  0.45594000000E+02  0.51100000000E-03 0.  1.
         11   -1    0    0    0    0 -0.00000000000E+00 -0.00000000000E+00 -0.45593999997E+02  0.45594000000E+02  0.51100000000E-03 0. -1.
    9900012    2    1    2    0    0  0.30046451588E+00 -0.11394597574E+01 -0.66143352973E-01  0.90007736298E+02  0.89999997617E+02 0.  0.
         12    1    1    2    0    0 -0.30046451588E+00  0.11394597574E+01  0.66143352973E-01  0.11802637024E+01  0.00000000000E+00 0. -1.
         11    1    3    3    0    0 -0.52900544925E+01 -0.18728870397E+02 -0.34115235713E+02  0.39276005027E+02  0.51100000000E-03 0. -1.
        -11    1    3    3    0    0  0.75574951066E+01 -0.42094646399E+01 -0.16983397348E+01  0.88158767548E+01  0.51100000000E-03 0.  1.
        -12    1    3    3    0    0 -0.19669760982E+01  0.21798875280E+02  0.35747432095E+02  0.41915854516E+02  0.00000000000E+00 0.  1.
</event>
<event>
 7    1  0.2468912E-015  0.9000819E+02  0.7816164E-02  0.1186338E+00
        -11   -1    0    0    0    0  0.00000000000E+00  0.00000000000E+00  0.45593999997E+02  0.45594000000E+02  0.51100000000E-03 0.  1.
         11   -1    0    0    0    0 -0.00000000000E+00 -0.00000000000E+00 -0.45593999997E+02  0.45594000000E+02  0.51100000000E-03 0. -1.
    9900012    2    1    2    0    0 -0.81450937473E+00 -0.82506299598E+00 -0.21863326000E+00  0.90008188587E+02  0.90000455875E+02 0.  0.
         12    1    1    2    0    0  0.81450937473E+00  0.82506299598E+00  0.21863326000E+00  0.11798114134E+01  0.00000000000E+00 0. -1.
         11    1    3    3    0    0 -0.15883211889E+02 -0.13114233556E+02 -0.33313109890E+02  0.39166603535E+02  0.51100000000E-03 0. -1.
        -11    1    3    3    0    0  0.60790464554E+01 -0.77046284916E+01 -0.14578799612E+01  0.99217700157E+01  0.51100000000E-03 0.  1.
        -12    1    3    3    0    0  0.89896560588E+01  0.19993799052E+02  0.34552356591E+02  0.40919815036E+02  0.00000000000E+00 0.  1.
</event>
<event>
 7    1  0.2468912E-015  0.9000774E+02  0.7816164E-02  0.1186339E+00
        -11   -1    0    0    0    0  0.00000000000E+00  0.00000000000E+00  0.45593999997E+02  0.45594000000E+02  0.51100000000E-03 0.  1.
         11   -1    0    0    0    0 -0.00000000000E+00 -0.00000000000E+00 -0.45593999997E+02  0.45594000000E+02  0.51100000000E-03 0. -1.
    9900012    2    1    2    0    0  0.11588167664E+01  0.19012154007E+00 -0.11837466709E+00  0.90007739410E+02  0.90000000770E+02 0.  0.
         12    1    1    2    0    0 -0.11588167664E+01 -0.19012154007E+00  0.11837466709E+00  0.11802605898E+01  0.00000000000E+00 0. -1.
         11    1    3    3    0    0  0.17252844292E+02  0.82649766827E+01 -0.31478001811E+02  0.36835242282E+02  0.51100000000E-03 0. -1.
        -11    1    3    3    0    0  0.77410623582E+01 -0.24504625305E+01 -0.48507350265E+01  0.94582473855E+01  0.51100000000E-03 0.  1.
        -12    1    3    3    0    0 -0.23835089884E+02 -0.56243926121E+01  0.36210362170E+02  0.43714249742E+02  0.00000000000E+00 0.  1.
</event>
<event>
 7    1  0.2831402E-015  0.9000767E+02  0.7816164E-02  0.1186339E+00
        -11   -1    0    0    0    0  0.00000000000E+00  0.00000000000E+00  0.45593999997E+02  0.45594000000E+02  0.51100000000E-03 0.  1.
         11   -1    0    0    0    0 -0.00000000000E+00 -0.00000000000E+00 -0.45593999997E+02  0.45594000000E+02  0.51100000000E-03 0. -1.
    9900012    2    1    2    0    0 -0.79397805805E+00  0.82525021484E-01  0.86946280215E+00  0.90007670766E+02  0.89999931220E+02 0.  0.
         12    1    1    2    0    0  0.79397805805E+00 -0.82525021484E-01 -0.86946280215E+00  0.11803292338E+01  0.00000000000E+00 0. -1.
         11    1    3    3    0    0 -0.94315586749E+01  0.15849163635E+02 -0.32945621662E+02  0.37756645428E+02  0.51100000000E-03 0. -1.
        -11    1    3    3    0    0  0.21770849531E+00 -0.52828032865E+01 -0.72882929472E+01  0.90041447066E+01  0.51100000000E-03 0.  1.
        -12    1    3    3    0    0  0.84198721215E+01 -0.10483835328E+02  0.41103377412E+02  0.43246880632E+02  0.00000000000E+00 0.  1.
</event>
<event>
 7    1  0.2468912E-015  0.9000779E+02  0.7816164E-02  0.1186339E+00
        -11   -1    0    0    0    0  0.00000000000E+00  0.00000000000E+00  0.45593999997E+02  0.45594000000E+02  0.51100000000E-03 0. -1.
         11   -1    0    0    0    0 -0.00000000000E+00 -0.00000000000E+00 -0.45593999997E+02  0.45594000000E+02  0.51100000000E-03 0.  1.
    9900012    2    1    2    0    0 -0.10004329792E+01 -0.15762655875E+00 -0.60596513085E+00  0.90007785605E+02  0.90000047575E+02 0.  0.
         12    1    1    2    0    0  0.10004329792E+01  0.15762655875E+00  0.60596513085E+00  0.11802143948E+01  0.00000000000E+00 0. -1.
         11    1    3    3    0    0 -0.23682031439E+02  0.28987533270E+02  0.85014697780E+01  0.38384771548E+02  0.51100000000E-03 0. -1.
        -11    1    3    3    0    0  0.11668248359E+01  0.59954044786E+01  0.51839488038E+01  0.80112221615E+01  0.51100000000E-03 0.  1.
        -12    1    3    3    0    0  0.21514773624E+02 -0.35140564308E+02 -0.14291383713E+02  0.43611791896E+02  0.00000000000E+00 0.  1.
</event>
<event>
 7    1  0.2468912E-015  0.9000768E+02  0.7816164E-02  0.1186339E+00
        -11   -1    0    0    0    0  0.00000000000E+00  0.00000000000E+00  0.45593999997E+02  0.45594000000E+02  0.51100000000E-03 0.  1.
         11   -1    0    0    0    0 -0.00000000000E+00 -0.00000000000E+00 -0.45593999997E+02  0.45594000000E+02  0.51100000000E-03 0. -1.
    9900012    2    1    2    0    0  0.13016377733E+00 -0.11243670338E+01  0.33468538025E+00  0.90007678798E+02  0.89999939358E+02 0.  0.
         12    1    1    2    0    0 -0.13016377733E+00  0.11243670338E+01 -0.33468538025E+00  0.11803212018E+01  0.00000000000E+00 0. -1.
         11    1    3    3    0    0 -0.39935119850E+02 -0.66630625620E+01 -0.15318739133E+02  0.43288265951E+02  0.51100000000E-03 0. -1.
        -11    1    3    3    0    0  0.56095764119E+01  0.32622450896E+01  0.97131110519E+01  0.11681357674E+02  0.51100000000E-03 0.  1.
        -12    1    3    3    0    0  0.34455707215E+02  0.22764504386E+01  0.59403134613E+01  0.35038055173E+02  0.00000000000E+00 0.  1.
</event>
<event>
 7    1  0.2468912E-015  0.9000748E+02  0.7816164E-02  0.1186340E+00
        -11   -1    0    0    0    0  0.00000000000E+00  0.00000000000E+00  0.45593999997E+02  0.45594000000E+02  0.51100000000E-03 0.  1.
         11   -1    0    0    0    0 -0.00000000000E+00 -0.00000000000E+00 -0.45593999997E+02  0.45594000000E+02  0.51100000000E-03 0. -1.
    9900012    2    1    2    0    0 -0.54596140724E+00  0.10413735823E+01  0.10528629568E+00  0.90007484011E+02  0.89999742000E+02 0.  0.
         12    1    1    2    0    0  0.54596140724E+00 -0.10413735823E+01 -0.10528629568E+00  0.11805159889E+01  0.00000000000E+00 0. -1.
         11    1    3    3    0    0 -0.49892783623E+01  0.56393414694E+01 -0.38588300874E+02  0.39316053151E+02  0.51100000000E-03 0. -1.
        -11    1    3    3    0    0 -0.31914866590E+01  0.89483172925E+01  0.56870530155E+00  0.95174258832E+01  0.51100000000E-03 0.  1.
        -12    1    3    3    0    0  0.76348036140E+01 -0.13546285180E+02  0.38124881868E+02  0.41174004977E+02  0.00000000000E+00 0.  1.
</event>
<event>
 7    1  0.2468912E-015  0.9000748E+02  0.7816164E-02  0.1186340E+00
        -11   -1    0    0    0    0  0.00000000000E+00  0.00000000000E+00  0.45593999997E+02  0.45594000000E+02  0.51100000000E-03 0.  1.
         11   -1    0    0    0    0 -0.00000000000E+00 -0.00000000000E+00 -0.45593999997E+02  0.45594000000E+02  0.51100000000E-03 0. -1.
    9900012    2    1    2    0    0 -0.20513618240E+00  0.11374557974E+01  0.24030335597E+00  0.90007477977E+02  0.89999735886E+02 0.  0.
         12    1    1    2    0    0  0.20513618240E+00 -0.11374557974E+01 -0.24030335597E+00  0.11805220232E+01  0.00000000000E+00 0. -1.
         11    1    3    3    0    0  0.29795431432E+02  0.19001456545E+01 -0.31292790899E+02  0.43250630634E+02  0.51100000000E-03 0. -1.
        -11    1    3    3    0    0 -0.28602331669E+01 -0.59787997530E+01  0.39771111036E+01  0.77294497377E+01  0.51100000000E-03 0.  1.
        -12    1    3    3    0    0 -0.27140334447E+02  0.52161098960E+01  0.27555983152E+02  0.39027397605E+02  0.00000000000E+00 0.  1.
</event>
<event>
 7    1  0.2468912E-015  0.9000775E+02  0.7816164E-02  0.1186339E+00
        -11   -1    0    0    0    0  0.00000000000E+00  0.00000000000E+00  0.45593999997E+02  0.45594000000E+02  0.51100000000E-03 0.  1.
         11   -1    0    0    0    0 -0.00000000000E+00 -0.00000000000E+00 -0.45593999997E+02  0.45594000000E+02  0.51100000000E-03 0. -1.
    9900012    2    1    2    0    0  0.38276662665E+00  0.43073890346E+00  0.10300160762E+01  0.90007754513E+02  0.90000016072E+02 0.  0.
         12    1    1    2    0    0 -0.38276662665E+00 -0.43073890346E+00 -0.10300160762E+01  0.11802454875E+01  0.00000000000E+00 0. -1.
         11    1    3    3    0    0 -0.32164889814E+02  0.12177034519E+02 -0.21873305442E+02  0.40759070128E+02  0.51100000000E-03 0. -1.
        -11    1    3    3    0    0  0.97597786673E+01 -0.15829468700E+01 -0.56031857662E+01  0.11364624561E+02  0.51100000000E-03 0.  1.
        -12    1    3    3    0    0  0.22787877773E+02 -0.10163348745E+02  0.28506507285E+02  0.37884059824E+02  0.00000000000E+00 0.  1.
</event>
<event>
 7    1  0.2867306E-015  0.9000780E+02  0.7816164E-02  0.1186339E+00
        -11   -1    0    0    0    0  0.00000000000E+00  0.00000000000E+00  0.45593999997E+02  0.45594000000E+02  0.51100000000E-03 0. -1.
         11   -1    0    0    0    0 -0.00000000000E+00 -0.00000000000E+00 -0.45593999997E+02  0.45594000000E+02  0.51100000000E-03 0.  1.
    9900012    2    1    2    0    0 -0.48843657204E+00  0.10631659402E+01 -0.15482837897E+00  0.90007803437E+02  0.90000065642E+02 0.  0.
         12    1    1    2    0    0  0.48843657204E+00 -0.10631659402E+01  0.15482837897E+00  0.11801965634E+01  0.00000000000E+00 0. -1.
         11    1    3    3    0    0 -0.79544322974E+00 -0.27188828788E+02  0.24566264167E+02  0.36651964152E+02  0.51100000000E-03 0. -1.
        -11    1    3    3    0    0 -0.65217709862E+01 -0.69629119151E+01  0.42375119561E+00  0.95496180275E+01  0.51100000000E-03 0.  1.
        -12    1    3    3    0    0  0.68287776439E+01  0.35214906643E+02 -0.25144843742E+02  0.43806221257E+02  0.00000000000E+00 0.  1.
</event>
<event>
 7    1  0.2468912E-015  0.9000774E+02  0.7816164E-02  0.1186339E+00
        -11   -1    0    0    0    0  0.00000000000E+00  0.00000000000E+00  0.45593999997E+02  0.45594000000E+02  0.51100000000E-03 0. -1.
         11   -1    0    0    0    0 -0.00000000000E+00 -0.00000000000E+00 -0.45593999997E+02  0.45594000000E+02  0.51100000000E-03 0.  1.
    9900012    2    1    2    0    0  0.50585918540E+00 -0.10103538116E+01 -0.34102220008E+00  0.90007743892E+02  0.90000005311E+02 0.  0.
         12    1    1    2    0    0 -0.50585918540E+00  0.10103538116E+01  0.34102220008E+00  0.11802561082E+01  0.00000000000E+00 0. -1.
         11    1    3    3    0    0 -0.12772519641E+02  0.63949672042E+01  0.20242040307E+02  0.24774443678E+02  0.51100000000E-03 0. -1.
        -11    1    3    3    0    0 -0.93799476995E+01 -0.10111746682E+02  0.16614943174E+02  0.21593683723E+02  0.51100000000E-03 0.  1.
        -12    1    3    3    0    0  0.22658326526E+02  0.27064256657E+01 -0.37198005680E+02  0.43639616491E+02  0.00000000000E+00 0.  1.
</event>
<event>
 7    1  0.2468912E-015  0.9000774E+02  0.7816164E-02  0.1186339E+00
        -11   -1    0    0    0    0  0.00000000000E+00  0.00000000000E+00  0.45593999997E+02  0.45594000000E+02  0.51100000000E-03 0.  1.
         11   -1    0    0    0    0 -0.00000000000E+00 -0.00000000000E+00 -0.45593999997E+02  0.45594000000E+02  0.51100000000E-03 0. -1.
    9900012    2    1    2    0    0  0.67894199424E-01  0.11376398909E+01 -0.30690425294E+00  0.90007735469E+02  0.89999996777E+02 0.  0.
         12    1    1    2    0    0 -0.67894199424E-01 -0.11376398909E+01  0.30690425294E+00  0.11802645314E+01  0.00000000000E+00 0. -1.
         11    1    3    3    0    0  0.50894924216E+01 -0.28459892624E+01 -0.90621975499E+01  0.10776178018E+02  0.51100000000E-03 0. -1.
        -11    1    3    3    0    0  0.23377232676E+02  0.24141898964E+02  0.23917918951E+02  0.41247947105E+02  0.51100000000E-03 0.  1.
         12    1    3    3    0    0 -0.28398830898E+02 -0.20158269811E+02 -0.15162625654E+02  0.37983610345E+02  0.00000000000E+00 0. -1.
</event>
<event>
 7    1  0.2468912E-015  0.9000780E+02  0.7816164E-02  0.1186339E+00
        -11   -1    0    0    0    0  0.00000000000E+00  0.00000000000E+00  0.45593999997E+02  0.45594000000E+02  0.51100000000E-03 0.  1.
         11   -1    0    0    0    0 -0.00000000000E+00 -0.00000000000E+00 -0.45593999997E+02  0.45594000000E+02  0.51100000000E-03 0. -1.
    9900012    2    1    2    0    0  0.83051157983E+00  0.83557809677E+00  0.70248902907E-01  0.90007798683E+02  0.90000060826E+02 0.  0.
         12    1    1    2    0    0 -0.83051157983E+00 -0.83557809677E+00 -0.70248902907E-01  0.11802013169E+01  0.00000000000E+00 0. -1.
         11    1    3    3    0    0 -0.10275877493E+00  0.52935391939E+01  0.23375693364E+01  0.57876028912E+01  0.51100000000E-03 0. -1.
        -11    1    3    3    0    0 -0.39943904886E+02 -0.12967447123E+02  0.31631604948E+01  0.42115030655E+02  0.51100000000E-03 0.  1.
         12    1    3    3    0    0  0.40877175241E+02  0.85094860259E+01 -0.54304809282E+01  0.42105165137E+02  0.00000000000E+00 0. -1.
</event>
<event>
 7    1  0.2468912E-015  0.9000764E+02  0.7816164E-02  0.1186339E+00
        -11   -1    0    0    0    0  0.00000000000E+00  0.00000000000E+00  0.45593999997E+02  0.45594000000E+02  0.51100000000E-03 0.  1.
         11   -1    0    0    0    0 -0.00000000000E+00 -0.00000000000E+00 -0.45593999997E+02  0.45594000000E+02  0.51100000000E-03 0. -1.
    9900012    2    1    2    0    0  0.17447720138E+00  0.96899870670E+00  0.65103392399E+00  0.90007641598E+02  0.89999901667E+02 0.  0.
         12    1    1    2    0    0 -0.17447720138E+00 -0.96899870670E+00 -0.65103392399E+00  0.11803584022E+01  0.00000000000E+00 0. -1.
         11    1    3    3    0    0 -0.25249674327E+02 -0.12068971569E+02  0.10844066405E+02  0.30013328786E+02  0.51100000000E-03 0. -1.
        -11    1    3    3    0    0 -0.18840648210E+01 -0.33765100121E+01  0.17412719805E+02  0.17836853180E+02  0.51100000000E-03 0.  1.
        -12    1    3    3    0    0  0.27308216350E+02  0.16414480287E+02 -0.27605752286E+02  0.42157459631E+02  0.00000000000E+00 0.  1.
</event>
<event>
 7    1  0.2468912E-015  0.9000772E+02  0.7816164E-02  0.1186339E+00
        -11   -1    0    0    0    0  0.00000000000E+00  0.00000000000E+00  0.45593999997E+02  0.45594000000E+02  0.51100000000E-03 0.  1.
         11   -1    0    0    0    0 -0.00000000000E+00 -0.00000000000E+00 -0.45593999997E+02  0.45594000000E+02  0.51100000000E-03 0. -1.
    9900012    2    1    2    0    0  0.14660775212E+00 -0.11707496018E+01  0.30298790198E-01  0.90007717627E+02  0.89999978700E+02 0.  0.
         12    1    1    2    0    0 -0.14660775212E+00  0.11707496018E+01 -0.30298790198E-01  0.11802823729E+01  0.00000000000E+00 0. -1.
         11    1    3    3    0    0  0.35240185213E+02 -0.44553758711E+01 -0.25718438300E+01  0.35613696929E+02  0.51100000000E-03 0. -1.
        -11    1    3    3    0    0  0.89287865147E+01  0.48754362436E+01 -0.84539980440E+00  0.10208222582E+02  0.51100000000E-03 0.  1.
        -12    1    3    3    0    0 -0.44022363976E+02 -0.15908099743E+01  0.34475424246E+01  0.44185798116E+02  0.00000000000E+00 0.  1.
</event>
<event>
 7    1  0.2468912E-015  0.9000790E+02  0.7816164E-02  0.1186339E+00
        -11   -1    0    0    0    0  0.00000000000E+00  0.00000000000E+00  0.45593999997E+02  0.45594000000E+02  0.51100000000E-03 0.  1.
         11   -1    0    0    0    0 -0.00000000000E+00 -0.00000000000E+00 -0.45593999997E+02  0.45594000000E+02  0.51100000000E-03 0. -1.
    9900012    2    1    2    0    0  0.95055215772E+00 -0.28209044226E+00  0.63993736318E+00  0.90007896508E+02  0.90000159942E+02 0.  0.
         12    1    1    2    0    0 -0.95055215772E+00  0.28209044226E+00 -0.63993736318E+00  0.11801034916E+01  0.00000000000E+00 0. -1.
         11    1    3    3    0    0 -0.39554201652E+01  0.87175785575E+01 -0.27042007844E+01  0.99475739120E+01  0.51100000000E-03 0. -1.
        -11    1    3    3    0    0  0.20146290178E+02  0.25451401653E+02 -0.17635061995E+02  0.36941064763E+02  0.51100000000E-03 0.  1.
         12    1    3    3    0    0 -0.15240317855E+02 -0.34451070653E+02  0.20979200142E+02  0.43119257833E+02  0.00000000000E+00 0. -1.
</event>
<event>
 7    1  0.2468912E-015  0.9000773E+02  0.7816164E-02  0.1186339E+00
        -11   -1    0    0    0    0  0.00000000000E+00  0.00000000000E+00  0.45593999997E+02  0.45594000000E+02  0.51100000000E-03 0. -1.
         11   -1    0    0    0    0 -0.00000000000E+00 -0.00000000000E+00 -0.45593999997E+02  0.45594000000E+02  0.51100000000E-03 0.  1.
    9900012    2    1    2    0    0  0.54755071444E+00 -0.74451545196E+00 -0.73410906700E+00  0.90007732587E+02  0.89999993858E+02 0.  0.
         12    1    1    2    0    0 -0.54755071444E+00  0.74451545196E+00  0.73410906700E+00  0.11802674126E+01  0.00000000000E+00 0. -1.
         11    1    3    3    0    0  0.32330774563E+02 -0.24380066501E+02  0.14066296560E+02  0.42866389229E+02  0.51100000000E-03 0. -1.
        -11    1    3    3    0    0 -0.39205764695E+01  0.77746657713E+00 -0.10018474604E+02  0.10786343578E+02  0.51100000000E-03 0.  1.
        -12    1    3    3    0    0 -0.27862647379E+02  0.22858084471E+02 -0.47819310223E+01  0.36354999780E+02  0.00000000000E+00 0.  1.
</event>
<event>
 7    1  0.2468912E-015  0.9000755E+02  0.7816164E-02  0.1186339E+00
        -11   -1    0    0    0    0  0.00000000000E+00  0.00000000000E+00  0.45593999997E+02  0.45594000000E+02  0.51100000000E-03 0.  1.
         11   -1    0    0    0    0 -0.00000000000E+00 -0.00000000000E+00 -0.45593999997E+02  0.45594000000E+02  0.51100000000E-03 0. -1.
    9900012    2    1    2    0    0  0.28080130376E+00  0.20346350532E+00  0.11283661685E+01  0.90007552212E+02  0.89999811101E+02 0.  0.
         12    1    1    2    0    0 -0.28080130376E+00 -0.20346350532E+00 -0.11283661685E+01  0.11804477881E+01  0.00000000000E+00 0. -1.
         11    1    3    3    0    0  0.30150874919E+02 -0.16378338529E+02  0.21016416358E+02  0.40236985326E+02  0.51100000000E-03 0. -1.
        -11    1    3    3    0    0 -0.97176072367E+01  0.88419897910E+01  0.73191244333E+01  0.15039356921E+02  0.51100000000E-03 0.  1.
        -12    1    3    3    0    0 -0.20152466379E+02  0.77398122429E+01 -0.27207174622E+02  0.34731209965E+02  0.00000000000E+00 0.  1.
</event>
<event>
 7    1  0.2468912E-015  0.9000770E+02  0.7816164E-02  0.1186339E+00
        -11   -1    0    0    0    0  0.00000000000E+00  0.00000000000E+00  0.45593999997E+02  0.45594000000E+02  0.51100000000E-03 0.  1.
         11   -1    0    0    0    0 -0.00000000000E+00 -0.00000000000E+00 -0.45593999997E+02  0.45594000000E+02  0.51100000000E-03 0. -1.
    9900012    2    1    2    0    0  0.10545965822E+01 -0.52343697622E+00  0.83372941631E-01  0.90007698654E+02  0.89999959477E+02 0.  0.
         12    1    1    2    0    0 -0.10545965822E+01  0.52343697622E+00 -0.83372941631E-01  0.11803013457E+01  0.00000000000E+00 0. -1.
         11    1    3    3    0    0  0.76023502277E+01  0.47443135194E+01 -0.20851004525E+01  0.92006458422E+01  0.51100000000E-03 0. -1.
        -11    1    3    3    0    0  0.35493869729E+02 -0.57631820668E+01  0.11474173586E+02  0.37745009149E+02  0.51100000000E-03 0.  1.
         12    1    3    3    0    0 -0.42041623375E+02  0.49543157123E+00 -0.93057001915E+01  0.43062043664E+02  0.00000000000E+00 0. -1.
</event>
<event>
 7    1  0.2468912E-015  0.9000657E+02  0.7816164E-02  0.1186341E+00
        -11   -1    0    0    0    0  0.00000000000E+00  0.00000000000E+00  0.45593999997E+02  0.45594000000E+02  0.51100000000E-03 0.  1.
         11   -1    0    0    0    0 -0.00000000000E+00 -0.00000000000E+00 -0.45593999997E+02  0.45594000000E+02  0.51100000000E-03 0. -1.
    9900012    2    1    2    0    0  0.55289259533E+00 -0.97773038473E+00  0.36622527470E+00  0.90006573795E+02  0.89998819761E+02 0.  0.
         12    1    1    2    0    0 -0.55289259533E+00  0.97773038473E+00 -0.36622527470E+00  0.11814262055E+01  0.00000000000E+00 0. -1.
         11    1    3    3    0    0 -0.15236407831E+02 -0.34145672064E+02  0.67365195269E+01  0.37992838008E+02  0.51100000000E-03 0. -1.
        -11    1    3    3    0    0 -0.82397218626E+01 -0.13833896674E+01 -0.53397522877E+01  0.99156309986E+01  0.51100000000E-03 0.  1.
        -12    1    3    3    0    0  0.24029022289E+02  0.34551331347E+02 -0.10305419645E+01  0.42098104788E+02  0.00000000000E+00 0.  1.
</event>
<event>
 7    1  0.2468912E-015  0.9000747E+02  0.7816164E-02  0.1186340E+00
        -11   -1    0    0    0    0  0.00000000000E+00  0.00000000000E+00  0.45593999997E+02  0.45594000000E+02  0.51100000000E-03 0. -1.
         11   -1    0    0    0    0 -0.00000000000E+00 -0.00000000000E+00 -0.45593999997E+02  0.45594000000E+02  0.51100000000E-03 0.  1.
    9900012    2    1    2    0    0 -0.61114889350E+00  0.98205481455E+00 -0.23604679287E+00  0.90007469307E+02  0.89999727101E+02 0.  0.
         12    1    1    2    0    0  0.61114889350E+00 -0.98205481455E+00  0.23604679287E+00  0.11805306930E+01  0.00000000000E+00 0. -1.
         11    1    3    3    0    0 -0.15883720986E+02  0.18363108746E+02  0.26800787086E+02  0.36163220872E+02  0.51100000000E-03 0. -1.
        -11    1    3    3    0    0 -0.85045342099E+01 -0.38881034575E+01  0.58866708946E+01  0.11049766744E+02  0.51100000000E-03 0.  1.
        -12    1    3    3    0    0  0.23777106302E+02 -0.13492950474E+02 -0.32923504774E+02  0.42794481690E+02  0.00000000000E+00 0.  1.
</event>
<event>
 7    1  0.2468912E-015  0.9000779E+02  0.7816164E-02  0.1186339E+00
        -11   -1    0    0    0    0  0.00000000000E+00  0.00000000000E+00  0.45593999997E+02  0.45594000000E+02  0.51100000000E-03 0.  1.
         11   -1    0    0    0    0 -0.00000000000E+00 -0.00000000000E+00 -0.45593999997E+02  0.45594000000E+02  0.51100000000E-03 0. -1.
    9900012    2    1    2    0    0  0.39634340112E+00  0.10566215817E+01 -0.34548937167E+00  0.90007788085E+02  0.90000050088E+02 0.  0.
         12    1    1    2    0    0 -0.39634340112E+00 -0.10566215817E+01  0.34548937167E+00  0.11802119150E+01  0.00000000000E+00 0. -1.
         11    1    3    3    0    0  0.14326731473E+02  0.32970663318E+02 -0.15556298702E+02  0.39170375335E+02  0.51100000000E-03 0. -1.
        -11    1    3    3    0    0  0.91085452285E+01  0.58695438974E-02  0.21204836151E+01  0.93521164265E+01  0.51100000000E-03 0.  1.
        -12    1    3    3    0    0 -0.23038933300E+02 -0.31919911280E+02  0.13090325715E+02  0.41485296324E+02  0.00000000000E+00 0.  1.
</event>
<event>
 7    1  0.2468912E-015  0.9000773E+02  0.7816164E-02  0.1186339E+00
        -11   -1    0    0    0    0  0.00000000000E+00  0.00000000000E+00  0.45593999997E+02  0.45594000000E+02  0.51100000000E-03 0. -1.
         11   -1    0    0    0    0 -0.00000000000E+00 -0.00000000000E+00 -0.45593999997E+02  0.45594000000E+02  0.51100000000E-03 0.  1.
    9900012    2    1    2    0    0  0.41200638387E+00 -0.38594891704E-01 -0.11053536701E+01  0.90007726488E+02  0.89999987678E+02 0.  0.
         12    1    1    2    0    0 -0.41200638387E+00  0.38594891704E-01  0.11053536701E+01  0.11802735115E+01  0.00000000000E+00 0. -1.
         11    1    3    3    0    0 -0.24527748503E+01 -0.88891955325E+01 -0.22434445603E+01  0.94903606590E+01  0.51100000000E-03 0. -1.
        -11    1    3    3    0    0 -0.86566748248E+01 -0.34493359728E+02 -0.14606671345E+01  0.35593025062E+02  0.51100000000E-03 0.  1.
         12    1    3    3    0    0  0.11521456059E+02  0.43343960368E+02  0.25987580247E+01  0.44924340768E+02  0.00000000000E+00 0. -1.
</event>
<event>
 7    1  0.2468912E-015  0.9000762E+02  0.7816164E-02  0.1186339E+00
        -11   -1    0    0    0    0  0.00000000000E+00  0.00000000000E+00  0.45593999997E+02  0.45594000000E+02  0.51100000000E-03 0.  1.
         11   -1    0    0    0    0 -0.00000000000E+00 -0.00000000000E+00 -0.45593999997E+02  0.45594000000E+02  0.51100000000E-03 0. -1.
    9900012    2    1    2    0    0  0.11441178715E+01  0.14787760047E+00  0.24986834489E+00  0.90007615453E+02  0.89999875177E+02 0.  0.
         12    1    1    2    0    0 -0.11441178715E+01 -0.14787760047E+00 -0.24986834489E+00  0.11803845468E+01  0.00000000000E+00 0. -1.
         11    1    3    3    0    0  0.28000791670E+02  0.14201374055E+02 -0.21453969174E+02  0.38026256098E+02  0.51100000000E-03 0. -1.
        -11    1    3    3    0    0  0.17259832439E+01 -0.66785811897E+00 -0.82580445156E+01  0.84628808398E+01  0.51100000000E-03 0.  1.
        -12    1    3    3    0    0 -0.28582657043E+02 -0.13385638335E+02  0.29961882035E+02  0.43518478516E+02  0.00000000000E+00 0.  1.
</event>
<event>
 7    1  0.2468912E-015  0.9000776E+02  0.7816164E-02  0.1186339E+00
        -11   -1    0    0    0    0  0.00000000000E+00  0.00000000000E+00  0.45593999997E+02  0.45594000000E+02  0.51100000000E-03 0. -1.
         11   -1    0    0    0    0 -0.00000000000E+00 -0.00000000000E+00 -0.45593999997E+02  0.45594000000E+02  0.51100000000E-03 0.  1.
    9900012    2    1    2    0    0 -0.10211636557E+01  0.33029347703E+00 -0.49100687386E+00  0.90007764116E+02  0.90000025802E+02 0.  0.
         12    1    1    2    0    0  0.10211636557E+01 -0.33029347703E+00  0.49100687386E+00  0.11802358844E+01  0.00000000000E+00 0. -1.
         11    1    3    3    0    0 -0.64958707978E+01  0.77071437452E+01 -0.44967931020E+01  0.11037098830E+02  0.51100000000E-03 0. -1.
        -11    1    3    3    0    0  0.22603487390E+02  0.62121462642E+01 -0.30288023386E+02  0.38299774990E+02  0.51100000000E-03 0.  1.
         12    1    3    3    0    0 -0.17128780248E+02 -0.13588996532E+02  0.34293809614E+02  0.40670890295E+02  0.00000000000E+00 0. -1.
</event>
<event>
 7    1  0.2468912E-015  0.9000775E+02  0.7816164E-02  0.1186339E+00
        -11   -1    0    0    0    0  0.00000000000E+00  0.00000000000E+00  0.45593999997E+02  0.45594000000E+02  0.51100000000E-03 0. -1.
         11   -1    0    0    0    0 -0.00000000000E+00 -0.00000000000E+00 -0.45593999997E+02  0.45594000000E+02  0.51100000000E-03 0.  1.
    9900012    2    1    2    0    0 -0.33655722838E+00  0.10936230764E+01  0.28932086908E+00  0.90007750549E+02  0.90000012056E+02 0.  0.
         12    1    1    2    0    0  0.33655722838E+00 -0.10936230764E+01 -0.28932086908E+00  0.11802494510E+01  0.00000000000E+00 0. -1.
         11    1    3    3    0    0 -0.64760878219E+01 -0.50080083116E+01 -0.53862756980E+01  0.97995829953E+01  0.51100000000E-03 0. -1.
        -11    1    3    3    0    0 -0.11472263707E+02  0.61103552065E+01 -0.34216060569E+02  0.36601749636E+02  0.51100000000E-03 0.  1.
         12    1    3    3    0    0  0.17611794301E+02 -0.87238185055E-02  0.39891657136E+02  0.43606417918E+02  0.00000000000E+00 0. -1.
</event>
<event>
 7    1  0.2468912E-015  0.9000780E+02  0.7816164E-02  0.1186339E+00
        -11   -1    0    0    0    0  0.00000000000E+00  0.00000000000E+00  0.45593999997E+02  0.45594000000E+02  0.51100000000E-03 0. -1.
         11   -1    0    0    0    0 -0.00000000000E+00 -0.00000000000E+00 -0.45593999997E+02  0.45594000000E+02  0.51100000000E-03 0.  1.
    9900012    2    1    2    0    0 -0.19054075968E+00 -0.11628144637E+01  0.66551096446E-01  0.90007799887E+02  0.90000062046E+02 0.  0.
         12    1    1    2    0    0  0.19054075968E+00  0.11628144637E+01 -0.66551096446E-01  0.11802001129E+01  0.00000000000E+00 0. -1.
         11    1    3    3    0    0 -0.10904406938E+02 -0.39775546834E+02  0.10490563682E+02  0.42556458303E+02  0.51100000000E-03 0. -1.
        -11    1    3    3    0    0 -0.74006742678E+01  0.10391282047E+02 -0.28383011385E+01  0.13069226290E+02  0.51100000000E-03 0.  1.
        -12    1    3    3    0    0  0.18114540446E+02  0.28221450324E+02 -0.75857114474E+01  0.34382115294E+02  0.00000000000E+00 0.  1.
</event>
<event>
 7    1  0.2468912E-015  0.9000829E+02  0.7816164E-02  0.1186338E+00
        -11   -1    0    0    0    0  0.00000000000E+00  0.00000000000E+00  0.45593999997E+02  0.45594000000E+02  0.51100000000E-03 0.  1.
         11   -1    0    0    0    0 -0.00000000000E+00 -0.00000000000E+00 -0.45593999997E+02  0.45594000000E+02  0.51100000000E-03 0. -1.
    9900012    2    1    2    0    0  0.10599170620E+01 -0.40322883754E+00  0.32509837532E+00  0.90008293839E+02  0.90000562515E+02 0.  0.
         12    1    1    2    0    0 -0.10599170620E+01  0.40322883754E+00 -0.32509837532E+00  0.11797061615E+01  0.00000000000E+00 0. -1.
         11    1    3    3    0    0  0.59577381946E+01  0.48997071227E+01  0.77755220575E+01  0.10952648895E+02  0.51100000000E-03 0. -1.
        -11    1    3    3    0    0  0.15042002349E+01 -0.22547365821E+02  0.29866160923E+02  0.37451754196E+02  0.51100000000E-03 0.  1.
         12    1    3    3    0    0 -0.64020213675E+01  0.17244429861E+02 -0.37316584605E+02  0.41603890748E+02  0.00000000000E+00 0. -1.
</event>
<event>
 7    1  0.2468912E-015  0.9000769E+02  0.7816164E-02  0.1186339E+00
        -11   -1    0    0    0    0  0.00000000000E+00  0.00000000000E+00  0.45593999997E+02  0.45594000000E+02  0.51100000000E-03 0. -1.
         11   -1    0    0    0    0 -0.00000000000E+00 -0.00000000000E+00 -0.45593999997E+02  0.45594000000E+02  0.51100000000E-03 0.  1.
    9900012    2    1    2    0    0  0.10566706112E+01  0.32501525375E+00 -0.41346270670E+00  0.90007686861E+02  0.89999947528E+02 0.  0.
         12    1    1    2    0    0 -0.10566706112E+01 -0.32501525375E+00  0.41346270670E+00  0.11803131388E+01  0.00000000000E+00 0. -1.
         11    1    3    3    0    0 -0.51356420499E+01 -0.71640459940E+01 -0.90510924315E+00  0.88610155892E+01  0.51100000000E-03 0. -1.
        -11    1    3    3    0    0  0.32087245233E+01 -0.13691042424E+02 -0.36111170045E+02  0.38752511634E+02  0.51100000000E-03 0.  1.
         12    1    3    3    0    0  0.29835881377E+01  0.21180103672E+02  0.36602816581E+02  0.42394159638E+02  0.00000000000E+00 0. -1.
</event>
<event>
 7    1  0.2468912E-015  0.9000776E+02  0.7816164E-02  0.1186339E+00
        -11   -1    0    0    0    0  0.00000000000E+00  0.00000000000E+00  0.45593999997E+02  0.45594000000E+02  0.51100000000E-03 0.  1.
         11   -1    0    0    0    0 -0.00000000000E+00 -0.00000000000E+00 -0.45593999997E+02  0.45594000000E+02  0.51100000000E-03 0. -1.
    9900012    2    1    2    0    0 -0.63870044710E+00  0.40418274786E+00  0.90646132510E+00  0.90007756767E+02  0.90000018356E+02 0.  0.
         12    1    1    2    0    0  0.63870044710E+00 -0.40418274786E+00 -0.90646132510E+00  0.11802432328E+01  0.00000000000E+00 0. -1.
         11    1    3    3    0    0  0.34681980532E+02  0.43295432198E+01  0.68146731979E+01  0.35609331490E+02  0.51100000000E-03 0. -1.
        -11    1    3    3    0    0  0.57705776093E+00  0.11574275678E+01  0.13304081945E+02  0.13366795835E+02  0.51100000000E-03 0.  1.
        -12    1    3    3    0    0 -0.35897738740E+02 -0.50827880397E+01 -0.19212293818E+02  0.41031629442E+02  0.00000000000E+00 0.  1.
</event>
<event>
 7    1  0.2468912E-015  0.9000776E+02  0.7816164E-02  0.1186339E+00
        -11   -1    0    0    0    0  0.00000000000E+00  0.00000000000E+00  0.45593999997E+02  0.45594000000E+02  0.51100000000E-03 0. -1.
         11   -1    0    0    0    0 -0.00000000000E+00 -0.00000000000E+00 -0.45593999997E+02  0.45594000000E+02  0.51100000000E-03 0.  1.
    9900012    2    1    2    0    0  0.44342819617E+00 -0.67649170574E+00 -0.85947837312E+00  0.90007757369E+02  0.90000018967E+02 0.  0.
         12    1    1    2    0    0 -0.44342819617E+00  0.67649170574E+00  0.85947837312E+00  0.11802426305E+01  0.00000000000E+00 0. -1.
         11    1    3    3    0    0  0.80090741622E+01  0.31542478179E+01 -0.63452648241E+01  0.10693780163E+02  0.51100000000E-03 0. -1.
        -11    1    3    3    0    0 -0.21877012885E+02  0.32866564088E+02  0.59150746968E+01  0.39922460304E+02  0.51100000000E-03 0.  1.
         12    1    3    3    0    0  0.14311366919E+02 -0.36697303612E+02 -0.42928824582E+00  0.39391516903E+02  0.00000000000E+00 0. -1.
</event>
<event>
 7    1  0.2468912E-015  0.9000764E+02  0.7816164E-02  0.1186339E+00
        -11   -1    0    0    0    0  0.00000000000E+00  0.00000000000E+00  0.45593999997E+02  0.45594000000E+02  0.51100000000E-03 0.  1.
         11   -1    0    0    0    0 -0.00000000000E+00 -0.00000000000E+00 -0.45593999997E+02  0.45594000000E+02  0.51100000000E-03 0. -1.
    9900012    2    1    2    0    0 -0.30767851863E+00 -0.11155846660E+01 -0.23249733169E+00  0.90007639789E+02  0.89999899834E+02 0.  0.
         12    1    1    2    0    0  0.30767851863E+00  0.11155846660E+01  0.23249733169E+00  0.11803602108E+01  0.00000000000E+00 0. -1.
         11    1    3    3    0    0  0.39644894695E+02  0.55963196489E+01  0.61395098581E+01  0.40505926116E+02  0.51100000000E-03 0. -1.
        -11    1    3    3    0    0 -0.39966312497E+01  0.89586105422E+01 -0.31769257767E+00  0.98148200711E+01  0.51100000000E-03 0.  1.
        -12    1    3    3    0    0 -0.35955941963E+02 -0.15670514857E+02 -0.60543146121E+01  0.39686893602E+02  0.00000000000E+00 0.  1.
</event>
<event>
 7    1  0.2468912E-015  0.9000785E+02  0.7816164E-02  0.1186339E+00
        -11   -1    0    0    0    0  0.00000000000E+00  0.00000000000E+00  0.45593999997E+02  0.45594000000E+02  0.51100000000E-03 0. -1.
         11   -1    0    0    0    0 -0.00000000000E+00 -0.00000000000E+00 -0.45593999997E+02  0.45594000000E+02  0.51100000000E-03 0.  1.
    9900012    2    1    2    0    0  0.73553841334E+00 -0.84128749633E+00 -0.37944069943E+00  0.90007848885E+02  0.90000111691E+02 0.  0.
         12    1    1    2    0    0 -0.73553841334E+00  0.84128749633E+00  0.37944069943E+00  0.11801511146E+01  0.00000000000E+00 0. -1.
         11    1    3    3    0    0 -0.34542314522E+01  0.79732974952E+01 -0.12111245342E+02  0.14905953571E+02  0.51100000000E-03 0. -1.
        -11    1    3    3    0    0 -0.27382464474E+02  0.15051538976E+02 -0.58587646923E+01  0.31791088534E+02  0.51100000000E-03 0.  1.
         12    1    3    3    0    0  0.31572234340E+02 -0.23866123967E+02  0.17590569334E+02  0.43310806780E+02  0.00000000000E+00 0. -1.
</event>
<event>
 7    1  0.2468912E-015  0.9000749E+02  0.7816164E-02  0.1186340E+00
        -11   -1    0    0    0    0  0.00000000000E+00  0.00000000000E+00  0.45593999997E+02  0.45594000000E+02  0.51100000000E-03 0. -1.
         11   -1    0    0    0    0 -0.00000000000E+00 -0.00000000000E+00 -0.45593999997E+02  0.45594000000E+02  0.51100000000E-03 0.  1.
    9900012    2    1    2    0    0 -0.11011964129E+01  0.42181717986E+00  0.55216592654E-01  0.90007486491E+02  0.89999744512E+02 0.  0.
         12    1    1    2    0    0  0.11011964129E+01 -0.42181717986E+00 -0.55216592654E-01  0.11805135091E+01  0.00000000000E+00 0. -1.
         11    1    3    3    0    0  0.78150321650E+01  0.70634411543E+01 -0.52457074335E+01  0.11767938452E+02  0.51100000000E-03 0. -1.
        -11    1    3    3    0    0  0.24714386131E+00  0.29692869115E+02 -0.17410864416E+02  0.34421879036E+02  0.51100000000E-03 0.  1.
         12    1    3    3    0    0 -0.91633724393E+01 -0.36334493090E+02  0.22711788443E+02  0.43817669002E+02  0.00000000000E+00 0. -1.
</event>
<event>
 7    1  0.2468912E-015  0.9000774E+02  0.7816164E-02  0.1186339E+00
        -11   -1    0    0    0    0  0.00000000000E+00  0.00000000000E+00  0.45593999997E+02  0.45594000000E+02  0.51100000000E-03 0. -1.
         11   -1    0    0    0    0 -0.00000000000E+00 -0.00000000000E+00 -0.45593999997E+02  0.45594000000E+02  0.51100000000E-03 0.  1.
    9900012    2    1    2    0    0  0.13412032609E+00  0.13694095030E+00 -0.11645904263E+01  0.90007740729E+02  0.90000002107E+02 0.  0.
         12    1    1    2    0    0 -0.13412032609E+00 -0.13694095030E+00  0.11645904263E+01  0.11802592710E+01  0.00000000000E+00 0. -1.
         11    1    3    3    0    0 -0.33127577713E+01 -0.15868786144E+01  0.76464770871E+01  0.84829923903E+01  0.51100000000E-03 0. -1.
        -11    1    3    3    0    0 -0.29396446223E+02  0.81111183516E+01  0.20744221564E+02  0.36881757280E+02  0.51100000000E-03 0.  1.
         12    1    3    3    0    0  0.32843324321E+02 -0.63872987869E+01 -0.29555289078E+02  0.44642991059E+02  0.00000000000E+00 0. -1.
</event>
<event>
 7    1  0.2468912E-015  0.9000771E+02  0.7816164E-02  0.1186339E+00
        -11   -1    0    0    0    0  0.00000000000E+00  0.00000000000E+00  0.45593999997E+02  0.45594000000E+02  0.51100000000E-03 0. -1.
         11   -1    0    0    0    0 -0.00000000000E+00 -0.00000000000E+00 -0.45593999997E+02  0.45594000000E+02  0.51100000000E-03 0.  1.
    9900012    2    1    2    0    0  0.48789438797E+00  0.82969909829E+00 -0.68310717739E+00  0.90007713194E+02  0.89999974209E+02 0.  0.
         12    1    1    2    0    0 -0.48789438797E+00 -0.82969909829E+00  0.68310717739E+00  0.11802868055E+01  0.00000000000E+00 0. -1.
         11    1    3    3    0    0 -0.54301457499E+01  0.79903350714E+01  0.42689348672E+01  0.10561995199E+02  0.51100000000E-03 0. -1.
        -11    1    3    3    0    0  0.17233637380E+02  0.31439000961E+02  0.88337889394E+01  0.36924854313E+02  0.51100000000E-03 0.  1.
         12    1    3    3    0    0 -0.11315597242E+02 -0.38599636934E+02 -0.13785830984E+02  0.42520863682E+02  0.00000000000E+00 0. -1.
</event>
<event>
 7    1  0.2468912E-015  0.9000778E+02  0.7816164E-02  0.1186339E+00
        -11   -1    0    0    0    0  0.00000000000E+00  0.00000000000E+00  0.45593999997E+02  0.45594000000E+02  0.51100000000E-03 0. -1.
         11   -1    0    0    0    0 -0.00000000000E+00 -0.00000000000E+00 -0.45593999997E+02  0.45594000000E+02  0.51100000000E-03 0.  1.
    9900012    2    1    2    0    0  0.81252142864E+00 -0.13335669723E+00 -0.84553748162E+00  0.90007784463E+02  0.90000046418E+02 0.  0.
         12    1    1    2    0    0 -0.81252142864E+00  0.13335669723E+00  0.84553748162E+00  0.11802155369E+01  0.00000000000E+00 0. -1.
         11    1    3    3    0    0  0.13038772602E+02 -0.11421931566E+02  0.41241477148E+01  0.17817932155E+02  0.51100000000E-03 0. -1.
        -11    1    3    3    0    0 -0.36630546507E+01 -0.19236930231E+02 -0.27165960429E+02  0.33488309309E+02  0.51100000000E-03 0.  1.
         12    1    3    3    0    0 -0.85631965224E+01  0.30525505100E+02  0.22196275233E+02  0.38701542999E+02  0.00000000000E+00 0. -1.
</event>
<event>
 7    1  0.2468912E-015  0.9000768E+02  0.7816164E-02  0.1186339E+00
        -11   -1    0    0    0    0  0.00000000000E+00  0.00000000000E+00  0.45593999997E+02  0.45594000000E+02  0.51100000000E-03 0.  1.
         11   -1    0    0    0    0 -0.00000000000E+00 -0.00000000000E+00 -0.45593999997E+02  0.45594000000E+02  0.51100000000E-03 0. -1.
    9900012    2    1    2    0    0  0.26897489376E-01 -0.11578707076E+01 -0.22750206458E+00  0.90007684263E+02  0.89999944895E+02 0.  0.
         12    1    1    2    0    0 -0.26897489376E-01  0.11578707076E+01  0.22750206458E+00  0.11803157374E+01  0.00000000000E+00 0. -1.
         11    1    3    3    0    0 -0.35854804431E+02  0.47261009613E+01 -0.35097662826E+01  0.36334852286E+02  0.51100000000E-03 0. -1.
        -11    1    3    3    0    0 -0.59656211114E+01  0.11279594689E+01 -0.77368743320E+01  0.98346404356E+01  0.51100000000E-03 0.  1.
        -12    1    3    3    0    0  0.41847323031E+02 -0.70119311378E+01  0.11019138550E+02  0.43838191541E+02  0.00000000000E+00 0.  1.
</event>
<event>
 7    1  0.2468912E-015  0.9000772E+02  0.7816164E-02  0.1186339E+00
        -11   -1    0    0    0    0  0.00000000000E+00  0.00000000000E+00  0.45593999997E+02  0.45594000000E+02  0.51100000000E-03 0.  1.
         11   -1    0    0    0    0 -0.00000000000E+00 -0.00000000000E+00 -0.45593999997E+02  0.45594000000E+02  0.51100000000E-03 0. -1.
    9900012    2    1    2    0    0 -0.11088936619E+01  0.18030714007E+00  0.36180785084E+00  0.90007720059E+02  0.89999981164E+02 0.  0.
         12    1    1    2    0    0  0.11088936619E+01 -0.18030714007E+00 -0.36180785084E+00  0.11802799410E+01  0.00000000000E+00 0. -1.
         11    1    3    3    0    0  0.71705476484E+01  0.10765202407E+02  0.41660976169E+01  0.13589065680E+02  0.51100000000E-03 0. -1.
        -11    1    3    3    0    0  0.16821108855E+02 -0.18709601858E+01 -0.32911290535E+02  0.37008150995E+02  0.51100000000E-03 0.  1.
         12    1    3    3    0    0 -0.25100550165E+02 -0.87139350816E+01  0.29107000769E+02  0.39410503384E+02  0.00000000000E+00 0. -1.
</event>
<event>
 7    1  0.2468912E-015  0.9000779E+02  0.7816164E-02  0.1186339E+00
        -11   -1    0    0    0    0  0.00000000000E+00  0.00000000000E+00  0.45593999997E+02  0.45594000000E+02  0.51100000000E-03 0. -1.
         11   -1    0    0    0    0 -0.00000000000E+00 -0.00000000000E+00 -0.45593999997E+02  0.45594000000E+02  0.51100000000E-03 0.  1.
    9900012    2    1    2    0    0  0.11350342584E+01  0.22526170249E-01  0.32263868379E+00  0.90007785648E+02  0.90000047619E+02 0.  0.
         12    1    1    2    0    0 -0.11350342584E+01 -0.22526170249E-01 -0.32263868379E+00  0.11802143519E+01  0.00000000000E+00 0. -1.
         11    1    3    3    0    0 -0.22526374123E+02 -0.25883917661E+02  0.19261884477E+02  0.39350157795E+02  0.51100000000E-03 0. -1.
        -11    1    3    3    0    0  0.36125209121E+01 -0.23756868715E+01 -0.15183676720E+02  0.15787280781E+02  0.51100000000E-03 0.  1.
        -12    1    3    3    0    0  0.20048887469E+02  0.28282130703E+02 -0.37555690737E+01  0.34870347072E+02  0.00000000000E+00 0.  1.
</event>
<event>
 7    1  0.2468912E-015  0.9000779E+02  0.7816164E-02  0.1186339E+00
        -11   -1    0    0    0    0  0.00000000000E+00  0.00000000000E+00  0.45593999997E+02  0.45594000000E+02  0.51100000000E-03 0.  1.
         11   -1    0    0    0    0 -0.00000000000E+00 -0.00000000000E+00 -0.45593999997E+02  0.45594000000E+02  0.51100000000E-03 0. -1.
    9900012    2    1    2    0    0  0.86495524689E+00 -0.76458009775E+00 -0.24530073652E+00  0.90007786987E+02  0.90000048975E+02 0.  0.
         12    1    1    2    0    0 -0.86495524689E+00  0.76458009775E+00  0.24530073652E+00  0.11802130131E+01  0.00000000000E+00 0. -1.
         11    1    3    3    0    0  0.21085843501E+01 -0.76099658354E+01  0.51547874591E+01  0.94302461255E+01  0.51100000000E-03 0. -1.
        -11    1    3    3    0    0 -0.17160311223E+02 -0.31933351696E+02  0.68767488915E+01  0.36898575953E+02  0.51100000000E-03 0.  1.
         12    1    3    3    0    0  0.15916682120E+02  0.38778737433E+02 -0.12276837087E+02  0.43678964908E+02  0.00000000000E+00 0. -1.
</event>
<event>
 7    1  0.2468912E-015  0.9000771E+02  0.7816164E-02  0.1186339E+00
        -11   -1    0    0    0    0  0.00000000000E+00  0.00000000000E+00  0.45593999997E+02  0.45594000000E+02  0.51100000000E-03 0. -1.
         11   -1    0    0    0    0 -0.00000000000E+00 -0.00000000000E+00 -0.45593999997E+02  0.45594000000E+02  0.51100000000E-03 0.  1.
    9900012    2    1    2    0    0  0.10194263735E+01 -0.38039513373E+00 -0.45733031169E+00  0.90007711221E+02  0.89999972209E+02 0.  0.
         12    1    1    2    0    0 -0.10194263735E+01  0.38039513373E+00  0.45733031169E+00  0.11802887794E+01  0.00000000000E+00 0. -1.
         11    1    3    3    0    0  0.16703748605E+02  0.38175745443E+02  0.29241690900E+01  0.41772640839E+02  0.51100000000E-03 0. -1.
        -11    1    3    3    0    0 -0.54626607387E+01  0.15388802977E+01 -0.38448177703E+01  0.68550301870E+01  0.51100000000E-03 0.  1.
        -12    1    3    3    0    0 -0.10221661493E+02 -0.40095020874E+02  0.46331836866E+00  0.41380040194E+02  0.00000000000E+00 0.  1.
</event>
<event>
 7    1  0.2468912E-015  0.9000771E+02  0.7816164E-02  0.1186339E+00
        -11   -1    0    0    0    0  0.00000000000E+00  0.00000000000E+00  0.45593999997E+02  0.45594000000E+02  0.51100000000E-03 0. -1.
         11   -1    0    0    0    0 -0.00000000000E+00 -0.00000000000E+00 -0.45593999997E+02  0.45594000000E+02  0.51100000000E-03 0.  1.
    9900012    2    1    2    0    0  0.60595203883E+00  0.26378997752E+00 -0.97791230996E+00  0.90007713801E+02  0.89999974823E+02 0.  0.
         12    1    1    2    0    0 -0.60595203883E+00 -0.26378997752E+00  0.97791230996E+00  0.11802861990E+01  0.00000000000E+00 0. -1.
         11    1    3    3    0    0  0.32892468360E+02  0.77732402597E+01 -0.73598190009E+01  0.34590528688E+02  0.51100000000E-03 0. -1.
        -11    1    3    3    0    0  0.10954707203E+02 -0.35669586275E+01 -0.62561477810E-01  0.11520968621E+02  0.51100000000E-03 0.  1.
        -12    1    3    3    0    0 -0.43241223524E+02 -0.39424916547E+01  0.64444681687E+01  0.43896216492E+02  0.00000000000E+00 0.  1.
</event>
<event>
 7    1  0.2468912E-015  0.9000784E+02  0.7816164E-02  0.1186339E+00
        -11   -1    0    0    0    0  0.00000000000E+00  0.00000000000E+00  0.45593999997E+02  0.45594000000E+02  0.51100000000E-03 0.  1.
         11   -1    0    0    0    0 -0.00000000000E+00 -0.00000000000E+00 -0.45593999997E+02  0.45594000000E+02  0.51100000000E-03 0. -1.
    9900012    2    1    2    0    0  0.40143063320E+00 -0.88748633852E+00  0.66633012718E+00  0.90007841370E+02  0.90000104076E+02 0.  0.
         12    1    1    2    0    0 -0.40143063320E+00  0.88748633852E+00 -0.66633012718E+00  0.11801586303E+01  0.00000000000E+00 0. -1.
         11    1    3    3    0    0 -0.69278534421E+01 -0.72103137723E-01  0.66878507211E+01  0.96295222989E+01  0.51100000000E-03 0. -1.
        -11    1    3    3    0    0  0.25599331325E+02  0.12565031552E+01  0.30288931191E+02  0.39677750912E+02  0.51100000000E-03 0.  1.
         12    1    3    3    0    0 -0.18270047250E+02 -0.20718863560E+01 -0.36310451785E+02  0.40700568159E+02  0.00000000000E+00 0. -1.
</event>
<event>
 7    1  0.2468912E-015  0.9000774E+02  0.7816164E-02  0.1186339E+00
        -11   -1    0    0    0    0  0.00000000000E+00  0.00000000000E+00  0.45593999997E+02  0.45594000000E+02  0.51100000000E-03 0.  1.
         11   -1    0    0    0    0 -0.00000000000E+00 -0.00000000000E+00 -0.45593999997E+02  0.45594000000E+02  0.51100000000E-03 0. -1.
    9900012    2    1    2    0    0 -0.60102210495E+00  0.77678556858E+00  0.65450991172E+00  0.90007742988E+02  0.90000004395E+02 0.  0.
         12    1    1    2    0    0  0.60102210495E+00 -0.77678556858E+00 -0.65450991172E+00  0.11802570122E+01  0.00000000000E+00 0. -1.
         11    1    3    3    0    0  0.11054306340E+02  0.35806847292E+02 -0.16180922251E+02  0.40818503731E+02  0.51100000000E-03 0. -1.
        -11    1    3    3    0    0 -0.18453864447E+00 -0.13971495317E+00  0.12163500587E+02  0.12165702675E+02  0.51100000000E-03 0.  1.
        -12    1    3    3    0    0 -0.11470789800E+02 -0.34890346770E+02  0.46719315752E+01  0.37023536582E+02  0.00000000000E+00 0.  1.
</event>
<event>
 7    1  0.2468912E-015  0.9000774E+02  0.7816164E-02  0.1186339E+00
        -11   -1    0    0    0    0  0.00000000000E+00  0.00000000000E+00  0.45593999997E+02  0.45594000000E+02  0.51100000000E-03 0. -1.
         11   -1    0    0    0    0 -0.00000000000E+00 -0.00000000000E+00 -0.45593999997E+02  0.45594000000E+02  0.51100000000E-03 0.  1.
    9900012    2    1    2    0    0  0.76578716543E+00 -0.57047501787E+00 -0.69364360650E+00  0.90007740206E+02  0.90000001577E+02 0.  0.
         12    1    1    2    0    0 -0.76578716543E+00  0.57047501787E+00  0.69364360650E+00  0.11802597941E+01  0.00000000000E+00 0. -1.
         11    1    3    3    0    0  0.65795220235E+01  0.20946804802E+02  0.22493118921E+02  0.31432453619E+02  0.51100000000E-03 0. -1.
        -11    1    3    3    0    0 -0.35415276053E+00  0.31439911860E+01  0.13593704727E+02  0.13957038125E+02  0.51100000000E-03 0.  1.
        -12    1    3    3    0    0 -0.54595820975E+01 -0.24661271006E+02 -0.36780467254E+02  0.44618248462E+02  0.00000000000E+00 0.  1.
</event>
<event>
 7    1  0.2468912E-015  0.9000747E+02  0.7816164E-02  0.1186340E+00
        -11   -1    0    0    0    0  0.00000000000E+00  0.00000000000E+00  0.45593999997E+02  0.45594000000E+02  0.51100000000E-03 0. -1.
         11   -1    0    0    0    0 -0.00000000000E+00 -0.00000000000E+00 -0.45593999997E+02  0.45594000000E+02  0.51100000000E-03 0.  1.
    9900012    2    1    2    0    0 -0.93995981843E+00 -0.56177184885E+00  0.44106955976E+00  0.90007468583E+02  0.89999726368E+02 0.  0.
         12    1    1    2    0    0  0.93995981843E+00  0.56177184885E+00 -0.44106955976E+00  0.11805314172E+01  0.00000000000E+00 0. -1.
         11    1    3    3    0    0  0.16431711882E+02 -0.78405497812E+01  0.33234816377E+02  0.37894965314E+02  0.51100000000E-03 0. -1.
        -11    1    3    3    0    0 -0.64543865121E+01 -0.17333649870E+00  0.73883776395E+01  0.98120984094E+01  0.51100000000E-03 0.  1.
        -12    1    3    3    0    0 -0.10917285189E+02  0.74521144311E+01 -0.40182124457E+02  0.42300404859E+02  0.00000000000E+00 0.  1.
</event>
<event>
 7    1  0.2468912E-015  0.9000769E+02  0.7816164E-02  0.1186339E+00
        -11   -1    0    0    0    0  0.00000000000E+00  0.00000000000E+00  0.45593999997E+02  0.45594000000E+02  0.51100000000E-03 0. -1.
         11   -1    0    0    0    0 -0.00000000000E+00 -0.00000000000E+00 -0.45593999997E+02  0.45594000000E+02  0.51100000000E-03 0.  1.
    9900012    2    1    2    0    0  0.83871987112E+00 -0.33172589775E+00 -0.76133344814E+00  0.90007694229E+02  0.89999954993E+02 0.  0.
         12    1    1    2    0    0 -0.83871987112E+00  0.33172589775E+00  0.76133344814E+00  0.11803057708E+01  0.00000000000E+00 0. -1.
         11    1    3    3    0    0 -0.29731355065E+02 -0.23049003253E+02 -0.22855631162E+02  0.44018063349E+02  0.51100000000E-03 0. -1.
        -11    1    3    3    0    0  0.39242386660E+01  0.61972929820E+01  0.99651191404E+01  0.12373750004E+02  0.51100000000E-03 0.  1.
        -12    1    3    3    0    0  0.26645836270E+02  0.16519984373E+02  0.12129178574E+02  0.33615880876E+02  0.00000000000E+00 0.  1.
</event>
<event>
 7    1  0.2468912E-015  0.9000779E+02  0.7816164E-02  0.1186339E+00
        -11   -1    0    0    0    0  0.00000000000E+00  0.00000000000E+00  0.45593999997E+02  0.45594000000E+02  0.51100000000E-03 0.  1.
         11   -1    0    0    0    0 -0.00000000000E+00 -0.00000000000E+00 -0.45593999997E+02  0.45594000000E+02  0.51100000000E-03 0. -1.
    9900012    2    1    2    0    0  0.12751431373E-01 -0.28902241504E+00  0.11442054205E+01  0.90007787053E+02  0.90000049042E+02 0.  0.
         12    1    1    2    0    0 -0.12751431373E-01  0.28902241504E+00 -0.11442054205E+01  0.11802129467E+01  0.00000000000E+00 0. -1.
         11    1    3    3    0    0  0.30495794097E+02 -0.62564821822E+01 -0.26542539120E+02  0.40910187119E+02  0.51100000000E-03 0. -1.
        -11    1    3    3    0    0  0.21555677837E+01  0.72915432820E+01  0.30912116616E+01  0.82078417200E+01  0.51100000000E-03 0.  1.
        -12    1    3    3    0    0 -0.32638610449E+02 -0.13240835148E+01  0.24595532879E+02  0.40889758214E+02  0.00000000000E+00 0.  1.
</event>
<event>
 7    1  0.2468912E-015  0.9000775E+02  0.7816164E-02  0.1186339E+00
        -11   -1    0    0    0    0  0.00000000000E+00  0.00000000000E+00  0.45593999997E+02  0.45594000000E+02  0.51100000000E-03 0.  1.
         11   -1    0    0    0    0 -0.00000000000E+00 -0.00000000000E+00 -0.45593999997E+02  0.45594000000E+02  0.51100000000E-03 0. -1.
    9900012    2    1    2    0    0  0.11489963565E+01 -0.10630368788E+00  0.24798871173E+00  0.90007749390E+02  0.90000010882E+02 0.  0.
         12    1    1    2    0    0 -0.11489963565E+01  0.10630368788E+00 -0.24798871173E+00  0.11802506100E+01  0.00000000000E+00 0. -1.
         11    1    3    3    0    0  0.13032304216E+02  0.21860451272E+02 -0.28921576054E+02  0.38525028809E+02  0.51100000000E-03 0. -1.
        -11    1    3    3    0    0  0.11603014760E+02 -0.94162261605E+01  0.57205601548E+01  0.16000627343E+02  0.51100000000E-03 0.  1.
        -12    1    3    3    0    0 -0.23486322619E+02 -0.12550528800E+02  0.23449004611E+02  0.35482093238E+02  0.00000000000E+00 0.  1.
</event>
<event>
 7    1  0.2468912E-015  0.9000774E+02  0.7816164E-02  0.1186339E+00
        -11   -1    0    0    0    0  0.00000000000E+00  0.00000000000E+00  0.45593999997E+02  0.45594000000E+02  0.51100000000E-03 0.  1.
         11   -1    0    0    0    0 -0.00000000000E+00 -0.00000000000E+00 -0.45593999997E+02  0.45594000000E+02  0.51100000000E-03 0. -1.
    9900012    2    1    2    0    0  0.57228009722E+00  0.10049937553E+01 -0.23558541154E+00  0.90007738400E+02  0.89999999747E+02 0.  0.
         12    1    1    2    0    0 -0.57228009722E+00 -0.10049937553E+01  0.23558541154E+00  0.11802615998E+01  0.00000000000E+00 0. -1.
         11    1    3    3    0    0 -0.19040408877E+02 -0.21103324049E+02 -0.26456471303E+02  0.38830816759E+02  0.51100000000E-03 0. -1.
        -11    1    3    3    0    0  0.66688151433E+01 -0.70817409086E+00 -0.64318511939E+01  0.92921104169E+01  0.51100000000E-03 0.  1.
        -12    1    3    3    0    0  0.12943873830E+02  0.22816491895E+02  0.32652737085E+02  0.41884811224E+02  0.00000000000E+00 0.  1.
</event>
<event>
 7    1  0.2468912E-015  0.9000785E+02  0.7816164E-02  0.1186339E+00
        -11   -1    0    0    0    0  0.00000000000E+00  0.00000000000E+00  0.45593999997E+02  0.45594000000E+02  0.51100000000E-03 0.  1.
         11   -1    0    0    0    0 -0.00000000000E+00 -0.00000000000E+00 -0.45593999997E+02  0.45594000000E+02  0.51100000000E-03 0. -1.
    9900012    2    1    2    0    0 -0.32755136125E+00 -0.11336805230E+01 -0.14892927228E-01  0.90007854576E+02  0.90000117456E+02 0.  0.
         12    1    1    2    0    0  0.32755136125E+00  0.11336805230E+01  0.14892927228E-01  0.11801454240E+01  0.00000000000E+00 0. -1.
         11    1    3    3    0    0 -0.86866090266E+01 -0.54176563909E+01 -0.38646276043E+01  0.10942738411E+02  0.51100000000E-03 0. -1.
        -11    1    3    3    0    0 -0.28823063662E+02 -0.95179985926E+01  0.19882462381E+02  0.36285997391E+02  0.51100000000E-03 0.  1.
         12    1    3    3    0    0  0.37182121328E+02  0.13801974461E+02 -0.16032727704E+02  0.42779118774E+02  0.00000000000E+00 0. -1.
</event>
<event>
 7    1  0.2468912E-015  0.9000775E+02  0.7816164E-02  0.1186339E+00
        -11   -1    0    0    0    0  0.00000000000E+00  0.00000000000E+00  0.45593999997E+02  0.45594000000E+02  0.51100000000E-03 0.  1.
         11   -1    0    0    0    0 -0.00000000000E+00 -0.00000000000E+00 -0.45593999997E+02  0.45594000000E+02  0.51100000000E-03 0. -1.
    9900012    2    1    2    0    0 -0.22822164348E+00 -0.49989501356E+00  0.10445129511E+01  0.90007751108E+02  0.90000012622E+02 0.  0.
         12    1    1    2    0    0  0.22822164348E+00  0.49989501356E+00 -0.10445129511E+01  0.11802488924E+01  0.00000000000E+00 0. -1.
         11    1    3    3    0    0  0.86256338328E+01  0.20735784444E+02  0.21859300637E+02  0.31340123486E+02  0.51100000000E-03 0. -1.
        -11    1    3    3    0    0  0.11645603850E+02  0.11171741779E+02 -0.31259910371E+01  0.16437752998E+02  0.51100000000E-03 0.  1.
        -12    1    3    3    0    0 -0.20499459326E+02 -0.32407421236E+02 -0.17688796649E+02  0.42229874624E+02  0.00000000000E+00 0.  1.
</event>
<event>
 7    1  0.2468912E-015  0.9000777E+02  0.7816164E-02  0.1186339E+00
        -11   -1    0    0    0    0  0.00000000000E+00  0.00000000000E+00  0.45593999997E+02  0.45594000000E+02  0.51100000000E-03 0. -1.
         11   -1    0    0    0    0 -0.00000000000E+00 -0.00000000000E+00 -0.45593999997E+02  0.45594000000E+02  0.51100000000E-03 0.  1.
    9900012    2    1    2    0    0 -0.58184389338E-01 -0.32733293719E+00 -0.11324384339E+01  0.90007767361E+02  0.90000029090E+02 0.  0.
         12    1    1    2    0    0  0.58184389338E-01  0.32733293719E+00  0.11324384339E+01  0.11802326387E+01  0.00000000000E+00 0. -1.
         11    1    3    3    0    0  0.57758186275E+01 -0.17513734410E+01 -0.80786192632E+01  0.10084219316E+02  0.51100000000E-03 0. -1.
        -11    1    3    3    0    0  0.30715734596E+02  0.14479555944E+02 -0.12908641997E+02  0.36328321329E+02  0.51100000000E-03 0.  1.
         12    1    3    3    0    0 -0.36549737613E+02 -0.13055515440E+02  0.19854822827E+02  0.43595226716E+02  0.00000000000E+00 0. -1.
</event>
<event>
 7    1  0.2468912E-015  0.9000774E+02  0.7816164E-02  0.1186339E+00
        -11   -1    0    0    0    0  0.00000000000E+00  0.00000000000E+00  0.45593999997E+02  0.45594000000E+02  0.51100000000E-03 0. -1.
         11   -1    0    0    0    0 -0.00000000000E+00 -0.00000000000E+00 -0.45593999997E+02  0.45594000000E+02  0.51100000000E-03 0.  1.
    9900012    2    1    2    0    0 -0.36431295672E+00 -0.11113153911E+01  0.15898254652E+00  0.90007736776E+02  0.89999998101E+02 0.  0.
         12    1    1    2    0    0  0.36431295672E+00  0.11113153911E+01 -0.15898254652E+00  0.11802632244E+01  0.00000000000E+00 0. -1.
         11    1    3    3    0    0 -0.14847894127E+02 -0.13971559126E+02  0.24325036102E+02  0.31739121066E+02  0.51100000000E-03 0. -1.
        -11    1    3    3    0    0 -0.15342191358E+02 -0.73297374479E+01 -0.75778547638E+01  0.18615363811E+02  0.51100000000E-03 0.  1.
        -12    1    3    3    0    0  0.29825772528E+02  0.20189981183E+02 -0.16588198792E+02  0.39653251899E+02  0.00000000000E+00 0.  1.
</event>
<event>
 7    1  0.2468912E-015  0.9000767E+02  0.7816164E-02  0.1186339E+00
        -11   -1    0    0    0    0  0.00000000000E+00  0.00000000000E+00  0.45593999997E+02  0.45594000000E+02  0.51100000000E-03 0. -1.
         11   -1    0    0    0    0 -0.00000000000E+00 -0.00000000000E+00 -0.45593999997E+02  0.45594000000E+02  0.51100000000E-03 0.  1.
    9900012    2    1    2    0    0 -0.92039005147E+00  0.60976562846E+00 -0.41743800082E+00  0.90007666804E+02  0.89999927206E+02 0.  0.
         12    1    1    2    0    0  0.92039005147E+00 -0.60976562846E+00  0.41743800082E+00  0.11803331958E+01  0.00000000000E+00 0. -1.
         11    1    3    3    0    0  0.36826398698E+02  0.10730170526E+02 -0.52808751148E+00  0.38361426945E+02  0.51100000000E-03 0. -1.
        -11    1    3    3    0    0 -0.13195837701E+01  0.98387414252E+01 -0.16934208785E+01  0.10070243726E+02  0.51100000000E-03 0.  1.
        -12    1    3    3    0    0 -0.36427204979E+02 -0.19959146323E+02  0.18040703891E+01  0.41575996134E+02  0.00000000000E+00 0.  1.
</event>
<event>
 7    1  0.2468912E-015  0.9000773E+02  0.7816164E-02  0.1186339E+00
        -11   -1    0    0    0    0  0.00000000000E+00  0.00000000000E+00  0.45593999997E+02  0.45594000000E+02  0.51100000000E-03 0. -1.
         11   -1    0    0    0    0 -0.00000000000E+00 -0.00000000000E+00 -0.45593999997E+02  0.45594000000E+02  0.51100000000E-03 0.  1.
    9900012    2    1    2    0    0 -0.73985802143E+00  0.14492580507E+00 -0.90810098458E+00  0.90007728515E+02  0.89999989731E+02 0.  0.
         12    1    1    2    0    0  0.73985802143E+00 -0.14492580507E+00  0.90810098458E+00  0.11802714853E+01  0.00000000000E+00 0. -1.
         11    1    3    3    0    0  0.33858174546E+02 -0.23596802957E+02  0.33868674013E+01  0.41408404515E+02  0.51100000000E-03 0. -1.
        -11    1    3    3    0    0 -0.81861134897E+01  0.20089666364E+02 -0.30523675835E+01  0.21907169986E+02  0.51100000000E-03 0.  1.
        -12    1    3    3    0    0 -0.26411919078E+02  0.36520623986E+01 -0.12426008025E+01  0.26692154014E+02  0.00000000000E+00 0.  1.
</event>
<event>
 7    1  0.2468912E-015  0.9000776E+02  0.7816164E-02  0.1186339E+00
        -11   -1    0    0    0    0  0.00000000000E+00  0.00000000000E+00  0.45593999997E+02  0.45594000000E+02  0.51100000000E-03 0. -1.
         11   -1    0    0    0    0 -0.00000000000E+00 -0.00000000000E+00 -0.45593999997E+02  0.45594000000E+02  0.51100000000E-03 0.  1.
    9900012    2    1    2    0    0 -0.11228023286E+01  0.26714884145E+00 -0.24679757202E+00  0.90007761628E+02  0.90000023282E+02 0.  0.
         12    1    1    2    0    0  0.11228023286E+01 -0.26714884145E+00  0.24679757202E+00  0.11802383718E+01  0.00000000000E+00 0. -1.
         11    1    3    3    0    0  0.55210061726E+01  0.35918074092E+02 -0.59921403871E+01  0.36830629947E+02  0.51100000000E-03 0. -1.
        -11    1    3    3    0    0  0.80268392512E+01  0.45018549464E+01 -0.27229942373E+01  0.95974759287E+01  0.51100000000E-03 0.  1.
        -12    1    3    3    0    0 -0.14670647753E+02 -0.40152780197E+02  0.84683370524E+01  0.43579655752E+02  0.00000000000E+00 0.  1.
</event>
<event>
 7    1  0.2468912E-015  0.9000769E+02  0.7816164E-02  0.1186339E+00
        -11   -1    0    0    0    0  0.00000000000E+00  0.00000000000E+00  0.45593999997E+02  0.45594000000E+02  0.51100000000E-03 0.  1.
         11   -1    0    0    0    0 -0.00000000000E+00 -0.00000000000E+00 -0.45593999997E+02  0.45594000000E+02  0.51100000000E-03 0. -1.
    9900012    2    1    2    0    0 -0.97713807116E+00  0.61829531398E+00 -0.23674440913E+00  0.90007688253E+02  0.89999948938E+02 0.  0.
         12    1    1    2    0    0  0.97713807116E+00 -0.61829531398E+00  0.23674440913E+00  0.11803117472E+01  0.00000000000E+00 0. -1.
         11    1    3    3    0    0  0.33148173830E+02 -0.28925326300E+01 -0.12381788764E+02  0.35503195159E+02  0.51100000000E-03 0. -1.
        -11    1    3    3    0    0  0.90179212519E+01 -0.28588260469E+01  0.31907332771E+01  0.99838153618E+01  0.51100000000E-03 0.  1.
        -12    1    3    3    0    0 -0.43143233153E+02  0.63696539909E+01  0.89543110773E+01  0.44520677732E+02  0.00000000000E+00 0.  1.
</event>
<event>
 7    1  0.2468912E-015  0.9000777E+02  0.7816164E-02  0.1186339E+00
        -11   -1    0    0    0    0  0.00000000000E+00  0.00000000000E+00  0.45593999997E+02  0.45594000000E+02  0.51100000000E-03 0.  1.
         11   -1    0    0    0    0 -0.00000000000E+00 -0.00000000000E+00 -0.45593999997E+02  0.45594000000E+02  0.51100000000E-03 0. -1.
    9900012    2    1    2    0    0 -0.32937261596E+00 -0.90092973282E+00  0.68758795412E+00  0.90007772099E+02  0.90000033891E+02 0.  0.
         12    1    1    2    0    0  0.32937261596E+00  0.90092973282E+00 -0.68758795412E+00  0.11802279010E+01  0.00000000000E+00 0. -1.
         11    1    3    3    0    0  0.29541112785E+02  0.10655944726E+02 -0.19852727929E+02  0.37153160150E+02  0.51100000000E-03 0. -1.
        -11    1    3    3    0    0 -0.14063023397E+01  0.10138673737E+02 -0.21757723643E+01  0.10464433910E+02  0.51100000000E-03 0.  1.
        -12    1    3    3    0    0 -0.28464183062E+02 -0.21695548196E+02  0.22716088248E+02  0.42390178039E+02  0.00000000000E+00 0.  1.
</event>
<event>
 7    1  0.2468912E-015  0.9000757E+02  0.7816164E-02  0.1186339E+00
        -11   -1    0    0    0    0  0.00000000000E+00  0.00000000000E+00  0.45593999997E+02  0.45594000000E+02  0.51100000000E-03 0.  1.
         11   -1    0    0    0    0 -0.00000000000E+00 -0.00000000000E+00 -0.45593999997E+02  0.45594000000E+02  0.51100000000E-03 0. -1.
    9900012    2    1    2    0    0  0.71284292359E+00 -0.43461122431E+00  0.83449611335E+00  0.90007569692E+02  0.89999828811E+02 0.  0.
         12    1    1    2    0    0 -0.71284292359E+00  0.43461122431E+00 -0.83449611335E+00  0.11804303085E+01  0.00000000000E+00 0. -1.
         11    1    3    3    0    0 -0.34119186489E+02  0.16990147557E+02 -0.20589346326E+01  0.38170973432E+02  0.51100000000E-03 0. -1.
        -11    1    3    3    0    0  0.17326884450E+01 -0.93959339690E+01 -0.11422026604E+02  0.14891221454E+02  0.51100000000E-03 0.  1.
        -12    1    3    3    0    0  0.33099340967E+02 -0.80288248126E+01  0.14315457350E+02  0.36945374805E+02  0.00000000000E+00 0.  1.
</event>
<event>
 7    1  0.2468912E-015  0.9000785E+02  0.7816164E-02  0.1186339E+00
        -11   -1    0    0    0    0  0.00000000000E+00  0.00000000000E+00  0.45593999997E+02  0.45594000000E+02  0.51100000000E-03 0. -1.
         11   -1    0    0    0    0 -0.00000000000E+00 -0.00000000000E+00 -0.45593999997E+02  0.45594000000E+02  0.51100000000E-03 0.  1.
    9900012    2    1    2    0    0 -0.10466554722E+01 -0.36373888204E+00 -0.40615880104E+00  0.90007848051E+02  0.90000110845E+02 0.  0.
         12    1    1    2    0    0  0.10466554722E+01  0.36373888204E+00  0.40615880104E+00  0.11801519493E+01  0.00000000000E+00 0. -1.
         11    1    3    3    0    0  0.83874391300E+01 -0.34931837261E+02 -0.66124706379E+00  0.35930761716E+02  0.51100000000E-03 0. -1.
        -11    1    3    3    0    0  0.40557404824E+01 -0.66703819596E+01 -0.65090641344E+01  0.10164199059E+02  0.51100000000E-03 0.  1.
        -12    1    3    3    0    0 -0.13489835085E+02  0.41238480338E+02  0.67641523971E+01  0.43912887275E+02  0.00000000000E+00 0.  1.
</event>
<event>
 7    1  0.2468912E-015  0.9000778E+02  0.7816164E-02  0.1186339E+00
        -11   -1    0    0    0    0  0.00000000000E+00  0.00000000000E+00  0.45593999997E+02  0.45594000000E+02  0.51100000000E-03 0. -1.
         11   -1    0    0    0    0 -0.00000000000E+00 -0.00000000000E+00 -0.45593999997E+02  0.45594000000E+02  0.51100000000E-03 0.  1.
    9900012    2    1    2    0    0 -0.10129926282E+01  0.50701964623E+00  0.33121236180E+00  0.90007777726E+02  0.90000039592E+02 0.  0.
         12    1    1    2    0    0  0.10129926282E+01 -0.50701964623E+00 -0.33121236180E+00  0.11802222736E+01  0.00000000000E+00 0. -1.
         11    1    3    3    0    0  0.13581321933E+01  0.15864693791E+02  0.35883159178E+02  0.39257281426E+02  0.51100000000E-03 0. -1.
        -11    1    3    3    0    0 -0.78781840088E+01  0.84380961288E+01 -0.14268835123E+02  0.18353934335E+02  0.51100000000E-03 0.  1.
        -12    1    3    3    0    0  0.55070591872E+01 -0.23795770274E+02 -0.21283111693E+02  0.32396561965E+02  0.00000000000E+00 0.  1.
</event>
<event>
 7    1  0.2468912E-015  0.9000773E+02  0.7816164E-02  0.1186339E+00
        -11   -1    0    0    0    0  0.00000000000E+00  0.00000000000E+00  0.45593999997E+02  0.45594000000E+02  0.51100000000E-03 0.  1.
         11   -1    0    0    0    0 -0.00000000000E+00 -0.00000000000E+00 -0.45593999997E+02  0.45594000000E+02  0.51100000000E-03 0. -1.
    9900012    2    1    2    0    0  0.12816245215E+00 -0.83221828927E+00  0.82706287120E+00  0.90007726350E+02  0.89999987538E+02 0.  0.
         12    1    1    2    0    0 -0.12816245215E+00  0.83221828927E+00 -0.82706287120E+00  0.11802736497E+01  0.00000000000E+00 0. -1.
         11    1    3    3    0    0  0.10647933146E+01 -0.38257307413E+02 -0.17685119433E+02  0.42160630984E+02  0.51100000000E-03 0. -1.
        -11    1    3    3    0    0 -0.51841721472E+01  0.80058664383E+01 -0.42170899865E+01  0.10428489176E+02  0.51100000000E-03 0.  1.
        -12    1    3    3    0    0  0.42475412848E+01  0.29419222685E+02  0.22729272291E+02  0.37418606191E+02  0.00000000000E+00 0.  1.
</event>
<event>
 7    1  0.2468912E-015  0.9000776E+02  0.7816164E-02  0.1186339E+00
        -11   -1    0    0    0    0  0.00000000000E+00  0.00000000000E+00  0.45593999997E+02  0.45594000000E+02  0.51100000000E-03 0.  1.
         11   -1    0    0    0    0 -0.00000000000E+00 -0.00000000000E+00 -0.45593999997E+02  0.45594000000E+02  0.51100000000E-03 0. -1.
    9900012    2    1    2    0    0  0.12299656866E+00  0.10323341353E+01  0.55868940347E+00  0.90007756054E+02  0.90000017634E+02 0.  0.
         12    1    1    2    0    0 -0.12299656866E+00 -0.10323341353E+01 -0.55868940347E+00  0.11802439461E+01  0.00000000000E+00 0. -1.
         11    1    3    3    0    0  0.28073902855E+02 -0.12781746284E+02 -0.25529578746E+02  0.40040934690E+02  0.51100000000E-03 0. -1.
        -11    1    3    3    0    0 -0.13810154563E+01  0.75330100221E+01 -0.45664236462E+01  0.89165951383E+01  0.51100000000E-03 0.  1.
        -12    1    3    3    0    0 -0.26569890830E+02  0.62810703970E+01  0.30654691796E+02  0.41050226226E+02  0.00000000000E+00 0.  1.
</event>
<event>
 7    1  0.2468912E-015  0.9000769E+02  0.7816164E-02  0.1186339E+00
        -11   -1    0    0    0    0  0.00000000000E+00  0.00000000000E+00  0.45593999997E+02  0.45594000000E+02  0.51100000000E-03 0.  1.
         11   -1    0    0    0    0 -0.00000000000E+00 -0.00000000000E+00 -0.45593999997E+02  0.45594000000E+02  0.51100000000E-03 0. -1.
    9900012    2    1    2    0    0 -0.21838723640E+00 -0.74334757415E+00  0.89043850037E+00  0.90007686769E+02  0.89999947434E+02 0.  0.
         12    1    1    2    0    0  0.21838723640E+00  0.74334757415E+00 -0.89043850037E+00  0.11803132313E+01  0.00000000000E+00 0. -1.
         11    1    3    3    0    0  0.77973298876E+01 -0.25415733520E+02 -0.26617900670E+02  0.37620081075E+02  0.51100000000E-03 0. -1.
        -11    1    3    3    0    0 -0.21832636502E+00  0.52133984254E+01 -0.89339000940E+01  0.10346098815E+02  0.51100000000E-03 0.  1.
        -12    1    3    3    0    0 -0.77973907589E+01  0.19458987521E+02  0.36442239265E+02  0.42041506878E+02  0.00000000000E+00 0.  1.
</event>
<event>
 7    1  0.2468912E-015  0.9000737E+02  0.7816164E-02  0.1186340E+00
        -11   -1    0    0    0    0  0.00000000000E+00  0.00000000000E+00  0.45593999997E+02  0.45594000000E+02  0.51100000000E-03 0.  1.
         11   -1    0    0    0    0 -0.00000000000E+00 -0.00000000000E+00 -0.45593999997E+02  0.45594000000E+02  0.51100000000E-03 0. -1.
    9900012    2    1    2    0    0  0.87032628721E+00 -0.36719169512E-01  0.79691348555E+00  0.90007369979E+02  0.89999626462E+02 0.  0.
         12    1    1    2    0    0 -0.87032628721E+00  0.36719169512E-01 -0.79691348555E+00  0.11806300212E+01  0.00000000000E+00 0. -1.
         11    1    3    3    0    0 -0.73608964886E+01 -0.81809025398E+00  0.60064832328E+01  0.95357175853E+01  0.51100000000E-03 0. -1.
        -11    1    3    3    0    0 -0.14928612754E+02  0.15300592830E+02  0.29412098486E+02  0.36359911404E+02  0.51100000000E-03 0.  1.
         12    1    3    3    0    0  0.23159835530E+02 -0.14519221745E+02 -0.34621668233E+02  0.44111740989E+02  0.00000000000E+00 0. -1.
</event>
<event>
 7    1  0.2468912E-015  0.9000785E+02  0.7816164E-02  0.1186339E+00
        -11   -1    0    0    0    0  0.00000000000E+00  0.00000000000E+00  0.45593999997E+02  0.45594000000E+02  0.51100000000E-03 0. -1.
         11   -1    0    0    0    0 -0.00000000000E+00 -0.00000000000E+00 -0.45593999997E+02  0.45594000000E+02  0.51100000000E-03 0.  1.
    9900012    2    1    2    0    0 -0.23207770202E-01 -0.10966537286E+01 -0.43538119218E+00  0.90007853914E+02  0.90000116786E+02 0.  0.
         12    1    1    2    0    0  0.23207770202E-01  0.10966537286E+01  0.43538119218E+00  0.11801460856E+01  0.00000000000E+00 0. -1.
         11    1    3    3    0    0 -0.18746796791E+02  0.24939945085E+02 -0.16386435450E+02  0.35241431836E+02  0.51100000000E-03 0. -1.
        -11    1    3    3    0    0  0.63290087999E+00  0.47450451696E+01 -0.96907658451E+01  0.10808652095E+02  0.51100000000E-03 0.  1.
        -12    1    3    3    0    0  0.18090688141E+02 -0.30781643984E+02  0.25641820103E+02  0.43957769984E+02  0.00000000000E+00 0.  1.
</event>
<event>
 7    1  0.2468912E-015  0.9000776E+02  0.7816164E-02  0.1186339E+00
        -11   -1    0    0    0    0  0.00000000000E+00  0.00000000000E+00  0.45593999997E+02  0.45594000000E+02  0.51100000000E-03 0. -1.
         11   -1    0    0    0    0 -0.00000000000E+00 -0.00000000000E+00 -0.45593999997E+02  0.45594000000E+02  0.51100000000E-03 0.  1.
    9900012    2    1    2    0    0 -0.52717905103E+00  0.69464790574E+00 -0.79531342993E+00  0.90007755569E+02  0.90000017143E+02 0.  0.
         12    1    1    2    0    0  0.52717905103E+00 -0.69464790574E+00  0.79531342993E+00  0.11802444309E+01  0.00000000000E+00 0. -1.
         11    1    3    3    0    0 -0.67029397547E+01  0.97489743032E+01  0.37163448645E+01  0.12400932253E+02  0.51100000000E-03 0. -1.
        -11    1    3    3    0    0 -0.85827828986E+01  0.25174836264E+02 -0.23751405796E+02  0.35659021590E+02  0.51100000000E-03 0.  1.
         12    1    3    3    0    0  0.14758543602E+02 -0.34229162661E+02  0.19239747502E+02  0.41947801727E+02  0.00000000000E+00 0. -1.
</event>
<event>
 7    1  0.2468912E-015  0.9000730E+02  0.7816164E-02  0.1186340E+00
        -11   -1    0    0    0    0  0.00000000000E+00  0.00000000000E+00  0.45593999997E+02  0.45594000000E+02  0.51100000000E-03 0.  1.
         11   -1    0    0    0    0 -0.00000000000E+00 -0.00000000000E+00 -0.45593999997E+02  0.45594000000E+02  0.51100000000E-03 0. -1.
    9900012    2    1    2    0    0 -0.85153475166E-01  0.72733144819E+00  0.92617113522E+00  0.90007298886E+02  0.89999554430E+02 0.  0.
         12    1    1    2    0    0  0.85153475166E-01 -0.72733144819E+00 -0.92617113522E+00  0.11807011144E+01  0.00000000000E+00 0. -1.
         11    1    3    3    0    0 -0.69639803969E+01 -0.78896666589E+01 -0.22302206849E+02  0.24660338472E+02  0.51100000000E-03 0. -1.
        -11    1    3    3    0    0 -0.26751717091E+02  0.36417603585E+01  0.85819362019E+01  0.28329603158E+02  0.51100000000E-03 0.  1.
         12    1    3    3    0    0  0.33630544013E+02  0.49752377486E+01  0.14646441783E+02  0.37017357255E+02  0.00000000000E+00 0. -1.
</event>
<event>
 7    1  0.2468912E-015  0.9000775E+02  0.7816164E-02  0.1186339E+00
        -11   -1    0    0    0    0  0.00000000000E+00  0.00000000000E+00  0.45593999997E+02  0.45594000000E+02  0.51100000000E-03 0. -1.
         11   -1    0    0    0    0 -0.00000000000E+00 -0.00000000000E+00 -0.45593999997E+02  0.45594000000E+02  0.51100000000E-03 0.  1.
    9900012    2    1    2    0    0 -0.11331194716E+01 -0.37601540982E-02  0.33019269449E+00  0.90007745328E+02  0.90000006766E+02 0.  0.
         12    1    1    2    0    0  0.11331194716E+01  0.37601540982E-02 -0.33019269449E+00  0.11802546722E+01  0.00000000000E+00 0. -1.
         11    1    3    3    0    0  0.31955756649E+02 -0.88389975526E+01  0.17658777781E+02  0.37565019549E+02  0.51100000000E-03 0. -1.
        -11    1    3    3    0    0  0.73889122805E+01 -0.11559698142E+00 -0.58563108871E+01  0.94289853547E+01  0.51100000000E-03 0.  1.
        -12    1    3    3    0    0 -0.40477788401E+02  0.89508343799E+01 -0.11472274199E+02  0.43013740424E+02  0.00000000000E+00 0.  1.
</event>
<event>
 7    1  0.2468912E-015  0.9000795E+02  0.7816164E-02  0.1186339E+00
        -11   -1    0    0    0    0  0.00000000000E+00  0.00000000000E+00  0.45593999997E+02  0.45594000000E+02  0.51100000000E-03 0. -1.
         11   -1    0    0    0    0 -0.00000000000E+00 -0.00000000000E+00 -0.45593999997E+02  0.45594000000E+02  0.51100000000E-03 0.  1.
    9900012    2    1    2    0    0 -0.69016396905E+00  0.46789448609E+00 -0.83503073505E+00  0.90007945814E+02  0.90000209898E+02 0.  0.
         12    1    1    2    0    0  0.69016396905E+00 -0.46789448609E+00  0.83503073505E+00  0.11800541864E+01  0.00000000000E+00 0. -1.
         11    1    3    3    0    0 -0.10890011345E+02  0.24215795559E+02  0.28697410156E+02  0.39096527360E+02  0.51100000000E-03 0. -1.
        -11    1    3    3    0    0 -0.96339613986E+01 -0.45098397011E+01 -0.23546432933E+00  0.10639892390E+02  0.51100000000E-03 0.  1.
        -12    1    3    3    0    0  0.19833808774E+02 -0.19238061372E+02 -0.29296976562E+02  0.40271526064E+02  0.00000000000E+00 0.  1.
</event>
<event>
 7    1  0.2468912E-015  0.9000776E+02  0.7816164E-02  0.1186339E+00
        -11   -1    0    0    0    0  0.00000000000E+00  0.00000000000E+00  0.45593999997E+02  0.45594000000E+02  0.51100000000E-03 0.  1.
         11   -1    0    0    0    0 -0.00000000000E+00 -0.00000000000E+00 -0.45593999997E+02  0.45594000000E+02  0.51100000000E-03 0. -1.
    9900012    2    1    2    0    0 -0.89021697250E+00 -0.70981412525E+00  0.31087297923E+00  0.90007760889E+02  0.90000022532E+02 0.  0.
         12    1    1    2    0    0  0.89021697250E+00  0.70981412525E+00 -0.31087297923E+00  0.11802391113E+01  0.00000000000E+00 0. -1.
         11    1    3    3    0    0  0.24771692933E+01 -0.97230447773E+01 -0.68661305706E-01  0.10033876723E+02  0.51100000000E-03 0. -1.
        -11    1    3    3    0    0 -0.29681887868E+02  0.24649468612E+02 -0.19744973692E+02  0.43341374651E+02  0.51100000000E-03 0.  1.
         12    1    3    3    0    0  0.26314501602E+02 -0.15636237960E+02  0.20124507977E+02  0.36632509516E+02  0.00000000000E+00 0. -1.
</event>
<event>
 7    1  0.2468912E-015  0.9000775E+02  0.7816164E-02  0.1186339E+00
        -11   -1    0    0    0    0  0.00000000000E+00  0.00000000000E+00  0.45593999997E+02  0.45594000000E+02  0.51100000000E-03 0. -1.
         11   -1    0    0    0    0 -0.00000000000E+00 -0.00000000000E+00 -0.45593999997E+02  0.45594000000E+02  0.51100000000E-03 0.  1.
    9900012    2    1    2    0    0  0.69565823443E+00 -0.71624578862E+00 -0.62932275393E+00  0.90007747681E+02  0.90000009150E+02 0.  0.
         12    1    1    2    0    0 -0.69565823443E+00  0.71624578862E+00  0.62932275393E+00  0.11802523194E+01  0.00000000000E+00 0. -1.
         11    1    3    3    0    0 -0.76732258335E+01 -0.22463452312E+02  0.30175938338E+02  0.38393649726E+02  0.51100000000E-03 0. -1.
        -11    1    3    3    0    0  0.83629621368E+01  0.34725010712E+01  0.57631263351E+01  0.10733639868E+02  0.51100000000E-03 0.  1.
        -12    1    3    3    0    0  0.59219311113E-02  0.18274705452E+02 -0.36568387427E+02  0.40880458087E+02  0.00000000000E+00 0.  1.
</event>
<event>
 7    1  0.2468912E-015  0.9000774E+02  0.7816164E-02  0.1186339E+00
        -11   -1    0    0    0    0  0.00000000000E+00  0.00000000000E+00  0.45593999997E+02  0.45594000000E+02  0.51100000000E-03 0.  1.
         11   -1    0    0    0    0 -0.00000000000E+00 -0.00000000000E+00 -0.45593999997E+02  0.45594000000E+02  0.51100000000E-03 0. -1.
    9900012    2    1    2    0    0  0.90808862548E+00 -0.66705132254E+00  0.35134398636E+00  0.90007735193E+02  0.89999996497E+02 0.  0.
         12    1    1    2    0    0 -0.90808862548E+00  0.66705132254E+00 -0.35134398636E+00  0.11802648073E+01  0.00000000000E+00 0. -1.
         11    1    3    3    0    0  0.84196742420E+01  0.97958378331E+00  0.14399957125E+01  0.85979117606E+01  0.51100000000E-03 0. -1.
        -11    1    3    3    0    0  0.23099514203E+02 -0.29998779288E+02  0.80232921221E+01  0.38702552007E+02  0.51100000000E-03 0.  1.
         12    1    3    3    0    0 -0.30611099819E+02  0.28352144182E+02 -0.91119438482E+01  0.42707271425E+02  0.00000000000E+00 0. -1.
</event>
<event>
 7    1  0.2468912E-015  0.9000780E+02  0.7816164E-02  0.1186339E+00
        -11   -1    0    0    0    0  0.00000000000E+00  0.00000000000E+00  0.45593999997E+02  0.45594000000E+02  0.51100000000E-03 0. -1.
         11   -1    0    0    0    0 -0.00000000000E+00 -0.00000000000E+00 -0.45593999997E+02  0.45594000000E+02  0.51100000000E-03 0.  1.
    9900012    2    1    2    0    0  0.24277761232E+00 -0.10625630832E+01 -0.45264112634E+00  0.90007802871E+02  0.90000065068E+02 0.  0.
         12    1    1    2    0    0 -0.24277761232E+00  0.10625630832E+01  0.45264112634E+00  0.11801971294E+01  0.00000000000E+00 0. -1.
         11    1    3    3    0    0  0.69629642001E+01 -0.64356030821E+01 -0.10175464642E+01  0.95359980364E+01  0.51100000000E-03 0. -1.
        -11    1    3    3    0    0  0.25225896760E+02 -0.57010604474E+00 -0.27653550513E+02  0.37435140503E+02  0.51100000000E-03 0.  1.
         12    1    3    3    0    0 -0.31946083348E+02  0.59431460436E+01  0.28218455851E+02  0.43036664331E+02  0.00000000000E+00 0. -1.
</event>
<event>
 7    1  0.2468912E-015  0.9000780E+02  0.7816164E-02  0.1186339E+00
        -11   -1    0    0    0    0  0.00000000000E+00  0.00000000000E+00  0.45593999997E+02  0.45594000000E+02  0.51100000000E-03 0.  1.
         11   -1    0    0    0    0 -0.00000000000E+00 -0.00000000000E+00 -0.45593999997E+02  0.45594000000E+02  0.51100000000E-03 0. -1.
    9900012    2    1    2    0    0  0.60286949231E+00  0.51640534669E-01  0.10132872316E+01  0.90007801126E+02  0.90000063300E+02 0.  0.
         12    1    1    2    0    0 -0.60286949231E+00 -0.51640534669E-01 -0.10132872316E+01  0.11801988745E+01  0.00000000000E+00 0. -1.
         11    1    3    3    0    0 -0.55871803098E+01  0.54842132355E+01  0.53666215867E+01  0.94917757107E+01  0.51100000000E-03 0. -1.
        -11    1    3    3    0    0  0.39655916522E+02  0.12099719087E+02 -0.90737331517E+01  0.42442049323E+02  0.51100000000E-03 0.  1.
         12    1    3    3    0    0 -0.33465866720E+02 -0.17532291788E+02  0.47203987966E+01  0.38073976092E+02  0.00000000000E+00 0. -1.
</event>
<event>
 7    1  0.2831469E-015  0.9000793E+02  0.7816164E-02  0.1186339E+00
        -11   -1    0    0    0    0  0.00000000000E+00  0.00000000000E+00  0.45593999997E+02  0.45594000000E+02  0.51100000000E-03 0.  1.
         11   -1    0    0    0    0 -0.00000000000E+00 -0.00000000000E+00 -0.45593999997E+02  0.45594000000E+02  0.51100000000E-03 0. -1.
    9900012    2    1    2    0    0  0.28598225052E+00 -0.41492670949E+00  0.10670612528E+01  0.90007928079E+02  0.90000191929E+02 0.  0.
         12    1    1    2    0    0 -0.28598225052E+00  0.41492670949E+00 -0.10670612528E+01  0.11800719212E+01  0.00000000000E+00 0. -1.
         11    1    3    3    0    0 -0.18446085990E+02 -0.49325688977E+01 -0.33348340337E+02  0.38427856143E+02  0.51100000000E-03 0. -1.
        -11    1    3    3    0    0  0.56262852170E+01  0.37469750030E+01 -0.60292798551E+01  0.90579866885E+01  0.51100000000E-03 0.  1.
        -12    1    3    3    0    0  0.13105783024E+02  0.77066718522E+00  0.40444681445E+02  0.42522085247E+02  0.00000000000E+00 0.  1.
</event>
<event>
 7    1  0.2468912E-015  0.9000771E+02  0.7816164E-02  0.1186339E+00
        -11   -1    0    0    0    0  0.00000000000E+00  0.00000000000E+00  0.45593999997E+02  0.45594000000E+02  0.51100000000E-03 0.  1.
         11   -1    0    0    0    0 -0.00000000000E+00 -0.00000000000E+00 -0.45593999997E+02  0.45594000000E+02  0.51100000000E-03 0. -1.
    9900012    2    1    2    0    0 -0.91111632548E+00  0.45050836772E+00  0.60000185352E+00  0.90007706404E+02  0.89999967329E+02 0.  0.
         12    1    1    2    0    0  0.91111632548E+00 -0.45050836772E+00 -0.60000185352E+00  0.11802935958E+01  0.00000000000E+00 0. -1.
         11    1    3    3    0    0  0.38719959832E+02 -0.26522959290E+01 -0.99772677288E+01  0.40072631991E+02  0.51100000000E-03 0. -1.
        -11    1    3    3    0    0 -0.68892854461E+00 -0.70448181208E+01  0.62818245939E+01  0.94639001148E+01  0.51100000000E-03 0.  1.
        -12    1    3    3    0    0 -0.38942147613E+02  0.10147622418E+02  0.42954449885E+01  0.40471174298E+02  0.00000000000E+00 0.  1.
</event>
<event>
 7    1  0.2468912E-015  0.9000782E+02  0.7816164E-02  0.1186339E+00
        -11   -1    0    0    0    0  0.00000000000E+00  0.00000000000E+00  0.45593999997E+02  0.45594000000E+02  0.51100000000E-03 0.  1.
         11   -1    0    0    0    0 -0.00000000000E+00 -0.00000000000E+00 -0.45593999997E+02  0.45594000000E+02  0.51100000000E-03 0. -1.
    9900012    2    1    2    0    0 -0.17937576163E+00  0.11240245525E+01  0.31180373592E+00  0.90007818477E+02  0.90000080880E+02 0.  0.
         12    1    1    2    0    0  0.17937576163E+00 -0.11240245525E+01 -0.31180373592E+00  0.11801815234E+01  0.00000000000E+00 0. -1.
         11    1    3    3    0    0  0.81304537118E+01 -0.40846358801E+01  0.42212392135E+01  0.10030323454E+02  0.51100000000E-03 0. -1.
        -11    1    3    3    0    0  0.21774427605E+02  0.42304244105E+01  0.28257576464E+02  0.35923708273E+02  0.51100000000E-03 0.  1.
         12    1    3    3    0    0 -0.30084257079E+02  0.97823602209E+00 -0.32167011942E+02  0.44053786749E+02  0.00000000000E+00 0. -1.
</event>
<event>
 7    1  0.2468912E-015  0.9000775E+02  0.7816164E-02  0.1186339E+00
        -11   -1    0    0    0    0  0.00000000000E+00  0.00000000000E+00  0.45593999997E+02  0.45594000000E+02  0.51100000000E-03 0. -1.
         11   -1    0    0    0    0 -0.00000000000E+00 -0.00000000000E+00 -0.45593999997E+02  0.45594000000E+02  0.51100000000E-03 0.  1.
    9900012    2    1    2    0    0  0.11303672314E+01 -0.33003210564E+00  0.79561436950E-01  0.90007753716E+02  0.90000015265E+02 0.  0.
         12    1    1    2    0    0 -0.11303672314E+01  0.33003210564E+00 -0.79561436950E-01  0.11802462840E+01  0.00000000000E+00 0. -1.
         11    1    3    3    0    0  0.56778173011E+01 -0.82580160088E+01 -0.23328175154E+01  0.10289532328E+02  0.51100000000E-03 0. -1.
        -11    1    3    3    0    0  0.26338079665E+02 -0.20652878241E+02 -0.11510820953E+02  0.35393994114E+02  0.51100000000E-03 0.  1.
         12    1    3    3    0    0 -0.30885529734E+02  0.28580862144E+02  0.13923199905E+02  0.44324227274E+02  0.00000000000E+00 0. -1.
</event>
<event>
 7    1  0.2468912E-015  0.9000806E+02  0.7816164E-02  0.1186338E+00
        -11   -1    0    0    0    0  0.00000000000E+00  0.00000000000E+00  0.45593999997E+02  0.45594000000E+02  0.51100000000E-03 0.  1.
         11   -1    0    0    0    0 -0.00000000000E+00 -0.00000000000E+00 -0.45593999997E+02  0.45594000000E+02  0.51100000000E-03 0. -1.
    9900012    2    1    2    0    0 -0.76617853775E-03 -0.90593913521E-01  0.11764608905E+01  0.90008055903E+02  0.90000321441E+02 0.  0.
         12    1    1    2    0    0  0.76617853775E-03  0.90593913521E-01 -0.11764608905E+01  0.11799440966E+01  0.00000000000E+00 0. -1.
         11    1    3    3    0    0  0.68067001352E+01 -0.38843062633E+01 -0.55666046964E+01  0.96128086418E+01  0.51100000000E-03 0. -1.
        -11    1    3    3    0    0  0.11070559721E+02 -0.33406016393E+02  0.15082447546E+02  0.38288372230E+02  0.51100000000E-03 0.  1.
         12    1    3    3    0    0 -0.17878026034E+02  0.37199728743E+02 -0.83393819588E+01  0.42106875031E+02  0.00000000000E+00 0. -1.
</event>
<event>
 7    1  0.2468912E-015  0.9000777E+02  0.7816164E-02  0.1186339E+00
        -11   -1    0    0    0    0  0.00000000000E+00  0.00000000000E+00  0.45593999997E+02  0.45594000000E+02  0.51100000000E-03 0. -1.
         11   -1    0    0    0    0 -0.00000000000E+00 -0.00000000000E+00 -0.45593999997E+02  0.45594000000E+02  0.51100000000E-03 0.  1.
    9900012    2    1    2    0    0  0.79436332952E+00 -0.12794316744E+00 -0.86346304772E+00  0.90007766554E+02  0.90000028272E+02 0.  0.
         12    1    1    2    0    0 -0.79436332952E+00  0.12794316744E+00  0.86346304772E+00  0.11802334465E+01  0.00000000000E+00 0. -1.
         11    1    3    3    0    0  0.24202147034E+00  0.49992786397E+01  0.24810101098E+02  0.25309928449E+02  0.51100000000E-03 0. -1.
        -11    1    3    3    0    0 -0.50297314070E+00  0.19609592058E+02  0.94108796591E+01  0.21756694116E+02  0.51100000000E-03 0.  1.
        -12    1    3    3    0    0  0.10553149999E+01 -0.24736813865E+02 -0.35084443805E+02  0.42941143989E+02  0.00000000000E+00 0.  1.
</event>
<event>
 7    1  0.2468912E-015  0.9000773E+02  0.7816164E-02  0.1186339E+00
        -11   -1    0    0    0    0  0.00000000000E+00  0.00000000000E+00  0.45593999997E+02  0.45594000000E+02  0.51100000000E-03 0. -1.
         11   -1    0    0    0    0 -0.00000000000E+00 -0.00000000000E+00 -0.45593999997E+02  0.45594000000E+02  0.51100000000E-03 0.  1.
    9900012    2    1    2    0    0  0.10921641525E+01 -0.33863759978E+00 -0.29248131819E+00  0.90007727455E+02  0.89999988657E+02 0.  0.
         12    1    1    2    0    0 -0.10921641525E+01  0.33863759978E+00  0.29248131819E+00  0.11802725454E+01  0.00000000000E+00 0. -1.
         11    1    3    3    0    0 -0.11800189530E+02  0.57799205117E+01 -0.76313331172E+01  0.15195038646E+02  0.51100000000E-03 0. -1.
        -11    1    3    3    0    0 -0.13721165457E+02  0.24815782530E+02 -0.10551768682E+02  0.30256127753E+02  0.51100000000E-03 0.  1.
         12    1    3    3    0    0  0.26613519139E+02 -0.30934340641E+02  0.17890620481E+02  0.44556561055E+02  0.00000000000E+00 0. -1.
</event>
<event>
 7    1  0.2468912E-015  0.9000771E+02  0.7816164E-02  0.1186339E+00
        -11   -1    0    0    0    0  0.00000000000E+00  0.00000000000E+00  0.45593999997E+02  0.45594000000E+02  0.51100000000E-03 0.  1.
         11   -1    0    0    0    0 -0.00000000000E+00 -0.00000000000E+00 -0.45593999997E+02  0.45594000000E+02  0.51100000000E-03 0. -1.
    9900012    2    1    2    0    0  0.21603817040E+00 -0.10769749693E+01  0.43190004843E+00  0.90007709685E+02  0.89999970653E+02 0.  0.
         12    1    1    2    0    0 -0.21603817040E+00  0.10769749693E+01 -0.43190004843E+00  0.11802903149E+01  0.00000000000E+00 0. -1.
         11    1    3    3    0    0 -0.95412123308E+01 -0.38314329567E+02 -0.10464596141E+01  0.39498324786E+02  0.51100000000E-03 0.  1.
        -11    1    3    3    0    0 -0.83794649206E+01  0.22188846433E+02 -0.81100742132E+01  0.25066584179E+02  0.51100000000E-03 0. -1.
        -12    1    3    3    0    0  0.18136715422E+02  0.15048508165E+02  0.95884338758E+01  0.25442800720E+02  0.00000000000E+00 0.  1.
</event>
<event>
 7    1  0.2468912E-015  0.9000770E+02  0.7816164E-02  0.1186339E+00
        -11   -1    0    0    0    0  0.00000000000E+00  0.00000000000E+00  0.45593999997E+02  0.45594000000E+02  0.51100000000E-03 0. -1.
         11   -1    0    0    0    0 -0.00000000000E+00 -0.00000000000E+00 -0.45593999997E+02  0.45594000000E+02  0.51100000000E-03 0.  1.
    9900012    2    1    2    0    0  0.67344435298E+00 -0.93536517465E+00  0.25432727295E+00  0.90007695942E+02  0.89999956729E+02 0.  0.
         12    1    1    2    0    0 -0.67344435298E+00  0.93536517465E+00 -0.25432727295E+00  0.11803040576E+01  0.00000000000E+00 0. -1.
         11    1    3    3    0    0  0.24831073275E+02  0.28200867692E+02  0.35302807266E+01  0.37740350035E+02  0.51100000000E-03 0. -1.
        -11    1    3    3    0    0 -0.30202463658E+01  0.51339747511E+01  0.84424352016E+01  0.10332197116E+02  0.51100000000E-03 0.  1.
        -12    1    3    3    0    0 -0.21137382556E+02 -0.34270207617E+02 -0.11718388655E+02  0.41935148791E+02  0.00000000000E+00 0.  1.
</event>
<event>
 7    1  0.2468912E-015  0.9000755E+02  0.7816164E-02  0.1186339E+00
        -11   -1    0    0    0    0  0.00000000000E+00  0.00000000000E+00  0.45593999997E+02  0.45594000000E+02  0.51100000000E-03 0.  1.
         11   -1    0    0    0    0 -0.00000000000E+00 -0.00000000000E+00 -0.45593999997E+02  0.45594000000E+02  0.51100000000E-03 0. -1.
    9900012    2    1    2    0    0 -0.11030684687E+01  0.21579325059E+00 -0.36073557436E+00  0.90007552234E+02  0.89999811123E+02 0.  0.
         12    1    1    2    0    0  0.11030684687E+01 -0.21579325059E+00  0.36073557436E+00  0.11804477660E+01  0.00000000000E+00 0. -1.
         11    1    3    3    0    0  0.35604177908E+01 -0.42702963473E+01 -0.12366031696E+02  0.13558419742E+02  0.51100000000E-03 0. -1.
        -11    1    3    3    0    0 -0.50564381853E+01 -0.19256014026E+02 -0.25320754237E+02  0.32210281568E+02  0.51100000000E-03 0.  1.
         12    1    3    3    0    0  0.39295192579E+00  0.23742103624E+02  0.37326050358E+02  0.44238850924E+02  0.00000000000E+00 0. -1.
</event>
<event>
 7    1  0.2468912E-015  0.9000770E+02  0.7816164E-02  0.1186339E+00
        -11   -1    0    0    0    0  0.00000000000E+00  0.00000000000E+00  0.45593999997E+02  0.45594000000E+02  0.51100000000E-03 0. -1.
         11   -1    0    0    0    0 -0.00000000000E+00 -0.00000000000E+00 -0.45593999997E+02  0.45594000000E+02  0.51100000000E-03 0.  1.
    9900012    2    1    2    0    0 -0.96418873477E+00  0.63151486658E+00 -0.25423472683E+00  0.90007700784E+02  0.89999961634E+02 0.  0.
         12    1    1    2    0    0  0.96418873477E+00 -0.63151486658E+00  0.25423472683E+00  0.11802992160E+01  0.00000000000E+00 0. -1.
         11    1    3    3    0    0  0.80799632353E+01 -0.34860209284E+01  0.85513031694E+00  0.88413458204E+01  0.51100000000E-03 0. -1.
        -11    1    3    3    0    0  0.79253440221E+01  0.39612062364E+02 -0.81175478867E+01  0.41204625305E+02  0.51100000000E-03 0.  1.
         12    1    3    3    0    0 -0.16969495992E+02 -0.35494526569E+02  0.70081828429E+01  0.39961729659E+02  0.00000000000E+00 0. -1.
</event>
<event>
 7    1  0.2468912E-015  0.9000773E+02  0.7816164E-02  0.1186339E+00
        -11   -1    0    0    0    0  0.00000000000E+00  0.00000000000E+00  0.45593999997E+02  0.45594000000E+02  0.51100000000E-03 0.  1.
         11   -1    0    0    0    0 -0.00000000000E+00 -0.00000000000E+00 -0.45593999997E+02  0.45594000000E+02  0.51100000000E-03 0. -1.
    9900012    2    1    2    0    0  0.26820070668E-01 -0.79095234722E+00  0.87562547995E+00  0.90007726763E+02  0.89999987957E+02 0.  0.
         12    1    1    2    0    0 -0.26820070668E-01  0.79095234722E+00 -0.87562547995E+00  0.11802732365E+01  0.00000000000E+00 0. -1.
         11    1    3    3    0    0  0.28512331448E+02 -0.63383406196E+01 -0.31965557140E+02  0.43300397803E+02  0.51100000000E-03 0. -1.
        -11    1    3    3    0    0 -0.10295473284E+02  0.21407661947E+01  0.19470601851E+01  0.10694423485E+02  0.51100000000E-03 0.  1.
        -12    1    3    3    0    0 -0.18190038093E+02  0.34066220777E+01  0.30894122434E+02  0.36012905475E+02  0.00000000000E+00 0.  1.
</event>
<event>
 7    1  0.2468912E-015  0.9000774E+02  0.7816164E-02  0.1186339E+00
        -11   -1    0    0    0    0  0.00000000000E+00  0.00000000000E+00  0.45593999997E+02  0.45594000000E+02  0.51100000000E-03 0.  1.
         11   -1    0    0    0    0 -0.00000000000E+00 -0.00000000000E+00 -0.45593999997E+02  0.45594000000E+02  0.51100000000E-03 0. -1.
    9900012    2    1    2    0    0 -0.11348277791E+01 -0.32159523637E+00  0.41943772481E-01  0.90007738646E+02  0.89999999996E+02 0.  0.
         12    1    1    2    0    0  0.11348277791E+01  0.32159523637E+00 -0.41943772481E-01  0.11802613542E+01  0.00000000000E+00 0. -1.
         11    1    3    3    0    0 -0.11320920754E+02 -0.16898588181E+01 -0.34610340518E+00  0.11451578816E+02  0.51100000000E-03 0. -1.
        -11    1    3    3    0    0  0.30156125591E+02  0.18979672240E+02 -0.23583019549E+02  0.42729131518E+02  0.51100000000E-03 0.  1.
         12    1    3    3    0    0 -0.19970032616E+02 -0.17611408658E+02  0.23971066727E+02  0.35827028311E+02  0.00000000000E+00 0. -1.
</event>
<event>
 7    1  0.2468912E-015  0.9000780E+02  0.7816164E-02  0.1186339E+00
        -11   -1    0    0    0    0  0.00000000000E+00  0.00000000000E+00  0.45593999997E+02  0.45594000000E+02  0.51100000000E-03 0. -1.
         11   -1    0    0    0    0 -0.00000000000E+00 -0.00000000000E+00 -0.45593999997E+02  0.45594000000E+02  0.51100000000E-03 0.  1.
    9900012    2    1    2    0    0  0.96935440716E+00  0.49810047284E+00 -0.45290220542E+00  0.90007799824E+02  0.90000061982E+02 0.  0.
         12    1    1    2    0    0 -0.96935440716E+00 -0.49810047284E+00  0.45290220542E+00  0.11802001760E+01  0.00000000000E+00 0. -1.
         11    1    3    3    0    0 -0.67153972006E+01 -0.38412774646E+01  0.41174291196E+01  0.87638573093E+01  0.51100000000E-03 0. -1.
        -11    1    3    3    0    0 -0.28938384970E+02 -0.95251909287E+01 -0.22796507951E+02  0.38050494897E+02  0.51100000000E-03 0.  1.
         12    1    3    3    0    0  0.36623136578E+02  0.13864568866E+02  0.18226176626E+02  0.43193447617E+02  0.00000000000E+00 0. -1.
</event>
<event>
 7    1  0.2468912E-015  0.9000773E+02  0.7816164E-02  0.1186339E+00
        -11   -1    0    0    0    0  0.00000000000E+00  0.00000000000E+00  0.45593999997E+02  0.45594000000E+02  0.51100000000E-03 0.  1.
         11   -1    0    0    0    0 -0.00000000000E+00 -0.00000000000E+00 -0.45593999997E+02  0.45594000000E+02  0.51100000000E-03 0. -1.
    9900012    2    1    2    0    0 -0.10415280081E+01 -0.48138836701E+00  0.27662509490E+00  0.90007730203E+02  0.89999991441E+02 0.  0.
         12    1    1    2    0    0  0.10415280081E+01  0.48138836701E+00 -0.27662509490E+00  0.11802697974E+01  0.00000000000E+00 0. -1.
         11    1    3    3    0    0  0.69351109174E+00  0.51116677272E+01 -0.12131233459E+02  0.13182447803E+02  0.51100000000E-03 0. -1.
        -11    1    3    3    0    0  0.18755990694E+02  0.13275393032E+02  0.34376707881E+02  0.41349501715E+02  0.51100000000E-03 0.  1.
         12    1    3    3    0    0 -0.20491029794E+02 -0.18868449126E+02 -0.21968849327E+02  0.35475780685E+02  0.00000000000E+00 0. -1.
</event>
<event>
 7    1  0.2468912E-015  0.9000773E+02  0.7816164E-02  0.1186339E+00
        -11   -1    0    0    0    0  0.00000000000E+00  0.00000000000E+00  0.45593999997E+02  0.45594000000E+02  0.51100000000E-03 0.  1.
         11   -1    0    0    0    0 -0.00000000000E+00 -0.00000000000E+00 -0.45593999997E+02  0.45594000000E+02  0.51100000000E-03 0. -1.
    9900012    2    1    2    0    0 -0.11376104683E+01 -0.63134130690E-01 -0.30804325463E+00  0.90007731326E+02  0.89999992580E+02 0.  0.
         12    1    1    2    0    0  0.11376104683E+01  0.63134130690E-01  0.30804325463E+00  0.11802686739E+01  0.00000000000E+00 0. -1.
         11    1    3    3    0    0 -0.74635444332E+01  0.82726521269E+01 -0.38005935615E-01  0.11141934905E+02  0.51100000000E-03 0. -1.
        -11    1    3    3    0    0 -0.32082184970E+02  0.51907548457E+01 -0.14693183551E+02  0.35666513307E+02  0.51100000000E-03 0.  1.
         12    1    3    3    0    0  0.38408118935E+02 -0.13526541103E+02  0.14423146232E+02  0.43199283114E+02  0.00000000000E+00 0. -1.
</event>
<event>
 7    1  0.2468912E-015  0.9000774E+02  0.7816164E-02  0.1186339E+00
        -11   -1    0    0    0    0  0.00000000000E+00  0.00000000000E+00  0.45593999997E+02  0.45594000000E+02  0.51100000000E-03 0. -1.
         11   -1    0    0    0    0 -0.00000000000E+00 -0.00000000000E+00 -0.45593999997E+02  0.45594000000E+02  0.51100000000E-03 0.  1.
    9900012    2    1    2    0    0 -0.60463835559E+00 -0.97162392183E+00  0.28874962673E+00  0.90007738616E+02  0.89999999966E+02 0.  0.
         12    1    1    2    0    0  0.60463835559E+00  0.97162392183E+00 -0.28874962673E+00  0.11802613835E+01  0.00000000000E+00 0. -1.
         11    1    3    3    0    0 -0.74370399852E+01 -0.17813702791E+01 -0.47749898454E+01  0.90157291495E+01  0.51100000000E-03 0. -1.
        -11    1    3    3    0    0 -0.15767916237E+02  0.33010908575E+02  0.16340629620E+02  0.40066986960E+02  0.51100000000E-03 0.  1.
         12    1    3    3    0    0  0.22600317867E+02 -0.32201162217E+02 -0.11276890148E+02  0.40925022507E+02  0.00000000000E+00 0. -1.
</event>
<event>
 7    1  0.2468912E-015  0.9000775E+02  0.7816164E-02  0.1186339E+00
        -11   -1    0    0    0    0  0.00000000000E+00  0.00000000000E+00  0.45593999997E+02  0.45594000000E+02  0.51100000000E-03 0. -1.
         11   -1    0    0    0    0 -0.00000000000E+00 -0.00000000000E+00 -0.45593999997E+02  0.45594000000E+02  0.51100000000E-03 0.  1.
    9900012    2    1    2    0    0 -0.99231837171E+00 -0.30534063027E-01  0.63824428463E+00  0.90007752633E+02  0.90000014168E+02 0.  0.
         12    1    1    2    0    0  0.99231837171E+00  0.30534063027E-01 -0.63824428463E+00  0.11802473667E+01  0.00000000000E+00 0. -1.
         11    1    3    3    0    0  0.95901376134E+01  0.15748950374E+02  0.60285619840E+01  0.19399580851E+02  0.51100000000E-03 0. -1.
        -11    1    3    3    0    0  0.19054711737E+02  0.15980320193E+02 -0.10247558590E+02  0.26897307117E+02  0.51100000000E-03 0.  1.
         12    1    3    3    0    0 -0.29637167722E+02 -0.31759804630E+02  0.48572408904E+01  0.43710864665E+02  0.00000000000E+00 0. -1.
</event>
<event>
 7    1  0.2468912E-015  0.9000764E+02  0.7816164E-02  0.1186339E+00
        -11   -1    0    0    0    0  0.00000000000E+00  0.00000000000E+00  0.45593999997E+02  0.45594000000E+02  0.51100000000E-03 0.  1.
         11   -1    0    0    0    0 -0.00000000000E+00 -0.00000000000E+00 -0.45593999997E+02  0.45594000000E+02  0.51100000000E-03 0. -1.
    9900012    2    1    2    0    0  0.71370568168E+00  0.54713883949E+00  0.76453246719E+00  0.90007641324E+02  0.89999901390E+02 0.  0.
         12    1    1    2    0    0 -0.71370568168E+00 -0.54713883949E+00 -0.76453246719E+00  0.11803586756E+01  0.00000000000E+00 0. -1.
         11    1    3    3    0    0  0.31764738656E+02  0.10126154865E+02 -0.22356314362E+02  0.40141529945E+02  0.51100000000E-03 0. -1.
        -11    1    3    3    0    0 -0.38007151966E+01  0.97255557911E+00 -0.69214742496E+01  0.79560107095E+01  0.51100000000E-03 0.  1.
        -12    1    3    3    0    0 -0.27250317778E+02 -0.10551571605E+02  0.30042321078E+02  0.41910100669E+02  0.00000000000E+00 0.  1.
</event>
<event>
 7    1  0.2468912E-015  0.9000788E+02  0.7816164E-02  0.1186339E+00
        -11   -1    0    0    0    0  0.00000000000E+00  0.00000000000E+00  0.45593999997E+02  0.45594000000E+02  0.51100000000E-03 0.  1.
         11   -1    0    0    0    0 -0.00000000000E+00 -0.00000000000E+00 -0.45593999997E+02  0.45594000000E+02  0.51100000000E-03 0. -1.
    9900012    2    1    2    0    0 -0.36772349203E+00  0.11178333033E+01 -0.88976296548E-01  0.90007877700E+02  0.90000140886E+02 0.  0.
         12    1    1    2    0    0  0.36772349203E+00 -0.11178333033E+01  0.88976296548E-01  0.11801222996E+01  0.00000000000E+00 0. -1.
         11    1    3    3    0    0  0.21963693595E+02 -0.43278660045E+01 -0.34570289734E+01  0.22651386493E+02  0.51100000000E-03 0. -1.
        -11    1    3    3    0    0  0.10812463507E+01  0.30074421192E+02 -0.86504724015E+01  0.31312466794E+02  0.51100000000E-03 0.  1.
         12    1    3    3    0    0 -0.23412663437E+02 -0.24628721884E+02  0.12018525078E+02  0.36044024414E+02  0.00000000000E+00 0. -1.
</event>
<event>
 7    1  0.2468912E-015  0.9000776E+02  0.7816164E-02  0.1186339E+00
        -11   -1    0    0    0    0  0.00000000000E+00  0.00000000000E+00  0.45593999997E+02  0.45594000000E+02  0.51100000000E-03 0. -1.
         11   -1    0    0    0    0 -0.00000000000E+00 -0.00000000000E+00 -0.45593999997E+02  0.45594000000E+02  0.51100000000E-03 0.  1.
    9900012    2    1    2    0    0  0.11777772214E+01  0.70684133530E-01  0.28564591016E-01  0.90007757921E+02  0.90000019525E+02 0.  0.
         12    1    1    2    0    0 -0.11777772214E+01 -0.70684133530E-01 -0.28564591016E-01  0.11802420794E+01  0.00000000000E+00 0. -1.
         11    1    3    3    0    0 -0.24218888171E+01  0.93819079189E+01 -0.38724361374E+01  0.10434630015E+02  0.51100000000E-03 0. -1.
        -11    1    3    3    0    0 -0.29855513340E+02  0.10878018815E+02  0.19742342625E+02  0.37409130739E+02  0.51100000000E-03 0.  1.
         12    1    3    3    0    0  0.33455179378E+02 -0.20189242600E+02 -0.15841341896E+02  0.42163997167E+02  0.00000000000E+00 0. -1.
</event>
<event>
 7    1  0.2468912E-015  0.9000779E+02  0.7816164E-02  0.1186339E+00
        -11   -1    0    0    0    0  0.00000000000E+00  0.00000000000E+00  0.45593999997E+02  0.45594000000E+02  0.51100000000E-03 0. -1.
         11   -1    0    0    0    0 -0.00000000000E+00 -0.00000000000E+00 -0.45593999997E+02  0.45594000000E+02  0.51100000000E-03 0.  1.
    9900012    2    1    2    0    0  0.57053413523E-01  0.10614633817E+01  0.51278385249E+00  0.90007785239E+02  0.90000047204E+02 0.  0.
         12    1    1    2    0    0 -0.57053413523E-01 -0.10614633817E+01 -0.51278385249E+00  0.11802147610E+01  0.00000000000E+00 0. -1.
         11    1    3    3    0    0 -0.53912401653E+01  0.32356376774E+01  0.75726911564E+01  0.98427878831E+01  0.51100000000E-03 0. -1.
        -11    1    3    3    0    0 -0.13547268602E+02  0.12493788676E+02 -0.37272902795E+02  0.41579953404E+02  0.51100000000E-03 0.  1.
         12    1    3    3    0    0  0.18995562181E+02 -0.14667962971E+02  0.30212995491E+02  0.38585043952E+02  0.00000000000E+00 0. -1.
</event>
<event>
 7    1  0.2468912E-015  0.9000757E+02  0.7816164E-02  0.1186339E+00
        -11   -1    0    0    0    0  0.00000000000E+00  0.00000000000E+00  0.45593999997E+02  0.45594000000E+02  0.51100000000E-03 0.  1.
         11   -1    0    0    0    0 -0.00000000000E+00 -0.00000000000E+00 -0.45593999997E+02  0.45594000000E+02  0.51100000000E-03 0. -1.
    9900012    2    1    2    0    0  0.98062010271E-01  0.11533110525E+01  0.23165297670E+00  0.90007573957E+02  0.89999833133E+02 0.  0.
         12    1    1    2    0    0 -0.98062010271E-01 -0.11533110525E+01 -0.23165297670E+00  0.11804260432E+01  0.00000000000E+00 0. -1.
         11    1    3    3    0    0 -0.46720024631E+01  0.59936842828E+01  0.50453814891E+01  0.91218272801E+01  0.51100000000E-03 0. -1.
        -11    1    3    3    0    0 -0.24734760964E+02  0.27472752539E+02 -0.30644925598E+01  0.37093822221E+02  0.51100000000E-03 0.  1.
         12    1    3    3    0    0  0.29504825438E+02 -0.32313125770E+02 -0.17492359526E+01  0.43791924456E+02  0.00000000000E+00 0. -1.
</event>
<event>
 7    1  0.2468912E-015  0.9000779E+02  0.7816164E-02  0.1186339E+00
        -11   -1    0    0    0    0  0.00000000000E+00  0.00000000000E+00  0.45593999997E+02  0.45594000000E+02  0.51100000000E-03 0.  1.
         11   -1    0    0    0    0 -0.00000000000E+00 -0.00000000000E+00 -0.45593999997E+02  0.45594000000E+02  0.51100000000E-03 0. -1.
    9900012    2    1    2    0    0  0.33181001119E+00 -0.11325735890E+01 -0.88436462540E-02  0.90007788566E+02  0.90000050575E+02 0.  0.
         12    1    1    2    0    0 -0.33181001119E+00  0.11325735890E+01  0.88436462540E-02  0.11802114336E+01  0.00000000000E+00 0. -1.
         11    1    3    3    0    0 -0.19786273854E+01 -0.37120957529E+02 -0.36506968826E+01  0.37352483749E+02  0.51100000000E-03 0. -1.
        -11    1    3    3    0    0  0.20696204848E+01 -0.78558519516E+01  0.34080133840E+01  0.88097840112E+01  0.51100000000E-03 0.  1.
        -12    1    3    3    0    0  0.24081691173E+00  0.43844235892E+02  0.23383985227E+00  0.43845520806E+02  0.00000000000E+00 0.  1.
</event>
<event>
 7    1  0.2578804E-015  0.9000775E+02  0.7816164E-02  0.1186339E+00
        -11   -1    0    0    0    0  0.00000000000E+00  0.00000000000E+00  0.45593999997E+02  0.45594000000E+02  0.51100000000E-03 0. -1.
         11   -1    0    0    0    0 -0.00000000000E+00 -0.00000000000E+00 -0.45593999997E+02  0.45594000000E+02  0.51100000000E-03 0.  1.
    9900012    2    1    2    0    0 -0.14298424495E+00  0.55542647491E+00 -0.10315281675E+01  0.90007748576E+02  0.90000010057E+02 0.  0.
         12    1    1    2    0    0  0.14298424495E+00 -0.55542647491E+00  0.10315281675E+01  0.11802514240E+01  0.00000000000E+00 0. -1.
         11    1    3    3    0    0  0.26248370314E+02 -0.96883989846E+01  0.29295535764E+02  0.40510127561E+02  0.51100000000E-03 0. -1.
        -11    1    3    3    0    0 -0.27135739821E+01  0.82824623447E+01  0.24145888039E+01  0.90439430339E+01  0.51100000000E-03 0.  1.
        -12    1    3    3    0    0 -0.23677780577E+02  0.19613631148E+01 -0.32741652736E+02  0.40453677981E+02  0.00000000000E+00 0.  1.
</event>
<event>
 7    1  0.5059436E-015  0.9000781E+02  0.7816164E-02  0.1186339E+00
        -11   -1    0    0    0    0  0.00000000000E+00  0.00000000000E+00  0.45593999997E+02  0.45594000000E+02  0.51100000000E-03 0. -1.
         11   -1    0    0    0    0 -0.00000000000E+00 -0.00000000000E+00 -0.45593999997E+02  0.45594000000E+02  0.51100000000E-03 0.  1.
    9900012    2    1    2    0    0  0.10537652420E+00  0.20593602590E+00 -0.11572956661E+01  0.90007810559E+02  0.90000072858E+02 0.  0.
         12    1    1    2    0    0 -0.10537652420E+00 -0.20593602590E+00  0.11572956661E+01  0.11801894413E+01  0.00000000000E+00 0. -1.
         11    1    3    3    0    0  0.22358726296E+02  0.14178146291E+02  0.25230367821E+02  0.36571900887E+02  0.51100000000E-03 0. -1.
        -11    1    3    3    0    0 -0.45969352642E-01  0.80364055038E+01  0.47290775107E+01  0.93247038005E+01  0.51100000000E-03 0.  1.
        -12    1    3    3    0    0 -0.22207380419E+02 -0.22008615769E+02 -0.31116740998E+02  0.44111205872E+02  0.00000000000E+00 0.  1.
</event>
<event>
 7    1  0.2468912E-015  0.9000762E+02  0.7816164E-02  0.1186339E+00
        -11   -1    0    0    0    0  0.00000000000E+00  0.00000000000E+00  0.45593999997E+02  0.45594000000E+02  0.51100000000E-03 0.  1.
         11   -1    0    0    0    0 -0.00000000000E+00 -0.00000000000E+00 -0.45593999997E+02  0.45594000000E+02  0.51100000000E-03 0. -1.
    9900012    2    1    2    0    0  0.53768925821E-01  0.64999167034E+00  0.98382932860E+00  0.90007618529E+02  0.89999878294E+02 0.  0.
         12    1    1    2    0    0 -0.53768925821E-01 -0.64999167034E+00 -0.98382932860E+00  0.11803814708E+01  0.00000000000E+00 0. -1.
         11    1    3    3    0    0  0.11031885051E+02 -0.37602932275E+02 -0.70112655669E+01  0.39810059640E+02  0.51100000000E-03 0. -1.
        -11    1    3    3    0    0  0.53000130768E+01 -0.10414777037E+01  0.53191862531E+01  0.75808018756E+01  0.51100000000E-03 0.  1.
        -12    1    3    3    0    0 -0.16278129202E+02  0.39294401649E+02  0.26759086424E+01  0.42616757013E+02  0.00000000000E+00 0.  1.
</event>
<event>
 7    1  0.2468912E-015  0.9000777E+02  0.7816164E-02  0.1186339E+00
        -11   -1    0    0    0    0  0.00000000000E+00  0.00000000000E+00  0.45593999997E+02  0.45594000000E+02  0.51100000000E-03 0.  1.
         11   -1    0    0    0    0 -0.00000000000E+00 -0.00000000000E+00 -0.45593999997E+02  0.45594000000E+02  0.51100000000E-03 0. -1.
    9900012    2    1    2    0    0  0.34518441593E+00  0.81578026832E+00  0.77993265245E+00  0.90007769230E+02  0.90000030984E+02 0.  0.
         12    1    1    2    0    0 -0.34518441593E+00 -0.81578026832E+00 -0.77993265245E+00  0.11802307696E+01  0.00000000000E+00 0. -1.
         11    1    3    3    0    0  0.30151523084E+02  0.27065595831E+01  0.48920801829E+00  0.30276709429E+02  0.51100000000E-03 0. -1.
        -11    1    3    3    0    0  0.13933689437E+02 -0.11690045467E+01 -0.65719177892E+01  0.15450060733E+02  0.51100000000E-03 0.  1.
        -12    1    3    3    0    0 -0.43740028106E+02 -0.72177476808E+00  0.68626424234E+01  0.44280999069E+02  0.00000000000E+00 0.  1.
</event>
<event>
 7    1  0.2468912E-015  0.9000774E+02  0.7816164E-02  0.1186339E+00
        -11   -1    0    0    0    0  0.00000000000E+00  0.00000000000E+00  0.45593999997E+02  0.45594000000E+02  0.51100000000E-03 0. -1.
         11   -1    0    0    0    0 -0.00000000000E+00 -0.00000000000E+00 -0.45593999997E+02  0.45594000000E+02  0.51100000000E-03 0.  1.
    9900012    2    1    2    0    0  0.79341056611E+00 -0.83368905773E+00 -0.26169897833E+00  0.90007735569E+02  0.89999996879E+02 0.  0.
         12    1    1    2    0    0 -0.79341056611E+00  0.83368905773E+00  0.26169897833E+00  0.11802644308E+01  0.00000000000E+00 0. -1.
         11    1    3    3    0    0 -0.60722257260E+01 -0.27367887797E+01 -0.60062622289E+01  0.89686746131E+01  0.51100000000E-03 0. -1.
        -11    1    3    3    0    0  0.96022367309E+01 -0.53835842499E+01 -0.36479109907E+02  0.38103955038E+02  0.51100000000E-03 0.  1.
         12    1    3    3    0    0 -0.27366004387E+01  0.72866839718E+01  0.42223673158E+02  0.42935105918E+02  0.00000000000E+00 0. -1.
</event>
<event>
 7    1  0.2468912E-015  0.9000799E+02  0.7816164E-02  0.1186339E+00
        -11   -1    0    0    0    0  0.00000000000E+00  0.00000000000E+00  0.45593999997E+02  0.45594000000E+02  0.51100000000E-03 0. -1.
         11   -1    0    0    0    0 -0.00000000000E+00 -0.00000000000E+00 -0.45593999997E+02  0.45594000000E+02  0.51100000000E-03 0.  1.
    9900012    2    1    2    0    0  0.22182999899E+00  0.10466755634E+01  0.49767808141E+00  0.90007990781E+02  0.90000255459E+02 0.  0.
         12    1    1    2    0    0 -0.22182999899E+00 -0.10466755634E+01 -0.49767808141E+00  0.11800092187E+01  0.00000000000E+00 0. -1.
         11    1    3    3    0    0  0.94699731187E+01 -0.26812987611E+02 -0.11586966514E+02  0.30706261393E+02  0.51100000000E-03 0. -1.
        -11    1    3    3    0    0  0.59361434441E+01 -0.10321580533E+02 -0.71968985483E+01  0.13912877943E+02  0.51100000000E-03 0.  1.
        -12    1    3    3    0    0 -0.15184286564E+02  0.38181243707E+02  0.19281543143E+02  0.45388851445E+02  0.00000000000E+00 0.  1.
</event>
<event>
 7    1  0.2468912E-015  0.9000771E+02  0.7816164E-02  0.1186339E+00
        -11   -1    0    0    0    0  0.00000000000E+00  0.00000000000E+00  0.45593999997E+02  0.45594000000E+02  0.51100000000E-03 0.  1.
         11   -1    0    0    0    0 -0.00000000000E+00 -0.00000000000E+00 -0.45593999997E+02  0.45594000000E+02  0.51100000000E-03 0. -1.
    9900012    2    1    2    0    0  0.47131098222E-01 -0.11451315668E+01  0.28202961289E+00  0.90007708363E+02  0.89999969313E+02 0.  0.
         12    1    1    2    0    0 -0.47131098222E-01  0.11451315668E+01 -0.28202961289E+00  0.11802916369E+01  0.00000000000E+00 0. -1.
         11    1    3    3    0    0  0.37056507972E+02 -0.18480971169E+02  0.89678629209E+01  0.42369253523E+02  0.51100000000E-03 0. -1.
        -11    1    3    3    0    0  0.75186348774E+00  0.77761320395E+01 -0.45375218155E+00  0.78255619289E+01  0.51100000000E-03 0.  1.
        -12    1    3    3    0    0 -0.37761240361E+02  0.95597075632E+01 -0.82320811264E+01  0.39812892912E+02  0.00000000000E+00 0.  1.
</event>
<event>
 7    1  0.2468912E-015  0.9000778E+02  0.7816164E-02  0.1186339E+00
        -11   -1    0    0    0    0  0.00000000000E+00  0.00000000000E+00  0.45593999997E+02  0.45594000000E+02  0.51100000000E-03 0. -1.
         11   -1    0    0    0    0 -0.00000000000E+00 -0.00000000000E+00 -0.45593999997E+02  0.45594000000E+02  0.51100000000E-03 0.  1.
    9900012    2    1    2    0    0 -0.93167636765E+00 -0.42683958206E+00 -0.58540457802E+00  0.90007783324E+02  0.90000045264E+02 0.  0.
         12    1    1    2    0    0  0.93167636765E+00  0.42683958206E+00  0.58540457802E+00  0.11802166762E+01  0.00000000000E+00 0. -1.
         11    1    3    3    0    0 -0.14399703841E+02  0.31079310306E+02  0.15622068977E+02  0.37647364306E+02  0.51100000000E-03 0. -1.
        -11    1    3    3    0    0 -0.79051533444E+01 -0.50997622063E+01  0.65563073288E+01  0.11466655572E+02  0.51100000000E-03 0.  1.
        -12    1    3    3    0    0  0.21373180818E+02 -0.26406387681E+02 -0.22763780884E+02  0.40893763446E+02  0.00000000000E+00 0.  1.
</event>
<event>
 7    1  0.2468912E-015  0.9000772E+02  0.7816164E-02  0.1186339E+00
        -11   -1    0    0    0    0  0.00000000000E+00  0.00000000000E+00  0.45593999997E+02  0.45594000000E+02  0.51100000000E-03 0.  1.
         11   -1    0    0    0    0 -0.00000000000E+00 -0.00000000000E+00 -0.45593999997E+02  0.45594000000E+02  0.51100000000E-03 0. -1.
    9900012    2    1    2    0    0 -0.49074135415E+00  0.48080393598E+00  0.95972043684E+00  0.90007719178E+02  0.89999980271E+02 0.  0.
         12    1    1    2    0    0  0.49074135415E+00 -0.48080393598E+00 -0.95972043684E+00  0.11802808218E+01  0.00000000000E+00 0. -1.
         11    1    3    3    0    0  0.58996046860E+01 -0.20551586722E+01 -0.74446021711E+01  0.97185963167E+01  0.51100000000E-03 0. -1.
        -11    1    3    3    0    0  0.17054205648E+02 -0.33069311055E+02  0.45317385733E+01  0.37482821648E+02  0.51100000000E-03 0.  1.
         12    1    3    3    0    0 -0.23444551688E+02  0.35605273663E+02  0.38725840347E+01  0.42806301214E+02  0.00000000000E+00 0. -1.
</event>
<event>
 7    1  0.2656449E-015  0.9000754E+02  0.7816164E-02  0.1186339E+00
        -11   -1    0    0    0    0  0.00000000000E+00  0.00000000000E+00  0.45593999997E+02  0.45594000000E+02  0.51100000000E-03 0.  1.
         11   -1    0    0    0    0 -0.00000000000E+00 -0.00000000000E+00 -0.45593999997E+02  0.45594000000E+02  0.51100000000E-03 0. -1.
    9900012    2    1    2    0    0 -0.79074676344E+00  0.85239364335E+00  0.20404632161E+00  0.90007538112E+02  0.89999796815E+02 0.  0.
         12    1    1    2    0    0  0.79074676344E+00 -0.85239364335E+00 -0.20404632161E+00  0.11804618878E+01  0.00000000000E+00 0. -1.
         11    1    3    3    0    0  0.21100800468E+02  0.27462135715E+02 -0.12623708307E+02  0.36861506889E+02  0.51100000000E-03 0. -1.
        -11    1    3    3    0    0  0.35826518697E+01  0.12299627318E+01 -0.88502848297E+01  0.96268242204E+01  0.51100000000E-03 0.  1.
        -12    1    3    3    0    0 -0.25474199101E+02 -0.27839704804E+02  0.21678039459E+02  0.43519207003E+02  0.00000000000E+00 0.  1.
</event>
<event>
 7    1  0.2468912E-015  0.9000764E+02  0.7816164E-02  0.1186339E+00
        -11   -1    0    0    0    0  0.00000000000E+00  0.00000000000E+00  0.45593999997E+02  0.45594000000E+02  0.51100000000E-03 0. -1.
         11   -1    0    0    0    0 -0.00000000000E+00 -0.00000000000E+00 -0.45593999997E+02  0.45594000000E+02  0.51100000000E-03 0.  1.
    9900012    2    1    2    0    0 -0.62927832262E+00 -0.62067868973E+00 -0.78231079690E+00  0.90007642670E+02  0.89999902753E+02 0.  0.
         12    1    1    2    0    0  0.62927832262E+00  0.62067868973E+00  0.78231079690E+00  0.11803573299E+01  0.00000000000E+00 0. -1.
         11    1    3    3    0    0  0.36719079761E+02 -0.12718900350E+02 -0.11003401821E+02  0.40387325939E+02  0.51100000000E-03 0. -1.
        -11    1    3    3    0    0  0.91040509168E+00  0.62983135638E+01 -0.49443196803E+01  0.80587771120E+01  0.51100000000E-03 0.  1.
        -12    1    3    3    0    0 -0.38258763175E+02  0.57999080966E+01  0.15165410705E+02  0.41561539619E+02  0.00000000000E+00 0.  1.
</event>
<event>
 7    1  0.2468912E-015  0.9000776E+02  0.7816164E-02  0.1186339E+00
        -11   -1    0    0    0    0  0.00000000000E+00  0.00000000000E+00  0.45593999997E+02  0.45594000000E+02  0.51100000000E-03 0.  1.
         11   -1    0    0    0    0 -0.00000000000E+00 -0.00000000000E+00 -0.45593999997E+02  0.45594000000E+02  0.51100000000E-03 0. -1.
    9900012    2    1    2    0    0 -0.71603000231E+00  0.63336004133E+00  0.69219474283E+00  0.90007755335E+02  0.90000016906E+02 0.  0.
         12    1    1    2    0    0  0.71603000231E+00 -0.63336004133E+00 -0.69219474283E+00  0.11802446645E+01  0.00000000000E+00 0. -1.
         11    1    3    3    0    0  0.50233144455E+01  0.10878462798E+02  0.65430292378E+01  0.13652321148E+02  0.51100000000E-03 0. -1.
        -11    1    3    3    0    0  0.16372082879E+02  0.23981297994E+02  0.12565744614E+02  0.31639306080E+02  0.51100000000E-03 0.  1.
         12    1    3    3    0    0 -0.22111427327E+02 -0.34226400751E+02 -0.18416579109E+02  0.44716128107E+02  0.00000000000E+00 0. -1.
</event>
<event>
 7    1  0.2468912E-015  0.9000769E+02  0.7816164E-02  0.1186339E+00
        -11   -1    0    0    0    0  0.00000000000E+00  0.00000000000E+00  0.45593999997E+02  0.45594000000E+02  0.51100000000E-03 0. -1.
         11   -1    0    0    0    0 -0.00000000000E+00 -0.00000000000E+00 -0.45593999997E+02  0.45594000000E+02  0.51100000000E-03 0.  1.
    9900012    2    1    2    0    0 -0.76912023176E+00 -0.65329207759E+00 -0.61221469929E+00  0.90007685081E+02  0.89999945724E+02 0.  0.
         12    1    1    2    0    0  0.76912023176E+00  0.65329207759E+00  0.61221469929E+00  0.11803149188E+01  0.00000000000E+00 0. -1.
         11    1    3    3    0    0  0.50131439426E+01 -0.38059792720E+01  0.61573233560E+01  0.88050963413E+01  0.51100000000E-03 0. -1.
        -11    1    3    3    0    0  0.39046967551E+01 -0.16334692562E+02 -0.38914394445E+02  0.42383946644E+02  0.51100000000E-03 0.  1.
         12    1    3    3    0    0 -0.96869609295E+01  0.19487379757E+02  0.32144856390E+02  0.38818642096E+02  0.00000000000E+00 0. -1.
</event>
<event>
 7    1  0.2468912E-015  0.9000769E+02  0.7816164E-02  0.1186339E+00
        -11   -1    0    0    0    0  0.00000000000E+00  0.00000000000E+00  0.45593999997E+02  0.45594000000E+02  0.51100000000E-03 0.  1.
         11   -1    0    0    0    0 -0.00000000000E+00 -0.00000000000E+00 -0.45593999997E+02  0.45594000000E+02  0.51100000000E-03 0. -1.
    9900012    2    1    2    0    0  0.54940246099E+00 -0.43852850133E+00  0.94815032334E+00  0.90007686759E+02  0.89999947424E+02 0.  0.
         12    1    1    2    0    0 -0.54940246099E+00  0.43852850133E+00 -0.94815032334E+00  0.11803132407E+01  0.00000000000E+00 0. -1.
         11    1    3    3    0    0  0.51708841979E+01  0.82421587776E+01  0.45308281033E+01  0.10733108975E+02  0.51100000000E-03 0. -1.
        -11    1    3    3    0    0 -0.18079237740E+02  0.92273735881E+01  0.31604885533E+02  0.37561576783E+02  0.51100000000E-03 0.  1.
         12    1    3    3    0    0  0.13457756004E+02 -0.17908060867E+02 -0.35187563313E+02  0.41713001002E+02  0.00000000000E+00 0. -1.
</event>
<event>
 7    1  0.2468912E-015  0.9000861E+02  0.7816164E-02  0.1186337E+00
        -11   -1    0    0    0    0  0.00000000000E+00  0.00000000000E+00  0.45593999997E+02  0.45594000000E+02  0.51100000000E-03 0. -1.
         11   -1    0    0    0    0 -0.00000000000E+00 -0.00000000000E+00 -0.45593999997E+02  0.45594000000E+02  0.51100000000E-03 0.  1.
    9900012    2    1    2    0    0  0.77785977855E+00 -0.24869409195E+00 -0.85090278774E+00  0.90008614507E+02  0.90000887414E+02 0.  0.
         12    1    1    2    0    0 -0.77785977855E+00  0.24869409195E+00  0.85090278774E+00  0.11793854928E+01  0.00000000000E+00 0. -1.
         11    1    3    3    0    0  0.36462917140E+01  0.44100637497E+02 -0.67852320048E+01  0.44768304017E+02  0.51100000000E-03 0. -1.
        -11    1    3    3    0    0  0.50453337413E+00 -0.61295424377E+01 -0.10563387882E+01  0.62403282220E+01  0.51100000000E-03 0.  1.
        -12    1    3    3    0    0 -0.33729653096E+01 -0.38219789152E+02  0.69906680053E+01  0.38999982268E+02  0.00000000000E+00 0.  1.
</event>
<event>
 7    1  0.2468912E-015  0.9000776E+02  0.7816164E-02  0.1186339E+00
        -11   -1    0    0    0    0  0.00000000000E+00  0.00000000000E+00  0.45593999997E+02  0.45594000000E+02  0.51100000000E-03 0.  1.
         11   -1    0    0    0    0 -0.00000000000E+00 -0.00000000000E+00 -0.45593999997E+02  0.45594000000E+02  0.51100000000E-03 0. -1.
    9900012    2    1    2    0    0 -0.34955984279E+00 -0.57653851262E-01  0.11258116372E+01  0.90007759392E+02  0.90000021016E+02 0.  0.
         12    1    1    2    0    0  0.34955984279E+00  0.57653851262E-01 -0.11258116372E+01  0.11802406080E+01  0.00000000000E+00 0. -1.
         11    1    3    3    0    0  0.17656362675E+02 -0.27806004427E+02  0.12682834407E+02  0.35295542410E+02  0.51100000000E-03 0. -1.
        -11    1    3    3    0    0  0.11562200581E+02 -0.17450705695E+01 -0.31746706462E+01  0.12116446985E+02  0.51100000000E-03 0.  1.
        -12    1    3    3    0    0 -0.29568123100E+02  0.29493421145E+02 -0.83823521239E+01  0.42595769997E+02  0.00000000000E+00 0.  1.
</event>
<event>
 7    1  0.2468912E-015  0.9000774E+02  0.7816164E-02  0.1186339E+00
        -11   -1    0    0    0    0  0.00000000000E+00  0.00000000000E+00  0.45593999997E+02  0.45594000000E+02  0.51100000000E-03 0. -1.
         11   -1    0    0    0    0 -0.00000000000E+00 -0.00000000000E+00 -0.45593999997E+02  0.45594000000E+02  0.51100000000E-03 0.  1.
    9900012    2    1    2    0    0  0.67008188354E-01 -0.50850609136E+00 -0.10629850849E+01  0.90007743319E+02  0.90000004731E+02 0.  0.
         12    1    1    2    0    0 -0.67008188354E-01  0.50850609136E+00  0.10629850849E+01  0.11802566809E+01  0.00000000000E+00 0. -1.
         11    1    3    3    0    0  0.15459101770E+02 -0.12072762468E+02  0.32371773211E+02  0.37850589457E+02  0.51100000000E-03 0. -1.
        -11    1    3    3    0    0  0.76987189354E+00  0.34444760126E+01  0.70121754271E+01  0.78503326182E+01  0.51100000000E-03 0.  1.
        -12    1    3    3    0    0 -0.16161965475E+02  0.81197803636E+01 -0.40446933723E+02  0.44306821244E+02  0.00000000000E+00 0.  1.
</event>
<event>
 7    1  0.2468912E-015  0.9000795E+02  0.7816164E-02  0.1186339E+00
        -11   -1    0    0    0    0  0.00000000000E+00  0.00000000000E+00  0.45593999997E+02  0.45594000000E+02  0.51100000000E-03 0.  1.
         11   -1    0    0    0    0 -0.00000000000E+00 -0.00000000000E+00 -0.45593999997E+02  0.45594000000E+02  0.51100000000E-03 0. -1.
    9900012    2    1    2    0    0 -0.18552068719E+00  0.32638659918E+00  0.11187414308E+01  0.90007945541E+02  0.90000209622E+02 0.  0.
         12    1    1    2    0    0  0.18552068719E+00 -0.32638659918E+00 -0.11187414308E+01  0.11800544591E+01  0.00000000000E+00 0. -1.
         11    1    3    3    0    0  0.14411896887E+02 -0.23869487466E+02 -0.31757059213E+02  0.42260691119E+02  0.51100000000E-03 0. -1.
        -11    1    3    3    0    0  0.33263029114E+00  0.89690007607E+01  0.51259888934E+00  0.89897928474E+01  0.51100000000E-03 0.  1.
        -12    1    3    3    0    0 -0.14930047866E+02  0.15226873304E+02  0.32363201754E+02  0.38757461574E+02  0.00000000000E+00 0.  1.
</event>
<event>
 7    1  0.2468912E-015  0.9000751E+02  0.7816164E-02  0.1186340E+00
        -11   -1    0    0    0    0  0.00000000000E+00  0.00000000000E+00  0.45593999997E+02  0.45594000000E+02  0.51100000000E-03 0. -1.
         11   -1    0    0    0    0 -0.00000000000E+00 -0.00000000000E+00 -0.45593999997E+02  0.45594000000E+02  0.51100000000E-03 0.  1.
    9900012    2    1    2    0    0 -0.55432167285E+00 -0.93556707426E+00  0.45935380458E+00  0.90007506804E+02  0.89999765094E+02 0.  0.
         12    1    1    2    0    0  0.55432167285E+00  0.93556707426E+00 -0.45935380458E+00  0.11804931958E+01  0.00000000000E+00 0. -1.
         11    1    3    3    0    0  0.20769233634E+02 -0.32297788692E+02 -0.10449120247E+02  0.39795632101E+02  0.51100000000E-03 0. -1.
        -11    1    3    3    0    0  0.31810828196E+01  0.12344870562E+01  0.10853064035E+02  0.11376829322E+02  0.51100000000E-03 0.  1.
        -12    1    3    3    0    0 -0.24504638126E+02  0.30127734562E+02  0.55410015676E-01  0.38835045381E+02  0.00000000000E+00 0.  1.
</event>
<event>
 7    1  0.2468912E-015  0.9000781E+02  0.7816164E-02  0.1186339E+00
        -11   -1    0    0    0    0  0.00000000000E+00  0.00000000000E+00  0.45593999997E+02  0.45594000000E+02  0.51100000000E-03 0.  1.
         11   -1    0    0    0    0 -0.00000000000E+00 -0.00000000000E+00 -0.45593999997E+02  0.45594000000E+02  0.51100000000E-03 0. -1.
    9900012    2    1    2    0    0  0.36924373634E+00 -0.48181345999E+00 -0.10121039168E+01  0.90007813792E+02  0.90000076134E+02 0.  0.
         12    1    1    2    0    0 -0.36924373634E+00  0.48181345999E+00  0.10121039168E+01  0.11801862080E+01  0.00000000000E+00 0. -1.
         11    1    3    3    0    0  0.40662948174E+01  0.51029329951E+01  0.66572556155E+01  0.93216807114E+01  0.51100000000E-03 0. -1.
        -11    1    3    3    0    0 -0.26773175821E+02  0.28158154441E+02 -0.86064012430E+01  0.39796416267E+02  0.51100000000E-03 0.  1.
         12    1    3    3    0    0  0.23076124740E+02 -0.33742900897E+02  0.93704171075E+00  0.40889716814E+02  0.00000000000E+00 0. -1.
</event>
<event>
 7    1  0.2468912E-015  0.9000764E+02  0.7816164E-02  0.1186339E+00
        -11   -1    0    0    0    0  0.00000000000E+00  0.00000000000E+00  0.45593999997E+02  0.45594000000E+02  0.51100000000E-03 0.  1.
         11   -1    0    0    0    0 -0.00000000000E+00 -0.00000000000E+00 -0.45593999997E+02  0.45594000000E+02  0.51100000000E-03 0. -1.
    9900012    2    1    2    0    0  0.11081553080E+01 -0.37005635954E+00 -0.16819399511E+00  0.90007644496E+02  0.89999904603E+02 0.  0.
         12    1    1    2    0    0 -0.11081553080E+01  0.37005635954E+00  0.16819399511E+00  0.11803555040E+01  0.00000000000E+00 0. -1.
         11    1    3    3    0    0 -0.63651290022E+01  0.17497377232E+01  0.67616036595E+01  0.94496419839E+01  0.51100000000E-03 0. -1.
        -11    1    3    3    0    0  0.39418281620E+02 -0.94155703937E+01  0.12564364611E+02  0.42430144356E+02  0.51100000000E-03 0.  1.
         12    1    3    3    0    0 -0.31944997310E+02  0.72957763110E+01 -0.19494162266E+02  0.38127858156E+02  0.00000000000E+00 0. -1.
</event>
<event>
 7    1  0.2468912E-015  0.9000779E+02  0.7816164E-02  0.1186339E+00
        -11   -1    0    0    0    0  0.00000000000E+00  0.00000000000E+00  0.45593999997E+02  0.45594000000E+02  0.51100000000E-03 0. -1.
         11   -1    0    0    0    0 -0.00000000000E+00 -0.00000000000E+00 -0.45593999997E+02  0.45594000000E+02  0.51100000000E-03 0.  1.
    9900012    2    1    2    0    0 -0.11200060025E+01 -0.27678333102E+00 -0.24873055989E+00  0.90007792667E+02  0.90000054730E+02 0.  0.
         12    1    1    2    0    0  0.11200060025E+01  0.27678333102E+00  0.24873055989E+00  0.11802073332E+01  0.00000000000E+00 0. -1.
         11    1    3    3    0    0 -0.73093394045E+01  0.58322490271E+01  0.48994378835E+01  0.10556801745E+02  0.51100000000E-03 0. -1.
        -11    1    3    3    0    0 -0.60218821648E+01  0.27393810441E+02  0.21162659322E+02  0.35136050790E+02  0.51100000000E-03 0.  1.
         12    1    3    3    0    0  0.12211215567E+02 -0.33502842799E+02 -0.26310827765E+02  0.44314940132E+02  0.00000000000E+00 0. -1.
</event>
<event>
 7    1  0.2468912E-015  0.9000774E+02  0.7816164E-02  0.1186339E+00
        -11   -1    0    0    0    0  0.00000000000E+00  0.00000000000E+00  0.45593999997E+02  0.45594000000E+02  0.51100000000E-03 0.  1.
         11   -1    0    0    0    0 -0.00000000000E+00 -0.00000000000E+00 -0.45593999997E+02  0.45594000000E+02  0.51100000000E-03 0. -1.
    9900012    2    1    2    0    0  0.60579737210E+00 -0.10002659559E+01  0.15963063679E+00  0.90007743935E+02  0.90000005355E+02 0.  0.
         12    1    1    2    0    0 -0.60579737210E+00  0.10002659559E+01 -0.15963063679E+00  0.11802560649E+01  0.00000000000E+00 0. -1.
         11    1    3    3    0    0 -0.67590797522E+01 -0.29635605931E+01  0.81456897846E+01  0.10991820268E+02  0.51100000000E-03 0. -1.
        -11    1    3    3    0    0  0.12220781505E+02  0.26629495973E+02  0.24321920554E+02  0.38079303776E+02  0.51100000000E-03 0.  1.
         12    1    3    3    0    0 -0.48559043805E+01 -0.24666201336E+02 -0.32307979702E+02  0.40936619891E+02  0.00000000000E+00 0. -1.
</event>
<event>
 7    1  0.2468912E-015  0.9000772E+02  0.7816164E-02  0.1186339E+00
        -11   -1    0    0    0    0  0.00000000000E+00  0.00000000000E+00  0.45593999997E+02  0.45594000000E+02  0.51100000000E-03 0.  1.
         11   -1    0    0    0    0 -0.00000000000E+00 -0.00000000000E+00 -0.45593999997E+02  0.45594000000E+02  0.51100000000E-03 0. -1.
    9900012    2    1    2    0    0  0.77091441376E+00 -0.21975919118E+00 -0.86628679349E+00  0.90007722090E+02  0.89999983222E+02 0.  0.
         12    1    1    2    0    0 -0.77091441376E+00  0.21975919118E+00  0.86628679349E+00  0.11802779097E+01  0.00000000000E+00 0. -1.
         11    1    3    3    0    0 -0.16355975488E+02 -0.27684295449E+02 -0.28688988453E+02  0.43092878848E+02  0.51100000000E-03 0. -1.
        -11    1    3    3    0    0  0.83324409471E+01 -0.31728760433E+00  0.38668859353E+01  0.91914661866E+01  0.51100000000E-03 0.  1.
        -12    1    3    3    0    0  0.87944489547E+01  0.27781823862E+02  0.23955815724E+02  0.37723377056E+02  0.00000000000E+00 0.  1.
</event>
<event>
 7    1  0.2468912E-015  0.9000779E+02  0.7816164E-02  0.1186339E+00
        -11   -1    0    0    0    0  0.00000000000E+00  0.00000000000E+00  0.45593999997E+02  0.45594000000E+02  0.51100000000E-03 0.  1.
         11   -1    0    0    0    0 -0.00000000000E+00 -0.00000000000E+00 -0.45593999997E+02  0.45594000000E+02  0.51100000000E-03 0. -1.
    9900012    2    1    2    0    0 -0.86189768969E+00  0.78720393235E+00 -0.17418980104E+00  0.90007788262E+02  0.90000050268E+02 0.  0.
         12    1    1    2    0    0  0.86189768969E+00 -0.78720393235E+00  0.17418980104E+00  0.11802117375E+01  0.00000000000E+00 0. -1.
         11    1    3    3    0    0  0.56288040994E+01  0.58295987355E+01  0.83514944366E+01  0.11636800101E+02  0.51100000000E-03 0. -1.
        -11    1    3    3    0    0  0.32418146574E+02 -0.14375434165E+01  0.11544729835E+02  0.34442467182E+02  0.51100000000E-03 0.  1.
         12    1    3    3    0    0 -0.38908848363E+02 -0.36048513867E+01 -0.20070414072E+02  0.43928520980E+02  0.00000000000E+00 0. -1.
</event>
<event>
 7    1  0.2468912E-015  0.9000766E+02  0.7816164E-02  0.1186339E+00
        -11   -1    0    0    0    0  0.00000000000E+00  0.00000000000E+00  0.45593999997E+02  0.45594000000E+02  0.51100000000E-03 0.  1.
         11   -1    0    0    0    0 -0.00000000000E+00 -0.00000000000E+00 -0.45593999997E+02  0.45594000000E+02  0.51100000000E-03 0. -1.
    9900012    2    1    2    0    0 -0.53251314649E+00 -0.23111894735E+00  0.10277218498E+01  0.90007661735E+02  0.89999922070E+02 0.  0.
         12    1    1    2    0    0  0.53251314649E+00  0.23111894735E+00 -0.10277218498E+01  0.11803382649E+01  0.00000000000E+00 0. -1.
         11    1    3    3    0    0  0.19488187790E+02  0.27592122882E+02 -0.11713178758E+02  0.35753507036E+02  0.51100000000E-03 0. -1.
        -11    1    3    3    0    0  0.75788886183E+01  0.55703691584E+01  0.26421596107E+01  0.97698297282E+01  0.51100000000E-03 0.  1.
        -12    1    3    3    0    0 -0.27599589555E+02 -0.33393610988E+02  0.10098740997E+02  0.44484324971E+02  0.00000000000E+00 0.  1.
</event>
<event>
 7    1  0.2468912E-015  0.9000784E+02  0.7816164E-02  0.1186339E+00
        -11   -1    0    0    0    0  0.00000000000E+00  0.00000000000E+00  0.45593999997E+02  0.45594000000E+02  0.51100000000E-03 0. -1.
         11   -1    0    0    0    0 -0.00000000000E+00 -0.00000000000E+00 -0.45593999997E+02  0.45594000000E+02  0.51100000000E-03 0.  1.
    9900012    2    1    2    0    0  0.71333258235E+00 -0.22041159087E+00 -0.91397949151E+00  0.90007837658E+02  0.90000100315E+02 0.  0.
         12    1    1    2    0    0 -0.71333258235E+00  0.22041159087E+00  0.91397949151E+00  0.11801623419E+01  0.00000000000E+00 0. -1.
         11    1    3    3    0    0 -0.30727667744E+01 -0.83534029661E+01  0.68530236448E+01  0.11233217264E+02  0.51100000000E-03 0. -1.
        -11    1    3    3    0    0  0.21855486153E+02  0.28784052952E+01  0.29617709208E+02  0.36920945154E+02  0.51100000000E-03 0.  1.
         12    1    3    3    0    0 -0.18069386797E+02  0.52545860800E+01 -0.37384712344E+02  0.41853675241E+02  0.00000000000E+00 0. -1.
</event>
<event>
 7    1  0.2468912E-015  0.9000771E+02  0.7816164E-02  0.1186339E+00
        -11   -1    0    0    0    0  0.00000000000E+00  0.00000000000E+00  0.45593999997E+02  0.45594000000E+02  0.51100000000E-03 0. -1.
         11   -1    0    0    0    0 -0.00000000000E+00 -0.00000000000E+00 -0.45593999997E+02  0.45594000000E+02  0.51100000000E-03 0.  1.
    9900012    2    1    2    0    0 -0.48898841650E+00 -0.97810595199E+00  0.44415542060E+00  0.90007714034E+02  0.89999975059E+02 0.  0.
         12    1    1    2    0    0  0.48898841650E+00  0.97810595199E+00 -0.44415542060E+00  0.11802859664E+01  0.00000000000E+00 0. -1.
         11    1    3    3    0    0  0.10938925227E+02 -0.26487302830E+02 -0.29761389725E+02  0.41315585618E+02  0.51100000000E-03 0. -1.
        -11    1    3    3    0    0  0.60950062806E+01  0.59449269223E+01 -0.19630279043E+00  0.85164424919E+01  0.51100000000E-03 0.  1.
        -12    1    3    3    0    0 -0.17522919924E+02  0.19564269955E+02  0.30401847936E+02  0.40175685924E+02  0.00000000000E+00 0.  1.
</event>
<event>
 7    1  0.2468912E-015  0.9000772E+02  0.7816164E-02  0.1186339E+00
        -11   -1    0    0    0    0  0.00000000000E+00  0.00000000000E+00  0.45593999997E+02  0.45594000000E+02  0.51100000000E-03 0. -1.
         11   -1    0    0    0    0 -0.00000000000E+00 -0.00000000000E+00 -0.45593999997E+02  0.45594000000E+02  0.51100000000E-03 0.  1.
    9900012    2    1    2    0    0 -0.57999053050E+00  0.75009567624E+00 -0.70286652312E+00  0.90007722961E+02  0.89999984104E+02 0.  0.
         12    1    1    2    0    0  0.57999053050E+00 -0.75009567624E+00  0.70286652312E+00  0.11802770388E+01  0.00000000000E+00 0. -1.
         11    1    3    3    0    0 -0.42169611874E+01 -0.69150180124E+01  0.42699079503E+00  0.81106446826E+01  0.51100000000E-03 0. -1.
        -11    1    3    3    0    0 -0.12835264783E+02 -0.27105157534E+02 -0.22860295845E+02  0.37709769469E+02  0.51100000000E-03 0.  1.
         12    1    3    3    0    0  0.16472235440E+02  0.34770271222E+02  0.21730438527E+02  0.44187308810E+02  0.00000000000E+00 0. -1.
</event>
<event>
 7    1  0.2468912E-015  0.9000771E+02  0.7816164E-02  0.1186339E+00
        -11   -1    0    0    0    0  0.00000000000E+00  0.00000000000E+00  0.45593999997E+02  0.45594000000E+02  0.51100000000E-03 0.  1.
         11   -1    0    0    0    0 -0.00000000000E+00 -0.00000000000E+00 -0.45593999997E+02  0.45594000000E+02  0.51100000000E-03 0. -1.
    9900012    2    1    2    0    0  0.37383961933E+00 -0.97722660655E+00 -0.54621593463E+00  0.90007712006E+02  0.89999973004E+02 0.  0.
         12    1    1    2    0    0 -0.37383961933E+00  0.97722660655E+00  0.54621593463E+00  0.11802879940E+01  0.00000000000E+00 0. -1.
         11    1    3    3    0    0  0.27469638923E+02  0.24825567153E+02 -0.17579107235E+02  0.40986764431E+02  0.51100000000E-03 0. -1.
        -11    1    3    3    0    0 -0.90232486139E+00  0.32455295854E+01  0.82807883079E+01  0.89397487496E+01  0.51100000000E-03 0.  1.
        -12    1    3    3    0    0 -0.26193474443E+02 -0.29048323345E+02  0.87521029930E+01  0.40081198826E+02  0.00000000000E+00 0.  1.
</event>
<event>
 7    1  0.2468912E-015  0.9000783E+02  0.7816164E-02  0.1186339E+00
        -11   -1    0    0    0    0  0.00000000000E+00  0.00000000000E+00  0.45593999997E+02  0.45594000000E+02  0.51100000000E-03 0.  1.
         11   -1    0    0    0    0 -0.00000000000E+00 -0.00000000000E+00 -0.45593999997E+02  0.45594000000E+02  0.51100000000E-03 0. -1.
    9900012    2    1    2    0    0 -0.18338488507E+00  0.11386731090E+01 -0.25021076868E+00  0.90007825482E+02  0.90000087978E+02 0.  0.
         12    1    1    2    0    0  0.18338488507E+00 -0.11386731090E+01  0.25021076868E+00  0.11801745185E+01  0.00000000000E+00 0. -1.
         11    1    3    3    0    0  0.10717287371E+02 -0.34462005299E+02 -0.22859735994E+01  0.36162352431E+02  0.51100000000E-03 0. -1.
        -11    1    3    3    0    0  0.92205496213E+01 -0.29349669149E+01 -0.28800542131E+01  0.10095904053E+02  0.51100000000E-03 0.  1.
        -12    1    3    3    0    0 -0.20121221877E+02  0.38535645323E+02  0.49158170438E+01  0.43749568998E+02  0.00000000000E+00 0.  1.
</event>
<event>
 7    1  0.2468912E-015  0.9000770E+02  0.7816164E-02  0.1186339E+00
        -11   -1    0    0    0    0  0.00000000000E+00  0.00000000000E+00  0.45593999997E+02  0.45594000000E+02  0.51100000000E-03 0. -1.
         11   -1    0    0    0    0 -0.00000000000E+00 -0.00000000000E+00 -0.45593999997E+02  0.45594000000E+02  0.51100000000E-03 0.  1.
    9900012    2    1    2    0    0  0.83154657589E+00 -0.67115365898E+00 -0.50118733574E+00  0.90007701018E+02  0.89999961871E+02 0.  0.
         12    1    1    2    0    0 -0.83154657589E+00  0.67115365898E+00  0.50118733574E+00  0.11802989822E+01  0.00000000000E+00 0. -1.
         11    1    3    3    0    0  0.88621661771E+01  0.45929976195E+00  0.16693406989E+01  0.90297089793E+01  0.51100000000E-03 0. -1.
        -11    1    3    3    0    0  0.19600200832E+02  0.92585119904E+00 -0.33704868691E+02  0.39000554443E+02  0.51100000000E-03 0.  1.
         12    1    3    3    0    0 -0.27630820433E+02 -0.20563046200E+01  0.31534340656E+02  0.41977437596E+02  0.00000000000E+00 0. -1.
</event>
<event>
 7    1  0.2468912E-015  0.9000774E+02  0.7816164E-02  0.1186339E+00
        -11   -1    0    0    0    0  0.00000000000E+00  0.00000000000E+00  0.45593999997E+02  0.45594000000E+02  0.51100000000E-03 0.  1.
         11   -1    0    0    0    0 -0.00000000000E+00 -0.00000000000E+00 -0.45593999997E+02  0.45594000000E+02  0.51100000000E-03 0. -1.
    9900012    2    1    2    0    0 -0.26973867068E+00  0.31497309436E+00  0.11050089798E+01  0.90007740772E+02  0.90000002150E+02 0.  0.
         12    1    1    2    0    0  0.26973867068E+00 -0.31497309436E+00 -0.11050089798E+01  0.11802592283E+01  0.00000000000E+00 0. -1.
         11    1    3    3    0    0 -0.73698083091E+01  0.50631151414E+01 -0.39240766379E+01  0.97646089102E+01  0.51100000000E-03 0. -1.
        -11    1    3    3    0    0 -0.17552411710E+02  0.45054663020E+01  0.35568709749E+02  0.39918911519E+02  0.51100000000E-03 0.  1.
         12    1    3    3    0    0  0.24652481349E+02 -0.92536083490E+01 -0.30539624131E+02  0.40324220342E+02  0.00000000000E+00 0. -1.
</event>
<event>
 7    1  0.2468912E-015  0.9000777E+02  0.7816164E-02  0.1186339E+00
        -11   -1    0    0    0    0  0.00000000000E+00  0.00000000000E+00  0.45593999997E+02  0.45594000000E+02  0.51100000000E-03 0.  1.
         11   -1    0    0    0    0 -0.00000000000E+00 -0.00000000000E+00 -0.45593999997E+02  0.45594000000E+02  0.51100000000E-03 0. -1.
    9900012    2    1    2    0    0 -0.71612715026E+00  0.78439909311E+00 -0.51461936927E+00  0.90007765647E+02  0.90000027354E+02 0.  0.
         12    1    1    2    0    0  0.71612715026E+00 -0.78439909311E+00  0.51461936927E+00  0.11802343529E+01  0.00000000000E+00 0. -1.
         11    1    3    3    0    0 -0.10648456240E+02 -0.10032686349E+02  0.39787517405E+01  0.15161625287E+02  0.51100000000E-03 0. -1.
        -11    1    3    3    0    0 -0.13090476109E+02 -0.11137856419E+02  0.25744973118E+02  0.30955065038E+02  0.51100000000E-03 0.  1.
         12    1    3    3    0    0  0.23022805199E+02  0.21954941861E+02 -0.30238344228E+02  0.43891075323E+02  0.00000000000E+00 0. -1.
</event>
<event>
 7    1  0.2468912E-015  0.9000774E+02  0.7816164E-02  0.1186339E+00
        -11   -1    0    0    0    0  0.00000000000E+00  0.00000000000E+00  0.45593999997E+02  0.45594000000E+02  0.51100000000E-03 0.  1.
         11   -1    0    0    0    0 -0.00000000000E+00 -0.00000000000E+00 -0.45593999997E+02  0.45594000000E+02  0.51100000000E-03 0. -1.
    9900012    2    1    2    0    0 -0.10764194965E+01 -0.22286993879E-01  0.48357673682E+00  0.90007736427E+02  0.89999997747E+02 0.  0.
         12    1    1    2    0    0  0.10764194965E+01  0.22286993879E-01 -0.48357673682E+00  0.11802635735E+01  0.00000000000E+00 0. -1.
         11    1    3    3    0    0  0.10360216907E+02 -0.18865753443E+01 -0.38177209251E+02  0.39602936348E+02  0.51100000000E-03 0. -1.
        -11    1    3    3    0    0 -0.98417927484E+00 -0.11629267649E+02  0.50664271416E+01  0.12723095501E+02  0.51100000000E-03 0.  1.
        -12    1    3    3    0    0 -0.10452457129E+02  0.13493555999E+02  0.33594358847E+02  0.37681704577E+02  0.00000000000E+00 0.  1.
</event>
<event>
 7    1  0.2468912E-015  0.9000774E+02  0.7816164E-02  0.1186339E+00
        -11   -1    0    0    0    0  0.00000000000E+00  0.00000000000E+00  0.45593999997E+02  0.45594000000E+02  0.51100000000E-03 0.  1.
         11   -1    0    0    0    0 -0.00000000000E+00 -0.00000000000E+00 -0.45593999997E+02  0.45594000000E+02  0.51100000000E-03 0. -1.
    9900012    2    1    2    0    0 -0.55488551841E+00  0.95321611816E+00  0.42010961168E+00  0.90007741133E+02  0.90000002516E+02 0.  0.
         12    1    1    2    0    0  0.55488551841E+00 -0.95321611816E+00 -0.42010961168E+00  0.11802588666E+01  0.00000000000E+00 0. -1.
         11    1    3    3    0    0  0.15108217724E+02  0.17416211426E+02 -0.34156572179E+02  0.41209878506E+02  0.51100000000E-03 0. -1.
        -11    1    3    3    0    0 -0.63343851602E+01 -0.59699174576E+00 -0.29405667134E+01  0.70091202985E+01  0.51100000000E-03 0.  1.
        -12    1    3    3    0    0 -0.93287180821E+01 -0.15866003562E+02  0.37517248504E+02  0.41788742328E+02  0.00000000000E+00 0.  1.
</event>
<event>
 7    1  0.2798203E-015  0.9000784E+02  0.7816164E-02  0.1186339E+00
        -11   -1    0    0    0    0  0.00000000000E+00  0.00000000000E+00  0.45593999997E+02  0.45594000000E+02  0.51100000000E-03 0.  1.
         11   -1    0    0    0    0 -0.00000000000E+00 -0.00000000000E+00 -0.45593999997E+02  0.45594000000E+02  0.51100000000E-03 0. -1.
    9900012    2    1    2    0    0  0.79939674972E+00  0.78235429510E+00  0.37638521460E+00  0.90007839318E+02  0.90000101997E+02 0.  0.
         12    1    1    2    0    0 -0.79939674972E+00 -0.78235429510E+00 -0.37638521460E+00  0.11801606824E+01  0.00000000000E+00 0. -1.
         11    1    3    3    0    0 -0.36682959262E+02  0.40725715428E+01 -0.57207602294E+01  0.37349062064E+02  0.51100000000E-03 0. -1.
        -11    1    3    3    0    0 -0.58908421747E+01 -0.52938707916E+01  0.47150985313E+01  0.92173338828E+01  0.51100000000E-03 0.  1.
        -12    1    3    3    0    0  0.43373198187E+02  0.20036535439E+01  0.13820469127E+01  0.43441443371E+02  0.00000000000E+00 0.  1.
</event>
<event>
 7    1  0.2468912E-015  0.9000771E+02  0.7816164E-02  0.1186339E+00
        -11   -1    0    0    0    0  0.00000000000E+00  0.00000000000E+00  0.45593999997E+02  0.45594000000E+02  0.51100000000E-03 0.  1.
         11   -1    0    0    0    0 -0.00000000000E+00 -0.00000000000E+00 -0.45593999997E+02  0.45594000000E+02  0.51100000000E-03 0. -1.
    9900012    2    1    2    0    0  0.61331741185E+00 -0.37580226368E+00  0.93579104201E+00  0.90007707467E+02  0.89999968406E+02 0.  0.
         12    1    1    2    0    0 -0.61331741185E+00  0.37580226368E+00 -0.93579104201E+00  0.11802925330E+01  0.00000000000E+00 0. -1.
         11    1    3    3    0    0  0.36954263050E+01 -0.60889529530E+01  0.90705134971E+01  0.11532811409E+02  0.51100000000E-03 0. -1.
        -11    1    3    3    0    0  0.27995400862E+02 -0.50254616293E+00  0.21331739902E+02  0.35199973715E+02  0.51100000000E-03 0.  1.
         12    1    3    3    0    0 -0.31077509755E+02  0.62156968522E+01 -0.29466462357E+02  0.43274922343E+02  0.00000000000E+00 0. -1.
</event>
<event>
 7    1  0.2468912E-015  0.9000780E+02  0.7816164E-02  0.1186339E+00
        -11   -1    0    0    0    0  0.00000000000E+00  0.00000000000E+00  0.45593999997E+02  0.45594000000E+02  0.51100000000E-03 0.  1.
         11   -1    0    0    0    0 -0.00000000000E+00 -0.00000000000E+00 -0.45593999997E+02  0.45594000000E+02  0.51100000000E-03 0. -1.
    9900012    2    1    2    0    0 -0.91270511865E+00 -0.28938776404E+00 -0.68999155732E+00  0.90007803296E+02  0.90000065499E+02 0.  0.
         12    1    1    2    0    0  0.91270511865E+00  0.28938776404E+00  0.68999155732E+00  0.11801967043E+01  0.00000000000E+00 0. -1.
         11    1    3    3    0    0  0.39953050706E+01 -0.96013063020E+01  0.26031197858E+01  0.10720250846E+02  0.51100000000E-03 0. -1.
        -11    1    3    3    0    0  0.26643950679E+02 -0.10976415256E+02 -0.23040718511E+02  0.36895209844E+02  0.51100000000E-03 0.  1.
         12    1    3    3    0    0 -0.31551960868E+02  0.20288333794E+02  0.19747607168E+02  0.42392342606E+02  0.00000000000E+00 0. -1.
</event>
<event>
 7    1  0.2468912E-015  0.9000778E+02  0.7816164E-02  0.1186339E+00
        -11   -1    0    0    0    0  0.00000000000E+00  0.00000000000E+00  0.45593999997E+02  0.45594000000E+02  0.51100000000E-03 0.  1.
         11   -1    0    0    0    0 -0.00000000000E+00 -0.00000000000E+00 -0.45593999997E+02  0.45594000000E+02  0.51100000000E-03 0. -1.
    9900012    2    1    2    0    0 -0.50534787118E+00 -0.95607102413E+00 -0.47273250689E+00  0.90007777861E+02  0.90000039729E+02 0.  0.
         12    1    1    2    0    0  0.50534787118E+00  0.95607102413E+00  0.47273250689E+00  0.11802221389E+01  0.00000000000E+00 0. -1.
         11    1    3    3    0    0  0.14949839291E+02  0.28170636317E+02 -0.13800036823E+02  0.34749438297E+02  0.51100000000E-03 0. -1.
        -11    1    3    3    0    0  0.42955359520E+01  0.78011545449E+01 -0.42174455507E+01  0.98537550499E+01  0.51100000000E-03 0.  1.
        -12    1    3    3    0    0 -0.19750723114E+02 -0.36927861886E+02  0.17544749867E+02  0.45404584515E+02  0.00000000000E+00 0.  1.
</event>
<event>
 7    1  0.2468912E-015  0.9000772E+02  0.7816164E-02  0.1186339E+00
        -11   -1    0    0    0    0  0.00000000000E+00  0.00000000000E+00  0.45593999997E+02  0.45594000000E+02  0.51100000000E-03 0. -1.
         11   -1    0    0    0    0 -0.00000000000E+00 -0.00000000000E+00 -0.45593999997E+02  0.45594000000E+02  0.51100000000E-03 0.  1.
    9900012    2    1    2    0    0  0.10699533686E+01  0.29099507075E+00 -0.40444417215E+00  0.90007723155E+02  0.89999984301E+02 0.  0.
         12    1    1    2    0    0 -0.10699533686E+01 -0.29099507075E+00  0.40444417215E+00  0.11802768449E+01  0.00000000000E+00 0. -1.
         11    1    3    3    0    0 -0.13773816517E+02 -0.18812054694E+01  0.39928612789E+00  0.13907421944E+02  0.51100000000E-03 0. -1.
        -11    1    3    3    0    0 -0.27091262338E+02  0.22835635374E+01  0.15279449545E+02  0.31186739749E+02  0.51100000000E-03 0.  1.
         12    1    3    3    0    0  0.41935032224E+02 -0.11136299721E+00 -0.16083179845E+02  0.44913561462E+02  0.00000000000E+00 0. -1.
</event>
<event>
 7    1  0.2468912E-015  0.9000782E+02  0.7816164E-02  0.1186339E+00
        -11   -1    0    0    0    0  0.00000000000E+00  0.00000000000E+00  0.45593999997E+02  0.45594000000E+02  0.51100000000E-03 0.  1.
         11   -1    0    0    0    0 -0.00000000000E+00 -0.00000000000E+00 -0.45593999997E+02  0.45594000000E+02  0.51100000000E-03 0. -1.
    9900012    2    1    2    0    0 -0.27734399183E+00  0.31877343087E+00  0.11019464788E+01  0.90007821102E+02  0.90000083540E+02 0.  0.
         12    1    1    2    0    0  0.27734399183E+00 -0.31877343087E+00 -0.11019464788E+01  0.11801788984E+01  0.00000000000E+00 0. -1.
         11    1    3    3    0    0 -0.18851263025E+01  0.21849683172E+02  0.28937973090E+02  0.36309346493E+02  0.51100000000E-03 0. -1.
        -11    1    3    3    0    0  0.27919922671E+01 -0.29597613942E+01  0.10403797348E+02  0.11171141744E+02  0.51100000000E-03 0.  1.
        -12    1    3    3    0    0 -0.11842099564E+01 -0.18571148347E+02 -0.38239823960E+02  0.42527332865E+02  0.00000000000E+00 0.  1.
</event>
<event>
 7    1  0.2468912E-015  0.9000778E+02  0.7816164E-02  0.1186339E+00
        -11   -1    0    0    0    0  0.00000000000E+00  0.00000000000E+00  0.45593999997E+02  0.45594000000E+02  0.51100000000E-03 0.  1.
         11   -1    0    0    0    0 -0.00000000000E+00 -0.00000000000E+00 -0.45593999997E+02  0.45594000000E+02  0.51100000000E-03 0. -1.
    9900012    2    1    2    0    0  0.90527672945E+00 -0.74230568919E+00  0.14961965659E+00  0.90007775557E+02  0.90000037395E+02 0.  0.
         12    1    1    2    0    0 -0.90527672945E+00  0.74230568919E+00 -0.14961965659E+00  0.11802244425E+01  0.00000000000E+00 0. -1.
         11    1    3    3    0    0  0.10170439675E+02 -0.28839008444E+01 -0.83966046830E+00  0.10604704486E+02  0.51100000000E-03 0. -1.
        -11    1    3    3    0    0 -0.10072989920E+01  0.25343936142E+02  0.31339596019E+02  0.40317490365E+02  0.51100000000E-03 0.  1.
         12    1    3    3    0    0 -0.82578639536E+01 -0.23202340987E+02 -0.30350315894E+02  0.39085580707E+02  0.00000000000E+00 0. -1.
</event>
<event>
 7    1  0.2468912E-015  0.9000772E+02  0.7816164E-02  0.1186339E+00
        -11   -1    0    0    0    0  0.00000000000E+00  0.00000000000E+00  0.45593999997E+02  0.45594000000E+02  0.51100000000E-03 0.  1.
         11   -1    0    0    0    0 -0.00000000000E+00 -0.00000000000E+00 -0.45593999997E+02  0.45594000000E+02  0.51100000000E-03 0. -1.
    9900012    2    1    2    0    0  0.11791248582E+01 -0.47769813366E-01  0.21275551591E-01  0.90007716121E+02  0.89999977174E+02 0.  0.
         12    1    1    2    0    0 -0.11791248582E+01  0.47769813366E-01 -0.21275551591E-01  0.11802838792E+01  0.00000000000E+00 0. -1.
         11    1    3    3    0    0 -0.34742214455E+02  0.14102642389E+02  0.21486375482E+02  0.43215394470E+02  0.51100000000E-03 0. -1.
        -11    1    3    3    0    0  0.98419211999E+01 -0.63152023963E+01  0.65071672060E+00  0.11711901072E+02  0.51100000000E-03 0.  1.
        -12    1    3    3    0    0  0.26079418113E+02 -0.78352098062E+01 -0.22115816651E+02  0.35080420579E+02  0.00000000000E+00 0.  1.
</event>
<event>
 7    1  0.2468912E-015  0.9000755E+02  0.7816164E-02  0.1186339E+00
        -11   -1    0    0    0    0  0.00000000000E+00  0.00000000000E+00  0.45593999997E+02  0.45594000000E+02  0.51100000000E-03 0. -1.
         11   -1    0    0    0    0 -0.00000000000E+00 -0.00000000000E+00 -0.45593999997E+02  0.45594000000E+02  0.51100000000E-03 0.  1.
    9900012    2    1    2    0    0  0.13225671154E+00 -0.10604491605E+01 -0.50142575952E+00  0.90007545828E+02  0.89999804633E+02 0.  0.
         12    1    1    2    0    0 -0.13225671154E+00  0.10604491605E+01  0.50142575952E+00  0.11804541719E+01  0.00000000000E+00 0. -1.
         11    1    3    3    0    0 -0.53637230926E+00  0.81989401124E+01 -0.42949007937E+01  0.92712721517E+01  0.51100000000E-03 0. -1.
        -11    1    3    3    0    0 -0.12101898341E+02 -0.13327733950E+02 -0.35182181312E+02  0.39520505030E+02  0.51100000000E-03 0.  1.
         12    1    3    3    0    0  0.12770527362E+02  0.40683446775E+01  0.38975656346E+02  0.41215768646E+02  0.00000000000E+00 0. -1.
</event>
<event>
 7    1  0.2468912E-015  0.9000776E+02  0.7816164E-02  0.1186339E+00
        -11   -1    0    0    0    0  0.00000000000E+00  0.00000000000E+00  0.45593999997E+02  0.45594000000E+02  0.51100000000E-03 0.  1.
         11   -1    0    0    0    0 -0.00000000000E+00 -0.00000000000E+00 -0.45593999997E+02  0.45594000000E+02  0.51100000000E-03 0. -1.
    9900012    2    1    2    0    0 -0.24869082866E+00 -0.11025878352E+01 -0.33973423641E+00  0.90007760019E+02  0.90000021651E+02 0.  0.
         12    1    1    2    0    0  0.24869082866E+00  0.11025878352E+01  0.33973423641E+00  0.11802399815E+01  0.00000000000E+00 0. -1.
         11    1    3    3    0    0  0.16260360972E+02 -0.78472634694E+01 -0.47230599729E+01  0.18662426923E+02  0.51100000000E-03 0. -1.
        -11    1    3    3    0    0  0.23697938504E+02 -0.10093117526E+02  0.95041727938E+01  0.27455283853E+02  0.51100000000E-03 0.  1.
         12    1    3    3    0    0 -0.40206990305E+02  0.16837793160E+02 -0.51208470573E+01  0.43890049242E+02  0.00000000000E+00 0. -1.
</event>
<event>
 7    1  0.2468912E-015  0.9000764E+02  0.7816164E-02  0.1186339E+00
        -11   -1    0    0    0    0  0.00000000000E+00  0.00000000000E+00  0.45593999997E+02  0.45594000000E+02  0.51100000000E-03 0. -1.
         11   -1    0    0    0    0 -0.00000000000E+00 -0.00000000000E+00 -0.45593999997E+02  0.45594000000E+02  0.51100000000E-03 0.  1.
    9900012    2    1    2    0    0 -0.60925754611E+00  0.24200781510E+00 -0.98156962120E+00  0.90007643502E+02  0.89999903597E+02 0.  0.
         12    1    1    2    0    0  0.60925754611E+00 -0.24200781510E+00  0.98156962120E+00  0.11803564976E+01  0.00000000000E+00 0. -1.
         11    1    3    3    0    0  0.34763238566E+02  0.26145046515E+00  0.82636008355E+01  0.35732872974E+02  0.51100000000E-03 0. -1.
        -11    1    3    3    0    0  0.54278472069E+01  0.90152168226E+00  0.82137647714E+01  0.98863642774E+01  0.51100000000E-03 0.  1.
        -12    1    3    3    0    0 -0.40800343319E+02 -0.92096433231E+00 -0.17458935228E+02  0.44388406251E+02  0.00000000000E+00 0.  1.
</event>
<event>
 7    1  0.2468912E-015  0.9000768E+02  0.7816164E-02  0.1186339E+00
        -11   -1    0    0    0    0  0.00000000000E+00  0.00000000000E+00  0.45593999997E+02  0.45594000000E+02  0.51100000000E-03 0.  1.
         11   -1    0    0    0    0 -0.00000000000E+00 -0.00000000000E+00 -0.45593999997E+02  0.45594000000E+02  0.51100000000E-03 0. -1.
    9900012    2    1    2    0    0 -0.10614428028E+01  0.47766137526E+00  0.19580288246E+00  0.90007678018E+02  0.89999938568E+02 0.  0.
         12    1    1    2    0    0  0.10614428028E+01 -0.47766137526E+00 -0.19580288246E+00  0.11803219822E+01  0.00000000000E+00 0. -1.
         11    1    3    3    0    0  0.47193304726E+01  0.68762916942E+01 -0.17044500051E+01  0.85123802579E+01  0.51100000000E-03 0. -1.
        -11    1    3    3    0    0  0.34871514793E+02 -0.43139415370E+01  0.15739317861E+02  0.38501412475E+02  0.51100000000E-03 0.  1.
         12    1    3    3    0    0 -0.40652288069E+02 -0.20846887819E+01 -0.13839064974E+02  0.42993885285E+02  0.00000000000E+00 0. -1.
</event>
<event>
 7    1  0.2468912E-015  0.9000772E+02  0.7816164E-02  0.1186339E+00
        -11   -1    0    0    0    0  0.00000000000E+00  0.00000000000E+00  0.45593999997E+02  0.45594000000E+02  0.51100000000E-03 0.  1.
         11   -1    0    0    0    0 -0.00000000000E+00 -0.00000000000E+00 -0.45593999997E+02  0.45594000000E+02  0.51100000000E-03 0. -1.
    9900012    2    1    2    0    0  0.11435880694E+01 -0.24962171525E+00 -0.15148914945E+00  0.90007723068E+02  0.89999984213E+02 0.  0.
         12    1    1    2    0    0 -0.11435880694E+01  0.24962171525E+00  0.15148914945E+00  0.11802769317E+01  0.00000000000E+00 0. -1.
         11    1    3    3    0    0  0.38397510729E+02 -0.45533705619E+01 -0.17957615606E+01  0.38708226173E+02  0.51100000000E-03 0. -1.
        -11    1    3    3    0    0  0.55117214502E+01 -0.26836114739E+01  0.48952386218E+01  0.78450114922E+01  0.51100000000E-03 0.  1.
        -12    1    3    3    0    0 -0.42765644109E+02  0.69873603205E+01 -0.32509662107E+01  0.43454485403E+02  0.00000000000E+00 0.  1.
</event>
<event>
 7    1  0.2468912E-015  0.9000772E+02  0.7816164E-02  0.1186339E+00
        -11   -1    0    0    0    0  0.00000000000E+00  0.00000000000E+00  0.45593999997E+02  0.45594000000E+02  0.51100000000E-03 0.  1.
         11   -1    0    0    0    0 -0.00000000000E+00 -0.00000000000E+00 -0.45593999997E+02  0.45594000000E+02  0.51100000000E-03 0. -1.
    9900012    2    1    2    0    0 -0.85266227745E+00 -0.68174360829E+00  0.44861360355E+00  0.90007719748E+02  0.89999980849E+02 0.  0.
         12    1    1    2    0    0  0.85266227745E+00  0.68174360829E+00 -0.44861360355E+00  0.11802802515E+01  0.00000000000E+00 0. -1.
         11    1    3    3    0    0  0.66834257091E-01  0.76873657297E+01  0.24374334305E+00  0.76915193401E+01  0.51100000000E-03 0. -1.
        -11    1    3    3    0    0  0.19455588137E+02  0.15644379951E+02  0.29954290081E+02  0.38993922966E+02  0.51100000000E-03 0.  1.
         12    1    3    3    0    0 -0.20375084671E+02 -0.24013489289E+02 -0.29749419820E+02  0.43322277442E+02  0.00000000000E+00 0. -1.
</event>
<event>
 7    1  0.2468912E-015  0.9000754E+02  0.7816164E-02  0.1186339E+00
        -11   -1    0    0    0    0  0.00000000000E+00  0.00000000000E+00  0.45593999997E+02  0.45594000000E+02  0.51100000000E-03 0.  1.
         11   -1    0    0    0    0 -0.00000000000E+00 -0.00000000000E+00 -0.45593999997E+02  0.45594000000E+02  0.51100000000E-03 0. -1.
    9900012    2    1    2    0    0 -0.45629054615E+00  0.98788352947E+00 -0.45758226757E+00  0.90007535489E+02  0.89999794157E+02 0.  0.
         12    1    1    2    0    0  0.45629054615E+00 -0.98788352947E+00  0.45758226757E+00  0.11804645111E+01  0.00000000000E+00 0. -1.
         11    1    3    3    0    0 -0.56112269619E+01 -0.24103627950E+01 -0.19005572018E+02  0.19962652249E+02  0.51100000000E-03 0. -1.
        -11    1    3    3    0    0 -0.22225611732E+02  0.99269005107E+01  0.30874463852E+02  0.39316074181E+02  0.51100000000E-03 0.  1.
         12    1    3    3    0    0  0.27380548148E+02 -0.65286541863E+01 -0.12326474101E+02  0.30728809058E+02  0.00000000000E+00 0. -1.
</event>
<event>
 7    1  0.2468912E-015  0.9000746E+02  0.7816164E-02  0.1186340E+00
        -11   -1    0    0    0    0  0.00000000000E+00  0.00000000000E+00  0.45593999997E+02  0.45594000000E+02  0.51100000000E-03 0. -1.
         11   -1    0    0    0    0 -0.00000000000E+00 -0.00000000000E+00 -0.45593999997E+02  0.45594000000E+02  0.51100000000E-03 0.  1.
    9900012    2    1    2    0    0  0.30694238871E+00 -0.49187924493E+00 -0.10283508184E+01  0.90007464432E+02  0.89999722162E+02 0.  0.
         12    1    1    2    0    0 -0.30694238871E+00  0.49187924493E+00  0.10283508184E+01  0.11805355680E+01  0.00000000000E+00 0. -1.
         11    1    3    3    0    0  0.85409801734E+01  0.38297665175E+01  0.25880362833E+01  0.97115079141E+01  0.51100000000E-03 0. -1.
        -11    1    3    3    0    0  0.25361653496E+02  0.20430349248E+02  0.13419095179E+02  0.35223355237E+02  0.51100000000E-03 0.  1.
         12    1    3    3    0    0 -0.33595691281E+02 -0.24751995011E+02 -0.17035482281E+02  0.45072601281E+02  0.00000000000E+00 0. -1.
</event>
<event>
 7    1  0.2468912E-015  0.9000757E+02  0.7816164E-02  0.1186339E+00
        -11   -1    0    0    0    0  0.00000000000E+00  0.00000000000E+00  0.45593999997E+02  0.45594000000E+02  0.51100000000E-03 0.  1.
         11   -1    0    0    0    0 -0.00000000000E+00 -0.00000000000E+00 -0.45593999997E+02  0.45594000000E+02  0.51100000000E-03 0. -1.
    9900012    2    1    2    0    0 -0.72848959447E+00 -0.79971931306E+00 -0.47241225668E+00  0.90007567279E+02  0.89999826367E+02 0.  0.
         12    1    1    2    0    0  0.72848959447E+00  0.79971931306E+00  0.47241225668E+00  0.11804327212E+01  0.00000000000E+00 0. -1.
         11    1    3    3    0    0 -0.25203717699E+02  0.18935031704E+02 -0.27931535801E+02  0.42118089985E+02  0.51100000000E-03 0. -1.
        -11    1    3    3    0    0 -0.42120893202E+01 -0.60239265379E+01  0.64577871647E+01  0.97842936741E+01  0.51100000000E-03 0.  1.
        -12    1    3    3    0    0  0.28687317425E+02 -0.13710824480E+02  0.21001336380E+02  0.38105183620E+02  0.00000000000E+00 0.  1.
</event>
<event>
 7    1  0.2468912E-015  0.9000777E+02  0.7816164E-02  0.1186339E+00
        -11   -1    0    0    0    0  0.00000000000E+00  0.00000000000E+00  0.45593999997E+02  0.45594000000E+02  0.51100000000E-03 0. -1.
         11   -1    0    0    0    0 -0.00000000000E+00 -0.00000000000E+00 -0.45593999997E+02  0.45594000000E+02  0.51100000000E-03 0.  1.
    9900012    2    1    2    0    0  0.91642930167E+00  0.12073218689E+00 -0.73383889246E+00  0.90007771867E+02  0.90000033656E+02 0.  0.
         12    1    1    2    0    0 -0.91642930167E+00 -0.12073218689E+00  0.73383889246E+00  0.11802281330E+01  0.00000000000E+00 0. -1.
         11    1    3    3    0    0 -0.62856551418E+01 -0.14622548030E+01  0.40003637913E+01  0.75927966122E+01  0.51100000000E-03 0. -1.
        -11    1    3    3    0    0  0.17952092256E+02 -0.30878424804E+02  0.19318917910E+02  0.40607577178E+02  0.51100000000E-03 0.  1.
         12    1    3    3    0    0 -0.10750007813E+02  0.32461411794E+02 -0.24053120594E+02  0.41807398077E+02  0.00000000000E+00 0. -1.
</event>
<event>
 7    1  0.2468912E-015  0.9000759E+02  0.7816164E-02  0.1186339E+00
        -11   -1    0    0    0    0  0.00000000000E+00  0.00000000000E+00  0.45593999997E+02  0.45594000000E+02  0.51100000000E-03 0.  1.
         11   -1    0    0    0    0 -0.00000000000E+00 -0.00000000000E+00 -0.45593999997E+02  0.45594000000E+02  0.51100000000E-03 0. -1.
    9900012    2    1    2    0    0 -0.11398888083E+01  0.16540417330E+00 -0.25818558050E+00  0.90007591245E+02  0.89999850649E+02 0.  0.
         12    1    1    2    0    0  0.11398888083E+01 -0.16540417330E+00  0.25818558050E+00  0.11804087554E+01  0.00000000000E+00 0. -1.
         11    1    3    3    0    0  0.53795507834E+01  0.48716133841E+01  0.75935884675E+01  0.10504035875E+02  0.51100000000E-03 0. -1.
        -11    1    3    3    0    0  0.21757193169E+02  0.18925961947E+02  0.18445044633E+02  0.34231376864E+02  0.51100000000E-03 0.  1.
         12    1    3    3    0    0 -0.28276632761E+02 -0.23632171158E+02 -0.26296818681E+02  0.45272178506E+02  0.00000000000E+00 0. -1.
</event>
<event>
 7    1  0.2468912E-015  0.9000767E+02  0.7816164E-02  0.1186339E+00
        -11   -1    0    0    0    0  0.00000000000E+00  0.00000000000E+00  0.45593999997E+02  0.45594000000E+02  0.51100000000E-03 0.  1.
         11   -1    0    0    0    0 -0.00000000000E+00 -0.00000000000E+00 -0.45593999997E+02  0.45594000000E+02  0.51100000000E-03 0. -1.
    9900012    2    1    2    0    0 -0.10961150137E+00  0.64449058753E+00  0.98275439021E+00  0.90007665729E+02  0.89999926117E+02 0.  0.
         12    1    1    2    0    0  0.10961150137E+00 -0.64449058753E+00 -0.98275439021E+00  0.11803342705E+01  0.00000000000E+00 0. -1.
         11    1    3    3    0    0  0.32711554072E+02 -0.15615952549E+02  0.12404608698E+02  0.38311591732E+02  0.51100000000E-03 0. -1.
        -11    1    3    3    0    0  0.17079338540E+01 -0.77094990498E+01 -0.45233531027E+01  0.91002273159E+01  0.51100000000E-03 0.  1.
        -12    1    3    3    0    0 -0.34529099427E+02  0.23969942186E+02 -0.68985012049E+01  0.42595846682E+02  0.00000000000E+00 0.  1.
</event>
<event>
 7    1  0.2468912E-015  0.9000774E+02  0.7816164E-02  0.1186339E+00
        -11   -1    0    0    0    0  0.00000000000E+00  0.00000000000E+00  0.45593999997E+02  0.45594000000E+02  0.51100000000E-03 0. -1.
         11   -1    0    0    0    0 -0.00000000000E+00 -0.00000000000E+00 -0.45593999997E+02  0.45594000000E+02  0.51100000000E-03 0.  1.
    9900012    2    1    2    0    0  0.77658826585E+00 -0.87500949552E+00 -0.15586637091E+00  0.90007735082E+02  0.89999996385E+02 0.  0.
         12    1    1    2    0    0 -0.77658826585E+00  0.87500949552E+00  0.15586637091E+00  0.11802649183E+01  0.00000000000E+00 0. -1.
         11    1    3    3    0    0  0.81084962816E+01  0.12179315560E+01  0.55389148158E+00  0.82181424457E+01  0.51100000000E-03 0. -1.
        -11    1    3    3    0    0  0.24859139917E+02 -0.27477039665E+02  0.11868688801E+02  0.38907972451E+02  0.51100000000E-03 0.  1.
         12    1    3    3    0    0 -0.32191047933E+02  0.25384098613E+02 -0.12578446653E+02  0.42881620185E+02  0.00000000000E+00 0. -1.
</event>
<event>
 7    1  0.2468912E-015  0.9000815E+02  0.7816164E-02  0.1186338E+00
        -11   -1    0    0    0    0  0.00000000000E+00  0.00000000000E+00  0.45593999997E+02  0.45594000000E+02  0.51100000000E-03 0.  1.
         11   -1    0    0    0    0 -0.00000000000E+00 -0.00000000000E+00 -0.45593999997E+02  0.45594000000E+02  0.51100000000E-03 0. -1.
    9900012    2    1    2    0    0  0.76315748183E+00  0.79292660576E+00  0.42532581415E+00  0.90008150860E+02  0.90000417651E+02 0.  0.
         12    1    1    2    0    0 -0.76315748183E+00 -0.79292660576E+00 -0.42532581415E+00  0.11798491397E+01  0.00000000000E+00 0. -1.
         11    1    3    3    0    0  0.77231403198E+01 -0.11295339147E+02  0.69097326721E+00  0.13700694404E+02  0.51100000000E-03 0. -1.
        -11    1    3    3    0    0  0.19712022529E+02  0.11524354652E+02  0.28866531382E+02  0.36805586758E+02  0.51100000000E-03 0.  1.
         12    1    3    3    0    0 -0.26672005367E+02  0.56391110094E+00 -0.29132178835E+02  0.39501869698E+02  0.00000000000E+00 0. -1.
</event>
<event>
 7    1  0.2468912E-015  0.9000778E+02  0.7816164E-02  0.1186339E+00
        -11   -1    0    0    0    0  0.00000000000E+00  0.00000000000E+00  0.45593999997E+02  0.45594000000E+02  0.51100000000E-03 0. -1.
         11   -1    0    0    0    0 -0.00000000000E+00 -0.00000000000E+00 -0.45593999997E+02  0.45594000000E+02  0.51100000000E-03 0.  1.
    9900012    2    1    2    0    0  0.89348104722E+00  0.35845078423E+00  0.68273979159E+00  0.90007775882E+02  0.90000037723E+02 0.  0.
         12    1    1    2    0    0 -0.89348104722E+00 -0.35845078423E+00 -0.68273979159E+00  0.11802241183E+01  0.00000000000E+00 0. -1.
         11    1    3    3    0    0 -0.25341195693E+02  0.31634342579E+02 -0.14634940480E+01  0.40559211588E+02  0.51100000000E-03 0. -1.
        -11    1    3    3    0    0  0.62739624566E+01  0.17972806431E+01  0.80575626814E+01  0.10369047171E+02  0.51100000000E-03 0.  1.
        -12    1    3    3    0    0  0.19960714284E+02 -0.33073172438E+02 -0.59113288419E+01  0.39079517122E+02  0.00000000000E+00 0.  1.
</event>
<event>
 7    1  0.2468912E-015  0.9000775E+02  0.7816164E-02  0.1186339E+00
        -11   -1    0    0    0    0  0.00000000000E+00  0.00000000000E+00  0.45593999997E+02  0.45594000000E+02  0.51100000000E-03 0.  1.
         11   -1    0    0    0    0 -0.00000000000E+00 -0.00000000000E+00 -0.45593999997E+02  0.45594000000E+02  0.51100000000E-03 0. -1.
    9900012    2    1    2    0    0 -0.14776801294E+00 -0.49831535568E+00  0.10596382049E+01  0.90007751422E+02  0.90000012941E+02 0.  0.
         12    1    1    2    0    0  0.14776801294E+00  0.49831535568E+00 -0.10596382049E+01  0.11802485775E+01  0.00000000000E+00 0. -1.
         11    1    3    3    0    0 -0.26615380412E+02  0.25150053906E+02 -0.19488848118E+02  0.41481548756E+02  0.51100000000E-03 0. -1.
        -11    1    3    3    0    0  0.87776910551E+01  0.29370984589E+01  0.25548317374E+00  0.92595723190E+01  0.51100000000E-03 0.  1.
        -12    1    3    3    0    0  0.17689921344E+02 -0.28585467721E+02  0.20293003149E+02  0.39266630347E+02  0.00000000000E+00 0.  1.
</event>
<event>
 7    1  0.2468912E-015  0.9000766E+02  0.7816164E-02  0.1186339E+00
        -11   -1    0    0    0    0  0.00000000000E+00  0.00000000000E+00  0.45593999997E+02  0.45594000000E+02  0.51100000000E-03 0.  1.
         11   -1    0    0    0    0 -0.00000000000E+00 -0.00000000000E+00 -0.45593999997E+02  0.45594000000E+02  0.51100000000E-03 0. -1.
    9900012    2    1    2    0    0 -0.10240080161E+01 -0.20145865208E+00 -0.55138809718E+00  0.90007658168E+02  0.89999918456E+02 0.  0.
         12    1    1    2    0    0  0.10240080161E+01  0.20145865208E+00  0.55138809718E+00  0.11803418315E+01  0.00000000000E+00 0. -1.
         11    1    3    3    0    0 -0.24924273546E+02 -0.30646703260E+02  0.99835904634E+01  0.40744470929E+02  0.51100000000E-03 0. -1.
        -11    1    3    3    0    0 -0.34061951899E+01 -0.30788446895E+00 -0.72371391743E+01  0.80045700826E+01  0.51100000000E-03 0.  1.
        -12    1    3    3    0    0  0.27306460720E+02  0.30753129077E+02 -0.32978393863E+01  0.41258617157E+02  0.00000000000E+00 0.  1.
</event>
<event>
 7    1  0.2468912E-015  0.9000777E+02  0.7816164E-02  0.1186339E+00
        -11   -1    0    0    0    0  0.00000000000E+00  0.00000000000E+00  0.45593999997E+02  0.45594000000E+02  0.51100000000E-03 0.  1.
         11   -1    0    0    0    0 -0.00000000000E+00 -0.00000000000E+00 -0.45593999997E+02  0.45594000000E+02  0.51100000000E-03 0. -1.
    9900012    2    1    2    0    0  0.52361019876E+00  0.12112052817E+00  0.10507609594E+01  0.90007772727E+02  0.90000034527E+02 0.  0.
         12    1    1    2    0    0 -0.52361019876E+00 -0.12112052817E+00 -0.10507609594E+01  0.11802272732E+01  0.00000000000E+00 0. -1.
         11    1    3    3    0    0 -0.54183627749E+01 -0.26486437785E+02 -0.23296045829E+02  0.35687473898E+02  0.51100000000E-03 0. -1.
        -11    1    3    3    0    0  0.14308035314E+01 -0.76238783370E+01 -0.48114133216E+01  0.91280018654E+01  0.51100000000E-03 0.  1.
        -12    1    3    3    0    0  0.45111694422E+01  0.34231436650E+02  0.29158220110E+02  0.45192296963E+02  0.00000000000E+00 0.  1.
</event>
<event>
 7    1  0.2468912E-015  0.9000780E+02  0.7816164E-02  0.1186339E+00
        -11   -1    0    0    0    0  0.00000000000E+00  0.00000000000E+00  0.45593999997E+02  0.45594000000E+02  0.51100000000E-03 0. -1.
         11   -1    0    0    0    0 -0.00000000000E+00 -0.00000000000E+00 -0.45593999997E+02  0.45594000000E+02  0.51100000000E-03 0.  1.
    9900012    2    1    2    0    0  0.35369945622E+00  0.10984094352E+01  0.24749697067E+00  0.90007804532E+02  0.90000066752E+02 0.  0.
         12    1    1    2    0    0 -0.35369945622E+00 -0.10984094352E+01 -0.24749697067E+00  0.11801954682E+01  0.00000000000E+00 0. -1.
         11    1    3    3    0    0 -0.82662221613E+01  0.19374905872E+01 -0.37877808216E+01  0.92968587388E+01  0.51100000000E-03 0. -1.
        -11    1    3    3    0    0  0.21545422194E+02  0.35220927095E+02  0.84714710596E+01  0.42148365866E+02  0.51100000000E-03 0.  1.
         12    1    3    3    0    0 -0.12925500577E+02 -0.36060008247E+02 -0.44361932673E+01  0.38562579927E+02  0.00000000000E+00 0. -1.
</event>
<event>
 7    1  0.2468912E-015  0.9000776E+02  0.7816164E-02  0.1186339E+00
        -11   -1    0    0    0    0  0.00000000000E+00  0.00000000000E+00  0.45593999997E+02  0.45594000000E+02  0.51100000000E-03 0.  1.
         11   -1    0    0    0    0 -0.00000000000E+00 -0.00000000000E+00 -0.45593999997E+02  0.45594000000E+02  0.51100000000E-03 0. -1.
    9900012    2    1    2    0    0  0.11287572180E+01  0.63612390031E-02  0.34472570247E+00  0.90007758867E+02  0.90000020484E+02 0.  0.
         12    1    1    2    0    0 -0.11287572180E+01 -0.63612390031E-02 -0.34472570247E+00  0.11802411332E+01  0.00000000000E+00 0. -1.
         11    1    3    3    0    0 -0.53730303877E+01  0.33973751568E+01 -0.87231771711E+01  0.10793768282E+02  0.51100000000E-03 0. -1.
        -11    1    3    3    0    0 -0.14574087858E+02  0.41152527861E+01  0.39004385611E+02  0.41841145295E+02  0.51100000000E-03 0.  1.
         12    1    3    3    0    0  0.21075875464E+02 -0.75062667039E+01 -0.29936482737E+02  0.37372845290E+02  0.00000000000E+00 0. -1.
</event>
<event>
 7    1  0.2468912E-015  0.9000769E+02  0.7816164E-02  0.1186339E+00
        -11   -1    0    0    0    0  0.00000000000E+00  0.00000000000E+00  0.45593999997E+02  0.45594000000E+02  0.51100000000E-03 0. -1.
         11   -1    0    0    0    0 -0.00000000000E+00 -0.00000000000E+00 -0.45593999997E+02  0.45594000000E+02  0.51100000000E-03 0.  1.
    9900012    2    1    2    0    0 -0.11292263844E+01 -0.27198260522E+00 -0.20975566900E+00  0.90007693173E+02  0.89999953923E+02 0.  0.
         12    1    1    2    0    0  0.11292263844E+01  0.27198260522E+00  0.20975566900E+00  0.11803068268E+01  0.00000000000E+00 0. -1.
         11    1    3    3    0    0 -0.83842952930E+01 -0.36089793183E+01 -0.43858722037E+01  0.10127043721E+02  0.51100000000E-03 0. -1.
        -11    1    3    3    0    0  0.39959928280E+01 -0.27937214423E+02 -0.24463931902E+02  0.37348893863E+02  0.51100000000E-03 0.  1.
         12    1    3    3    0    0  0.32590760807E+01  0.31274211136E+02  0.28640048436E+02  0.42531755590E+02  0.00000000000E+00 0. -1.
</event>
<event>
 7    1  0.2468912E-015  0.9000776E+02  0.7816164E-02  0.1186339E+00
        -11   -1    0    0    0    0  0.00000000000E+00  0.00000000000E+00  0.45593999997E+02  0.45594000000E+02  0.51100000000E-03 0.  1.
         11   -1    0    0    0    0 -0.00000000000E+00 -0.00000000000E+00 -0.45593999997E+02  0.45594000000E+02  0.51100000000E-03 0. -1.
    9900012    2    1    2    0    0  0.12252846969E+00 -0.67860333778E-01  0.11719039171E+01  0.90007755516E+02  0.90000017089E+02 0.  0.
         12    1    1    2    0    0 -0.12252846969E+00  0.67860333778E-01 -0.11719039171E+01  0.11802444838E+01  0.00000000000E+00 0. -1.
         11    1    3    3    0    0  0.48700294686E+01 -0.81420122585E+01 -0.37829049484E+01  0.10213712388E+02  0.51100000000E-03 0. -1.
        -11    1    3    3    0    0  0.10377921618E+02 -0.99659354803E+01  0.37190702396E+02  0.39876929071E+02  0.51100000000E-03 0.  1.
         12    1    3    3    0    0 -0.15125422617E+02  0.18040087405E+02 -0.32235893531E+02  0.39917114057E+02  0.00000000000E+00 0. -1.
</event>
<event>
 7    1  0.2468912E-015  0.9000793E+02  0.7816164E-02  0.1186339E+00
        -11   -1    0    0    0    0  0.00000000000E+00  0.00000000000E+00  0.45593999997E+02  0.45594000000E+02  0.51100000000E-03 0. -1.
         11   -1    0    0    0    0 -0.00000000000E+00 -0.00000000000E+00 -0.45593999997E+02  0.45594000000E+02  0.51100000000E-03 0.  1.
    9900012    2    1    2    0    0 -0.84204715759E-01  0.21122195498E-01 -0.11768747174E+01  0.90007927679E+02  0.90000191525E+02 0.  0.
         12    1    1    2    0    0  0.84204715759E-01 -0.21122195498E-01  0.11768747174E+01  0.11800723206E+01  0.00000000000E+00 0. -1.
         11    1    3    3    0    0  0.30908767463E+02 -0.80380551505E+01  0.14842238174E+02  0.35217243943E+02  0.51100000000E-03 0. -1.
        -11    1    3    3    0    0  0.77579248928E+01 -0.58244787245E+01 -0.86006219757E+01  0.12964592153E+02  0.51100000000E-03 0.  1.
        -12    1    3    3    0    0 -0.38750897071E+02  0.13883656071E+02 -0.74184909158E+01  0.41826091584E+02  0.00000000000E+00 0.  1.
</event>
<event>
 7    1  0.2468912E-015  0.9000773E+02  0.7816164E-02  0.1186339E+00
        -11   -1    0    0    0    0  0.00000000000E+00  0.00000000000E+00  0.45593999997E+02  0.45594000000E+02  0.51100000000E-03 0. -1.
         11   -1    0    0    0    0 -0.00000000000E+00 -0.00000000000E+00 -0.45593999997E+02  0.45594000000E+02  0.51100000000E-03 0.  1.
    9900012    2    1    2    0    0 -0.41567910130E-01 -0.36896020755E+00 -0.11203490035E+01  0.90007728245E+02  0.89999989458E+02 0.  0.
         12    1    1    2    0    0  0.41567910130E-01  0.36896020755E+00  0.11203490035E+01  0.11802717550E+01  0.00000000000E+00 0. -1.
         11    1    3    3    0    0  0.70270026266E+01 -0.79878837193E+01  0.77162829700E+01  0.13142529260E+02  0.51100000000E-03 0. -1.
        -11    1    3    3    0    0  0.14770161087E+02 -0.29123439939E+02  0.21744378349E+01  0.32727062083E+02  0.51100000000E-03 0.  1.
         12    1    3    3    0    0 -0.21838731624E+02  0.36742363450E+02 -0.11011069808E+02  0.44138136902E+02  0.00000000000E+00 0. -1.
</event>
<event>
 7    1  0.2468912E-015  0.9000771E+02  0.7816164E-02  0.1186339E+00
        -11   -1    0    0    0    0  0.00000000000E+00  0.00000000000E+00  0.45593999997E+02  0.45594000000E+02  0.51100000000E-03 0.  1.
         11   -1    0    0    0    0 -0.00000000000E+00 -0.00000000000E+00 -0.45593999997E+02  0.45594000000E+02  0.51100000000E-03 0. -1.
    9900012    2    1    2    0    0  0.53118683479E+00 -0.98442746654E+00  0.37660925723E+00  0.90007707061E+02  0.89999967994E+02 0.  0.
         12    1    1    2    0    0 -0.53118683479E+00  0.98442746654E+00 -0.37660925723E+00  0.11802929395E+01  0.00000000000E+00 0. -1.
         11    1    3    3    0    0  0.64200606703E+01  0.74586374247E+01 -0.19873277710E+01  0.10039816889E+02  0.51100000000E-03 0. -1.
        -11    1    3    3    0    0  0.20490761528E+02  0.12318923368E+02  0.28661182306E+02  0.37324128287E+02  0.51100000000E-03 0.  1.
         12    1    3    3    0    0 -0.26379635364E+02 -0.20761988260E+02 -0.26297245278E+02  0.42643761884E+02  0.00000000000E+00 0. -1.
</event>
<event>
 7    1  0.2468912E-015  0.9000775E+02  0.7816164E-02  0.1186339E+00
        -11   -1    0    0    0    0  0.00000000000E+00  0.00000000000E+00  0.45593999997E+02  0.45594000000E+02  0.51100000000E-03 0.  1.
         11   -1    0    0    0    0 -0.00000000000E+00 -0.00000000000E+00 -0.45593999997E+02  0.45594000000E+02  0.51100000000E-03 0. -1.
    9900012    2    1    2    0    0 -0.10227065264E+01  0.58657614166E+00  0.54665342985E-01  0.90007750658E+02  0.90000012167E+02 0.  0.
         12    1    1    2    0    0  0.10227065264E+01 -0.58657614166E+00 -0.54665342985E-01  0.11802493418E+01  0.00000000000E+00 0. -1.
         11    1    3    3    0    0 -0.98835598913E+01  0.93691131351E+01 -0.32232901821E+02  0.34991784710E+02  0.51100000000E-03 0. -1.
        -11    1    3    3    0    0 -0.85572885528E+01 -0.14938262327E+00 -0.70816894752E+01  0.11108547548E+02  0.51100000000E-03 0.  1.
        -12    1    3    3    0    0  0.17418141918E+02 -0.86331543702E+01  0.39369256640E+02  0.43907418401E+02  0.00000000000E+00 0.  1.
</event>
<event>
 7    1  0.2468912E-015  0.9000773E+02  0.7816164E-02  0.1186339E+00
        -11   -1    0    0    0    0  0.00000000000E+00  0.00000000000E+00  0.45593999997E+02  0.45594000000E+02  0.51100000000E-03 0.  1.
         11   -1    0    0    0    0 -0.00000000000E+00 -0.00000000000E+00 -0.45593999997E+02  0.45594000000E+02  0.51100000000E-03 0. -1.
    9900012    2    1    2    0    0 -0.16047231598E+00 -0.51259596738E+00  0.10509713922E+01  0.90007725940E+02  0.89999987122E+02 0.  0.
         12    1    1    2    0    0  0.16047231598E+00  0.51259596738E+00 -0.10509713922E+01  0.11802740602E+01  0.00000000000E+00 0. -1.
         11    1    3    3    0    0  0.95368180489E+01 -0.16824579744E+01 -0.67585883386E+00  0.97076438314E+01  0.51100000000E-03 0. -1.
        -11    1    3    3    0    0  0.34013342561E+02 -0.71838869046E+01 -0.55605633026E+01  0.35205618412E+02  0.51100000000E-03 0.  1.
         12    1    3    3    0    0 -0.43710632926E+02  0.83537489116E+01  0.72873935287E+01  0.45094463697E+02  0.00000000000E+00 0. -1.
</event>
<event>
 7    1  0.2468912E-015  0.9000770E+02  0.7816164E-02  0.1186339E+00
        -11   -1    0    0    0    0  0.00000000000E+00  0.00000000000E+00  0.45593999997E+02  0.45594000000E+02  0.51100000000E-03 0. -1.
         11   -1    0    0    0    0 -0.00000000000E+00 -0.00000000000E+00 -0.45593999997E+02  0.45594000000E+02  0.51100000000E-03 0.  1.
    9900012    2    1    2    0    0 -0.44065119749E+00  0.34492502019E+00 -0.10392139710E+01  0.90007698164E+02  0.89999958979E+02 0.  0.
         12    1    1    2    0    0  0.44065119749E+00 -0.34492502019E+00  0.10392139710E+01  0.11803018364E+01  0.00000000000E+00 0. -1.
         11    1    3    3    0    0  0.12066556322E+01  0.20370836556E+01  0.60709452609E+01  0.65162952861E+01  0.51100000000E-03 0. -1.
        -11    1    3    3    0    0 -0.21412772748E+01 -0.34995660117E+02 -0.27393989712E+02  0.44493954286E+02  0.51100000000E-03 0.  1.
         12    1    3    3    0    0  0.49397044511E+00  0.33303501481E+02  0.20283830480E+02  0.38997448592E+02  0.00000000000E+00 0. -1.
</event>
<event>
 7    1  0.2468912E-015  0.9000771E+02  0.7816164E-02  0.1186339E+00
        -11   -1    0    0    0    0  0.00000000000E+00  0.00000000000E+00  0.45593999997E+02  0.45594000000E+02  0.51100000000E-03 0. -1.
         11   -1    0    0    0    0 -0.00000000000E+00 -0.00000000000E+00 -0.45593999997E+02  0.45594000000E+02  0.51100000000E-03 0.  1.
    9900012    2    1    2    0    0 -0.47665283865E+00 -0.47513227011E+00 -0.96960547637E+00  0.90007710467E+02  0.89999971445E+02 0.  0.
         12    1    1    2    0    0  0.47665283865E+00  0.47513227011E+00  0.96960547637E+00  0.11802895333E+01  0.00000000000E+00 0. -1.
         11    1    3    3    0    0  0.59995036651E+00 -0.30021510138E+02 -0.18831845617E+02  0.35444173301E+02  0.51100000000E-03 0. -1.
        -11    1    3    3    0    0 -0.16101187438E+01 -0.85644921016E+01 -0.50699033135E+01  0.10082010077E+02  0.51100000000E-03 0.  1.
        -12    1    3    3    0    0  0.53351553862E+00  0.38110869970E+02  0.22932143454E+02  0.44481527088E+02  0.00000000000E+00 0.  1.
</event>
<event>
 7    1  0.2468912E-015  0.9000755E+02  0.7816164E-02  0.1186339E+00
        -11   -1    0    0    0    0  0.00000000000E+00  0.00000000000E+00  0.45593999997E+02  0.45594000000E+02  0.51100000000E-03 0.  1.
         11   -1    0    0    0    0 -0.00000000000E+00 -0.00000000000E+00 -0.45593999997E+02  0.45594000000E+02  0.51100000000E-03 0. -1.
    9900012    2    1    2    0    0  0.34090875007E+00 -0.10722133379E+01  0.35722186908E+00  0.90007547679E+02  0.89999806508E+02 0.  0.
         12    1    1    2    0    0 -0.34090875007E+00  0.10722133379E+01 -0.35722186908E+00  0.11804523207E+01  0.00000000000E+00 0. -1.
         11    1    3    3    0    0 -0.32009941544E+02  0.11474165502E+02  0.15754115234E+02  0.37476458993E+02  0.51100000000E-03 0. -1.
        -11    1    3    3    0    0 -0.41890296498E+00  0.10261043232E+02 -0.24345378139E+01  0.10554215391E+02  0.51100000000E-03 0.  1.
        -12    1    3    3    0    0  0.32769753259E+02 -0.22807422072E+02 -0.12962355551E+02  0.41976873295E+02  0.00000000000E+00 0.  1.
</event>
<event>
 7    1  0.2468912E-015  0.9000774E+02  0.7816164E-02  0.1186339E+00
        -11   -1    0    0    0    0  0.00000000000E+00  0.00000000000E+00  0.45593999997E+02  0.45594000000E+02  0.51100000000E-03 0. -1.
         11   -1    0    0    0    0 -0.00000000000E+00 -0.00000000000E+00 -0.45593999997E+02  0.45594000000E+02  0.51100000000E-03 0.  1.
    9900012    2    1    2    0    0  0.11336935882E+01 -0.11934392096E+00 -0.30579152508E+00  0.90007740461E+02  0.90000001835E+02 0.  0.
         12    1    1    2    0    0 -0.11336935882E+01  0.11934392096E+00  0.30579152508E+00  0.11802595394E+01  0.00000000000E+00 0. -1.
         11    1    3    3    0    0 -0.44186655054E+01  0.34119143987E+01 -0.22130698802E+01  0.60052846118E+01  0.51100000000E-03 0. -1.
        -11    1    3    3    0    0 -0.49110478812E+01  0.11102414579E+02 -0.38180020225E+02  0.40063648679E+02  0.51100000000E-03 0.  1.
         12    1    3    3    0    0  0.10463406975E+02 -0.14633672899E+02  0.40087298581E+02  0.43938807170E+02  0.00000000000E+00 0. -1.
</event>
<event>
 7    1  0.2468912E-015  0.9000783E+02  0.7816164E-02  0.1186339E+00
        -11   -1    0    0    0    0  0.00000000000E+00  0.00000000000E+00  0.45593999997E+02  0.45594000000E+02  0.51100000000E-03 0.  1.
         11   -1    0    0    0    0 -0.00000000000E+00 -0.00000000000E+00 -0.45593999997E+02  0.45594000000E+02  0.51100000000E-03 0. -1.
    9900012    2    1    2    0    0  0.81652793681E+00 -0.83560031274E+00 -0.16692326144E+00  0.90007826653E+02  0.90000089165E+02 0.  0.
         12    1    1    2    0    0 -0.81652793681E+00  0.83560031274E+00  0.16692326144E+00  0.11801733472E+01  0.00000000000E+00 0. -1.
         11    1    3    3    0    0 -0.14227640749E+02  0.32569892088E+02  0.69067706313E+01  0.36206727451E+02  0.51100000000E-03 0. -1.
        -11    1    3    3    0    0 -0.10627219443E+02 -0.22405074636E+01  0.45638448322E+01  0.11780761719E+02  0.51100000000E-03 0.  1.
        -12    1    3    3    0    0  0.25671388129E+02 -0.31164984937E+02 -0.11637538725E+02  0.42020337482E+02  0.00000000000E+00 0.  1.
</event>
<event>
 7    1  0.2468912E-015  0.9000768E+02  0.7816164E-02  0.1186339E+00
        -11   -1    0    0    0    0  0.00000000000E+00  0.00000000000E+00  0.45593999997E+02  0.45594000000E+02  0.51100000000E-03 0. -1.
         11   -1    0    0    0    0 -0.00000000000E+00 -0.00000000000E+00 -0.45593999997E+02  0.45594000000E+02  0.51100000000E-03 0.  1.
    9900012    2    1    2    0    0  0.19696475680E+00 -0.54315858417E+00 -0.10292428515E+01  0.90007679192E+02  0.89999939757E+02 0.  0.
         12    1    1    2    0    0 -0.19696475680E+00  0.54315858417E+00  0.10292428515E+01  0.11803208082E+01  0.00000000000E+00 0. -1.
         11    1    3    3    0    0  0.30998938207E+01  0.12014506940E+02 -0.46191082353E+01  0.13239859510E+02  0.51100000000E-03 0. -1.
        -11    1    3    3    0    0 -0.35286037601E+01  0.83686365102E+01 -0.33210020420E+02  0.34429501566E+02  0.51100000000E-03 0.  1.
         12    1    3    3    0    0  0.62567469629E+00 -0.20926302034E+02  0.36799885804E+02  0.42338318115E+02  0.00000000000E+00 0. -1.
</event>
<event>
 7    1  0.2468912E-015  0.9000769E+02  0.7816164E-02  0.1186339E+00
        -11   -1    0    0    0    0  0.00000000000E+00  0.00000000000E+00  0.45593999997E+02  0.45594000000E+02  0.51100000000E-03 0. -1.
         11   -1    0    0    0    0 -0.00000000000E+00 -0.00000000000E+00 -0.45593999997E+02  0.45594000000E+02  0.51100000000E-03 0.  1.
    9900012    2    1    2    0    0  0.11126835085E+01 -0.11621227104E+00 -0.37625499954E+00  0.90007687454E+02  0.89999948128E+02 0.  0.
         12    1    1    2    0    0 -0.11126835085E+01  0.11621227104E+00  0.37625499954E+00  0.11803125462E+01  0.00000000000E+00 0. -1.
         11    1    3    3    0    0 -0.26515435384E+01 -0.13138274743E+02 -0.34750471672E+01  0.13846331624E+02  0.51100000000E-03 0. -1.
        -11    1    3    3    0    0 -0.25971471281E+02 -0.19156096628E+02  0.62783854298E+00  0.32277972985E+02  0.51100000000E-03 0.  1.
         12    1    3    3    0    0  0.29735698328E+02  0.32178159100E+02  0.24709536247E+01  0.43883382845E+02  0.00000000000E+00 0. -1.
</event>
<event>
 7    1  0.2468912E-015  0.9000772E+02  0.7816164E-02  0.1186339E+00
        -11   -1    0    0    0    0  0.00000000000E+00  0.00000000000E+00  0.45593999997E+02  0.45594000000E+02  0.51100000000E-03 0.  1.
         11   -1    0    0    0    0 -0.00000000000E+00 -0.00000000000E+00 -0.45593999997E+02  0.45594000000E+02  0.51100000000E-03 0. -1.
    9900012    2    1    2    0    0  0.28620175569E+00  0.10119447883E+01  0.53583178134E+00  0.90007720627E+02  0.89999981740E+02 0.  0.
         12    1    1    2    0    0 -0.28620175569E+00 -0.10119447883E+01 -0.53583178134E+00  0.11802793726E+01  0.00000000000E+00 0. -1.
         11    1    3    3    0    0  0.89574164920E+01 -0.14812248023E+02 -0.52803591963E+01  0.18097519034E+02  0.51100000000E-03 0. -1.
        -11    1    3    3    0    0 -0.11415280945E+02 -0.26295055801E+02  0.76255399000E+01  0.29662896987E+02  0.51100000000E-03 0.  1.
         12    1    3    3    0    0  0.27440662087E+01  0.42119248612E+02 -0.18093489224E+01  0.42247304606E+02  0.00000000000E+00 0. -1.
</event>
<event>
 7    1  0.3166521E-015  0.9000766E+02  0.7816164E-02  0.1186339E+00
        -11   -1    0    0    0    0  0.00000000000E+00  0.00000000000E+00  0.45593999997E+02  0.45594000000E+02  0.51100000000E-03 0. -1.
         11   -1    0    0    0    0 -0.00000000000E+00 -0.00000000000E+00 -0.45593999997E+02  0.45594000000E+02  0.51100000000E-03 0.  1.
    9900012    2    1    2    0    0 -0.57994615100E+00 -0.74268158080E+00 -0.71084005824E+00  0.90007658076E+02  0.89999918363E+02 0.  0.
         12    1    1    2    0    0  0.57994615100E+00  0.74268158080E+00  0.71084005824E+00  0.11803419237E+01  0.00000000000E+00 0. -1.
         11    1    3    3    0    0  0.14782978780E+02  0.66875966013E+01  0.35409150996E+02  0.38949562057E+02  0.51100000000E-03 0. -1.
        -11    1    3    3    0    0 -0.13211601006E+01 -0.94586730719E+01  0.25354326154E+01  0.98813146444E+01  0.51100000000E-03 0.  1.
        -12    1    3    3    0    0 -0.14041764830E+02  0.20283948898E+01 -0.38655423669E+02  0.41176781375E+02  0.00000000000E+00 0.  1.
</event>
<event>
 7    1  0.2468912E-015  0.9000769E+02  0.7816164E-02  0.1186339E+00
        -11   -1    0    0    0    0  0.00000000000E+00  0.00000000000E+00  0.45593999997E+02  0.45594000000E+02  0.51100000000E-03 0.  1.
         11   -1    0    0    0    0 -0.00000000000E+00 -0.00000000000E+00 -0.45593999997E+02  0.45594000000E+02  0.51100000000E-03 0. -1.
    9900012    2    1    2    0    0  0.38783946433E+00  0.37722440679E+00  0.10490108033E+01  0.90007685903E+02  0.89999946556E+02 0.  0.
         12    1    1    2    0    0 -0.38783946433E+00 -0.37722440679E+00 -0.10490108033E+01  0.11803140974E+01  0.00000000000E+00 0. -1.
         11    1    3    3    0    0 -0.49644960698E+01 -0.19073802027E+00  0.98143341968E+01  0.11000170826E+02  0.51100000000E-03 0. -1.
        -11    1    3    3    0    0 -0.30461362380E+02 -0.20716443662E+02 -0.32166477600E+01  0.36978540522E+02  0.51100000000E-03 0.  1.
         12    1    3    3    0    0  0.35813697914E+02  0.21284406089E+02 -0.55486756336E+01  0.42028974555E+02  0.00000000000E+00 0. -1.
</event>
<event>
 7    1  0.2468912E-015  0.9000787E+02  0.7816164E-02  0.1186339E+00
        -11   -1    0    0    0    0  0.00000000000E+00  0.00000000000E+00  0.45593999997E+02  0.45594000000E+02  0.51100000000E-03 0. -1.
         11   -1    0    0    0    0 -0.00000000000E+00 -0.00000000000E+00 -0.45593999997E+02  0.45594000000E+02  0.51100000000E-03 0.  1.
    9900012    2    1    2    0    0  0.23134355344E+00 -0.26994302980E+00 -0.11253044541E+01  0.90007873230E+02  0.90000136356E+02 0.  0.
         12    1    1    2    0    0 -0.23134355344E+00  0.26994302980E+00  0.11253044541E+01  0.11801267701E+01  0.00000000000E+00 0. -1.
         11    1    3    3    0    0 -0.33055516704E+02  0.24155054412E+02  0.50828160286E+01  0.41254925248E+02  0.51100000000E-03 0. -1.
        -11    1    3    3    0    0 -0.39732596751E+01 -0.30985809931E+01  0.12178022049E+01  0.51837283000E+01  0.51100000000E-03 0.  1.
        -12    1    3    3    0    0  0.37260119932E+02 -0.21326416448E+02 -0.74259226876E+01  0.43569219682E+02  0.00000000000E+00 0.  1.
</event>
<event>
 7    1  0.2468912E-015  0.9000779E+02  0.7816164E-02  0.1186339E+00
        -11   -1    0    0    0    0  0.00000000000E+00  0.00000000000E+00  0.45593999997E+02  0.45594000000E+02  0.51100000000E-03 0.  1.
         11   -1    0    0    0    0 -0.00000000000E+00 -0.00000000000E+00 -0.45593999997E+02  0.45594000000E+02  0.51100000000E-03 0. -1.
    9900012    2    1    2    0    0  0.65783840078E+00 -0.77455344187E-01  0.97680533723E+00  0.90007788426E+02  0.90000050434E+02 0.  0.
         12    1    1    2    0    0 -0.65783840078E+00  0.77455344187E-01 -0.97680533723E+00  0.11802115737E+01  0.00000000000E+00 0. -1.
         11    1    3    3    0    0 -0.11886935489E+01  0.10120896990E+02  0.27180314695E+01  0.10546717193E+02  0.51100000000E-03 0. -1.
        -11    1    3    3    0    0 -0.31399598568E+02 -0.22596534121E+02 -0.15126960868E+02  0.41537490173E+02  0.51100000000E-03 0.  1.
         12    1    3    3    0    0  0.33246130518E+02  0.12398181787E+02  0.13385734736E+02  0.37923581060E+02  0.00000000000E+00 0. -1.
</event>
<event>
 7    1  0.2468912E-015  0.9000778E+02  0.7816164E-02  0.1186339E+00
        -11   -1    0    0    0    0  0.00000000000E+00  0.00000000000E+00  0.45593999997E+02  0.45594000000E+02  0.51100000000E-03 0.  1.
         11   -1    0    0    0    0 -0.00000000000E+00 -0.00000000000E+00 -0.45593999997E+02  0.45594000000E+02  0.51100000000E-03 0. -1.
    9900012    2    1    2    0    0  0.84217243902E+00 -0.18046761381E+00  0.80690651671E+00  0.90007779214E+02  0.90000041100E+02 0.  0.
         12    1    1    2    0    0 -0.84217243902E+00  0.18046761381E+00 -0.80690651671E+00  0.11802207859E+01  0.00000000000E+00 0. -1.
         11    1    3    3    0    0 -0.20458524825E+02 -0.11283211441E+02  0.32790837960E+02  0.40262900452E+02  0.51100000000E-03 0. -1.
        -11    1    3    3    0    0  0.88187783161E+01 -0.10144233207E+02 -0.10604866723E+02  0.17121317613E+02  0.51100000000E-03 0.  1.
        -12    1    3    3    0    0  0.12481918948E+02  0.21246977034E+02 -0.21379064720E+02  0.32623561149E+02  0.00000000000E+00 0.  1.
</event>
<event>
 7    1  0.2468912E-015  0.9000775E+02  0.7816164E-02  0.1186339E+00
        -11   -1    0    0    0    0  0.00000000000E+00  0.00000000000E+00  0.45593999997E+02  0.45594000000E+02  0.51100000000E-03 0.  1.
         11   -1    0    0    0    0 -0.00000000000E+00 -0.00000000000E+00 -0.45593999997E+02  0.45594000000E+02  0.51100000000E-03 0. -1.
    9900012    2    1    2    0    0  0.66739293435E-02  0.11134597078E+01  0.39134501835E+00  0.90007750880E+02  0.90000012391E+02 0.  0.
         12    1    1    2    0    0 -0.66739293435E-02 -0.11134597078E+01 -0.39134501835E+00  0.11802491201E+01  0.00000000000E+00 0. -1.
         11    1    3    3    0    0 -0.23113531729E+01  0.20500124480E+02 -0.28714032580E+02  0.35356656013E+02  0.51100000000E-03 0. -1.
        -11    1    3    3    0    0 -0.81770602668E+01  0.51357506018E+01 -0.53799498710E+01  0.11053692131E+02  0.51100000000E-03 0.  1.
        -12    1    3    3    0    0  0.10495087369E+02 -0.24522415374E+02  0.34485327469E+02  0.43597402736E+02  0.00000000000E+00 0.  1.
</event>
<event>
 7    1  0.2468912E-015  0.9000771E+02  0.7816164E-02  0.1186339E+00
        -11   -1    0    0    0    0  0.00000000000E+00  0.00000000000E+00  0.45593999997E+02  0.45594000000E+02  0.51100000000E-03 0.  1.
         11   -1    0    0    0    0 -0.00000000000E+00 -0.00000000000E+00 -0.45593999997E+02  0.45594000000E+02  0.51100000000E-03 0. -1.
    9900012    2    1    2    0    0  0.73148658852E+00 -0.34882800736E+00  0.85809842225E+00  0.90007709142E+02  0.89999970102E+02 0.  0.
         12    1    1    2    0    0 -0.73148658852E+00  0.34882800736E+00 -0.85809842225E+00  0.11802908583E+01  0.00000000000E+00 0. -1.
         11    1    3    3    0    0 -0.32917873017E+02  0.53782839704E+01 -0.15719604991E+02  0.36873002098E+02  0.51100000000E-03 0. -1.
        -11    1    3    3    0    0 -0.72669602811E+01 -0.52501050334E+01 -0.52726085185E-01  0.89652158306E+01  0.51100000000E-03 0.  1.
        -12    1    3    3    0    0  0.40916319887E+02 -0.47700694441E+00  0.16630429498E+02  0.44169491213E+02  0.00000000000E+00 0.  1.
</event>
<event>
 7    1  0.2468912E-015  0.9000771E+02  0.7816164E-02  0.1186339E+00
        -11   -1    0    0    0    0  0.00000000000E+00  0.00000000000E+00  0.45593999997E+02  0.45594000000E+02  0.51100000000E-03 0.  1.
         11   -1    0    0    0    0 -0.00000000000E+00 -0.00000000000E+00 -0.45593999997E+02  0.45594000000E+02  0.51100000000E-03 0. -1.
    9900012    2    1    2    0    0 -0.15722306337E+00 -0.58145829954E+00  0.10150227070E+01  0.90007710230E+02  0.89999971205E+02 0.  0.
         12    1    1    2    0    0  0.15722306337E+00  0.58145829954E+00 -0.10150227070E+01  0.11802897701E+01  0.00000000000E+00 0. -1.
         11    1    3    3    0    0  0.14163488683E+01  0.85902649219E+01 -0.86250665815E-01  0.87066718661E+01  0.51100000000E-03 0. -1.
        -11    1    3    3    0    0 -0.29290756393E+01  0.31677211291E+02  0.18589241301E+02  0.36845421583E+02  0.51100000000E-03 0.  1.
         12    1    3    3    0    0  0.13555037076E+01 -0.40848934512E+02 -0.17487967928E+02  0.44455616780E+02  0.00000000000E+00 0. -1.
</event>
<event>
 7    1  0.2468912E-015  0.9000776E+02  0.7816164E-02  0.1186339E+00
        -11   -1    0    0    0    0  0.00000000000E+00  0.00000000000E+00  0.45593999997E+02  0.45594000000E+02  0.51100000000E-03 0.  1.
         11   -1    0    0    0    0 -0.00000000000E+00 -0.00000000000E+00 -0.45593999997E+02  0.45594000000E+02  0.51100000000E-03 0. -1.
    9900012    2    1    2    0    0  0.33820554540E+00  0.10407764169E+01  0.44199488162E+00  0.90007763576E+02  0.90000025255E+02 0.  0.
         12    1    1    2    0    0 -0.33820554540E+00 -0.10407764169E+01 -0.44199488162E+00  0.11802364239E+01  0.00000000000E+00 0. -1.
         11    1    3    3    0    0 -0.49464518207E+01 -0.84891917275E+01 -0.94745619997E+01  0.13649215624E+02  0.51100000000E-03 0. -1.
        -11    1    3    3    0    0 -0.10676251909E+02 -0.28345952277E+02  0.16873166178E+02  0.34672454520E+02  0.51100000000E-03 0.  1.
         12    1    3    3    0    0  0.15960909275E+02  0.37875920422E+02 -0.69566092971E+01  0.41686093432E+02  0.00000000000E+00 0. -1.
</event>
<event>
 7    1  0.2468912E-015  0.9000776E+02  0.7816164E-02  0.1186339E+00
        -11   -1    0    0    0    0  0.00000000000E+00  0.00000000000E+00  0.45593999997E+02  0.45594000000E+02  0.51100000000E-03 0. -1.
         11   -1    0    0    0    0 -0.00000000000E+00 -0.00000000000E+00 -0.45593999997E+02  0.45594000000E+02  0.51100000000E-03 0.  1.
    9900012    2    1    2    0    0  0.92949547995E+00  0.68685893758E+00 -0.23924960436E+00  0.90007755356E+02  0.90000016926E+02 0.  0.
         12    1    1    2    0    0 -0.92949547995E+00 -0.68685893758E+00  0.23924960436E+00  0.11802446444E+01  0.00000000000E+00 0. -1.
         11    1    3    3    0    0 -0.82904438083E+01  0.63740813406E+01 -0.15532609286E+02  0.18724911828E+02  0.51100000000E-03 0. -1.
        -11    1    3    3    0    0 -0.18934615387E+02 -0.25101121751E+02 -0.45103812860E+01  0.31763650808E+02  0.51100000000E-03 0.  1.
         12    1    3    3    0    0  0.28154554676E+02  0.19413899348E+02  0.19803740968E+02  0.39519192720E+02  0.00000000000E+00 0. -1.
</event>
<event>
 7    1  0.2468912E-015  0.9000749E+02  0.7816164E-02  0.1186340E+00
        -11   -1    0    0    0    0  0.00000000000E+00  0.00000000000E+00  0.45593999997E+02  0.45594000000E+02  0.51100000000E-03 0. -1.
         11   -1    0    0    0    0 -0.00000000000E+00 -0.00000000000E+00 -0.45593999997E+02  0.45594000000E+02  0.51100000000E-03 0.  1.
    9900012    2    1    2    0    0  0.47738699691E+00 -0.64833866898E+00 -0.86334233528E+00  0.90007491058E+02  0.89999749140E+02 0.  0.
         12    1    1    2    0    0 -0.47738699691E+00  0.64833866898E+00  0.86334233528E+00  0.11805089421E+01  0.00000000000E+00 0. -1.
         11    1    3    3    0    0 -0.29666515312E+02 -0.12733506256E+01 -0.19827493035E+02  0.35705084133E+02  0.51100000000E-03 0. -1.
        -11    1    3    3    0    0 -0.82526129950E+01 -0.57656530304E+01 -0.17360324675E+01  0.10215781179E+02  0.51100000000E-03 0.  1.
        -12    1    3    3    0    0  0.38396515304E+02  0.63906649870E+01  0.20700183168E+02  0.44086625746E+02  0.00000000000E+00 0.  1.
</event>
<event>
 7    1  0.2468912E-015  0.9000775E+02  0.7816164E-02  0.1186339E+00
        -11   -1    0    0    0    0  0.00000000000E+00  0.00000000000E+00  0.45593999997E+02  0.45594000000E+02  0.51100000000E-03 0.  1.
         11   -1    0    0    0    0 -0.00000000000E+00 -0.00000000000E+00 -0.45593999997E+02  0.45594000000E+02  0.51100000000E-03 0. -1.
    9900012    2    1    2    0    0 -0.40492429910E+00 -0.98748955743E+00  0.50386810426E+00  0.90007753254E+02  0.90000014797E+02 0.  0.
         12    1    1    2    0    0  0.40492429910E+00  0.98748955743E+00 -0.50386810426E+00  0.11802467456E+01  0.00000000000E+00 0. -1.
         11    1    3    3    0    0  0.32650570517E+02 -0.79783631861E+00  0.15732335439E+02  0.36251933418E+02  0.51100000000E-03 0. -1.
        -11    1    3    3    0    0  0.78280690681E+01 -0.63297178890E+01 -0.46074676865E+01  0.11071257952E+02  0.51100000000E-03 0.  1.
        -12    1    3    3    0    0 -0.40883563884E+02  0.61400646501E+01 -0.10620999648E+02  0.42684561885E+02  0.00000000000E+00 0.  1.
</event>
<event>
 7    1  0.2468912E-015  0.9000777E+02  0.7816164E-02  0.1186339E+00
        -11   -1    0    0    0    0  0.00000000000E+00  0.00000000000E+00  0.45593999997E+02  0.45594000000E+02  0.51100000000E-03 0. -1.
         11   -1    0    0    0    0 -0.00000000000E+00 -0.00000000000E+00 -0.45593999997E+02  0.45594000000E+02  0.51100000000E-03 0.  1.
    9900012    2    1    2    0    0  0.29207374491E+00 -0.10020857094E+01 -0.55086633449E+00  0.90007772666E+02  0.90000034465E+02 0.  0.
         12    1    1    2    0    0 -0.29207374491E+00  0.10020857094E+01  0.55086633449E+00  0.11802273340E+01  0.00000000000E+00 0. -1.
         11    1    3    3    0    0 -0.35161469942E+02  0.74712191146E+01  0.88281929533E+01  0.37014660266E+02  0.51100000000E-03 0. -1.
        -11    1    3    3    0    0 -0.46865552332E+01  0.62285388048E+01  0.32104568075E+01  0.84300372936E+01  0.51100000000E-03 0.  1.
        -12    1    3    3    0    0  0.40140098920E+02 -0.14701843629E+02 -0.12589516095E+02  0.44563075106E+02  0.00000000000E+00 0.  1.
</event>
<event>
 7    1  0.2468912E-015  0.9000775E+02  0.7816164E-02  0.1186339E+00
        -11   -1    0    0    0    0  0.00000000000E+00  0.00000000000E+00  0.45593999997E+02  0.45594000000E+02  0.51100000000E-03 0. -1.
         11   -1    0    0    0    0 -0.00000000000E+00 -0.00000000000E+00 -0.45593999997E+02  0.45594000000E+02  0.51100000000E-03 0.  1.
    9900012    2    1    2    0    0  0.25338134884E+00  0.70067139398E+00 -0.91533533775E+00  0.90007753716E+02  0.90000015265E+02 0.  0.
         12    1    1    2    0    0 -0.25338134884E+00 -0.70067139398E+00  0.91533533775E+00  0.11802462840E+01  0.00000000000E+00 0. -1.
         11    1    3    3    0    0  0.35570778931E+01  0.48307917302E+01  0.33028822656E+02  0.33569219208E+02  0.51100000000E-03 0. -1.
        -11    1    3    3    0    0 -0.11975567350E+02 -0.26097755497E+01  0.72995223951E+01  0.14265628946E+02  0.51100000000E-03 0.  1.
        -12    1    3    3    0    0  0.86718708054E+01 -0.15203447864E+01 -0.41243680389E+02  0.42172905563E+02  0.00000000000E+00 0.  1.
</event>
<event>
 7    1  0.2468912E-015  0.9000770E+02  0.7816164E-02  0.1186339E+00
        -11   -1    0    0    0    0  0.00000000000E+00  0.00000000000E+00  0.45593999997E+02  0.45594000000E+02  0.51100000000E-03 0. -1.
         11   -1    0    0    0    0 -0.00000000000E+00 -0.00000000000E+00 -0.45593999997E+02  0.45594000000E+02  0.51100000000E-03 0.  1.
    9900012    2    1    2    0    0  0.70771205352E+00  0.49469859654E+00 -0.80469647489E+00  0.90007695180E+02  0.89999955956E+02 0.  0.
         12    1    1    2    0    0 -0.70771205352E+00 -0.49469859654E+00  0.80469647489E+00  0.11803048203E+01  0.00000000000E+00 0. -1.
         11    1    3    3    0    0 -0.16278269825E+01 -0.46725597366E+01 -0.81077646542E+01  0.94983410723E+01  0.51100000000E-03 0. -1.
        -11    1    3    3    0    0 -0.19505173727E+02 -0.25942851319E+02  0.22584164429E+02  0.39541469623E+02  0.51100000000E-03 0.  1.
         12    1    3    3    0    0  0.21840712763E+02  0.31110109652E+02 -0.15281096250E+02  0.40967884485E+02  0.00000000000E+00 0. -1.
</event>
<event>
 7    1  0.2468912E-015  0.9000778E+02  0.7816164E-02  0.1186339E+00
        -11   -1    0    0    0    0  0.00000000000E+00  0.00000000000E+00  0.45593999997E+02  0.45594000000E+02  0.51100000000E-03 0.  1.
         11   -1    0    0    0    0 -0.00000000000E+00 -0.00000000000E+00 -0.45593999997E+02  0.45594000000E+02  0.51100000000E-03 0. -1.
    9900012    2    1    2    0    0  0.10598616304E+01  0.24997670283E+00  0.45510331377E+00  0.90007782201E+02  0.90000044126E+02 0.  0.
         12    1    1    2    0    0 -0.10598616304E+01 -0.24997670283E+00 -0.45510331377E+00  0.11802177993E+01  0.00000000000E+00 0. -1.
         11    1    3    3    0    0  0.36045110662E+02 -0.65538961792E+01 -0.12413684949E+02  0.38682077659E+02  0.51100000000E-03 0. -1.
        -11    1    3    3    0    0  0.45482137397E+00 -0.10303594245E+02  0.32592129521E+01  0.10816348098E+02  0.51100000000E-03 0.  1.
        -12    1    3    3    0    0 -0.35440070405E+02  0.17107467127E+02  0.96095753111E+01  0.40509356444E+02  0.00000000000E+00 0.  1.
</event>
<event>
 7    1  0.2468912E-015  0.9000773E+02  0.7816164E-02  0.1186339E+00
        -11   -1    0    0    0    0  0.00000000000E+00  0.00000000000E+00  0.45593999997E+02  0.45594000000E+02  0.51100000000E-03 0.  1.
         11   -1    0    0    0    0 -0.00000000000E+00 -0.00000000000E+00 -0.45593999997E+02  0.45594000000E+02  0.51100000000E-03 0. -1.
    9900012    2    1    2    0    0  0.48760454963E+00 -0.95505309884E+00  0.49310023260E+00  0.90007732040E+02  0.89999993303E+02 0.  0.
         12    1    1    2    0    0 -0.48760454963E+00  0.95505309884E+00 -0.49310023260E+00  0.11802679602E+01  0.00000000000E+00 0. -1.
         11    1    3    3    0    0 -0.37310289604E+01  0.10707504197E+02  0.43344978187E+01  0.12139155441E+02  0.51100000000E-03 0. -1.
        -11    1    3    3    0    0  0.29917061041E+01  0.17120183610E+02  0.29231487246E+02  0.34007805561E+02  0.51100000000E-03 0.  1.
         12    1    3    3    0    0  0.12269274059E+01 -0.28782740905E+02 -0.33072884832E+02  0.43860771037E+02  0.00000000000E+00 0. -1.
</event>
<event>
 7    1  0.2468912E-015  0.9000780E+02  0.7816164E-02  0.1186339E+00
        -11   -1    0    0    0    0  0.00000000000E+00  0.00000000000E+00  0.45593999997E+02  0.45594000000E+02  0.51100000000E-03 0.  1.
         11   -1    0    0    0    0 -0.00000000000E+00 -0.00000000000E+00 -0.45593999997E+02  0.45594000000E+02  0.51100000000E-03 0. -1.
    9900012    2    1    2    0    0  0.77992062738E+00 -0.88548861047E+00 -0.22739121266E-01  0.90007795216E+02  0.90000057313E+02 0.  0.
         12    1    1    2    0    0 -0.77992062738E+00  0.88548861047E+00  0.22739121266E-01  0.11802047839E+01  0.00000000000E+00 0. -1.
         11    1    3    3    0    0  0.20900340382E+02  0.22383465943E+01 -0.35686736546E+02  0.41417117103E+02  0.51100000000E-03 0. -1.
        -11    1    3    3    0    0 -0.81032434033E+01 -0.36303230023E+01 -0.19581475167E+01  0.90926421194E+01  0.51100000000E-03 0.  1.
        -12    1    3    3    0    0 -0.12017176351E+02  0.50648779751E+00  0.37622144942E+02  0.39498035994E+02  0.00000000000E+00 0.  1.
</event>
<event>
 7    1  0.2468912E-015  0.9000770E+02  0.7816164E-02  0.1186339E+00
        -11   -1    0    0    0    0  0.00000000000E+00  0.00000000000E+00  0.45593999997E+02  0.45594000000E+02  0.51100000000E-03 0. -1.
         11   -1    0    0    0    0 -0.00000000000E+00 -0.00000000000E+00 -0.45593999997E+02  0.45594000000E+02  0.51100000000E-03 0.  1.
    9900012    2    1    2    0    0 -0.46544684086E+00 -0.50545851370E+00  0.95967734564E+00  0.90007699327E+02  0.89999960158E+02 0.  0.
         12    1    1    2    0    0  0.46544684086E+00  0.50545851370E+00 -0.95967734564E+00  0.11803006729E+01  0.00000000000E+00 0. -1.
         11    1    3    3    0    0  0.23640485876E+01  0.88538008502E+00 -0.90726726812E+01  0.94173251754E+01  0.51100000000E-03 0. -1.
        -11    1    3    3    0    0 -0.22650851998E+02 -0.13541593645E+02 -0.26428123275E+02  0.37348113135E+02  0.51100000000E-03 0.  1.
         12    1    3    3    0    0  0.19821356570E+02  0.12150755047E+02  0.36460473301E+02  0.43242261016E+02  0.00000000000E+00 0. -1.
</event>
<event>
 7    1  0.2468912E-015  0.9000783E+02  0.7816164E-02  0.1186339E+00
        -11   -1    0    0    0    0  0.00000000000E+00  0.00000000000E+00  0.45593999997E+02  0.45594000000E+02  0.51100000000E-03 0.  1.
         11   -1    0    0    0    0 -0.00000000000E+00 -0.00000000000E+00 -0.45593999997E+02  0.45594000000E+02  0.51100000000E-03 0. -1.
    9900012    2    1    2    0    0 -0.29351573451E+00 -0.11372566225E+01 -0.11527827992E+00  0.90007833404E+02  0.90000096005E+02 0.  0.
         12    1    1    2    0    0  0.29351573451E+00  0.11372566225E+01  0.11527827992E+00  0.11801665958E+01  0.00000000000E+00 0. -1.
         11    1    3    3    0    0  0.10403195225E+02 -0.38200520241E+02 -0.78006484929E+01  0.40352897477E+02  0.51100000000E-03 0. -1.
        -11    1    3    3    0    0 -0.10042252643E+01 -0.17027350104E+01  0.94520807372E+01  0.96565835274E+01  0.51100000000E-03 0.  1.
        -12    1    3    3    0    0 -0.96924856949E+01  0.38765998629E+02 -0.17667105243E+01  0.39998352400E+02  0.00000000000E+00 0.  1.
</event>
<event>
 7    1  0.2468912E-015  0.9000769E+02  0.7816164E-02  0.1186339E+00
        -11   -1    0    0    0    0  0.00000000000E+00  0.00000000000E+00  0.45593999997E+02  0.45594000000E+02  0.51100000000E-03 0. -1.
         11   -1    0    0    0    0 -0.00000000000E+00 -0.00000000000E+00 -0.45593999997E+02  0.45594000000E+02  0.51100000000E-03 0.  1.
    9900012    2    1    2    0    0 -0.10977006578E+00 -0.96021378506E+00 -0.67754900406E+00  0.90007689603E+02  0.89999950306E+02 0.  0.
         12    1    1    2    0    0  0.10977006578E+00  0.96021378506E+00  0.67754900406E+00  0.11803103970E+01  0.00000000000E+00 0. -1.
         11    1    3    3    0    0  0.10444439225E+02 -0.57856486537E+01  0.17987196156E+01  0.12074577988E+02  0.51100000000E-03 0. -1.
        -11    1    3    3    0    0 -0.30768413146E+01  0.27894790768E+02 -0.30114448820E+02  0.41163895982E+02  0.51100000000E-03 0.  1.
         12    1    3    3    0    0 -0.74773679763E+01 -0.23069355899E+02  0.27638180200E+02  0.36769215633E+02  0.00000000000E+00 0. -1.
</event>
<event>
 7    1  0.2468912E-015  0.9000773E+02  0.7816164E-02  0.1186339E+00
        -11   -1    0    0    0    0  0.00000000000E+00  0.00000000000E+00  0.45593999997E+02  0.45594000000E+02  0.51100000000E-03 0.  1.
         11   -1    0    0    0    0 -0.00000000000E+00 -0.00000000000E+00 -0.45593999997E+02  0.45594000000E+02  0.51100000000E-03 0. -1.
    9900012    2    1    2    0    0  0.57455374000E+00  0.10254085047E+01 -0.10711773834E+00  0.90007725112E+02  0.89999986283E+02 0.  0.
         12    1    1    2    0    0 -0.57455374000E+00 -0.10254085047E+01  0.10711773834E+00  0.11802748881E+01  0.00000000000E+00 0. -1.
         11    1    3    3    0    0 -0.18529745300E+02  0.14504750667E+02 -0.80111768825E+01  0.24857960659E+02  0.51100000000E-03 0. -1.
        -11    1    3    3    0    0 -0.81522378086E+01 -0.30927531509E+02  0.68393966488E+00  0.31991232553E+02  0.51100000000E-03 0.  1.
         12    1    3    3    0    0  0.27256536849E+02  0.17448189347E+02  0.72201194793E+01  0.33158531900E+02  0.00000000000E+00 0. -1.
</event>
<event>
 7    1  0.2468912E-015  0.9000781E+02  0.7816164E-02  0.1186339E+00
        -11   -1    0    0    0    0  0.00000000000E+00  0.00000000000E+00  0.45593999997E+02  0.45594000000E+02  0.51100000000E-03 0.  1.
         11   -1    0    0    0    0 -0.00000000000E+00 -0.00000000000E+00 -0.45593999997E+02  0.45594000000E+02  0.51100000000E-03 0. -1.
    9900012    2    1    2    0    0  0.91492697720E+00 -0.25990576504E+00  0.69872047855E+00  0.90007808199E+02  0.90000070467E+02 0.  0.
         12    1    1    2    0    0 -0.91492697720E+00  0.25990576504E+00 -0.69872047855E+00  0.11801918011E+01  0.00000000000E+00 0. -1.
         11    1    3    3    0    0 -0.23180090451E+01 -0.73667673392E+01  0.58030194429E+01  0.96600963701E+01  0.51100000000E-03 0. -1.
        -11    1    3    3    0    0  0.11843909146E+02  0.27059215860E+02  0.28031553926E+02  0.40721583498E+02  0.51100000000E-03 0.  1.
         12    1    3    3    0    0 -0.86109731241E+01 -0.19952354286E+02 -0.33135852891E+02  0.39626128331E+02  0.00000000000E+00 0. -1.
</event>
<event>
 7    1  0.2468912E-015  0.9000804E+02  0.7816164E-02  0.1186338E+00
        -11   -1    0    0    0    0  0.00000000000E+00  0.00000000000E+00  0.45593999997E+02  0.45594000000E+02  0.51100000000E-03 0. -1.
         11   -1    0    0    0    0 -0.00000000000E+00 -0.00000000000E+00 -0.45593999997E+02  0.45594000000E+02  0.51100000000E-03 0.  1.
    9900012    2    1    2    0    0  0.74087182214E+00 -0.12632434955E+00 -0.90964157924E+00  0.90008043772E+02  0.90000309149E+02 0.  0.
         12    1    1    2    0    0 -0.74087182214E+00  0.12632434955E+00  0.90964157924E+00  0.11799562283E+01  0.00000000000E+00 0. -1.
         11    1    3    3    0    0 -0.33758492983E+01 -0.26226828026E+01  0.88972166789E+01  0.98709314890E+01  0.51100000000E-03 0. -1.
        -11    1    3    3    0    0 -0.20765661138E+02 -0.31171961893E+02 -0.75671873567E+01  0.38212121316E+02  0.51100000000E-03 0.  1.
         12    1    3    3    0    0  0.24882382259E+02  0.33668320346E+02 -0.22396709014E+01  0.41924990966E+02  0.00000000000E+00 0. -1.
</event>
<event>
 7    1  0.2468912E-015  0.9000749E+02  0.7816164E-02  0.1186340E+00
        -11   -1    0    0    0    0  0.00000000000E+00  0.00000000000E+00  0.45593999997E+02  0.45594000000E+02  0.51100000000E-03 0. -1.
         11   -1    0    0    0    0 -0.00000000000E+00 -0.00000000000E+00 -0.45593999997E+02  0.45594000000E+02  0.51100000000E-03 0.  1.
    9900012    2    1    2    0    0 -0.13191227896E+00 -0.11549540183E+01  0.20561864416E+00  0.90007492202E+02  0.89999750299E+02 0.  0.
         12    1    1    2    0    0  0.13191227896E+00  0.11549540183E+01 -0.20561864416E+00  0.11805077978E+01  0.00000000000E+00 0. -1.
         11    1    3    3    0    0  0.11547382045E+02 -0.53652418156E+01  0.24811202925E+01  0.12972424986E+02  0.51100000000E-03 0. -1.
        -11    1    3    3    0    0  0.28873710789E+02  0.17713778669E+02 -0.48286774687E+01  0.34216739409E+02  0.51100000000E-03 0.  1.
         12    1    3    3    0    0 -0.40553005113E+02 -0.13503490872E+02  0.25531758204E+01  0.42818327807E+02  0.00000000000E+00 0. -1.
</event>
<event>
 7    1  0.2468912E-015  0.9000778E+02  0.7816164E-02  0.1186339E+00
        -11   -1    0    0    0    0  0.00000000000E+00  0.00000000000E+00  0.45593999997E+02  0.45594000000E+02  0.51100000000E-03 0. -1.
         11   -1    0    0    0    0 -0.00000000000E+00 -0.00000000000E+00 -0.45593999997E+02  0.45594000000E+02  0.51100000000E-03 0.  1.
    9900012    2    1    2    0    0 -0.43016465000E+00  0.10875514138E+01  0.15843279076E+00  0.90007783642E+02  0.90000045586E+02 0.  0.
         12    1    1    2    0    0  0.43016465000E+00 -0.10875514138E+01 -0.15843279076E+00  0.11802163585E+01  0.00000000000E+00 0. -1.
         11    1    3    3    0    0 -0.56001167605E+01  0.72238812316E+01  0.91246887382E+00  0.91857698364E+01  0.51100000000E-03 0. -1.
        -11    1    3    3    0    0 -0.29092856059E+02  0.11374447816E+02  0.20012051002E+02  0.37097904554E+02  0.51100000000E-03 0.  1.
         12    1    3    3    0    0  0.34262808169E+02 -0.17510777634E+02 -0.20766087085E+02  0.43724109251E+02  0.00000000000E+00 0. -1.
</event>
<event>
 7    1  0.3239408E-015  0.9000756E+02  0.7816164E-02  0.1186339E+00
        -11   -1    0    0    0    0  0.00000000000E+00  0.00000000000E+00  0.45593999997E+02  0.45594000000E+02  0.51100000000E-03 0.  1.
         11   -1    0    0    0    0 -0.00000000000E+00 -0.00000000000E+00 -0.45593999997E+02  0.45594000000E+02  0.51100000000E-03 0. -1.
    9900012    2    1    2    0    0 -0.30252750927E+00  0.93050517063E+00  0.66036023032E+00  0.90007560082E+02  0.89999819075E+02 0.  0.
         12    1    1    2    0    0  0.30252750927E+00 -0.93050517063E+00 -0.66036023032E+00  0.11804399181E+01  0.00000000000E+00 0. -1.
         11    1    3    3    0    0  0.12100281983E+02 -0.11785932871E+02 -0.31566338485E+02  0.35801658667E+02  0.51100000000E-03 0. -1.
        -11    1    3    3    0    0  0.14231816269E-02 -0.25144497365E+01 -0.85674942186E+01  0.89288530590E+01  0.51100000000E-03 0.  1.
        -12    1    3    3    0    0 -0.12404232674E+02  0.15230887778E+02  0.40794192934E+02  0.45277048356E+02  0.00000000000E+00 0.  1.
</event>
<event>
 7    1  0.2468912E-015  0.9000801E+02  0.7816164E-02  0.1186339E+00
        -11   -1    0    0    0    0  0.00000000000E+00  0.00000000000E+00  0.45593999997E+02  0.45594000000E+02  0.51100000000E-03 0.  1.
         11   -1    0    0    0    0 -0.00000000000E+00 -0.00000000000E+00 -0.45593999997E+02  0.45594000000E+02  0.51100000000E-03 0. -1.
    9900012    2    1    2    0    0 -0.85922175835E+00  0.78621987589E+00  0.18968173922E+00  0.90008007252E+02  0.90000272147E+02 0.  0.
         12    1    1    2    0    0  0.85922175835E+00 -0.78621987589E+00 -0.18968173922E+00  0.11799927481E+01  0.00000000000E+00 0. -1.
         11    1    3    3    0    0  0.48395405931E+01 -0.31274951051E+01  0.85310371895E+01  0.10294706143E+02  0.51100000000E-03 0. -1.
        -11    1    3    3    0    0 -0.11781856592E+02  0.13608294351E+02  0.32579940871E+02  0.37221638429E+02  0.51100000000E-03 0.  1.
         12    1    3    3    0    0  0.60830942407E+01 -0.96945793700E+01 -0.40921296321E+02  0.42491662680E+02  0.00000000000E+00 0. -1.
</event>
<event>
 7    1  0.2468912E-015  0.9000772E+02  0.7816164E-02  0.1186339E+00
        -11   -1    0    0    0    0  0.00000000000E+00  0.00000000000E+00  0.45593999997E+02  0.45594000000E+02  0.51100000000E-03 0.  1.
         11   -1    0    0    0    0 -0.00000000000E+00 -0.00000000000E+00 -0.45593999997E+02  0.45594000000E+02  0.51100000000E-03 0. -1.
    9900012    2    1    2    0    0  0.11683173260E+01 -0.16509640424E+00  0.29008139760E-01  0.90007718818E+02  0.89999979906E+02 0.  0.
         12    1    1    2    0    0 -0.11683173260E+01  0.16509640424E+00 -0.29008139760E-01  0.11802811822E+01  0.00000000000E+00 0. -1.
         11    1    3    3    0    0  0.99503254006E+01 -0.29248883429E+02 -0.26890058115E+02  0.40958288333E+02  0.51100000000E-03 0. -1.
        -11    1    3    3    0    0 -0.83032507160E+01 -0.30288187976E+01  0.68036145116E+01  0.11153783504E+02  0.51100000000E-03 0.  1.
        -12    1    3    3    0    0 -0.47875735859E+00  0.32112605823E+02  0.20115451743E+02  0.37895646982E+02  0.00000000000E+00 0.  1.
</event>
<event>
 7    1  0.2468912E-015  0.9000775E+02  0.7816164E-02  0.1186339E+00
        -11   -1    0    0    0    0  0.00000000000E+00  0.00000000000E+00  0.45593999997E+02  0.45594000000E+02  0.51100000000E-03 0.  1.
         11   -1    0    0    0    0 -0.00000000000E+00 -0.00000000000E+00 -0.45593999997E+02  0.45594000000E+02  0.51100000000E-03 0. -1.
    9900012    2    1    2    0    0  0.18959436861E+00 -0.11143479100E+00  0.11595765787E+01  0.90007753594E+02  0.90000015141E+02 0.  0.
         12    1    1    2    0    0 -0.18959436861E+00  0.11143479100E+00 -0.11595765787E+01  0.11802464061E+01  0.00000000000E+00 0. -1.
         11    1    3    3    0    0 -0.86290373011E+01  0.12273639396E+02  0.18215811407E+01  0.15113592124E+02  0.51100000000E-03 0. -1.
        -11    1    3    3    0    0 -0.23197241762E+02  0.11590297660E+02 -0.17723125541E+02  0.31409492266E+02  0.51100000000E-03 0.  1.
         12    1    3    3    0    0  0.32015873431E+02 -0.23975371847E+02  0.17061120979E+02  0.43484669204E+02  0.00000000000E+00 0. -1.
</event>
<event>
 7    1  0.2468912E-015  0.9000819E+02  0.7816164E-02  0.1186338E+00
        -11   -1    0    0    0    0  0.00000000000E+00  0.00000000000E+00  0.45593999997E+02  0.45594000000E+02  0.51100000000E-03 0.  1.
         11   -1    0    0    0    0 -0.00000000000E+00 -0.00000000000E+00 -0.45593999997E+02  0.45594000000E+02  0.51100000000E-03 0. -1.
    9900012    2    1    2    0    0  0.73128854821E+00 -0.13156869965E+00 -0.91643942153E+00  0.90008188796E+02  0.90000456087E+02 0.  0.
         12    1    1    2    0    0 -0.73128854821E+00  0.13156869965E+00  0.91643942153E+00  0.11798112039E+01  0.00000000000E+00 0. -1.
         11    1    3    3    0    0  0.42385031340E+01  0.87219852249E+01  0.10771157110E+00  0.96979140604E+01  0.51100000000E-03 0. -1.
        -11    1    3    3    0    0 -0.19401716548E+02  0.27288284213E+02 -0.17200833103E+02  0.37642339460E+02  0.51100000000E-03 0.  1.
         12    1    3    3    0    0  0.15894501962E+02 -0.36141838138E+02  0.16176682111E+02  0.42667935276E+02  0.00000000000E+00 0. -1.
</event>
<event>
 7    1  0.2468912E-015  0.9000775E+02  0.7816164E-02  0.1186339E+00
        -11   -1    0    0    0    0  0.00000000000E+00  0.00000000000E+00  0.45593999997E+02  0.45594000000E+02  0.51100000000E-03 0. -1.
         11   -1    0    0    0    0 -0.00000000000E+00 -0.00000000000E+00 -0.45593999997E+02  0.45594000000E+02  0.51100000000E-03 0.  1.
    9900012    2    1    2    0    0 -0.91984564213E+00 -0.55748458636E+00 -0.48588430270E+00  0.90007750609E+02  0.90000012117E+02 0.  0.
         12    1    1    2    0    0  0.91984564213E+00  0.55748458636E+00  0.48588430270E+00  0.11802493910E+01  0.00000000000E+00 0. -1.
         11    1    3    3    0    0 -0.20913677706E+01  0.55777626301E+01  0.44612491597E+01  0.74423114310E+01  0.51100000000E-03 0. -1.
        -11    1    3    3    0    0  0.31132942454E+01  0.28801560472E+02 -0.28299399243E+02  0.40497882469E+02  0.51100000000E-03 0.  1.
         12    1    3    3    0    0 -0.19417721170E+01 -0.34936807689E+02  0.23352265780E+02  0.42067556709E+02  0.00000000000E+00 0. -1.
</event>
<event>
 7    1  0.2468912E-015  0.9000776E+02  0.7816164E-02  0.1186339E+00
        -11   -1    0    0    0    0  0.00000000000E+00  0.00000000000E+00  0.45593999997E+02  0.45594000000E+02  0.51100000000E-03 0. -1.
         11   -1    0    0    0    0 -0.00000000000E+00 -0.00000000000E+00 -0.45593999997E+02  0.45594000000E+02  0.51100000000E-03 0.  1.
    9900012    2    1    2    0    0 -0.63578926496E+00  0.97196690568E+00 -0.20980533664E+00  0.90007760222E+02  0.90000021857E+02 0.  0.
         12    1    1    2    0    0  0.63578926496E+00 -0.97196690568E+00  0.20980533664E+00  0.11802397784E+01  0.00000000000E+00 0. -1.
         11    1    3    3    0    0 -0.30358482543E+01 -0.17458039610E+02  0.26730689648E+02  0.32070692088E+02  0.51100000000E-03 0. -1.
        -11    1    3    3    0    0  0.12680740973E+01 -0.13022184411E+02  0.41214289755E+01  0.13717560855E+02  0.51100000000E-03 0.  1.
        -12    1    3    3    0    0  0.11319848920E+01  0.31452190926E+02 -0.31061923961E+02  0.44219507279E+02  0.00000000000E+00 0.  1.
</event>
<event>
 7    1  0.2468912E-015  0.9000773E+02  0.7816164E-02  0.1186339E+00
        -11   -1    0    0    0    0  0.00000000000E+00  0.00000000000E+00  0.45593999997E+02  0.45594000000E+02  0.51100000000E-03 0.  1.
         11   -1    0    0    0    0 -0.00000000000E+00 -0.00000000000E+00 -0.45593999997E+02  0.45594000000E+02  0.51100000000E-03 0. -1.
    9900012    2    1    2    0    0  0.11435374711E+00 -0.11708241032E+01 -0.95563310317E-01  0.90007729604E+02  0.89999990835E+02 0.  0.
         12    1    1    2    0    0 -0.11435374711E+00  0.11708241032E+01  0.95563310317E-01  0.11802703955E+01  0.00000000000E+00 0. -1.
         11    1    3    3    0    0 -0.10577399519E+02  0.24479173195E+02 -0.25311567802E+02  0.36766652904E+02  0.51100000000E-03 0. -1.
        -11    1    3    3    0    0  0.54971506622E+01 -0.13184228169E+01 -0.91854295729E+01  0.10785593207E+02  0.51100000000E-03 0.  1.
        -12    1    3    3    0    0  0.51946026040E+01 -0.24331574481E+02  0.34401434065E+02  0.42455483494E+02  0.00000000000E+00 0.  1.
</event>
<event>
 7    1  0.3325686E-015  0.9000772E+02  0.7816164E-02  0.1186339E+00
        -11   -1    0    0    0    0  0.00000000000E+00  0.00000000000E+00  0.45593999997E+02  0.45594000000E+02  0.51100000000E-03 0.  1.
         11   -1    0    0    0    0 -0.00000000000E+00 -0.00000000000E+00 -0.45593999997E+02  0.45594000000E+02  0.51100000000E-03 0. -1.
    9900012    2    1    2    0    0 -0.14211431400E+00 -0.58860589356E+00  0.10131174580E+01  0.90007720220E+02  0.89999981327E+02 0.  0.
         12    1    1    2    0    0  0.14211431400E+00  0.58860589356E+00 -0.10131174580E+01  0.11802797803E+01  0.00000000000E+00 0. -1.
         11    1    3    3    0    0  0.89989970900E+01  0.10025515137E+02 -0.33350457043E+02  0.35968679259E+02  0.51100000000E-03 0. -1.
        -11    1    3    3    0    0  0.11668460146E+01 -0.30690687318E+01 -0.86058831782E+01  0.92109683552E+01  0.51100000000E-03 0.  1.
        -12    1    3    3    0    0 -0.10307957419E+02 -0.75450522985E+01  0.42969457679E+02  0.44828072606E+02  0.00000000000E+00 0.  1.
</event>
<event>
 7    1  0.2545672E-015  0.9000772E+02  0.7816164E-02  0.1186339E+00
        -11   -1    0    0    0    0  0.00000000000E+00  0.00000000000E+00  0.45593999997E+02  0.45594000000E+02  0.51100000000E-03 0.  1.
         11   -1    0    0    0    0 -0.00000000000E+00 -0.00000000000E+00 -0.45593999997E+02  0.45594000000E+02  0.51100000000E-03 0. -1.
    9900012    2    1    2    0    0 -0.32324731932E+00 -0.97812987769E+00  0.57605501546E+00  0.90007717717E+02  0.89999978791E+02 0.  0.
         12    1    1    2    0    0  0.32324731932E+00  0.97812987769E+00 -0.57605501546E+00  0.11802822831E+01  0.00000000000E+00 0. -1.
         11    1    3    3    0    0 -0.94870109841E+01 -0.81291001458E+01 -0.34454153249E+02  0.36649342736E+02  0.51100000000E-03 0. -1.
        -11    1    3    3    0    0  0.61858127017E+01 -0.36445443201E+01 -0.69004145357E+01  0.99580471533E+01  0.51100000000E-03 0.  1.
        -12    1    3    3    0    0  0.29779509631E+01  0.10795514588E+02  0.41930622800E+02  0.43400327828E+02  0.00000000000E+00 0.  1.
</event>
<event>
 7    1  0.2468912E-015  0.9000798E+02  0.7816164E-02  0.1186339E+00
        -11   -1    0    0    0    0  0.00000000000E+00  0.00000000000E+00  0.45593999997E+02  0.45594000000E+02  0.51100000000E-03 0.  1.
         11   -1    0    0    0    0 -0.00000000000E+00 -0.00000000000E+00 -0.45593999997E+02  0.45594000000E+02  0.51100000000E-03 0. -1.
    9900012    2    1    2    0    0 -0.72405115222E+00 -0.92243867866E+00 -0.13158292688E+00  0.90007975740E+02  0.90000240220E+02 0.  0.
         12    1    1    2    0    0  0.72405115222E+00  0.92243867866E+00  0.13158292688E+00  0.11800242597E+01  0.00000000000E+00 0. -1.
         11    1    3    3    0    0  0.59383117669E+00 -0.55009529588E+01  0.54525303828E+01  0.77680890030E+01  0.51100000000E-03 0. -1.
        -11    1    3    3    0    0  0.39196323018E+02  0.28029393779E+01  0.67078720997E+01  0.39864818520E+02  0.51100000000E-03 0.  1.
         12    1    3    3    0    0 -0.40514205347E+02  0.17755749023E+01 -0.12291985409E+02  0.42375068217E+02  0.00000000000E+00 0. -1.
</event>
<event>
 7    1  0.2468912E-015  0.9000752E+02  0.7816164E-02  0.1186339E+00
        -11   -1    0    0    0    0  0.00000000000E+00  0.00000000000E+00  0.45593999997E+02  0.45594000000E+02  0.51100000000E-03 0. -1.
         11   -1    0    0    0    0 -0.00000000000E+00 -0.00000000000E+00 -0.45593999997E+02  0.45594000000E+02  0.51100000000E-03 0.  1.
    9900012    2    1    2    0    0 -0.48420348325E+00  0.15915173199E+00 -0.10647762244E+01  0.90007520989E+02  0.89999779466E+02 0.  0.
         12    1    1    2    0    0  0.48420348325E+00 -0.15915173199E+00  0.10647762244E+01  0.11804790109E+01  0.00000000000E+00 0. -1.
         11    1    3    3    0    0 -0.36392056061E+02 -0.61690433335E+01  0.55989662014E+01  0.37333460364E+02  0.51100000000E-03 0. -1.
        -11    1    3    3    0    0  0.25030025608E+01 -0.13161341095E+02  0.18075738282E+00  0.13398454939E+02  0.51100000000E-03 0.  1.
        -12    1    3    3    0    0  0.33404850017E+02  0.19489536161E+02 -0.68444998086E+01  0.39275605686E+02  0.00000000000E+00 0.  1.
</event>
<event>
 7    1  0.2468912E-015  0.9000767E+02  0.7816164E-02  0.1186339E+00
        -11   -1    0    0    0    0  0.00000000000E+00  0.00000000000E+00  0.45593999997E+02  0.45594000000E+02  0.51100000000E-03 0. -1.
         11   -1    0    0    0    0 -0.00000000000E+00 -0.00000000000E+00 -0.45593999997E+02  0.45594000000E+02  0.51100000000E-03 0.  1.
    9900012    2    1    2    0    0  0.69050778449E+00 -0.86773729637E+00 -0.40423314831E+00  0.90007672311E+02  0.89999932785E+02 0.  0.
         12    1    1    2    0    0 -0.69050778449E+00  0.86773729637E+00  0.40423314831E+00  0.11803276893E+01  0.00000000000E+00 0. -1.
         11    1    3    3    0    0 -0.25831976143E+01 -0.85569336281E+01 -0.22170889032E+00  0.89410949063E+01  0.51100000000E-03 0. -1.
        -11    1    3    3    0    0 -0.35453870583E+02 -0.53026076686E+01  0.13016813742E+02  0.38138327542E+02  0.51100000000E-03 0.  1.
         12    1    3    3    0    0  0.38727575982E+02  0.12991804000E+02 -0.13199338000E+02  0.42928249863E+02  0.00000000000E+00 0. -1.
</event>
<event>
 7    1  0.2468912E-015  0.9000773E+02  0.7816164E-02  0.1186339E+00
        -11   -1    0    0    0    0  0.00000000000E+00  0.00000000000E+00  0.45593999997E+02  0.45594000000E+02  0.51100000000E-03 0.  1.
         11   -1    0    0    0    0 -0.00000000000E+00 -0.00000000000E+00 -0.45593999997E+02  0.45594000000E+02  0.51100000000E-03 0. -1.
    9900012    2    1    2    0    0  0.31902117608E-01 -0.43558181960E+00  0.10964841703E+01  0.90007734436E+02  0.89999995730E+02 0.  0.
         12    1    1    2    0    0 -0.31902117608E-01  0.43558181960E+00 -0.10964841703E+01  0.11802655643E+01  0.00000000000E+00 0. -1.
         11    1    3    3    0    0 -0.19882831530E+02 -0.34607286001E+02 -0.20011448655E+01  0.39962430044E+02  0.51100000000E-03 0. -1.
        -11    1    3    3    0    0 -0.58826550578E+01 -0.13622541305E+01  0.33905552880E+00  0.60478364527E+01  0.51100000000E-03 0.  1.
        -12    1    3    3    0    0  0.25797388705E+02  0.35533958312E+02  0.27585735070E+01  0.43997467939E+02  0.00000000000E+00 0.  1.
</event>
<event>
 7    1  0.2468912E-015  0.9000772E+02  0.7816164E-02  0.1186339E+00
        -11   -1    0    0    0    0  0.00000000000E+00  0.00000000000E+00  0.45593999997E+02  0.45594000000E+02  0.51100000000E-03 0. -1.
         11   -1    0    0    0    0 -0.00000000000E+00 -0.00000000000E+00 -0.45593999997E+02  0.45594000000E+02  0.51100000000E-03 0.  1.
    9900012    2    1    2    0    0 -0.72748587960E+00 -0.73013656633E+00 -0.57508464948E+00  0.90007721446E+02  0.89999982569E+02 0.  0.
         12    1    1    2    0    0  0.72748587960E+00  0.73013656633E+00  0.57508464948E+00  0.11802785538E+01  0.00000000000E+00 0. -1.
         11    1    3    3    0    0  0.17529368895E+01  0.78032029225E+01 -0.37684638221E+01  0.88410453809E+01  0.51100000000E-03 0. -1.
        -11    1    3    3    0    0  0.25837138140E+02 -0.26372128636E+02 -0.18487634988E+02  0.41289702394E+02  0.51100000000E-03 0.  1.
         12    1    3    3    0    0 -0.28317560910E+02  0.17838789148E+02  0.21681014161E+02  0.39876973671E+02  0.00000000000E+00 0. -1.
</event>
<event>
 7    1  0.2468912E-015  0.9000775E+02  0.7816164E-02  0.1186339E+00
        -11   -1    0    0    0    0  0.00000000000E+00  0.00000000000E+00  0.45593999997E+02  0.45594000000E+02  0.51100000000E-03 0. -1.
         11   -1    0    0    0    0 -0.00000000000E+00 -0.00000000000E+00 -0.45593999997E+02  0.45594000000E+02  0.51100000000E-03 0.  1.
    9900012    2    1    2    0    0  0.73323322133E+00 -0.48229663088E+00 -0.78913951138E+00  0.90007753346E+02  0.90000014890E+02 0.  0.
         12    1    1    2    0    0 -0.73323322133E+00  0.48229663088E+00  0.78913951138E+00  0.11802466545E+01  0.00000000000E+00 0. -1.
         11    1    3    3    0    0 -0.53740487710E+01 -0.16488900415E+02  0.30668884505E+02  0.35232722207E+02  0.51100000000E-03 0. -1.
        -11    1    3    3    0    0  0.68336933832E+01  0.33590903057E+01  0.93427443124E+01  0.12052789075E+02  0.51100000000E-03 0.  1.
        -12    1    3    3    0    0 -0.72641139090E+00  0.12647513478E+02 -0.40800768329E+02  0.42722242063E+02  0.00000000000E+00 0.  1.
</event>
<event>
 7    1  0.2468912E-015  0.9000772E+02  0.7816164E-02  0.1186339E+00
        -11   -1    0    0    0    0  0.00000000000E+00  0.00000000000E+00  0.45593999997E+02  0.45594000000E+02  0.51100000000E-03 0.  1.
         11   -1    0    0    0    0 -0.00000000000E+00 -0.00000000000E+00 -0.45593999997E+02  0.45594000000E+02  0.51100000000E-03 0. -1.
    9900012    2    1    2    0    0  0.11275357686E+01  0.13216853224E+00 -0.32289950029E+00  0.90007716340E+02  0.89999977396E+02 0.  0.
         12    1    1    2    0    0 -0.11275357686E+01 -0.13216853224E+00  0.32289950029E+00  0.11802836599E+01  0.00000000000E+00 0. -1.
         11    1    3    3    0    0  0.24552060655E+01 -0.21758515682E+01 -0.90754156462E+01  0.96501573191E+01  0.51100000000E-03 0. -1.
        -11    1    3    3    0    0  0.10579615826E+02 -0.35458219181E+02 -0.71455140078E+01  0.37686495582E+02  0.51100000000E-03 0.  1.
         12    1    3    3    0    0 -0.11907286123E+02  0.37766239281E+02  0.15898030154E+02  0.42671063439E+02  0.00000000000E+00 0. -1.
</event>
<event>
 7    1  0.2468912E-015  0.9000771E+02  0.7816164E-02  0.1186339E+00
        -11   -1    0    0    0    0  0.00000000000E+00  0.00000000000E+00  0.45593999997E+02  0.45594000000E+02  0.51100000000E-03 0.  1.
         11   -1    0    0    0    0 -0.00000000000E+00 -0.00000000000E+00 -0.45593999997E+02  0.45594000000E+02  0.51100000000E-03 0. -1.
    9900012    2    1    2    0    0  0.60400589580E+00 -0.12085835322E+00  0.10068060342E+01  0.90007708403E+02  0.89999969354E+02 0.  0.
         12    1    1    2    0    0 -0.60400589580E+00  0.12085835322E+00 -0.10068060342E+01  0.11802915971E+01  0.00000000000E+00 0. -1.
         11    1    3    3    0    0 -0.73207854018E+01 -0.62354331564E+01  0.72443344325E+00  0.96436160034E+01  0.51100000000E-03 0. -1.
        -11    1    3    3    0    0 -0.32216944779E+02 -0.13041159921E+02 -0.65385355100E+01  0.35366026492E+02  0.51100000000E-03 0.  1.
         12    1    3    3    0    0  0.40141736077E+02  0.19155734724E+02  0.68209081009E+01  0.44998065907E+02  0.00000000000E+00 0. -1.
</event>
<event>
 7    1  0.2468912E-015  0.9000780E+02  0.7816164E-02  0.1186339E+00
        -11   -1    0    0    0    0  0.00000000000E+00  0.00000000000E+00  0.45593999997E+02  0.45594000000E+02  0.51100000000E-03 0. -1.
         11   -1    0    0    0    0 -0.00000000000E+00 -0.00000000000E+00 -0.45593999997E+02  0.45594000000E+02  0.51100000000E-03 0.  1.
    9900012    2    1    2    0    0  0.93201706718E+00  0.63339534775E+00  0.35074999275E+00  0.90007800425E+02  0.90000062590E+02 0.  0.
         12    1    1    2    0    0 -0.93201706718E+00 -0.63339534775E+00 -0.35074999275E+00  0.11801995753E+01  0.00000000000E+00 0. -1.
         11    1    3    3    0    0  0.25290174315E+02 -0.82807906318E+01  0.26584544284E+02  0.37615188493E+02  0.51100000000E-03 0. -1.
        -11    1    3    3    0    0 -0.75299717365E+00  0.14542105021E+01  0.91018205607E+01  0.92479657606E+01  0.51100000000E-03 0.  1.
        -12    1    3    3    0    0 -0.23605160074E+02  0.74599754775E+01 -0.35335614852E+02  0.43144646171E+02  0.00000000000E+00 0.  1.
</event>
<event>
 7    1  0.2468912E-015  0.9000775E+02  0.7816164E-02  0.1186339E+00
        -11   -1    0    0    0    0  0.00000000000E+00  0.00000000000E+00  0.45593999997E+02  0.45594000000E+02  0.51100000000E-03 0. -1.
         11   -1    0    0    0    0 -0.00000000000E+00 -0.00000000000E+00 -0.45593999997E+02  0.45594000000E+02  0.51100000000E-03 0.  1.
    9900012    2    1    2    0    0 -0.58150345326E+00  0.45407139692E+00 -0.92122867559E+00  0.90007750292E+02  0.90000011796E+02 0.  0.
         12    1    1    2    0    0  0.58150345326E+00 -0.45407139692E+00  0.92122867559E+00  0.11802497076E+01  0.00000000000E+00 0. -1.
         11    1    3    3    0    0  0.38479316066E+01 -0.10333653332E+01 -0.76092421136E+01  0.85892367161E+01  0.51100000000E-03 0. -1.
        -11    1    3    3    0    0  0.17466200804E+02  0.16752875552E+02 -0.28411965600E+02  0.37322470434E+02  0.51100000000E-03 0.  1.
         12    1    3    3    0    0 -0.21895635864E+02 -0.15265438822E+02  0.35099979038E+02  0.44096043142E+02  0.00000000000E+00 0. -1.
</event>
<event>
 7    1  0.2468912E-015  0.9000766E+02  0.7816164E-02  0.1186339E+00
        -11   -1    0    0    0    0  0.00000000000E+00  0.00000000000E+00  0.45593999997E+02  0.45594000000E+02  0.51100000000E-03 0. -1.
         11   -1    0    0    0    0 -0.00000000000E+00 -0.00000000000E+00 -0.45593999997E+02  0.45594000000E+02  0.51100000000E-03 0.  1.
    9900012    2    1    2    0    0  0.49460242607E+00 -0.96388548389E+00  0.46851445622E+00  0.90007655736E+02  0.89999915992E+02 0.  0.
         12    1    1    2    0    0 -0.49460242607E+00  0.96388548389E+00 -0.46851445622E+00  0.11803442640E+01  0.00000000000E+00 0. -1.
         11    1    3    3    0    0  0.10475677951E+02 -0.27135497360E+02  0.19101135578E+02  0.34798396891E+02  0.51100000000E-03 0. -1.
        -11    1    3    3    0    0  0.35032726627E+01 -0.59156245088E+01 -0.19205624344E+02  0.20399106338E+02  0.51100000000E-03 0.  1.
        -12    1    3    3    0    0 -0.13484348188E+02  0.32087236385E+02  0.57300322192E+00  0.34810152508E+02  0.00000000000E+00 0.  1.
</event>
<event>
 7    1  0.2468912E-015  0.9000773E+02  0.7816164E-02  0.1186339E+00
        -11   -1    0    0    0    0  0.00000000000E+00  0.00000000000E+00  0.45593999997E+02  0.45594000000E+02  0.51100000000E-03 0. -1.
         11   -1    0    0    0    0 -0.00000000000E+00 -0.00000000000E+00 -0.45593999997E+02  0.45594000000E+02  0.51100000000E-03 0.  1.
    9900012    2    1    2    0    0  0.58567550665E+00 -0.52530986431E+00  0.87981889441E+00  0.90007725651E+02  0.89999986829E+02 0.  0.
         12    1    1    2    0    0 -0.58567550665E+00  0.52530986431E+00 -0.87981889441E+00  0.11802743493E+01  0.00000000000E+00 0. -1.
         11    1    3    3    0    0  0.11506173327E+02  0.14076822725E+02  0.34640646000E+01  0.18508071387E+02  0.51100000000E-03 0. -1.
        -11    1    3    3    0    0  0.40026907632E+01 -0.59811119536E+01 -0.34492067397E+02  0.35234896724E+02  0.51100000000E-03 0.  1.
         12    1    3    3    0    0 -0.14923188584E+02 -0.86210206356E+01  0.31907821692E+02  0.36264757540E+02  0.00000000000E+00 0. -1.
</event>
<event>
 7    1  0.2468912E-015  0.9000748E+02  0.7816164E-02  0.1186340E+00
        -11   -1    0    0    0    0  0.00000000000E+00  0.00000000000E+00  0.45593999997E+02  0.45594000000E+02  0.51100000000E-03 0.  1.
         11   -1    0    0    0    0 -0.00000000000E+00 -0.00000000000E+00 -0.45593999997E+02  0.45594000000E+02  0.51100000000E-03 0. -1.
    9900012    2    1    2    0    0  0.10900959025E+01  0.14282926069E+00  0.43001377345E+00  0.90007482690E+02  0.89999740661E+02 0.  0.
         12    1    1    2    0    0 -0.10900959025E+01 -0.14282926069E+00 -0.43001377345E+00  0.11805173102E+01  0.00000000000E+00 0. -1.
         11    1    3    3    0    0 -0.20121923538E+02  0.25622908198E+02 -0.18157646847E+02  0.37297793107E+02  0.51100000000E-03 0. -1.
        -11    1    3    3    0    0 -0.74156945104E+01  0.25909939347E+01 -0.12869702500E+01  0.79600293546E+01  0.51100000000E-03 0.  1.
        -12    1    3    3    0    0  0.28627713951E+02 -0.28071072872E+02  0.19874630871E+02  0.44749660228E+02  0.00000000000E+00 0.  1.
</event>
<event>
 7    1  0.2468912E-015  0.9000773E+02  0.7816164E-02  0.1186339E+00
        -11   -1    0    0    0    0  0.00000000000E+00  0.00000000000E+00  0.45593999997E+02  0.45594000000E+02  0.51100000000E-03 0. -1.
         11   -1    0    0    0    0 -0.00000000000E+00 -0.00000000000E+00 -0.45593999997E+02  0.45594000000E+02  0.51100000000E-03 0.  1.
    9900012    2    1    2    0    0 -0.60807734386E+00  0.51849231182E-01 -0.10102431074E+01  0.90007729889E+02  0.89999991124E+02 0.  0.
         12    1    1    2    0    0  0.60807734386E+00 -0.51849231182E-01  0.10102431074E+01  0.11802701110E+01  0.00000000000E+00 0. -1.
         11    1    3    3    0    0  0.21837336679E+02 -0.59398359427E+01  0.27923489312E+02  0.35942623442E+02  0.51100000000E-03 0. -1.
        -11    1    3    3    0    0 -0.17266797604E+02  0.43619883874E+00  0.60233997309E+01  0.18292455098E+02  0.51100000000E-03 0.  1.
        -12    1    3    3    0    0 -0.51786164187E+01  0.55554863351E+01 -0.34957132150E+02  0.35772651350E+02  0.00000000000E+00 0.  1.
</event>
<event>
 7    1  0.2468912E-015  0.9000769E+02  0.7816164E-02  0.1186339E+00
        -11   -1    0    0    0    0  0.00000000000E+00  0.00000000000E+00  0.45593999997E+02  0.45594000000E+02  0.51100000000E-03 0.  1.
         11   -1    0    0    0    0 -0.00000000000E+00 -0.00000000000E+00 -0.45593999997E+02  0.45594000000E+02  0.51100000000E-03 0. -1.
    9900012    2    1    2    0    0 -0.13135783614E+00 -0.11535767350E+01  0.21244017937E+00  0.90007692839E+02  0.89999953584E+02 0.  0.
         12    1    1    2    0    0  0.13135783614E+00  0.11535767350E+01 -0.21244017937E+00  0.11803071611E+01  0.00000000000E+00 0. -1.
         11    1    3    3    0    0  0.17999882638E+02  0.18822670883E+02 -0.27215681096E+02  0.37669377642E+02  0.51100000000E-03 0. -1.
        -11    1    3    3    0    0  0.79721662275E+01 -0.76168377881E+01 -0.18866197430E+01  0.11186196251E+02  0.51100000000E-03 0.  1.
        -12    1    3    3    0    0 -0.26103406701E+02 -0.12359409830E+02  0.29314741019E+02  0.41152118946E+02  0.00000000000E+00 0.  1.
</event>
<event>
 7    1  0.2468912E-015  0.9000778E+02  0.7816164E-02  0.1186339E+00
        -11   -1    0    0    0    0  0.00000000000E+00  0.00000000000E+00  0.45593999997E+02  0.45594000000E+02  0.51100000000E-03 0. -1.
         11   -1    0    0    0    0 -0.00000000000E+00 -0.00000000000E+00 -0.45593999997E+02  0.45594000000E+02  0.51100000000E-03 0.  1.
    9900012    2    1    2    0    0 -0.45121751161E+00 -0.10750915404E+01  0.18304433171E+00  0.90007777864E+02  0.90000039732E+02 0.  0.
         12    1    1    2    0    0  0.45121751161E+00  0.10750915404E+01 -0.18304433171E+00  0.11802221360E+01  0.00000000000E+00 0. -1.
         11    1    3    3    0    0 -0.77261047823E+01  0.71224913857E+01  0.38411872024E+02  0.39823290814E+02  0.51100000000E-03 0. -1.
        -11    1    3    3    0    0  0.16401749119E+00  0.62463254884E+01  0.22344911040E+01  0.66359953737E+01  0.51100000000E-03 0.  1.
        -12    1    3    3    0    0  0.71108697795E+01 -0.14443908414E+02 -0.40463318796E+02  0.43548491676E+02  0.00000000000E+00 0.  1.
</event>
<event>
 7    1  0.2468912E-015  0.9000773E+02  0.7816164E-02  0.1186339E+00
        -11   -1    0    0    0    0  0.00000000000E+00  0.00000000000E+00  0.45593999997E+02  0.45594000000E+02  0.51100000000E-03 0.  1.
         11   -1    0    0    0    0 -0.00000000000E+00 -0.00000000000E+00 -0.45593999997E+02  0.45594000000E+02  0.51100000000E-03 0. -1.
    9900012    2    1    2    0    0  0.93663958919E+00  0.64065447673E+00 -0.32449844952E+00  0.90007732606E+02  0.89999993876E+02 0.  0.
         12    1    1    2    0    0 -0.93663958919E+00 -0.64065447673E+00  0.32449844952E+00  0.11802673944E+01  0.00000000000E+00 0. -1.
         11    1    3    3    0    0 -0.33197558752E+02  0.18843570549E+02 -0.77995820842E+01  0.38961410897E+02  0.51100000000E-03 0. -1.
        -11    1    3    3    0    0  0.61186078312E+00 -0.28228464859E+01 -0.98737626569E+01  0.10287566533E+02  0.51100000000E-03 0.  1.
        -12    1    3    3    0    0  0.33522337558E+02 -0.15380069586E+02  0.17348846292E+02  0.40758755176E+02  0.00000000000E+00 0.  1.
</event>
<event>
 7    1  0.2468912E-015  0.9000790E+02  0.7816164E-02  0.1186339E+00
        -11   -1    0    0    0    0  0.00000000000E+00  0.00000000000E+00  0.45593999997E+02  0.45594000000E+02  0.51100000000E-03 0. -1.
         11   -1    0    0    0    0 -0.00000000000E+00 -0.00000000000E+00 -0.45593999997E+02  0.45594000000E+02  0.51100000000E-03 0.  1.
    9900012    2    1    2    0    0 -0.83913193523E+00 -0.62009396388E+00  0.55133779903E+00  0.90007901573E+02  0.90000165074E+02 0.  0.
         12    1    1    2    0    0  0.83913193523E+00  0.62009396388E+00 -0.55133779903E+00  0.11800984270E+01  0.00000000000E+00 0. -1.
         11    1    3    3    0    0 -0.74378590593E+00  0.19957746769E+01  0.87768323137E+01  0.90315624207E+01  0.51100000000E-03 0. -1.
        -11    1    3    3    0    0 -0.34259060534E+02  0.10850450346E+02  0.13407672276E+02  0.38355979684E+02  0.51100000000E-03 0.  1.
         12    1    3    3    0    0  0.34163714505E+02 -0.13466318986E+02 -0.21633166791E+02  0.42620359468E+02  0.00000000000E+00 0. -1.
</event>
<event>
 7    1  0.2468912E-015  0.9000760E+02  0.7816164E-02  0.1186339E+00
        -11   -1    0    0    0    0  0.00000000000E+00  0.00000000000E+00  0.45593999997E+02  0.45594000000E+02  0.51100000000E-03 0.  1.
         11   -1    0    0    0    0 -0.00000000000E+00 -0.00000000000E+00 -0.45593999997E+02  0.45594000000E+02  0.51100000000E-03 0. -1.
    9900012    2    1    2    0    0 -0.58414437607E-01 -0.10586665374E+01 -0.51880943763E+00  0.90007597392E+02  0.89999856878E+02 0.  0.
         12    1    1    2    0    0  0.58414437607E-01  0.10586665374E+01  0.51880943763E+00  0.11804026078E+01  0.00000000000E+00 0. -1.
         11    1    3    3    0    0  0.26918213277E+02 -0.16269988394E+01 -0.27903747011E+02  0.38805365979E+02  0.51100000000E-03 0. -1.
        -11    1    3    3    0    0  0.70542719423E+01 -0.46030251891E+01  0.27037296172E+01  0.88465104777E+01  0.51100000000E-03 0.  1.
        -12    1    3    3    0    0 -0.34030899657E+02  0.51713574911E+01  0.24681207957E+02  0.42355720935E+02  0.00000000000E+00 0.  1.
</event>
<event>
 7    1  0.2468912E-015  0.9000772E+02  0.7816164E-02  0.1186339E+00
        -11   -1    0    0    0    0  0.00000000000E+00  0.00000000000E+00  0.45593999997E+02  0.45594000000E+02  0.51100000000E-03 0. -1.
         11   -1    0    0    0    0 -0.00000000000E+00 -0.00000000000E+00 -0.45593999997E+02  0.45594000000E+02  0.51100000000E-03 0.  1.
    9900012    2    1    2    0    0  0.92031964055E+00 -0.33157943072E+00 -0.66039885189E+00  0.90007720455E+02  0.89999981565E+02 0.  0.
         12    1    1    2    0    0 -0.92031964055E+00  0.33157943072E+00  0.66039885189E+00  0.11802795445E+01  0.00000000000E+00 0. -1.
         11    1    3    3    0    0  0.30012248383E+02 -0.18859091424E+02  0.45429423132E+01  0.35735678355E+02  0.51100000000E-03 0. -1.
        -11    1    3    3    0    0  0.13001193346E+00 -0.11740541256E+02  0.82433334256E+00  0.11770163032E+02  0.51100000000E-03 0.  1.
        -12    1    3    3    0    0 -0.29221940676E+02  0.30268053250E+02 -0.60276745077E+01  0.42501879068E+02  0.00000000000E+00 0.  1.
</event>
<event>
 7    1  0.2468912E-015  0.9000768E+02  0.7816164E-02  0.1186339E+00
        -11   -1    0    0    0    0  0.00000000000E+00  0.00000000000E+00  0.45593999997E+02  0.45594000000E+02  0.51100000000E-03 0. -1.
         11   -1    0    0    0    0 -0.00000000000E+00 -0.00000000000E+00 -0.45593999997E+02  0.45594000000E+02  0.51100000000E-03 0.  1.
    9900012    2    1    2    0    0 -0.97364286483E+00 -0.14879240332E+00 -0.65041040246E+00  0.90007680849E+02  0.89999941436E+02 0.  0.
         12    1    1    2    0    0  0.97364286483E+00  0.14879240332E+00  0.65041040246E+00  0.11803191514E+01  0.00000000000E+00 0. -1.
         11    1    3    3    0    0  0.35045705007E+02 -0.20041999481E+02  0.78082528862E+01  0.41119970768E+02  0.51100000000E-03 0. -1.
        -11    1    3    3    0    0 -0.30569829823E+01  0.25877304626E+01  0.74058073401E+01  0.84194700856E+01  0.51100000000E-03 0.  1.
        -12    1    3    3    0    0 -0.32962364889E+02  0.17305476615E+02 -0.15864470629E+02  0.40468239995E+02  0.00000000000E+00 0.  1.
</event>
<event>
 7    1  0.2468912E-015  0.9000775E+02  0.7816164E-02  0.1186339E+00
        -11   -1    0    0    0    0  0.00000000000E+00  0.00000000000E+00  0.45593999997E+02  0.45594000000E+02  0.51100000000E-03 0.  1.
         11   -1    0    0    0    0 -0.00000000000E+00 -0.00000000000E+00 -0.45593999997E+02  0.45594000000E+02  0.51100000000E-03 0. -1.
    9900012    2    1    2    0    0  0.26651848297E-01  0.10080760960E+01 -0.61324711442E+00  0.90007745892E+02  0.90000007338E+02 0.  0.
         12    1    1    2    0    0 -0.26651848297E-01 -0.10080760960E+01  0.61324711442E+00  0.11802541081E+01  0.00000000000E+00 0. -1.
         11    1    3    3    0    0  0.12032734797E+02 -0.12263277363E+02  0.64504433994E+01  0.18351645667E+02  0.51100000000E-03 0. -1.
        -11    1    3    3    0    0 -0.33572018962E+02 -0.13001042735E+02 -0.10477062580E+02  0.37495018469E+02  0.51100000000E-03 0.  1.
         12    1    3    3    0    0  0.21565936013E+02  0.26272396194E+02  0.34133720663E+01  0.34161081756E+02  0.00000000000E+00 0. -1.
</event>
<event>
 7    1  0.2468912E-015  0.9000771E+02  0.7816164E-02  0.1186339E+00
        -11   -1    0    0    0    0  0.00000000000E+00  0.00000000000E+00  0.45593999997E+02  0.45594000000E+02  0.51100000000E-03 0. -1.
         11   -1    0    0    0    0 -0.00000000000E+00 -0.00000000000E+00 -0.45593999997E+02  0.45594000000E+02  0.51100000000E-03 0.  1.
    9900012    2    1    2    0    0 -0.72833437638E+00  0.59067813280E+00 -0.71673113587E+00  0.90007713958E+02  0.89999974982E+02 0.  0.
         12    1    1    2    0    0  0.72833437638E+00 -0.59067813280E+00  0.71673113587E+00  0.11802860422E+01  0.00000000000E+00 0. -1.
         11    1    3    3    0    0  0.30046669235E+02 -0.46545017425E+01  0.29352418921E+02  0.42261462532E+02  0.51100000000E-03 0. -1.
        -11    1    3    3    0    0 -0.95968840423E+01  0.24900985210E+01  0.10859758474E+01  0.99739720156E+01  0.51100000000E-03 0.  1.
        -12    1    3    3    0    0 -0.21178119569E+02  0.27550813543E+01 -0.31155125904E+02  0.37772279410E+02  0.00000000000E+00 0.  1.
</event>
<event>
 7    1  0.2468912E-015  0.9000771E+02  0.7816164E-02  0.1186339E+00
        -11   -1    0    0    0    0  0.00000000000E+00  0.00000000000E+00  0.45593999997E+02  0.45594000000E+02  0.51100000000E-03 0.  1.
         11   -1    0    0    0    0 -0.00000000000E+00 -0.00000000000E+00 -0.45593999997E+02  0.45594000000E+02  0.51100000000E-03 0. -1.
    9900012    2    1    2    0    0  0.22132789056E+00  0.45535903418E+00  0.10661781970E+01  0.90007714512E+02  0.89999975544E+02 0.  0.
         12    1    1    2    0    0 -0.22132789056E+00 -0.45535903418E+00 -0.10661781970E+01  0.11802854879E+01  0.00000000000E+00 0. -1.
         11    1    3    3    0    0  0.15347362143E+02  0.21414345974E+02 -0.28496607161E+02  0.38809436458E+02  0.51100000000E-03 0. -1.
        -11    1    3    3    0    0 -0.37591372835E+01 -0.22743454360E+01 -0.71924999883E+01  0.84282748307E+01  0.51100000000E-03 0.  1.
        -12    1    3    3    0    0 -0.11366896969E+02 -0.18684641504E+02  0.36755285346E+02  0.42770003223E+02  0.00000000000E+00 0.  1.
</event>
<event>
 7    1  0.2468912E-015  0.9000775E+02  0.7816164E-02  0.1186339E+00
        -11   -1    0    0    0    0  0.00000000000E+00  0.00000000000E+00  0.45593999997E+02  0.45594000000E+02  0.51100000000E-03 0. -1.
         11   -1    0    0    0    0 -0.00000000000E+00 -0.00000000000E+00 -0.45593999997E+02  0.45594000000E+02  0.51100000000E-03 0.  1.
    9900012    2    1    2    0    0 -0.91468835019E+00  0.69974353700E+00 -0.25824520934E+00  0.90007751558E+02  0.90000013079E+02 0.  0.
         12    1    1    2    0    0  0.91468835019E+00 -0.69974353700E+00  0.25824520934E+00  0.11802484415E+01  0.00000000000E+00 0. -1.
         11    1    3    3    0    0  0.14188295595E+02  0.72577763396E+00 -0.65459872415E+01  0.15642392218E+02  0.51100000000E-03 0. -1.
        -11    1    3    3    0    0  0.17153462613E+02 -0.10495777300E+01 -0.24391282578E+02  0.29837519318E+02  0.51100000000E-03 0.  1.
         12    1    3    3    0    0 -0.32256446558E+02  0.10235436330E+01  0.30679024610E+02  0.44527840023E+02  0.00000000000E+00 0. -1.
</event>
<event>
 7    1  0.2468912E-015  0.9000774E+02  0.7816164E-02  0.1186339E+00
        -11   -1    0    0    0    0  0.00000000000E+00  0.00000000000E+00  0.45593999997E+02  0.45594000000E+02  0.51100000000E-03 0. -1.
         11   -1    0    0    0    0 -0.00000000000E+00 -0.00000000000E+00 -0.45593999997E+02  0.45594000000E+02  0.51100000000E-03 0.  1.
    9900012    2    1    2    0    0 -0.10105213477E+01 -0.60540277265E+00 -0.73133083588E-01  0.90007739707E+02  0.90000001071E+02 0.  0.
         12    1    1    2    0    0  0.10105213477E+01  0.60540277265E+00  0.73133083588E-01  0.11802602930E+01  0.00000000000E+00 0. -1.
         11    1    3    3    0    0  0.24534170350E+01 -0.51953084162E+01  0.79431112025E+01  0.98032392872E+01  0.51100000000E-03 0. -1.
        -11    1    3    3    0    0  0.30500950469E+02 -0.16702159606E+02 -0.17619124681E+02  0.38983376840E+02  0.51100000000E-03 0.  1.
         12    1    3    3    0    0 -0.33964888852E+02  0.21292065250E+02  0.96028803954E+01  0.41221123580E+02  0.00000000000E+00 0. -1.
</event>
<event>
 7    1  0.2468912E-015  0.9000771E+02  0.7816164E-02  0.1186339E+00
        -11   -1    0    0    0    0  0.00000000000E+00  0.00000000000E+00  0.45593999997E+02  0.45594000000E+02  0.51100000000E-03 0. -1.
         11   -1    0    0    0    0 -0.00000000000E+00 -0.00000000000E+00 -0.45593999997E+02  0.45594000000E+02  0.51100000000E-03 0.  1.
    9900012    2    1    2    0    0  0.23497076444E+00 -0.11134222188E+01 -0.31330512658E+00  0.90007711730E+02  0.89999972725E+02 0.  0.
         12    1    1    2    0    0 -0.23497076444E+00  0.11134222188E+01  0.31330512658E+00  0.11802882698E+01  0.00000000000E+00 0. -1.
         11    1    3    3    0    0 -0.35118728532E+01 -0.28316664935E+01 -0.93266927663E+01  0.10360443248E+02  0.51100000000E-03 0. -1.
        -11    1    3    3    0    0 -0.44112664768E+01  0.35013714601E+02 -0.14420076717E+02  0.38122933975E+02  0.51100000000E-03 0.  1.
         12    1    3    3    0    0  0.81581100945E+01 -0.33295470326E+02  0.23433464357E+02  0.41524334508E+02  0.00000000000E+00 0. -1.
</event>
<event>
 7    1  0.2468912E-015  0.9000775E+02  0.7816164E-02  0.1186339E+00
        -11   -1    0    0    0    0  0.00000000000E+00  0.00000000000E+00  0.45593999997E+02  0.45594000000E+02  0.51100000000E-03 0.  1.
         11   -1    0    0    0    0 -0.00000000000E+00 -0.00000000000E+00 -0.45593999997E+02  0.45594000000E+02  0.51100000000E-03 0. -1.
    9900012    2    1    2    0    0 -0.92367625745E+00 -0.62358581800E+00  0.38853599735E+00  0.90007746925E+02  0.90000008384E+02 0.  0.
         12    1    1    2    0    0  0.92367625745E+00  0.62358581800E+00 -0.38853599735E+00  0.11802530755E+01  0.00000000000E+00 0. -1.
         11    1    3    3    0    0 -0.10423398884E+02  0.30706187852E+01  0.32815559737E+00  0.10871229479E+02  0.51100000000E-03 0. -1.
        -11    1    3    3    0    0  0.33051857028E+02  0.24047355055E+02  0.85722080691E+01  0.41763420472E+02  0.51100000000E-03 0.  1.
         12    1    3    3    0    0 -0.23552134401E+02 -0.27741559658E+02 -0.85118276691E+01  0.37373096973E+02  0.00000000000E+00 0. -1.
</event>
<event>
 7    1  0.2468912E-015  0.9000772E+02  0.7816164E-02  0.1186339E+00
        -11   -1    0    0    0    0  0.00000000000E+00  0.00000000000E+00  0.45593999997E+02  0.45594000000E+02  0.51100000000E-03 0. -1.
         11   -1    0    0    0    0 -0.00000000000E+00 -0.00000000000E+00 -0.45593999997E+02  0.45594000000E+02  0.51100000000E-03 0.  1.
    9900012    2    1    2    0    0 -0.49063839404E+00  0.98261771001E+00 -0.43219249319E+00  0.90007722936E+02  0.89999984078E+02 0.  0.
         12    1    1    2    0    0  0.49063839404E+00 -0.98261771001E+00  0.43219249319E+00  0.11802770645E+01  0.00000000000E+00 0. -1.
         11    1    3    3    0    0 -0.36547170298E+00 -0.35382342432E+02  0.73233214287E+01  0.36134121860E+02  0.51100000000E-03 0. -1.
        -11    1    3    3    0    0 -0.17301610678E+00 -0.31077435912E+01  0.10086461555E+02  0.10555790437E+02  0.51100000000E-03 0.  1.
        -12    1    3    3    0    0  0.47849415719E-01  0.39472703734E+02 -0.17841975476E+02  0.43317810639E+02  0.00000000000E+00 0.  1.
</event>
<event>
 7    1  0.2468912E-015  0.9000775E+02  0.7816164E-02  0.1186339E+00
        -11   -1    0    0    0    0  0.00000000000E+00  0.00000000000E+00  0.45593999997E+02  0.45594000000E+02  0.51100000000E-03 0.  1.
         11   -1    0    0    0    0 -0.00000000000E+00 -0.00000000000E+00 -0.45593999997E+02  0.45594000000E+02  0.51100000000E-03 0. -1.
    9900012    2    1    2    0    0  0.21131375468E-01  0.56554639116E+00 -0.10357144152E+01  0.90007748499E+02  0.90000009979E+02 0.  0.
         12    1    1    2    0    0 -0.21131375468E-01 -0.56554639116E+00  0.10357144152E+01  0.11802515009E+01  0.00000000000E+00 0. -1.
         11    1    3    3    0    0 -0.37157472925E+01  0.25596897336E+01  0.83098321913E+01  0.94557972051E+01  0.51100000000E-03 0. -1.
        -11    1    3    3    0    0 -0.21453288010E+02  0.23283006870E+02  0.17242157400E+02  0.36050436438E+02  0.51100000000E-03 0.  1.
         12    1    3    3    0    0  0.25190166678E+02 -0.25277150212E+02 -0.26587704007E+02  0.44501514856E+02  0.00000000000E+00 0. -1.
</event>
<event>
 7    1  0.2468912E-015  0.9000793E+02  0.7816164E-02  0.1186339E+00
        -11   -1    0    0    0    0  0.00000000000E+00  0.00000000000E+00  0.45593999997E+02  0.45594000000E+02  0.51100000000E-03 0.  1.
         11   -1    0    0    0    0 -0.00000000000E+00 -0.00000000000E+00 -0.45593999997E+02  0.45594000000E+02  0.51100000000E-03 0. -1.
    9900012    2    1    2    0    0  0.32234186371E+00  0.43774349683E+00  0.10473955170E+01  0.90007931775E+02  0.90000195674E+02 0.  0.
         12    1    1    2    0    0 -0.32234186371E+00 -0.43774349683E+00 -0.10473955170E+01  0.11800682248E+01  0.00000000000E+00 0. -1.
         11    1    3    3    0    0 -0.37604659187E+01  0.40627855056E+01  0.82361844688E+01  0.99238130200E+01  0.51100000000E-03 0. -1.
        -11    1    3    3    0    0  0.28097692499E+02  0.16615573678E+02  0.20220952155E+02  0.38398496308E+02  0.51100000000E-03 0.  1.
         12    1    3    3    0    0 -0.24014884716E+02 -0.20240615687E+02 -0.27409741106E+02  0.41685622447E+02  0.00000000000E+00 0. -1.
</event>
<event>
 7    1  0.2468912E-015  0.9000804E+02  0.7816164E-02  0.1186338E+00
        -11   -1    0    0    0    0  0.00000000000E+00  0.00000000000E+00  0.45593999997E+02  0.45594000000E+02  0.51100000000E-03 0.  1.
         11   -1    0    0    0    0 -0.00000000000E+00 -0.00000000000E+00 -0.45593999997E+02  0.45594000000E+02  0.51100000000E-03 0. -1.
    9900012    2    1    2    0    0 -0.66446930129E-01  0.11104724547E+01 -0.39336441284E+00  0.90008042446E+02  0.90000307806E+02 0.  0.
         12    1    1    2    0    0  0.66446930129E-01 -0.11104724547E+01  0.39336441284E+00  0.11799575537E+01  0.00000000000E+00 0. -1.
         11    1    3    3    0    0  0.74765312124E+01 -0.13701267909E+01  0.57383789851E+01  0.95239046630E+01  0.51100000000E-03 0. -1.
        -11    1    3    3    0    0 -0.39465155158E+02  0.16551958185E+02  0.66924546837E+01  0.43315756271E+02  0.51100000000E-03 0.  1.
         12    1    3    3    0    0  0.31922177015E+02 -0.14071358939E+02 -0.12824198082E+02  0.37168381512E+02  0.00000000000E+00 0. -1.
</event>
<event>
 7    1  0.2468912E-015  0.9000731E+02  0.7816164E-02  0.1186340E+00
        -11   -1    0    0    0    0  0.00000000000E+00  0.00000000000E+00  0.45593999997E+02  0.45594000000E+02  0.51100000000E-03 0.  1.
         11   -1    0    0    0    0 -0.00000000000E+00 -0.00000000000E+00 -0.45593999997E+02  0.45594000000E+02  0.51100000000E-03 0. -1.
    9900012    2    1    2    0    0  0.67007715288E+00 -0.19006193926E+00  0.95336350473E+00  0.90007309988E+02  0.89999565679E+02 0.  0.
         12    1    1    2    0    0 -0.67007715288E+00  0.19006193926E+00 -0.95336350473E+00  0.11806900117E+01  0.00000000000E+00 0. -1.
         11    1    3    3    0    0  0.23906079808E+02  0.34984438432E+02  0.48975560826E+01  0.42654397664E+02  0.51100000000E-03 0. -1.
        -11    1    3    3    0    0 -0.37504168109E+01 -0.67803029535E+01  0.77745750116E+01  0.10976436183E+02  0.51100000000E-03 0.  1.
        -12    1    3    3    0    0 -0.19485585844E+02 -0.28394197418E+02 -0.11718767589E+02  0.36376476142E+02  0.00000000000E+00 0.  1.
</event>
<event>
 7    1  0.2468912E-015  0.9000660E+02  0.7816164E-02  0.1186341E+00
        -11   -1    0    0    0    0  0.00000000000E+00  0.00000000000E+00  0.45593999997E+02  0.45594000000E+02  0.51100000000E-03 0. -1.
         11   -1    0    0    0    0 -0.00000000000E+00 -0.00000000000E+00 -0.45593999997E+02  0.45594000000E+02  0.51100000000E-03 0.  1.
    9900012    2    1    2    0    0  0.53563572342E+00 -0.10414777537E+01  0.15531054867E+00  0.90006601292E+02  0.89998847622E+02 0.  0.
         12    1    1    2    0    0 -0.53563572342E+00  0.10414777537E+01 -0.15531054867E+00  0.11813987075E+01  0.00000000000E+00 0. -1.
         11    1    3    3    0    0 -0.23390310946E+02  0.32603113741E+02  0.91126939375E+01  0.41147428386E+02  0.51100000000E-03 0. -1.
        -11    1    3    3    0    0  0.89886437421E+01  0.13137107503E+01 -0.56542025169E+01  0.10700072833E+02  0.51100000000E-03 0.  1.
        -12    1    3    3    0    0  0.14937302927E+02 -0.34958302245E+02 -0.33031808719E+01  0.38159100074E+02  0.00000000000E+00 0.  1.
</event>
<event>
 7    1  0.2468912E-015  0.9000776E+02  0.7816164E-02  0.1186339E+00
        -11   -1    0    0    0    0  0.00000000000E+00  0.00000000000E+00  0.45593999997E+02  0.45594000000E+02  0.51100000000E-03 0.  1.
         11   -1    0    0    0    0 -0.00000000000E+00 -0.00000000000E+00 -0.45593999997E+02  0.45594000000E+02  0.51100000000E-03 0. -1.
    9900012    2    1    2    0    0 -0.44038955396E+00 -0.89595169801E+00  0.62951863614E+00  0.90007760144E+02  0.90000021778E+02 0.  0.
         12    1    1    2    0    0  0.44038955396E+00  0.89595169801E+00 -0.62951863614E+00  0.11802398560E+01  0.00000000000E+00 0. -1.
         11    1    3    3    0    0  0.17511923019E+01 -0.18358002396E+01 -0.88789741993E+01  0.92343391800E+01  0.51100000000E-03 0. -1.
        -11    1    3    3    0    0  0.31314410126E+02 -0.80825434625E+01  0.26802133982E+02  0.42003263881E+02  0.51100000000E-03 0.  1.
         12    1    3    3    0    0 -0.33505991982E+02  0.90223920041E+01 -0.17293641147E+02  0.38770157083E+02  0.00000000000E+00 0. -1.
</event>
<event>
 7    1  0.2468912E-015  0.9000775E+02  0.7816164E-02  0.1186339E+00
        -11   -1    0    0    0    0  0.00000000000E+00  0.00000000000E+00  0.45593999997E+02  0.45594000000E+02  0.51100000000E-03 0. -1.
         11   -1    0    0    0    0 -0.00000000000E+00 -0.00000000000E+00 -0.45593999997E+02  0.45594000000E+02  0.51100000000E-03 0.  1.
    9900012    2    1    2    0    0 -0.10234190969E+01 -0.27196739159E+00 -0.52119128138E+00  0.90007748645E+02  0.90000010127E+02 0.  0.
         12    1    1    2    0    0  0.10234190969E+01  0.27196739159E+00  0.52119128138E+00  0.11802513553E+01  0.00000000000E+00 0. -1.
         11    1    3    3    0    0 -0.46661035240E+01  0.65442159645E+00  0.36533843943E+02  0.36836429566E+02  0.51100000000E-03 0. -1.
        -11    1    3    3    0    0 -0.14502841079E+02  0.76796173291E+01 -0.91446063261E+01  0.18786504379E+02  0.51100000000E-03 0.  1.
        -12    1    3    3    0    0  0.18145525506E+02 -0.86060063171E+01 -0.27910428898E+02  0.34384814699E+02  0.00000000000E+00 0.  1.
</event>
<event>
 7    1  0.2468912E-015  0.9000779E+02  0.7816164E-02  0.1186339E+00
        -11   -1    0    0    0    0  0.00000000000E+00  0.00000000000E+00  0.45593999997E+02  0.45594000000E+02  0.51100000000E-03 0.  1.
         11   -1    0    0    0    0 -0.00000000000E+00 -0.00000000000E+00 -0.45593999997E+02  0.45594000000E+02  0.51100000000E-03 0. -1.
    9900012    2    1    2    0    0  0.30206395601E+00 -0.82433376772E+00  0.78875429524E+00  0.90007787251E+02  0.90000049243E+02 0.  0.
         12    1    1    2    0    0 -0.30206395601E+00  0.82433376772E+00 -0.78875429524E+00  0.11802127488E+01  0.00000000000E+00 0. -1.
         11    1    3    3    0    0  0.14727698961E+01  0.13128002843E+01 -0.84302275280E+01  0.86580154879E+01  0.51100000000E-03 0. -1.
        -11    1    3    3    0    0 -0.13281815270E+02 -0.17638648616E+02 -0.30131878923E+02  0.37355838494E+02  0.51100000000E-03 0.  1.
         12    1    3    3    0    0  0.12111109330E+02  0.15501514564E+02  0.39350860747E+02  0.43993933269E+02  0.00000000000E+00 0. -1.
</event>
<event>
 7    1  0.2468912E-015  0.9000775E+02  0.7816164E-02  0.1186339E+00
        -11   -1    0    0    0    0  0.00000000000E+00  0.00000000000E+00  0.45593999997E+02  0.45594000000E+02  0.51100000000E-03 0. -1.
         11   -1    0    0    0    0 -0.00000000000E+00 -0.00000000000E+00 -0.45593999997E+02  0.45594000000E+02  0.51100000000E-03 0.  1.
    9900012    2    1    2    0    0 -0.67984478252E+00  0.61564408241E+00 -0.74282916516E+00  0.90007745056E+02  0.90000006491E+02 0.  0.
         12    1    1    2    0    0  0.67984478252E+00 -0.61564408241E+00  0.74282916516E+00  0.11802549441E+01  0.00000000000E+00 0. -1.
         11    1    3    3    0    0 -0.90285573351E+01 -0.13685151317E+01 -0.19660890874E+01  0.93409414825E+01  0.51100000000E-03 0. -1.
        -11    1    3    3    0    0 -0.13726529499E+02  0.36227153503E+02 -0.62612278091E+01  0.39243180770E+02  0.51100000000E-03 0.  1.
         12    1    3    3    0    0  0.22075242052E+02 -0.34242994289E+02  0.74844877313E+01  0.41423622803E+02  0.00000000000E+00 0. -1.
</event>
<event>
 7    1  0.2468912E-015  0.9000767E+02  0.7816164E-02  0.1186339E+00
        -11   -1    0    0    0    0  0.00000000000E+00  0.00000000000E+00  0.45593999997E+02  0.45594000000E+02  0.51100000000E-03 0.  1.
         11   -1    0    0    0    0 -0.00000000000E+00 -0.00000000000E+00 -0.45593999997E+02  0.45594000000E+02  0.51100000000E-03 0. -1.
    9900012    2    1    2    0    0 -0.43051933881E+00  0.10121418822E+01 -0.42824734114E+00  0.90007672132E+02  0.89999932604E+02 0.  0.
         12    1    1    2    0    0  0.43051933881E+00 -0.10121418822E+01  0.42824734114E+00  0.11803278680E+01  0.00000000000E+00 0. -1.
         11    1    3    3    0    0  0.40543127022E+02  0.75305127839E+00  0.68183903112E+01  0.41119371124E+02  0.51100000000E-03 0. -1.
        -11    1    3    3    0    0 -0.48601824261E+01  0.84522598420E+01 -0.67414314484E+01  0.11853647873E+02  0.51100000000E-03 0.  1.
        -12    1    3    3    0    0 -0.36113463935E+02 -0.81931692382E+01 -0.50520620390E+00  0.37034653135E+02  0.00000000000E+00 0.  1.
</event>
<event>
 7    1  0.2468912E-015  0.9000792E+02  0.7816164E-02  0.1186339E+00
        -11   -1    0    0    0    0  0.00000000000E+00  0.00000000000E+00  0.45593999997E+02  0.45594000000E+02  0.51100000000E-03 0.  1.
         11   -1    0    0    0    0 -0.00000000000E+00 -0.00000000000E+00 -0.45593999997E+02  0.45594000000E+02  0.51100000000E-03 0. -1.
    9900012    2    1    2    0    0  0.97302742631E+00  0.59965918349E-01  0.66499434009E+00  0.90007917055E+02  0.90000180760E+02 0.  0.
         12    1    1    2    0    0 -0.97302742631E+00 -0.59965918349E-01 -0.66499434009E+00  0.11800829446E+01  0.00000000000E+00 0. -1.
         11    1    3    3    0    0  0.36713318967E+02  0.29173739521E+01 -0.65379079494E+01  0.37404853976E+02  0.51100000000E-03 0. -1.
        -11    1    3    3    0    0  0.53765890727E+01  0.97065999264E+00 -0.70487844335E+01  0.89182539283E+01  0.51100000000E-03 0.  1.
        -12    1    3    3    0    0 -0.41116880613E+02 -0.38280680264E+01  0.14251686723E+02  0.43684809152E+02  0.00000000000E+00 0.  1.
</event>
<event>
 7    1  0.2468912E-015  0.9000780E+02  0.7816164E-02  0.1186339E+00
        -11   -1    0    0    0    0  0.00000000000E+00  0.00000000000E+00  0.45593999997E+02  0.45594000000E+02  0.51100000000E-03 0.  1.
         11   -1    0    0    0    0 -0.00000000000E+00 -0.00000000000E+00 -0.45593999997E+02  0.45594000000E+02  0.51100000000E-03 0. -1.
    9900012    2    1    2    0    0  0.82091473650E+00 -0.66967003289E+00  0.52011593098E+00  0.90007796823E+02  0.90000058941E+02 0.  0.
         12    1    1    2    0    0 -0.82091473650E+00  0.66967003289E+00 -0.52011593098E+00  0.11802031771E+01  0.00000000000E+00 0. -1.
         11    1    3    3    0    0  0.13779103775E+02 -0.12922392246E+02 -0.36668440934E+02  0.41248351276E+02  0.51100000000E-03 0. -1.
        -11    1    3    3    0    0 -0.87656198166E+01 -0.73804102635E+01  0.13691795604E+02  0.17854181963E+02  0.51100000000E-03 0.  1.
        -12    1    3    3    0    0 -0.41925692224E+01  0.19633132476E+02  0.23496761260E+02  0.30905263584E+02  0.00000000000E+00 0.  1.
</event>
<event>
 7    1  0.2468912E-015  0.9000767E+02  0.7816164E-02  0.1186339E+00
        -11   -1    0    0    0    0  0.00000000000E+00  0.00000000000E+00  0.45593999997E+02  0.45594000000E+02  0.51100000000E-03 0. -1.
         11   -1    0    0    0    0 -0.00000000000E+00 -0.00000000000E+00 -0.45593999997E+02  0.45594000000E+02  0.51100000000E-03 0.  1.
    9900012    2    1    2    0    0  0.10469341733E+00 -0.10928358443E+01 -0.43350433365E+00  0.90007670850E+02  0.89999931306E+02 0.  0.
         12    1    1    2    0    0 -0.10469341733E+00  0.10928358443E+01  0.43350433365E+00  0.11803291497E+01  0.00000000000E+00 0. -1.
         11    1    3    3    0    0  0.11800032631E+02 -0.33276071918E+01 -0.33238359523E+00  0.12264755148E+02  0.51100000000E-03 0. -1.
        -11    1    3    3    0    0  0.24262113810E+01  0.26709979932E+01 -0.37547206440E+02  0.37720199412E+02  0.51100000000E-03 0.  1.
         12    1    3    3    0    0 -0.14121550595E+02 -0.43622664572E+00  0.37446085702E+02  0.40022716291E+02  0.00000000000E+00 0. -1.
</event>
<event>
 7    1  0.2468912E-015  0.9000779E+02  0.7816164E-02  0.1186339E+00
        -11   -1    0    0    0    0  0.00000000000E+00  0.00000000000E+00  0.45593999997E+02  0.45594000000E+02  0.51100000000E-03 0.  1.
         11   -1    0    0    0    0 -0.00000000000E+00 -0.00000000000E+00 -0.45593999997E+02  0.45594000000E+02  0.51100000000E-03 0. -1.
    9900012    2    1    2    0    0  0.71806929527E-01 -0.11045224774E+01  0.40960711850E+00  0.90007786405E+02  0.90000048386E+02 0.  0.
         12    1    1    2    0    0 -0.71806929527E-01  0.11045224774E+01 -0.40960711850E+00  0.11802135949E+01  0.00000000000E+00 0. -1.
         11    1    3    3    0    0 -0.78146494645E+01  0.42282470727E+00  0.39407052225E+01  0.87622305892E+01  0.51100000000E-03 0. -1.
        -11    1    3    3    0    0  0.15780788363E+02 -0.35218914864E+02  0.15691449474E+02  0.41660854917E+02  0.51100000000E-03 0.  1.
         12    1    3    3    0    0 -0.78943319692E+01  0.33691567679E+02 -0.19222547578E+02  0.39584700899E+02  0.00000000000E+00 0. -1.
</event>
<event>
 7    1  0.2468912E-015  0.9000749E+02  0.7816164E-02  0.1186340E+00
        -11   -1    0    0    0    0  0.00000000000E+00  0.00000000000E+00  0.45593999997E+02  0.45594000000E+02  0.51100000000E-03 0.  1.
         11   -1    0    0    0    0 -0.00000000000E+00 -0.00000000000E+00 -0.45593999997E+02  0.45594000000E+02  0.51100000000E-03 0. -1.
    9900012    2    1    2    0    0  0.43238833210E+00 -0.48498308159E+00  0.98560993319E+00  0.90007493668E+02  0.89999751784E+02 0.  0.
         12    1    1    2    0    0 -0.43238833210E+00  0.48498308159E+00 -0.98560993319E+00  0.11805063319E+01  0.00000000000E+00 0. -1.
         11    1    3    3    0    0  0.12114855367E+02 -0.30141621232E+02 -0.25962717315E+02  0.41585451082E+02  0.51100000000E-03 0. -1.
        -11    1    3    3    0    0 -0.86962054409E+01  0.23729998174E+01 -0.12161271757E+01  0.90958277673E+01  0.51100000000E-03 0.  1.
        -12    1    3    3    0    0 -0.29862615939E+01  0.27283638333E+02  0.28164454424E+02  0.39326214819E+02  0.00000000000E+00 0.  1.
</event>
<event>
 7    1  0.2468912E-015  0.9000784E+02  0.7816164E-02  0.1186339E+00
        -11   -1    0    0    0    0  0.00000000000E+00  0.00000000000E+00  0.45593999997E+02  0.45594000000E+02  0.51100000000E-03 0.  1.
         11   -1    0    0    0    0 -0.00000000000E+00 -0.00000000000E+00 -0.45593999997E+02  0.45594000000E+02  0.51100000000E-03 0. -1.
    9900012    2    1    2    0    0 -0.90825966547E+00  0.73380372405E+00  0.17136469835E+00  0.90007843491E+02  0.90000106225E+02 0.  0.
         12    1    1    2    0    0  0.90825966547E+00 -0.73380372405E+00 -0.17136469835E+00  0.11801565088E+01  0.00000000000E+00 0. -1.
         11    1    3    3    0    0 -0.19577145515E+02 -0.93214030873E+00  0.10907207175E+02  0.22429905945E+02  0.51100000000E-03 0. -1.
        -11    1    3    3    0    0 -0.97779805371E+01  0.25341018004E+02 -0.13752755578E+02  0.30445268649E+02  0.51100000000E-03 0.  1.
        -12    1    3    3    0    0  0.28446866387E+02 -0.23675073971E+02  0.30169131012E+01  0.37132668897E+02  0.00000000000E+00 0.  1.
</event>
<event>
 7    1  0.2468912E-015  0.9000775E+02  0.7816164E-02  0.1186339E+00
        -11   -1    0    0    0    0  0.00000000000E+00  0.00000000000E+00  0.45593999997E+02  0.45594000000E+02  0.51100000000E-03 0. -1.
         11   -1    0    0    0    0 -0.00000000000E+00 -0.00000000000E+00 -0.45593999997E+02  0.45594000000E+02  0.51100000000E-03 0.  1.
    9900012    2    1    2    0    0 -0.28023587203E+00  0.90341383363E+00 -0.70589840510E+00  0.90007753730E+02  0.90000015280E+02 0.  0.
         12    1    1    2    0    0  0.28023587203E+00 -0.90341383363E+00  0.70589840510E+00  0.11802462697E+01  0.00000000000E+00 0. -1.
         11    1    3    3    0    0 -0.12529819355E+01  0.32654611164E+02  0.15037298240E+02  0.35972405155E+02  0.51100000000E-03 0. -1.
        -11    1    3    3    0    0 -0.69365760194E+01  0.18133089371E+01  0.90630902941E+01  0.11556114490E+02  0.51100000000E-03 0.  1.
        -12    1    3    3    0    0  0.79093220829E+01 -0.33564506267E+02 -0.24806286940E+02  0.42479234085E+02  0.00000000000E+00 0.  1.
</event>
<event>
 7    1  0.2468912E-015  0.9000774E+02  0.7816164E-02  0.1186339E+00
        -11   -1    0    0    0    0  0.00000000000E+00  0.00000000000E+00  0.45593999997E+02  0.45594000000E+02  0.51100000000E-03 0.  1.
         11   -1    0    0    0    0 -0.00000000000E+00 -0.00000000000E+00 -0.45593999997E+02  0.45594000000E+02  0.51100000000E-03 0. -1.
    9900012    2    1    2    0    0 -0.21959446394E+00 -0.10565440757E+00  0.11548275263E+01  0.90007741046E+02  0.90000002428E+02 0.  0.
         12    1    1    2    0    0  0.21959446394E+00  0.10565440757E+00 -0.11548275263E+01  0.11802589537E+01  0.00000000000E+00 0. -1.
         11    1    3    3    0    0 -0.13265867363E+02  0.70309379607E+01 -0.40985135316E+02  0.43648581221E+02  0.51100000000E-03 0. -1.
        -11    1    3    3    0    0  0.49374750282E+01  0.26765257120E+01  0.69385589966E+01  0.89267043611E+01  0.51100000000E-03 0.  1.
        -12    1    3    3    0    0  0.81087978708E+01 -0.98131180803E+01  0.35201403846E+02  0.37432455464E+02  0.00000000000E+00 0.  1.
</event>
<event>
 7    1  0.2468912E-015  0.9000779E+02  0.7816164E-02  0.1186339E+00
        -11   -1    0    0    0    0  0.00000000000E+00  0.00000000000E+00  0.45593999997E+02  0.45594000000E+02  0.51100000000E-03 0.  1.
         11   -1    0    0    0    0 -0.00000000000E+00 -0.00000000000E+00 -0.45593999997E+02  0.45594000000E+02  0.51100000000E-03 0. -1.
    9900012    2    1    2    0    0 -0.98138041959E+00  0.55506945624E+00 -0.34882283951E+00  0.90007793661E+02  0.90000055737E+02 0.  0.
         12    1    1    2    0    0  0.98138041959E+00 -0.55506945624E+00  0.34882283951E+00  0.11802063390E+01  0.00000000000E+00 0. -1.
         11    1    3    3    0    0 -0.56010500305E+01 -0.81776551621E+01 -0.21758782286E+01  0.10147918591E+02  0.51100000000E-03 0. -1.
        -11    1    3    3    0    0 -0.55352874935E+01 -0.12647966331E+02  0.35848139940E+02  0.38414835641E+02  0.51100000000E-03 0.  1.
         12    1    3    3    0    0  0.10154957104E+02  0.21380690949E+02 -0.34021084551E+02  0.41445039429E+02  0.00000000000E+00 0. -1.
</event>
<event>
 7    1  0.2468912E-015  0.9000758E+02  0.7816164E-02  0.1186339E+00
        -11   -1    0    0    0    0  0.00000000000E+00  0.00000000000E+00  0.45593999997E+02  0.45594000000E+02  0.51100000000E-03 0.  1.
         11   -1    0    0    0    0 -0.00000000000E+00 -0.00000000000E+00 -0.45593999997E+02  0.45594000000E+02  0.51100000000E-03 0. -1.
    9900012    2    1    2    0    0 -0.31868999980E-01  0.46675714282E+00  0.10837469644E+01  0.90007582554E+02  0.89999841844E+02 0.  0.
         12    1    1    2    0    0  0.31868999980E-01 -0.46675714282E+00 -0.10837469644E+01  0.11804174459E+01  0.00000000000E+00 0. -1.
         11    1    3    3    0    0 -0.36439535965E+01  0.69285638193E+01  0.11566770889E+02  0.13966874506E+02  0.51100000000E-03 0. -1.
        -11    1    3    3    0    0 -0.29371174229E+01  0.26390241283E+00  0.32201407634E+02  0.32336155571E+02  0.51100000000E-03 0.  1.
         12    1    3    3    0    0  0.65492020194E+01 -0.67257090893E+01 -0.42684431558E+02  0.43704552478E+02  0.00000000000E+00 0. -1.
</event>
<event>
 7    1  0.2468912E-015  0.9000758E+02  0.7816164E-02  0.1186339E+00
        -11   -1    0    0    0    0  0.00000000000E+00  0.00000000000E+00  0.45593999997E+02  0.45594000000E+02  0.51100000000E-03 0. -1.
         11   -1    0    0    0    0 -0.00000000000E+00 -0.00000000000E+00 -0.45593999997E+02  0.45594000000E+02  0.51100000000E-03 0.  1.
    9900012    2    1    2    0    0 -0.36947142478E+00 -0.34919285329E+00 -0.10653436632E+01  0.90007575541E+02  0.89999834738E+02 0.  0.
         12    1    1    2    0    0  0.36947142478E+00  0.34919285329E+00  0.10653436632E+01  0.11804244589E+01  0.00000000000E+00 0. -1.
         11    1    3    3    0    0 -0.18555278144E+01 -0.77801591969E+01 -0.67943520204E+01  0.10494621491E+02  0.51100000000E-03 0. -1.
        -11    1    3    3    0    0 -0.21974187116E+02 -0.27816882902E+02  0.10326652073E+02  0.36922670774E+02  0.51100000000E-03 0.  1.
         12    1    3    3    0    0  0.23460243506E+02  0.35247849246E+02 -0.45976437158E+01  0.42590283276E+02  0.00000000000E+00 0. -1.
</event>
<event>
 7    1  0.2468912E-015  0.9000742E+02  0.7816164E-02  0.1186340E+00
        -11   -1    0    0    0    0  0.00000000000E+00  0.00000000000E+00  0.45593999997E+02  0.45594000000E+02  0.51100000000E-03 0. -1.
         11   -1    0    0    0    0 -0.00000000000E+00 -0.00000000000E+00 -0.45593999997E+02  0.45594000000E+02  0.51100000000E-03 0.  1.
    9900012    2    1    2    0    0  0.45412365913E+00 -0.23208633759E-01 -0.10894966304E+01  0.90007419699E+02  0.89999676839E+02 0.  0.
         12    1    1    2    0    0 -0.45412365913E+00  0.23208633759E-01  0.10894966304E+01  0.11805803006E+01  0.00000000000E+00 0. -1.
         11    1    3    3    0    0  0.89717346209E+01 -0.42157033019E+00  0.32661689358E+01  0.95570708603E+01  0.51100000000E-03 0. -1.
        -11    1    3    3    0    0  0.12409074886E+02  0.22782681289E+01 -0.38413820427E+02  0.40432626000E+02  0.51100000000E-03 0.  1.
         12    1    3    3    0    0 -0.20926685848E+02 -0.18799064325E+01  0.34058154861E+02  0.40017722840E+02  0.00000000000E+00 0. -1.
</event>
<event>
 7    1  0.2468912E-015  0.9000779E+02  0.7816164E-02  0.1186339E+00
        -11   -1    0    0    0    0  0.00000000000E+00  0.00000000000E+00  0.45593999997E+02  0.45594000000E+02  0.51100000000E-03 0. -1.
         11   -1    0    0    0    0 -0.00000000000E+00 -0.00000000000E+00 -0.45593999997E+02  0.45594000000E+02  0.51100000000E-03 0.  1.
    9900012    2    1    2    0    0 -0.58444690801E-01 -0.10970111712E+01 -0.43134332852E+00  0.90007785461E+02  0.90000047429E+02 0.  0.
         12    1    1    2    0    0  0.58444690801E-01  0.10970111712E+01  0.43134332852E+00  0.11802145393E+01  0.00000000000E+00 0. -1.
         11    1    3    3    0    0  0.13551329064E+02  0.31831529970E+02  0.19981261952E+02  0.39951666411E+02  0.51100000000E-03 0. -1.
        -11    1    3    3    0    0  0.71514791852E+01 -0.71516176958E+01  0.16935004297E+01  0.10254620138E+02  0.51100000000E-03 0.  1.
        -12    1    3    3    0    0 -0.20761252940E+02 -0.25776923445E+02 -0.22106105710E+02  0.39801498911E+02  0.00000000000E+00 0.  1.
</event>
<event>
 7    1  0.2468912E-015  0.9000773E+02  0.7816164E-02  0.1186339E+00
        -11   -1    0    0    0    0  0.00000000000E+00  0.00000000000E+00  0.45593999997E+02  0.45594000000E+02  0.51100000000E-03 0.  1.
         11   -1    0    0    0    0 -0.00000000000E+00 -0.00000000000E+00 -0.45593999997E+02  0.45594000000E+02  0.51100000000E-03 0. -1.
    9900012    2    1    2    0    0 -0.79941468993E-01 -0.11263842978E+01 -0.34338678413E+00  0.90007726003E+02  0.89999987186E+02 0.  0.
         12    1    1    2    0    0  0.79941468993E-01  0.11263842978E+01  0.34338678413E+00  0.11802739971E+01  0.00000000000E+00 0. -1.
         11    1    3    3    0    0  0.56372052660E+01  0.42639796707E+01 -0.97373573299E+01  0.12032278831E+02  0.51100000000E-03 0. -1.
        -11    1    3    3    0    0  0.20709680400E+02  0.18980319327E+02  0.26090368571E+02  0.38338632167E+02  0.51100000000E-03 0.  1.
         12    1    3    3    0    0 -0.26426827135E+02 -0.24370683295E+02 -0.16696398025E+02  0.39636815005E+02  0.00000000000E+00 0. -1.
</event>
<event>
 7    1  0.2468912E-015  0.9000774E+02  0.7816164E-02  0.1186339E+00
        -11   -1    0    0    0    0  0.00000000000E+00  0.00000000000E+00  0.45593999997E+02  0.45594000000E+02  0.51100000000E-03 0. -1.
         11   -1    0    0    0    0 -0.00000000000E+00 -0.00000000000E+00 -0.45593999997E+02  0.45594000000E+02  0.51100000000E-03 0.  1.
    9900012    2    1    2    0    0  0.31504919844E+00  0.10131992519E+01 -0.51689147480E+00  0.90007743452E+02  0.90000004866E+02 0.  0.
         12    1    1    2    0    0 -0.31504919844E+00 -0.10131992519E+01  0.51689147480E+00  0.11802565477E+01  0.00000000000E+00 0. -1.
         11    1    3    3    0    0 -0.35230919805E+02  0.56063638337E+01 -0.36069878959E+01  0.35856092756E+02  0.51100000000E-03 0. -1.
        -11    1    3    3    0    0 -0.57236786313E+01  0.28231053931E+01 -0.85181674970E+01  0.10643758683E+02  0.51100000000E-03 0.  1.
        -12    1    3    3    0    0  0.41269647635E+02 -0.74162699748E+01  0.11608263918E+02  0.43507892014E+02  0.00000000000E+00 0.  1.
</event>
<event>
 7    1  0.2468912E-015  0.9000776E+02  0.7816164E-02  0.1186339E+00
        -11   -1    0    0    0    0  0.00000000000E+00  0.00000000000E+00  0.45593999997E+02  0.45594000000E+02  0.51100000000E-03 0. -1.
         11   -1    0    0    0    0 -0.00000000000E+00 -0.00000000000E+00 -0.45593999997E+02  0.45594000000E+02  0.51100000000E-03 0.  1.
    9900012    2    1    2    0    0 -0.42192049366E+00 -0.10336248677E+01 -0.38283445003E+00  0.90007762953E+02  0.90000024624E+02 0.  0.
         12    1    1    2    0    0  0.42192049366E+00  0.10336248677E+01  0.38283445003E+00  0.11802370467E+01  0.00000000000E+00 0. -1.
         11    1    3    3    0    0 -0.66993276754E+01  0.41787150437E+02 -0.77489363146E+01  0.43024329713E+02  0.51100000000E-03 0. -1.
        -11    1    3    3    0    0  0.26335379106E+01 -0.89598991604E+01 -0.51923904622E+01  0.10685327972E+02  0.51100000000E-03 0.  1.
        -12    1    3    3    0    0  0.36438692711E+01 -0.33860876145E+02  0.12558492327E+02  0.36298105269E+02  0.00000000000E+00 0.  1.
</event>
<event>
 7    1  0.2468912E-015  0.9000772E+02  0.7816164E-02  0.1186339E+00
        -11   -1    0    0    0    0  0.00000000000E+00  0.00000000000E+00  0.45593999997E+02  0.45594000000E+02  0.51100000000E-03 0.  1.
         11   -1    0    0    0    0 -0.00000000000E+00 -0.00000000000E+00 -0.45593999997E+02  0.45594000000E+02  0.51100000000E-03 0. -1.
    9900012    2    1    2    0    0 -0.31289764917E+00 -0.11282409415E+01  0.14907356425E+00  0.90007722283E+02  0.89999983417E+02 0.  0.
         12    1    1    2    0    0  0.31289764917E+00  0.11282409415E+01 -0.14907356425E+00  0.11802777167E+01  0.00000000000E+00 0. -1.
         11    1    3    3    0    0  0.80958814815E+01  0.27331422779E+01 -0.12124339755E+01  0.86303742723E+01  0.51100000000E-03 0. -1.
        -11    1    3    3    0    0 -0.35745458363E+02  0.13823536234E+02  0.20649822038E+02  0.43534389832E+02  0.51100000000E-03 0.  1.
         12    1    3    3    0    0  0.27336679232E+02 -0.17684919453E+02 -0.19288314498E+02  0.37842958179E+02  0.00000000000E+00 0. -1.
</event>
<event>
 7    1  0.2468912E-015  0.9000775E+02  0.7816164E-02  0.1186339E+00
        -11   -1    0    0    0    0  0.00000000000E+00  0.00000000000E+00  0.45593999997E+02  0.45594000000E+02  0.51100000000E-03 0.  1.
         11   -1    0    0    0    0 -0.00000000000E+00 -0.00000000000E+00 -0.45593999997E+02  0.45594000000E+02  0.51100000000E-03 0. -1.
    9900012    2    1    2    0    0 -0.64425467634E+00 -0.62996583703E+00  0.76227487683E+00  0.90007752555E+02  0.90000014089E+02 0.  0.
         12    1    1    2    0    0  0.64425467634E+00  0.62996583703E+00 -0.76227487683E+00  0.11802474451E+01  0.00000000000E+00 0. -1.
         11    1    3    3    0    0  0.93654391459E+01  0.40684405487E+01  0.67254945331E+01  0.12226853065E+02  0.51100000000E-03 0. -1.
        -11    1    3    3    0    0 -0.33921596093E+02 -0.25046034468E+02 -0.15566306857E+02  0.44947618774E+02  0.51100000000E-03 0.  1.
         12    1    3    3    0    0  0.23911902270E+02  0.20347628083E+02  0.96030872006E+01  0.32833280716E+02  0.00000000000E+00 0. -1.
</event>
<event>
 7    1  0.5145459E-015  0.9000795E+02  0.7816164E-02  0.1186339E+00
        -11   -1    0    0    0    0  0.00000000000E+00  0.00000000000E+00  0.45593999997E+02  0.45594000000E+02  0.51100000000E-03 0. -1.
         11   -1    0    0    0    0 -0.00000000000E+00 -0.00000000000E+00 -0.45593999997E+02  0.45594000000E+02  0.51100000000E-03 0.  1.
    9900012    2    1    2    0    0 -0.24572682289E-02  0.46283434526E+00 -0.10854897160E+01  0.90007953563E+02  0.90000217750E+02 0.  0.
         12    1    1    2    0    0  0.24572682289E-02 -0.46283434526E+00  0.10854897160E+01  0.11800464368E+01  0.00000000000E+00 0. -1.
         11    1    3    3    0    0 -0.81532080965E+01 -0.57730672120E+01  0.35454118557E+02  0.36834734019E+02  0.51100000000E-03 0. -1.
        -11    1    3    3    0    0  0.55711792437E+01 -0.25754755933E+01  0.66319088985E+01  0.90362231378E+01  0.51100000000E-03 0.  1.
        -12    1    3    3    0    0  0.25795715845E+01  0.88113771506E+01 -0.43171517172E+02  0.44136996406E+02  0.00000000000E+00 0.  1.
</event>
<event>
 7    1  0.2468912E-015  0.9000840E+02  0.7816164E-02  0.1186338E+00
        -11   -1    0    0    0    0  0.00000000000E+00  0.00000000000E+00  0.45593999997E+02  0.45594000000E+02  0.51100000000E-03 0. -1.
         11   -1    0    0    0    0 -0.00000000000E+00 -0.00000000000E+00 -0.45593999997E+02  0.45594000000E+02  0.51100000000E-03 0.  1.
    9900012    2    1    2    0    0  0.61791539742E+00 -0.38381834130E+00 -0.92861711402E+00  0.90008395955E+02  0.90000665980E+02 0.  0.
         12    1    1    2    0    0 -0.61791539742E+00  0.38381834130E+00  0.92861711402E+00  0.11796040446E+01  0.00000000000E+00 0. -1.
         11    1    3    3    0    0  0.77452390635E+01  0.24462293795E+02  0.24233297252E+02  0.35293699747E+02  0.51100000000E-03 0. -1.
        -11    1    3    3    0    0 -0.53711777965E+01  0.77142837541E+01  0.46909442340E+01  0.10505459668E+02  0.51100000000E-03 0.  1.
        -12    1    3    3    0    0 -0.17561458695E+01 -0.32560395891E+02 -0.29852858600E+02  0.44209236540E+02  0.00000000000E+00 0.  1.
</event>
<event>
 7    1  0.2468912E-015  0.9000773E+02  0.7816164E-02  0.1186339E+00
        -11   -1    0    0    0    0  0.00000000000E+00  0.00000000000E+00  0.45593999997E+02  0.45594000000E+02  0.51100000000E-03 0.  1.
         11   -1    0    0    0    0 -0.00000000000E+00 -0.00000000000E+00 -0.45593999997E+02  0.45594000000E+02  0.51100000000E-03 0. -1.
    9900012    2    1    2    0    0  0.47363077877E+00 -0.29791473400E+00  0.10392085532E+01  0.90007731505E+02  0.89999992761E+02 0.  0.
         12    1    1    2    0    0 -0.47363077877E+00  0.29791473400E+00 -0.10392085532E+01  0.11802684951E+01  0.00000000000E+00 0. -1.
         11    1    3    3    0    0  0.11197792685E+01 -0.30343344429E+02 -0.18690340435E+02  0.35655312123E+02  0.51100000000E-03 0. -1.
        -11    1    3    3    0    0 -0.50354639926E+01  0.49495750379E+01 -0.11839782857E+02  0.13785305548E+02  0.51100000000E-03 0.  1.
        -12    1    3    3    0    0  0.43893155029E+01  0.25095854657E+02  0.31569331846E+02  0.40567113834E+02  0.00000000000E+00 0.  1.
</event>
<event>
 7    1  0.2468912E-015  0.9000772E+02  0.7816164E-02  0.1186339E+00
        -11   -1    0    0    0    0  0.00000000000E+00  0.00000000000E+00  0.45593999997E+02  0.45594000000E+02  0.51100000000E-03 0.  1.
         11   -1    0    0    0    0 -0.00000000000E+00 -0.00000000000E+00 -0.45593999997E+02  0.45594000000E+02  0.51100000000E-03 0. -1.
    9900012    2    1    2    0    0  0.92556501152E+00 -0.69080508092E+00 -0.24324371928E+00  0.90007724711E+02  0.89999985877E+02 0.  0.
         12    1    1    2    0    0 -0.92556501152E+00  0.69080508092E+00  0.24324371928E+00  0.11802752888E+01  0.00000000000E+00 0. -1.
         11    1    3    3    0    0  0.10454163492E+02  0.35705361519E+01 -0.19053238178E+01  0.11210197226E+02  0.51100000000E-03 0. -1.
        -11    1    3    3    0    0  0.24027232655E+02  0.12797386026E+01  0.27164029680E+02  0.36288154385E+02  0.51100000000E-03 0.  1.
         12    1    3    3    0    0 -0.33555831136E+02 -0.55410798354E+01 -0.25501949581E+02  0.42509373100E+02  0.00000000000E+00 0. -1.
</event>
<event>
 7    1  0.2896736E-015  0.9000776E+02  0.7816164E-02  0.1186339E+00
        -11   -1    0    0    0    0  0.00000000000E+00  0.00000000000E+00  0.45593999997E+02  0.45594000000E+02  0.51100000000E-03 0. -1.
         11   -1    0    0    0    0 -0.00000000000E+00 -0.00000000000E+00 -0.45593999997E+02  0.45594000000E+02  0.51100000000E-03 0.  1.
    9900012    2    1    2    0    0  0.13228453604E+00  0.99246539461E+00  0.62488670764E+00  0.90007758433E+02  0.90000020045E+02 0.  0.
         12    1    1    2    0    0 -0.13228453604E+00 -0.99246539461E+00 -0.62488670764E+00  0.11802415665E+01  0.00000000000E+00 0. -1.
         11    1    3    3    0    0 -0.36129140366E+02  0.16817852141E+01 -0.82849135105E+01  0.37105026307E+02  0.51100000000E-03 0. -1.
        -11    1    3    3    0    0 -0.44027461564E+01  0.91011156502E+01 -0.12952538635E+00  0.10110947378E+02  0.51100000000E-03 0.  1.
        -12    1    3    3    0    0  0.40664171059E+02 -0.97904354697E+01  0.90393256045E+01  0.42791784748E+02  0.00000000000E+00 0.  1.
</event>
<event>
 7    1  0.2468912E-015  0.9000792E+02  0.7816164E-02  0.1186339E+00
        -11   -1    0    0    0    0  0.00000000000E+00  0.00000000000E+00  0.45593999997E+02  0.45594000000E+02  0.51100000000E-03 0. -1.
         11   -1    0    0    0    0 -0.00000000000E+00 -0.00000000000E+00 -0.45593999997E+02  0.45594000000E+02  0.51100000000E-03 0.  1.
    9900012    2    1    2    0    0  0.75885559642E+00 -0.47657433868E+00 -0.76785963863E+00  0.90007918079E+02  0.90000181797E+02 0.  0.
         12    1    1    2    0    0 -0.75885559642E+00  0.47657433868E+00  0.76785963863E+00  0.11800819214E+01  0.00000000000E+00 0. -1.
         11    1    3    3    0    0  0.31476767050E+02 -0.23319905397E+01 -0.26193089281E+02  0.41015886802E+02  0.51100000000E-03 0. -1.
        -11    1    3    3    0    0 -0.53802515494E+01  0.58636185825E+01 -0.48427681553E+01  0.93156606466E+01  0.51100000000E-03 0.  1.
        -12    1    3    3    0    0 -0.25337659904E+02 -0.40082023815E+01  0.30267997797E+02  0.39676370630E+02  0.00000000000E+00 0.  1.
</event>
<event>
 7    1  0.2468912E-015  0.9000788E+02  0.7816164E-02  0.1186339E+00
        -11   -1    0    0    0    0  0.00000000000E+00  0.00000000000E+00  0.45593999997E+02  0.45594000000E+02  0.51100000000E-03 0.  1.
         11   -1    0    0    0    0 -0.00000000000E+00 -0.00000000000E+00 -0.45593999997E+02  0.45594000000E+02  0.51100000000E-03 0. -1.
    9900012    2    1    2    0    0  0.82451440724E+00 -0.13324914086E+00 -0.83372708069E+00  0.90007881283E+02  0.90000144516E+02 0.  0.
         12    1    1    2    0    0 -0.82451440724E+00  0.13324914086E+00  0.83372708069E+00  0.11801187171E+01  0.00000000000E+00 0. -1.
         11    1    3    3    0    0 -0.25312463496E+02  0.32688034433E+02 -0.30767150607E+01  0.41457141473E+02  0.51100000000E-03 0. -1.
        -11    1    3    3    0    0  0.76737008181E+01  0.22813380628E+01 -0.29880837036E+01  0.85451057385E+01  0.51100000000E-03 0.  1.
        -12    1    3    3    0    0  0.18463277086E+02 -0.35102621636E+02  0.52310716836E+01  0.40005634071E+02  0.00000000000E+00 0.  1.
</event>
<event>
 7    1  0.2468912E-015  0.9000775E+02  0.7816164E-02  0.1186339E+00
        -11   -1    0    0    0    0  0.00000000000E+00  0.00000000000E+00  0.45593999997E+02  0.45594000000E+02  0.51100000000E-03 0. -1.
         11   -1    0    0    0    0 -0.00000000000E+00 -0.00000000000E+00 -0.45593999997E+02  0.45594000000E+02  0.51100000000E-03 0.  1.
    9900012    2    1    2    0    0 -0.11351181382E+01 -0.25803469141E+00 -0.19468933138E+00  0.90007754676E+02  0.90000016237E+02 0.  0.
         12    1    1    2    0    0  0.11351181382E+01  0.25803469141E+00  0.19468933138E+00  0.11802453243E+01  0.00000000000E+00 0. -1.
         11    1    3    3    0    0  0.24892208695E+02 -0.24034609989E+02  0.27668586124E+02  0.44303895872E+02  0.51100000000E-03 0. -1.
        -11    1    3    3    0    0 -0.73789473916E+01  0.31356587841E+01 -0.92119812209E+01  0.12212363362E+02  0.51100000000E-03 0.  1.
        -12    1    3    3    0    0 -0.18648379442E+02  0.20640916513E+02 -0.18651294234E+02  0.33491495442E+02  0.00000000000E+00 0.  1.
</event>
<event>
 7    1  0.2468912E-015  0.9000772E+02  0.7816164E-02  0.1186339E+00
        -11   -1    0    0    0    0  0.00000000000E+00  0.00000000000E+00  0.45593999997E+02  0.45594000000E+02  0.51100000000E-03 0.  1.
         11   -1    0    0    0    0 -0.00000000000E+00 -0.00000000000E+00 -0.45593999997E+02  0.45594000000E+02  0.51100000000E-03 0. -1.
    9900012    2    1    2    0    0  0.84655411437E+00 -0.77138601215E+00  0.28525439996E+00  0.90007720236E+02  0.89999981343E+02 0.  0.
         12    1    1    2    0    0 -0.84655411437E+00  0.77138601215E+00 -0.28525439996E+00  0.11802797639E+01  0.00000000000E+00 0. -1.
         11    1    3    3    0    0 -0.31459791257E+02  0.11364594028E+01 -0.23070647085E+02  0.39029024624E+02  0.51100000000E-03 0. -1.
        -11    1    3    3    0    0 -0.50393202442E+01 -0.54881655856E+00  0.10146749976E+02  0.11342507812E+02  0.51100000000E-03 0.  1.
        -12    1    3    3    0    0  0.37345665616E+02 -0.13590288564E+01  0.13209151508E+02  0.39636187800E+02  0.00000000000E+00 0.  1.
</event>
<event>
 7    1  0.2468912E-015  0.9000776E+02  0.7816164E-02  0.1186339E+00
        -11   -1    0    0    0    0  0.00000000000E+00  0.00000000000E+00  0.45593999997E+02  0.45594000000E+02  0.51100000000E-03 0. -1.
         11   -1    0    0    0    0 -0.00000000000E+00 -0.00000000000E+00 -0.45593999997E+02  0.45594000000E+02  0.51100000000E-03 0.  1.
    9900012    2    1    2    0    0  0.98182136022E+00  0.52753798848E+00  0.38820301658E+00  0.90007758036E+02  0.90000019642E+02 0.  0.
         12    1    1    2    0    0 -0.98182136022E+00 -0.52753798848E+00 -0.38820301658E+00  0.11802419645E+01  0.00000000000E+00 0. -1.
         11    1    3    3    0    0  0.26117572443E+02  0.21516611935E+02  0.17218998724E+02  0.37968224831E+02  0.51100000000E-03 0. -1.
        -11    1    3    3    0    0 -0.10512191971E+01  0.99625498176E+01 -0.30834811915E+01  0.10481665764E+02  0.51100000000E-03 0.  1.
        -12    1    3    3    0    0 -0.24084531886E+02 -0.30951623764E+02 -0.13747314516E+02  0.41557867441E+02  0.00000000000E+00 0.  1.
</event>
<event>
 7    1  0.2468912E-015  0.9000772E+02  0.7816164E-02  0.1186339E+00
        -11   -1    0    0    0    0  0.00000000000E+00  0.00000000000E+00  0.45593999997E+02  0.45594000000E+02  0.51100000000E-03 0. -1.
         11   -1    0    0    0    0 -0.00000000000E+00 -0.00000000000E+00 -0.45593999997E+02  0.45594000000E+02  0.51100000000E-03 0.  1.
    9900012    2    1    2    0    0 -0.43259882683E+00  0.95856716028E+00 -0.53579446489E+00  0.90007716791E+02  0.89999977852E+02 0.  0.
         12    1    1    2    0    0  0.43259882683E+00 -0.95856716028E+00  0.53579446489E+00  0.11802832094E+01  0.00000000000E+00 0. -1.
         11    1    3    3    0    0 -0.10527664565E+02  0.65984343156E+01 -0.74857131994E+01  0.14505411369E+02  0.51100000000E-03 0. -1.
        -11    1    3    3    0    0 -0.23451949798E+02 -0.13305685839E+01 -0.21089952828E+02  0.31568187668E+02  0.51100000000E-03 0.  1.
         12    1    3    3    0    0  0.33547015536E+02 -0.43092985714E+01  0.28039871563E+02  0.43934117754E+02  0.00000000000E+00 0. -1.
</event>
<event>
 7    1  0.2468912E-015  0.9000778E+02  0.7816164E-02  0.1186339E+00
        -11   -1    0    0    0    0  0.00000000000E+00  0.00000000000E+00  0.45593999997E+02  0.45594000000E+02  0.51100000000E-03 0.  1.
         11   -1    0    0    0    0 -0.00000000000E+00 -0.00000000000E+00 -0.45593999997E+02  0.45594000000E+02  0.51100000000E-03 0. -1.
    9900012    2    1    2    0    0  0.58818014594E+00 -0.14801574978E+00  0.10124473596E+01  0.90007782138E+02  0.90000044062E+02 0.  0.
         12    1    1    2    0    0 -0.58818014594E+00  0.14801574978E+00 -0.10124473596E+01  0.11802178622E+01  0.00000000000E+00 0. -1.
         11    1    3    3    0    0 -0.53165469717E+01 -0.74646475498E+01  0.31481784586E+00  0.91698279854E+01  0.51100000000E-03 0. -1.
        -11    1    3    3    0    0 -0.15451183527E+02  0.87811694059E+01  0.35659857774E+02  0.39843110638E+02  0.51100000000E-03 0.  1.
         12    1    3    3    0    0  0.21355910645E+02 -0.14645376059E+01 -0.34962228261E+02  0.40994843515E+02  0.00000000000E+00 0. -1.
</event>
<event>
 7    1  0.2468912E-015  0.9000789E+02  0.7816164E-02  0.1186339E+00
        -11   -1    0    0    0    0  0.00000000000E+00  0.00000000000E+00  0.45593999997E+02  0.45594000000E+02  0.51100000000E-03 0.  1.
         11   -1    0    0    0    0 -0.00000000000E+00 -0.00000000000E+00 -0.45593999997E+02  0.45594000000E+02  0.51100000000E-03 0. -1.
    9900012    2    1    2    0    0  0.16008702873E+00  0.11172518153E+01 -0.34464766822E+00  0.90007889204E+02  0.90000152541E+02 0.  0.
         12    1    1    2    0    0 -0.16008702873E+00 -0.11172518153E+01  0.34464766822E+00  0.11801107960E+01  0.00000000000E+00 0. -1.
         11    1    3    3    0    0 -0.25185101837E+01 -0.85375477386E+01  0.99509696599E+00  0.89567200004E+01  0.51100000000E-03 0. -1.
        -11    1    3    3    0    0 -0.29298345578E+02 -0.20882428079E+02  0.52057948865E+01  0.36353392644E+02  0.51100000000E-03 0.  1.
         12    1    3    3    0    0  0.31976942791E+02  0.30537227633E+02 -0.65455395207E+01  0.44697776559E+02  0.00000000000E+00 0. -1.
</event>
<event>
 7    1  0.2468912E-015  0.9000772E+02  0.7816164E-02  0.1186339E+00
        -11   -1    0    0    0    0  0.00000000000E+00  0.00000000000E+00  0.45593999997E+02  0.45594000000E+02  0.51100000000E-03 0.  1.
         11   -1    0    0    0    0 -0.00000000000E+00 -0.00000000000E+00 -0.45593999997E+02  0.45594000000E+02  0.51100000000E-03 0. -1.
    9900012    2    1    2    0    0 -0.11706993949E+01 -0.14470265162E+00  0.39720450171E-01  0.90007723064E+02  0.89999984209E+02 0.  0.
         12    1    1    2    0    0  0.11706993949E+01  0.14470265162E+00 -0.39720450171E-01  0.11802769356E+01  0.00000000000E+00 0. -1.
         11    1    3    3    0    0 -0.21504091086E+02 -0.82466605761E+01 -0.33751910707E+02  0.40861042825E+02  0.51100000000E-03 0. -1.
        -11    1    3    3    0    0  0.67077192739E+01  0.33288714702E+01 -0.41426836705E+01  0.85578450195E+01  0.51100000000E-03 0.  1.
        -12    1    3    3    0    0  0.13625672417E+02  0.47730864544E+01  0.37934314827E+02  0.40588835220E+02  0.00000000000E+00 0.  1.
</event>
<event>
 7    1  0.2468912E-015  0.9000774E+02  0.7816164E-02  0.1186339E+00
        -11   -1    0    0    0    0  0.00000000000E+00  0.00000000000E+00  0.45593999997E+02  0.45594000000E+02  0.51100000000E-03 0.  1.
         11   -1    0    0    0    0 -0.00000000000E+00 -0.00000000000E+00 -0.45593999997E+02  0.45594000000E+02  0.51100000000E-03 0. -1.
    9900012    2    1    2    0    0  0.72044528842E+00  0.87103551026E+00 -0.33952758437E+00  0.90007735939E+02  0.89999997253E+02 0.  0.
         12    1    1    2    0    0 -0.72044528842E+00 -0.87103551026E+00  0.33952758437E+00  0.11802640613E+01  0.00000000000E+00 0. -1.
         11    1    3    3    0    0  0.50366410557E+01  0.14396244932E+02 -0.34196490104E+02  0.37443551608E+02  0.51100000000E-03 0. -1.
        -11    1    3    3    0    0 -0.16398516819E+01 -0.13155882178E+02 -0.45844453638E+01  0.14027953841E+02  0.51100000000E-03 0.  1.
        -12    1    3    3    0    0 -0.26763440854E+01 -0.36932724411E+00  0.38441407884E+02  0.38536230490E+02  0.00000000000E+00 0.  1.
</event>
<event>
 7    1  0.2468912E-015  0.9000781E+02  0.7816164E-02  0.1186339E+00
        -11   -1    0    0    0    0  0.00000000000E+00  0.00000000000E+00  0.45593999997E+02  0.45594000000E+02  0.51100000000E-03 0.  1.
         11   -1    0    0    0    0 -0.00000000000E+00 -0.00000000000E+00 -0.45593999997E+02  0.45594000000E+02  0.51100000000E-03 0. -1.
    9900012    2    1    2    0    0  0.23481636973E+00  0.78281007632E-01  0.11539453783E+01  0.90007806550E+02  0.90000068796E+02 0.  0.
         12    1    1    2    0    0 -0.23481636973E+00 -0.78281007632E-01 -0.11539453783E+01  0.11801934501E+01  0.00000000000E+00 0. -1.
         11    1    3    3    0    0 -0.40041363309E+01 -0.34577623679E+02  0.16060815698E+02  0.38335296636E+02  0.51100000000E-03 0. -1.
        -11    1    3    3    0    0  0.17593440725E+01 -0.43973102028E+01 -0.11446859738E+02  0.12387987194E+02  0.51100000000E-03 0.  1.
        -12    1    3    3    0    0  0.24796086282E+01  0.39053214889E+02 -0.34600105816E+01  0.39284522720E+02  0.00000000000E+00 0.  1.
</event>
<event>
 7    1  0.2468912E-015  0.9000768E+02  0.7816164E-02  0.1186339E+00
        -11   -1    0    0    0    0  0.00000000000E+00  0.00000000000E+00  0.45593999997E+02  0.45594000000E+02  0.51100000000E-03 0.  1.
         11   -1    0    0    0    0 -0.00000000000E+00 -0.00000000000E+00 -0.45593999997E+02  0.45594000000E+02  0.51100000000E-03 0. -1.
    9900012    2    1    2    0    0  0.24126789709E-01 -0.11765800585E+01  0.90775000434E-01  0.90007676808E+02  0.89999937342E+02 0.  0.
         12    1    1    2    0    0 -0.24126789709E-01  0.11765800585E+01 -0.90775000434E-01  0.11803231917E+01  0.00000000000E+00 0. -1.
         11    1    3    3    0    0  0.18107064211E+02 -0.31861920073E+02  0.58375435595E+01  0.37109630019E+02  0.51100000000E-03 0. -1.
        -11    1    3    3    0    0 -0.12013021558E+01 -0.84876291404E+01  0.34870520209E+01  0.92543237113E+01  0.51100000000E-03 0.  1.
        -12    1    3    3    0    0 -0.16881635266E+02  0.39172969155E+02 -0.92338205800E+01  0.43643723078E+02  0.00000000000E+00 0.  1.
</event>
<event>
 7    1  0.2468912E-015  0.9000798E+02  0.7816164E-02  0.1186339E+00
        -11   -1    0    0    0    0  0.00000000000E+00  0.00000000000E+00  0.45593999997E+02  0.45594000000E+02  0.51100000000E-03 0. -1.
         11   -1    0    0    0    0 -0.00000000000E+00 -0.00000000000E+00 -0.45593999997E+02  0.45594000000E+02  0.51100000000E-03 0.  1.
    9900012    2    1    2    0    0  0.79187647864E-01 -0.17299676533E+00 -0.11645856815E+01  0.90007975266E+02  0.90000239739E+02 0.  0.
         12    1    1    2    0    0 -0.79187647864E-01  0.17299676533E+00  0.11645856815E+01  0.11800247344E+01  0.00000000000E+00 0. -1.
         11    1    3    3    0    0 -0.95167277412E+01  0.24907620409E+02 -0.22258136939E+02  0.34733014864E+02  0.51100000000E-03 0. -1.
        -11    1    3    3    0    0 -0.14903959438E+02 -0.79588586164E+01 -0.26497559709E+01  0.17102416331E+02  0.51100000000E-03 0.  1.
        -12    1    3    3    0    0  0.24499874827E+02 -0.17121758558E+02  0.23743307228E+02  0.38172544070E+02  0.00000000000E+00 0.  1.
</event>
<event>
 7    1  0.2468912E-015  0.9000777E+02  0.7816164E-02  0.1186339E+00
        -11   -1    0    0    0    0  0.00000000000E+00  0.00000000000E+00  0.45593999997E+02  0.45594000000E+02  0.51100000000E-03 0.  1.
         11   -1    0    0    0    0 -0.00000000000E+00 -0.00000000000E+00 -0.45593999997E+02  0.45594000000E+02  0.51100000000E-03 0. -1.
    9900012    2    1    2    0    0  0.10441922452E+01  0.55009108640E+00 -0.12763451493E-02  0.90007771515E+02  0.90000033299E+02 0.  0.
         12    1    1    2    0    0 -0.10441922452E+01 -0.55009108640E+00  0.12763451493E-02  0.11802284852E+01  0.00000000000E+00 0. -1.
         11    1    3    3    0    0 -0.58994011021E+01 -0.36407600170E+01  0.37372888971E+01  0.78756203201E+01  0.51100000000E-03 0. -1.
        -11    1    3    3    0    0 -0.13472693916E+02  0.55482749296E+01  0.35226791310E+02  0.38121170789E+02  0.51100000000E-03 0.  1.
         12    1    3    3    0    0  0.20416287263E+02 -0.13574238262E+01 -0.38965356552E+02  0.44010980406E+02  0.00000000000E+00 0. -1.
</event>
<event>
 7    1  0.2468912E-015  0.9000771E+02  0.7816164E-02  0.1186339E+00
        -11   -1    0    0    0    0  0.00000000000E+00  0.00000000000E+00  0.45593999997E+02  0.45594000000E+02  0.51100000000E-03 0. -1.
         11   -1    0    0    0    0 -0.00000000000E+00 -0.00000000000E+00 -0.45593999997E+02  0.45594000000E+02  0.51100000000E-03 0.  1.
    9900012    2    1    2    0    0  0.38509668743E+00 -0.19505788150E-01 -0.11155273748E+01  0.90007711366E+02  0.89999972357E+02 0.  0.
         12    1    1    2    0    0 -0.38509668743E+00  0.19505788150E-01  0.11155273748E+01  0.11802886335E+01  0.00000000000E+00 0. -1.
         11    1    3    3    0    0 -0.11830119315E+01  0.91953454453E+01 -0.78913763498E+01  0.12174880535E+02  0.51100000000E-03 0. -1.
        -11    1    3    3    0    0  0.24479130910E+02  0.14490501522E+01 -0.26463124070E+02  0.36078033930E+02  0.51100000000E-03 0.  1.
         12    1    3    3    0    0 -0.22911022291E+02 -0.10663901386E+02  0.33238973045E+02  0.41754796901E+02  0.00000000000E+00 0. -1.
</event>
<event>
 7    1  0.2468912E-015  0.9000773E+02  0.7816164E-02  0.1186339E+00
        -11   -1    0    0    0    0  0.00000000000E+00  0.00000000000E+00  0.45593999997E+02  0.45594000000E+02  0.51100000000E-03 0.  1.
         11   -1    0    0    0    0 -0.00000000000E+00 -0.00000000000E+00 -0.45593999997E+02  0.45594000000E+02  0.51100000000E-03 0. -1.
    9900012    2    1    2    0    0 -0.87611251249E-01 -0.78239938184E+00  0.87932461893E+00  0.90007730408E+02  0.89999991650E+02 0.  0.
         12    1    1    2    0    0  0.87611251249E-01  0.78239938184E+00 -0.87932461893E+00  0.11802695919E+01  0.00000000000E+00 0. -1.
         11    1    3    3    0    0 -0.23653251787E+02  0.19935728425E+02 -0.28622002275E+02  0.42144140784E+02  0.51100000000E-03 0. -1.
        -11    1    3    3    0    0 -0.27965654640E+01 -0.21230223719E+01  0.89474834088E+01  0.96117356392E+01  0.51100000000E-03 0.  1.
        -12    1    3    3    0    0  0.26362206000E+02 -0.18595105435E+02  0.20553843485E+02  0.38251853985E+02  0.00000000000E+00 0.  1.
</event>
<event>
 7    1  0.2468912E-015  0.9000777E+02  0.7816164E-02  0.1186339E+00
        -11   -1    0    0    0    0  0.00000000000E+00  0.00000000000E+00  0.45593999997E+02  0.45594000000E+02  0.51100000000E-03 0.  1.
         11   -1    0    0    0    0 -0.00000000000E+00 -0.00000000000E+00 -0.45593999997E+02  0.45594000000E+02  0.51100000000E-03 0. -1.
    9900012    2    1    2    0    0 -0.11224293336E+01 -0.33275795166E+00  0.14952643926E+00  0.90007773912E+02  0.90000035727E+02 0.  0.
         12    1    1    2    0    0  0.11224293336E+01  0.33275795166E+00 -0.14952643926E+00  0.11802260883E+01  0.00000000000E+00 0. -1.
         11    1    3    3    0    0 -0.80182454971E+01 -0.12082905135E+01 -0.22063732812E+01  0.84035891221E+01  0.51100000000E-03 0. -1.
        -11    1    3    3    0    0 -0.18550977687E+02 -0.33594942742E+02  0.48726486249E+01  0.38684643670E+02  0.51100000000E-03 0.  1.
         12    1    3    3    0    0  0.25446793850E+02  0.34470475304E+02 -0.25167489044E+01  0.42919541120E+02  0.00000000000E+00 0. -1.
</event>
<event>
 7    1  0.2468912E-015  0.9000773E+02  0.7816164E-02  0.1186339E+00
        -11   -1    0    0    0    0  0.00000000000E+00  0.00000000000E+00  0.45593999997E+02  0.45594000000E+02  0.51100000000E-03 0. -1.
         11   -1    0    0    0    0 -0.00000000000E+00 -0.00000000000E+00 -0.45593999997E+02  0.45594000000E+02  0.51100000000E-03 0.  1.
    9900012    2    1    2    0    0 -0.20725802997E+00 -0.10206444125E+01  0.55530212110E+00  0.90007732508E+02  0.89999993777E+02 0.  0.
         12    1    1    2    0    0  0.20725802997E+00  0.10206444125E+01 -0.55530212110E+00  0.11802674924E+01  0.00000000000E+00 0. -1.
         11    1    3    3    0    0 -0.97877658963E+01  0.34296738091E+01 -0.20227783315E+01  0.10566676683E+02  0.51100000000E-03 0. -1.
        -11    1    3    3    0    0 -0.11854914504E+02 -0.36482967226E+02  0.11166071814E+02  0.39952810358E+02  0.51100000000E-03 0.  1.
         12    1    3    3    0    0  0.21435422371E+02  0.32032649004E+02 -0.85879913614E+01  0.39488245467E+02  0.00000000000E+00 0. -1.
</event>
<event>
 7    1  0.2468912E-015  0.9000770E+02  0.7816164E-02  0.1186339E+00
        -11   -1    0    0    0    0  0.00000000000E+00  0.00000000000E+00  0.45593999997E+02  0.45594000000E+02  0.51100000000E-03 0.  1.
         11   -1    0    0    0    0 -0.00000000000E+00 -0.00000000000E+00 -0.45593999997E+02  0.45594000000E+02  0.51100000000E-03 0. -1.
    9900012    2    1    2    0    0  0.10114141275E+01 -0.51795058881E+00 -0.31917528801E+00  0.90007701642E+02  0.89999962503E+02 0.  0.
         12    1    1    2    0    0 -0.10114141275E+01  0.51795058881E+00  0.31917528801E+00  0.11802983582E+01  0.00000000000E+00 0. -1.
         11    1    3    3    0    0  0.24666891815E+02  0.20363054736E+02  0.25286554007E+02  0.40774003530E+02  0.51100000000E-03 0. -1.
        -11    1    3    3    0    0  0.20415043444E+01  0.31931914124E+01 -0.10045448417E+02  0.10736631015E+02  0.51100000000E-03 0.  1.
        -12    1    3    3    0    0 -0.25696982032E+02 -0.24074196737E+02 -0.15560280878E+02  0.38497067097E+02  0.00000000000E+00 0.  1.
</event>
<event>
 7    1  0.2468912E-015  0.9000774E+02  0.7816164E-02  0.1186339E+00
        -11   -1    0    0    0    0  0.00000000000E+00  0.00000000000E+00  0.45593999997E+02  0.45594000000E+02  0.51100000000E-03 0.  1.
         11   -1    0    0    0    0 -0.00000000000E+00 -0.00000000000E+00 -0.45593999997E+02  0.45594000000E+02  0.51100000000E-03 0. -1.
    9900012    2    1    2    0    0  0.45775118627E+00  0.92088581372E+00  0.57917604071E+00  0.90007740827E+02  0.90000002205E+02 0.  0.
         12    1    1    2    0    0 -0.45775118627E+00 -0.92088581372E+00 -0.57917604071E+00  0.11802591735E+01  0.00000000000E+00 0. -1.
         11    1    3    3    0    0  0.91987867056E+01  0.31686906025E+01  0.26797995086E+01  0.10091560962E+02  0.51100000000E-03 0. -1.
        -11    1    3    3    0    0  0.21660873962E+02 -0.15051220962E+01  0.29125461770E+02  0.36328382525E+02  0.51100000000E-03 0.  1.
         12    1    3    3    0    0 -0.30401909481E+02 -0.74268269265E+00 -0.31226085237E+02  0.43587797340E+02  0.00000000000E+00 0. -1.
</event>
<event>
 7    1  0.2468912E-015  0.9000773E+02  0.7816164E-02  0.1186339E+00
        -11   -1    0    0    0    0  0.00000000000E+00  0.00000000000E+00  0.45593999997E+02  0.45594000000E+02  0.51100000000E-03 0.  1.
         11   -1    0    0    0    0 -0.00000000000E+00 -0.00000000000E+00 -0.45593999997E+02  0.45594000000E+02  0.51100000000E-03 0. -1.
    9900012    2    1    2    0    0  0.77432005253E+00 -0.76922715133E+00 -0.44915967005E+00  0.90007734622E+02  0.89999995919E+02 0.  0.
         12    1    1    2    0    0 -0.77432005253E+00  0.76922715133E+00  0.44915967005E+00  0.11802653783E+01  0.00000000000E+00 0. -1.
         11    1    3    3    0    0 -0.30543294453E+02 -0.19758696833E+02 -0.14430604287E+02  0.39134911229E+02  0.51100000000E-03 0. -1.
        -11    1    3    3    0    0  0.17226792878E+01  0.84069000467E+00 -0.90241860396E+01  0.92255253265E+01  0.51100000000E-03 0.  1.
        -12    1    3    3    0    0  0.29594935218E+02  0.18148779677E+02  0.23005630657E+02  0.41647298066E+02  0.00000000000E+00 0.  1.
</event>
<event>
 7    1  0.2468912E-015  0.9000788E+02  0.7816164E-02  0.1186339E+00
        -11   -1    0    0    0    0  0.00000000000E+00  0.00000000000E+00  0.45593999997E+02  0.45594000000E+02  0.51100000000E-03 0. -1.
         11   -1    0    0    0    0 -0.00000000000E+00 -0.00000000000E+00 -0.45593999997E+02  0.45594000000E+02  0.51100000000E-03 0.  1.
    9900012    2    1    2    0    0  0.75730831870E+00  0.15291502812E+00 -0.89206929958E+00  0.90007878595E+02  0.90000141792E+02 0.  0.
         12    1    1    2    0    0 -0.75730831870E+00 -0.15291502812E+00  0.89206929958E+00  0.11801214051E+01  0.00000000000E+00 0. -1.
         11    1    3    3    0    0  0.68978383702E+01  0.21276029357E+01 -0.47436705880E+01  0.86376663134E+01  0.51100000000E-03 0. -1.
        -11    1    3    3    0    0 -0.82980189755E+01 -0.39913606260E+02  0.12019649718E+02  0.42502059517E+02  0.51100000000E-03 0.  1.
         12    1    3    3    0    0  0.21574889240E+01  0.37938918352E+02 -0.81680484299E+01  0.38868152765E+02  0.00000000000E+00 0. -1.
</event>
<event>
 7    1  0.2468912E-015  0.9000826E+02  0.7816164E-02  0.1186338E+00
        -11   -1    0    0    0    0  0.00000000000E+00  0.00000000000E+00  0.45593999997E+02  0.45594000000E+02  0.51100000000E-03 0.  1.
         11   -1    0    0    0    0 -0.00000000000E+00 -0.00000000000E+00 -0.45593999997E+02  0.45594000000E+02  0.51100000000E-03 0. -1.
    9900012    2    1    2    0    0  0.88034785367E+00  0.70780310185E+00  0.34027596197E+00  0.90008260493E+02  0.90000528730E+02 0.  0.
         12    1    1    2    0    0 -0.88034785367E+00 -0.70780310185E+00 -0.34027596197E+00  0.11797395072E+01  0.00000000000E+00 0. -1.
         11    1    3    3    0    0 -0.28720651408E+01 -0.32396397626E+01  0.86919524885E+01  0.97105129776E+01  0.51100000000E-03 0. -1.
        -11    1    3    3    0    0  0.18995125543E+02  0.15214303708E+02  0.29333067840E+02  0.38114547103E+02  0.51100000000E-03 0.  1.
         12    1    3    3    0    0 -0.15242712548E+02 -0.11266860843E+02 -0.37684744366E+02  0.42183200413E+02  0.00000000000E+00 0. -1.
</event>
<event>
 7    1  0.2468912E-015  0.9000782E+02  0.7816164E-02  0.1186339E+00
        -11   -1    0    0    0    0  0.00000000000E+00  0.00000000000E+00  0.45593999997E+02  0.45594000000E+02  0.51100000000E-03 0. -1.
         11   -1    0    0    0    0 -0.00000000000E+00 -0.00000000000E+00 -0.45593999997E+02  0.45594000000E+02  0.51100000000E-03 0.  1.
    9900012    2    1    2    0    0 -0.48200977407E+00  0.10763263101E+01  0.44772239593E-01  0.90007823614E+02  0.90000086086E+02 0.  0.
         12    1    1    2    0    0  0.48200977407E+00 -0.10763263101E+01 -0.44772239593E-01  0.11801763858E+01  0.00000000000E+00 0. -1.
         11    1    3    3    0    0  0.34469884578E+01 -0.24593066763E+01  0.46167636952E+01  0.62645371764E+01  0.51100000000E-03 0. -1.
        -11    1    3    3    0    0 -0.16112093052E+01 -0.35388320747E+02 -0.21276041564E+02  0.41323107163E+02  0.51100000000E-03 0.  1.
         12    1    3    3    0    0 -0.23177889267E+01  0.38923953733E+02  0.16704050108E+02  0.42420179275E+02  0.00000000000E+00 0. -1.
</event>
<event>
 7    1  0.2468912E-015  0.9000772E+02  0.7816164E-02  0.1186339E+00
        -11   -1    0    0    0    0  0.00000000000E+00  0.00000000000E+00  0.45593999997E+02  0.45594000000E+02  0.51100000000E-03 0. -1.
         11   -1    0    0    0    0 -0.00000000000E+00 -0.00000000000E+00 -0.45593999997E+02  0.45594000000E+02  0.51100000000E-03 0.  1.
    9900012    2    1    2    0    0  0.72722855931E+00 -0.81783710083E+00 -0.44197479215E+00  0.90007720110E+02  0.89999981216E+02 0.  0.
         12    1    1    2    0    0 -0.72722855931E+00  0.81783710083E+00  0.44197479215E+00  0.11802798896E+01  0.00000000000E+00 0. -1.
         11    1    3    3    0    0 -0.81672777756E+01  0.85760569379E+01  0.49691054106E+01  0.12843098836E+02  0.51100000000E-03 0. -1.
        -11    1    3    3    0    0 -0.92407334812E+01  0.30836208567E+02 -0.72507681755E+01  0.32997523445E+02  0.51100000000E-03 0.  1.
         12    1    3    3    0    0  0.18135239816E+02 -0.40230102606E+02  0.18396879728E+01  0.44167097830E+02  0.00000000000E+00 0. -1.
</event>
<event>
 7    1  0.2468912E-015  0.9000776E+02  0.7816164E-02  0.1186339E+00
        -11   -1    0    0    0    0  0.00000000000E+00  0.00000000000E+00  0.45593999997E+02  0.45594000000E+02  0.51100000000E-03 0.  1.
         11   -1    0    0    0    0 -0.00000000000E+00 -0.00000000000E+00 -0.45593999997E+02  0.45594000000E+02  0.51100000000E-03 0. -1.
    9900012    2    1    2    0    0 -0.92803106743E+00  0.72918832573E+00 -0.58501888120E-04  0.90007763888E+02  0.90000025571E+02 0.  0.
         12    1    1    2    0    0  0.92803106743E+00 -0.72918832573E+00  0.58501888120E-04  0.11802361119E+01  0.00000000000E+00 0. -1.
         11    1    3    3    0    0  0.92718088787E+01 -0.32553228739E+02 -0.17433533950E+02  0.38073708087E+02  0.51100000000E-03 0. -1.
        -11    1    3    3    0    0  0.66894963537E+01 -0.99256821452E+00 -0.42624116316E+01  0.79939168312E+01  0.51100000000E-03 0.  1.
        -12    1    3    3    0    0 -0.16889336300E+02  0.34274985280E+02  0.21695887079E+02  0.43940138970E+02  0.00000000000E+00 0.  1.
</event>
<event>
 7    1  0.2468912E-015  0.9000776E+02  0.7816164E-02  0.1186339E+00
        -11   -1    0    0    0    0  0.00000000000E+00  0.00000000000E+00  0.45593999997E+02  0.45594000000E+02  0.51100000000E-03 0. -1.
         11   -1    0    0    0    0 -0.00000000000E+00 -0.00000000000E+00 -0.45593999997E+02  0.45594000000E+02  0.51100000000E-03 0.  1.
    9900012    2    1    2    0    0  0.34253004666E+00 -0.10946745643E+01 -0.27806720901E+00  0.90007762478E+02  0.90000024143E+02 0.  0.
         12    1    1    2    0    0 -0.34253004666E+00  0.10946745643E+01  0.27806720901E+00  0.11802375216E+01  0.00000000000E+00 0. -1.
         11    1    3    3    0    0  0.53369177041E+01 -0.55012601567E+01  0.60063407936E+01  0.97376939715E+01  0.51100000000E-03 0. -1.
        -11    1    3    3    0    0  0.15110812510E+00 -0.37372053083E+02  0.17609122921E+01  0.37413820945E+02  0.51100000000E-03 0.  1.
         12    1    3    3    0    0 -0.51454957825E+01  0.41778638676E+02 -0.80453202947E+01  0.42856247562E+02  0.00000000000E+00 0. -1.
</event>
<event>
 7    1  0.2468912E-015  0.9000782E+02  0.7816164E-02  0.1186339E+00
        -11   -1    0    0    0    0  0.00000000000E+00  0.00000000000E+00  0.45593999997E+02  0.45594000000E+02  0.51100000000E-03 0.  1.
         11   -1    0    0    0    0 -0.00000000000E+00 -0.00000000000E+00 -0.45593999997E+02  0.45594000000E+02  0.51100000000E-03 0. -1.
    9900012    2    1    2    0    0 -0.84051119997E+00  0.77670850495E+00  0.28823971156E+00  0.90007823187E+02  0.90000085653E+02 0.  0.
         12    1    1    2    0    0  0.84051119997E+00 -0.77670850495E+00 -0.28823971156E+00  0.11801768131E+01  0.00000000000E+00 0. -1.
         11    1    3    3    0    0  0.18730405478E+02 -0.27408334380E+02 -0.18158293140E+02  0.37838716850E+02  0.51100000000E-03 0. -1.
        -11    1    3    3    0    0  0.22799261330E+01  0.10804575259E+01 -0.80382068783E+01  0.84248573707E+01  0.51100000000E-03 0.  1.
        -12    1    3    3    0    0 -0.21850842811E+02  0.27104585359E+02  0.26484739730E+02  0.43744248966E+02  0.00000000000E+00 0.  1.
</event>
<event>
 7    1  0.2468912E-015  0.9000776E+02  0.7816164E-02  0.1186339E+00
        -11   -1    0    0    0    0  0.00000000000E+00  0.00000000000E+00  0.45593999997E+02  0.45594000000E+02  0.51100000000E-03 0.  1.
         11   -1    0    0    0    0 -0.00000000000E+00 -0.00000000000E+00 -0.45593999997E+02  0.45594000000E+02  0.51100000000E-03 0. -1.
    9900012    2    1    2    0    0  0.86225365214E+00 -0.68980034455E+00 -0.41672942316E+00  0.90007758801E+02  0.90000020417E+02 0.  0.
         12    1    1    2    0    0 -0.86225365214E+00  0.68980034455E+00  0.41672942316E+00  0.11802411991E+01  0.00000000000E+00 0. -1.
         11    1    3    3    0    0 -0.10665409923E+02  0.17227681880E+02 -0.32621374303E+02  0.38401797530E+02  0.51100000000E-03 0. -1.
        -11    1    3    3    0    0  0.50272983218E+01  0.46436968506E+01 -0.43871772028E+01  0.81292664446E+01  0.51100000000E-03 0.  1.
        -12    1    3    3    0    0  0.65003652535E+01 -0.22561179075E+02  0.36591822083E+02  0.43476694827E+02  0.00000000000E+00 0.  1.
</event>
<event>
 7    1  0.2468912E-015  0.9000775E+02  0.7816164E-02  0.1186339E+00
        -11   -1    0    0    0    0  0.00000000000E+00  0.00000000000E+00  0.45593999997E+02  0.45594000000E+02  0.51100000000E-03 0. -1.
         11   -1    0    0    0    0 -0.00000000000E+00 -0.00000000000E+00 -0.45593999997E+02  0.45594000000E+02  0.51100000000E-03 0.  1.
    9900012    2    1    2    0    0  0.11461395258E+01  0.27917504943E+00  0.37590285583E-01  0.90007751064E+02  0.90000012578E+02 0.  0.
         12    1    1    2    0    0 -0.11461395258E+01 -0.27917504943E+00 -0.37590285583E-01  0.11802489358E+01  0.00000000000E+00 0. -1.
         11    1    3    3    0    0  0.38669957640E+02 -0.89582526472E+01 -0.10442977263E+02  0.41044752268E+02  0.51100000000E-03 0. -1.
        -11    1    3    3    0    0 -0.43930356883E+01  0.79939162037E+00  0.13904188379E+02  0.14603569573E+02  0.51100000000E-03 0.  1.
        -12    1    3    3    0    0 -0.33130782426E+02  0.84380360763E+01 -0.34236208304E+01  0.34359429223E+02  0.00000000000E+00 0.  1.
</event>
<event>
 7    1  0.2468912E-015  0.9000773E+02  0.7816164E-02  0.1186339E+00
        -11   -1    0    0    0    0  0.00000000000E+00  0.00000000000E+00  0.45593999997E+02  0.45594000000E+02  0.51100000000E-03 0. -1.
         11   -1    0    0    0    0 -0.00000000000E+00 -0.00000000000E+00 -0.45593999997E+02  0.45594000000E+02  0.51100000000E-03 0.  1.
    9900012    2    1    2    0    0  0.50663972111E+00 -0.10405363137E+01  0.23159041680E+00  0.90007731493E+02  0.89999992749E+02 0.  0.
         12    1    1    2    0    0 -0.50663972111E+00  0.10405363137E+01 -0.23159041680E+00  0.11802685068E+01  0.00000000000E+00 0. -1.
         11    1    3    3    0    0 -0.24086073488E+01  0.86507116047E+01  0.22207052043E+01  0.92502828332E+01  0.51100000000E-03 0. -1.
        -11    1    3    3    0    0  0.34410502603E+02 -0.23519694686E+02  0.12378974179E+02  0.43479854295E+02  0.51100000000E-03 0.  1.
         12    1    3    3    0    0 -0.31495255533E+02  0.13828446768E+02 -0.14368088966E+02  0.37277594365E+02  0.00000000000E+00 0. -1.
</event>
<event>
 7    1  0.2468912E-015  0.9000788E+02  0.7816164E-02  0.1186339E+00
        -11   -1    0    0    0    0  0.00000000000E+00  0.00000000000E+00  0.45593999997E+02  0.45594000000E+02  0.51100000000E-03 0.  1.
         11   -1    0    0    0    0 -0.00000000000E+00 -0.00000000000E+00 -0.45593999997E+02  0.45594000000E+02  0.51100000000E-03 0. -1.
    9900012    2    1    2    0    0  0.98955004082E+00  0.46587101392E+00  0.44320519152E+00  0.90007883088E+02  0.90000146344E+02 0.  0.
         12    1    1    2    0    0 -0.98955004082E+00 -0.46587101392E+00 -0.44320519152E+00  0.11801169123E+01  0.00000000000E+00 0. -1.
         11    1    3    3    0    0  0.51079593849E+01 -0.76320284100E+01  0.29434139934E+01  0.96437955664E+01  0.51100000000E-03 0. -1.
        -11    1    3    3    0    0 -0.11315162792E+02 -0.20874274297E+02  0.28655840031E+02  0.37214585912E+02  0.51100000000E-03 0.  1.
         12    1    3    3    0    0  0.71967534481E+01  0.28972173721E+02 -0.31156048833E+02  0.43149501610E+02  0.00000000000E+00 0. -1.
</event>
<event>
 7    1  0.2468912E-015  0.9000769E+02  0.7816164E-02  0.1186339E+00
        -11   -1    0    0    0    0  0.00000000000E+00  0.00000000000E+00  0.45593999997E+02  0.45594000000E+02  0.51100000000E-03 0.  1.
         11   -1    0    0    0    0 -0.00000000000E+00 -0.00000000000E+00 -0.45593999997E+02  0.45594000000E+02  0.51100000000E-03 0. -1.
    9900012    2    1    2    0    0  0.53412374319E+00 -0.88294756240E-02  0.10524992663E+01  0.90007694600E+02  0.89999955368E+02 0.  0.
         12    1    1    2    0    0 -0.53412374319E+00  0.88294756240E-02 -0.10524992663E+01  0.11803054004E+01  0.00000000000E+00 0. -1.
         11    1    3    3    0    0 -0.81104212295E+01 -0.17870571153E+01  0.45383212965E+01  0.94640829510E+01  0.51100000000E-03 0. -1.
        -11    1    3    3    0    0  0.21162767813E+02 -0.28633634830E+02  0.19332486514E+02  0.40515340554E+02  0.51100000000E-03 0.  1.
         12    1    3    3    0    0 -0.12518222841E+02  0.30411862470E+02 -0.22818308545E+02  0.40028271095E+02  0.00000000000E+00 0. -1.
</event>
<event>
 7    1  0.2468912E-015  0.9000772E+02  0.7816164E-02  0.1186339E+00
        -11   -1    0    0    0    0  0.00000000000E+00  0.00000000000E+00  0.45593999997E+02  0.45594000000E+02  0.51100000000E-03 0. -1.
         11   -1    0    0    0    0 -0.00000000000E+00 -0.00000000000E+00 -0.45593999997E+02  0.45594000000E+02  0.51100000000E-03 0.  1.
    9900012    2    1    2    0    0 -0.10956406753E+01 -0.38975170268E+00  0.20182174209E+00  0.90007717451E+02  0.89999978522E+02 0.  0.
         12    1    1    2    0    0  0.10956406753E+01  0.38975170268E+00 -0.20182174209E+00  0.11802825487E+01  0.00000000000E+00 0. -1.
         11    1    3    3    0    0  0.97969603657E+00  0.20922713736E+01 -0.16281752888E+02  0.16444843605E+02  0.51100000000E-03 0. -1.
        -11    1    3    3    0    0 -0.15434695245E+02  0.67016088170E+01 -0.24367430845E+02  0.29612717948E+02  0.51100000000E-03 0.  1.
         12    1    3    3    0    0  0.13359358533E+02 -0.91836318933E+01  0.40851005475E+02  0.43950155898E+02  0.00000000000E+00 0. -1.
</event>
<event>
 7    1  0.2468912E-015  0.9000775E+02  0.7816164E-02  0.1186339E+00
        -11   -1    0    0    0    0  0.00000000000E+00  0.00000000000E+00  0.45593999997E+02  0.45594000000E+02  0.51100000000E-03 0.  1.
         11   -1    0    0    0    0 -0.00000000000E+00 -0.00000000000E+00 -0.45593999997E+02  0.45594000000E+02  0.51100000000E-03 0. -1.
    9900012    2    1    2    0    0 -0.21557110162E+00  0.11163300627E+01  0.31674103829E+00  0.90007750622E+02  0.90000012130E+02 0.  0.
         12    1    1    2    0    0  0.21557110162E+00 -0.11163300627E+01 -0.31674103829E+00  0.11802493779E+01  0.00000000000E+00 0. -1.
         11    1    3    3    0    0 -0.13541674864E+02  0.45076201764E+01 -0.78166846468E+01  0.16272558401E+02  0.51100000000E-03 0. -1.
        -11    1    3    3    0    0  0.52681246880E+01 -0.28507845359E+02 -0.19961541005E+02  0.35198203140E+02  0.51100000000E-03 0.  1.
         12    1    3    3    0    0  0.80579790742E+01  0.25116555245E+02  0.28094966690E+02  0.38536989082E+02  0.00000000000E+00 0. -1.
</event>
<event>
 7    1  0.2468912E-015  0.9000694E+02  0.7816164E-02  0.1186341E+00
        -11   -1    0    0    0    0  0.00000000000E+00  0.00000000000E+00  0.45593999997E+02  0.45594000000E+02  0.51100000000E-03 0.  1.
         11   -1    0    0    0    0 -0.00000000000E+00 -0.00000000000E+00 -0.45593999997E+02  0.45594000000E+02  0.51100000000E-03 0. -1.
    9900012    2    1    2    0    0  0.16465285786E+00  0.88545156065E+00  0.76404056365E+00  0.90006944111E+02  0.89999194970E+02 0.  0.
         12    1    1    2    0    0 -0.16465285786E+00 -0.88545156065E+00 -0.76404056365E+00  0.11810558889E+01  0.00000000000E+00 0. -1.
         11    1    3    3    0    0  0.20239502335E+01  0.81054622471E+01  0.66132315795E+01  0.10655032847E+02  0.51100000000E-03 0. -1.
        -11    1    3    3    0    0 -0.14214358361E+02 -0.52479314385E+01  0.34193385005E+02  0.37400218534E+02  0.51100000000E-03 0.  1.
         12    1    3    3    0    0  0.12355060986E+02 -0.19720792480E+01 -0.40042576021E+02  0.41951692730E+02  0.00000000000E+00 0. -1.
</event>
<event>
 7    1  0.2468912E-015  0.9000847E+02  0.7816164E-02  0.1186338E+00
        -11   -1    0    0    0    0  0.00000000000E+00  0.00000000000E+00  0.45593999997E+02  0.45594000000E+02  0.51100000000E-03 0.  1.
         11   -1    0    0    0    0 -0.00000000000E+00 -0.00000000000E+00 -0.45593999997E+02  0.45594000000E+02  0.51100000000E-03 0. -1.
    9900012    2    1    2    0    0 -0.10506039277E+01  0.52265183570E+00 -0.11978567901E+00  0.90008473755E+02  0.90000744805E+02 0.  0.
         12    1    1    2    0    0  0.10506039277E+01 -0.52265183570E+00  0.11978567901E+00  0.11795262452E+01  0.00000000000E+00 0. -1.
         11    1    3    3    0    0 -0.10256331574E+02  0.43801563747E+01  0.76531642255E+01  0.13525865228E+02  0.51100000000E-03 0. -1.
        -11    1    3    3    0    0  0.11053434402E+02  0.14241195758E+02  0.29747774581E+02  0.34783906645E+02  0.51100000000E-03 0.  1.
         12    1    3    3    0    0 -0.18477067556E+01 -0.18098700297E+02 -0.37520724486E+02  0.41698701882E+02  0.00000000000E+00 0. -1.
</event>
<event>
 7    1  0.2468912E-015  0.9000770E+02  0.7816164E-02  0.1186339E+00
        -11   -1    0    0    0    0  0.00000000000E+00  0.00000000000E+00  0.45593999997E+02  0.45594000000E+02  0.51100000000E-03 0.  1.
         11   -1    0    0    0    0 -0.00000000000E+00 -0.00000000000E+00 -0.45593999997E+02  0.45594000000E+02  0.51100000000E-03 0. -1.
    9900012    2    1    2    0    0  0.77270226067E+00  0.80043272665E+00  0.39414784513E+00  0.90007697557E+02  0.89999958365E+02 0.  0.
         12    1    1    2    0    0 -0.77270226067E+00 -0.80043272665E+00 -0.39414784513E+00  0.11803024432E+01  0.00000000000E+00 0. -1.
         11    1    3    3    0    0  0.33116021222E+02 -0.77370781666E+01 -0.22269557199E+02  0.40650540196E+02  0.51100000000E-03 0. -1.
        -11    1    3    3    0    0  0.29473805739E+01  0.80250387906E+01  0.46316628391E+01  0.97231991008E+01  0.51100000000E-03 0.  1.
        -12    1    3    3    0    0 -0.35290699535E+02  0.51247210261E+00  0.18032042205E+02  0.39633958260E+02  0.00000000000E+00 0.  1.
</event>
<event>
 7    1  0.2468912E-015  0.9000773E+02  0.7816164E-02  0.1186339E+00
        -11   -1    0    0    0    0  0.00000000000E+00  0.00000000000E+00  0.45593999997E+02  0.45594000000E+02  0.51100000000E-03 0.  1.
         11   -1    0    0    0    0 -0.00000000000E+00 -0.00000000000E+00 -0.45593999997E+02  0.45594000000E+02  0.51100000000E-03 0. -1.
    9900012    2    1    2    0    0  0.42622586442E+00 -0.63526605189E+00  0.89878094489E+00  0.90007729425E+02  0.89999990653E+02 0.  0.
         12    1    1    2    0    0 -0.42622586442E+00  0.63526605189E+00 -0.89878094489E+00  0.11802705754E+01  0.00000000000E+00 0. -1.
         11    1    3    3    0    0  0.15203451103E+02 -0.50727102726E+01 -0.30137843894E+02  0.34134541886E+02  0.51100000000E-03 0. -1.
        -11    1    3    3    0    0  0.19547063003E+01 -0.71318536553E+01 -0.85873664565E+01  0.11332567061E+02  0.51100000000E-03 0.  1.
        -12    1    3    3    0    0 -0.16731931538E+02  0.11569297876E+02  0.39623991295E+02  0.44540620477E+02  0.00000000000E+00 0.  1.
</event>
<event>
 7    1  0.2468912E-015  0.9000733E+02  0.7816164E-02  0.1186340E+00
        -11   -1    0    0    0    0  0.00000000000E+00  0.00000000000E+00  0.45593999997E+02  0.45594000000E+02  0.51100000000E-03 0. -1.
         11   -1    0    0    0    0 -0.00000000000E+00 -0.00000000000E+00 -0.45593999997E+02  0.45594000000E+02  0.51100000000E-03 0.  1.
    9900012    2    1    2    0    0  0.66115231777E+00  0.97468821151E+00 -0.82682991859E-01  0.90007332403E+02  0.89999588390E+02 0.  0.
         12    1    1    2    0    0 -0.66115231777E+00 -0.97468821151E+00  0.82682991859E-01  0.11806675968E+01  0.00000000000E+00 0. -1.
         11    1    3    3    0    0  0.36432523682E+02 -0.13767264457E+02  0.11318497639E+02  0.40558288198E+02  0.51100000000E-03 0. -1.
        -11    1    3    3    0    0 -0.28958063346E+01 -0.73854101965E+01 -0.48069083843E+01  0.92755779644E+01  0.51100000000E-03 0.  1.
        -12    1    3    3    0    0 -0.32875565030E+02  0.22127362865E+02 -0.65942722470E+01  0.40173466241E+02  0.00000000000E+00 0.  1.
</event>
<event>
 7    1  0.2468912E-015  0.9000776E+02  0.7816164E-02  0.1186339E+00
        -11   -1    0    0    0    0  0.00000000000E+00  0.00000000000E+00  0.45593999997E+02  0.45594000000E+02  0.51100000000E-03 0.  1.
         11   -1    0    0    0    0 -0.00000000000E+00 -0.00000000000E+00 -0.45593999997E+02  0.45594000000E+02  0.51100000000E-03 0. -1.
    9900012    2    1    2    0    0  0.18427797485E+00 -0.36013007784E+00  0.11087488562E+01  0.90007755927E+02  0.90000017506E+02 0.  0.
         12    1    1    2    0    0 -0.18427797485E+00  0.36013007784E+00 -0.11087488562E+01  0.11802440727E+01  0.00000000000E+00 0. -1.
         11    1    3    3    0    0  0.15051887283E+02  0.25717648349E+01  0.70425049977E+01  0.16815771230E+02  0.51100000000E-03 0. -1.
        -11    1    3    3    0    0  0.12563237604E+01 -0.21747849237E+02  0.25258722819E+02  0.33354915298E+02  0.51100000000E-03 0.  1.
         12    1    3    3    0    0 -0.16123933068E+02  0.18815954324E+02 -0.31192478960E+02  0.39837069400E+02  0.00000000000E+00 0. -1.
</event>
<event>
 7    1  0.2468912E-015  0.9000786E+02  0.7816164E-02  0.1186339E+00
        -11   -1    0    0    0    0  0.00000000000E+00  0.00000000000E+00  0.45593999997E+02  0.45594000000E+02  0.51100000000E-03 0.  1.
         11   -1    0    0    0    0 -0.00000000000E+00 -0.00000000000E+00 -0.45593999997E+02  0.45594000000E+02  0.51100000000E-03 0. -1.
    9900012    2    1    2    0    0 -0.35423583681E+00  0.10860291476E+01 -0.29628124368E+00  0.90007862333E+02  0.90000125316E+02 0.  0.
         12    1    1    2    0    0  0.35423583681E+00 -0.10860291476E+01  0.29628124368E+00  0.11801376670E+01  0.00000000000E+00 0. -1.
         11    1    3    3    0    0  0.10159599025E+01 -0.43924192958E+01  0.49533714910E+01  0.66978661663E+01  0.51100000000E-03 0. -1.
        -11    1    3    3    0    0 -0.10341696968E+02  0.40478999574E+02  0.11719233859E+02  0.43391710558E+02  0.51100000000E-03 0.  1.
         12    1    3    3    0    0  0.89715012282E+01 -0.35000551130E+02 -0.16968886593E+02  0.39918285609E+02  0.00000000000E+00 0. -1.
</event>
<event>
 7    1  0.2468912E-015  0.9000772E+02  0.7816164E-02  0.1186339E+00
        -11   -1    0    0    0    0  0.00000000000E+00  0.00000000000E+00  0.45593999997E+02  0.45594000000E+02  0.51100000000E-03 0. -1.
         11   -1    0    0    0    0 -0.00000000000E+00 -0.00000000000E+00 -0.45593999997E+02  0.45594000000E+02  0.51100000000E-03 0.  1.
    9900012    2    1    2    0    0 -0.37045688826E+00  0.79600359472E+00 -0.78880155524E+00  0.90007717016E+02  0.89999978081E+02 0.  0.
         12    1    1    2    0    0  0.37045688826E+00 -0.79600359472E+00  0.78880155524E+00  0.11802829840E+01  0.00000000000E+00 0. -1.
         11    1    3    3    0    0 -0.27455024126E+01 -0.69370244358E+01  0.57245053661E+01  0.94037255101E+01  0.51100000000E-03 0. -1.
        -11    1    3    3    0    0  0.25967929825E+02 -0.18982884747E+02 -0.24732129479E+02  0.40575380732E+02  0.51100000000E-03 0.  1.
         12    1    3    3    0    0 -0.23592884300E+02  0.26715912777E+02  0.18218822558E+02  0.40028610774E+02  0.00000000000E+00 0. -1.
</event>
<event>
 7    1  0.2468912E-015  0.9000777E+02  0.7816164E-02  0.1186339E+00
        -11   -1    0    0    0    0  0.00000000000E+00  0.00000000000E+00  0.45593999997E+02  0.45594000000E+02  0.51100000000E-03 0.  1.
         11   -1    0    0    0    0 -0.00000000000E+00 -0.00000000000E+00 -0.45593999997E+02  0.45594000000E+02  0.51100000000E-03 0. -1.
    9900012    2    1    2    0    0 -0.88972319705E+00 -0.19323426725E+00  0.75100417553E+00  0.90007765226E+02  0.90000026927E+02 0.  0.
         12    1    1    2    0    0  0.88972319705E+00  0.19323426725E+00 -0.75100417553E+00  0.11802347737E+01  0.00000000000E+00 0. -1.
         11    1    3    3    0    0  0.17525358597E+00 -0.17255439828E+02 -0.35484994036E+02  0.39458404928E+02  0.51100000000E-03 0. -1.
        -11    1    3    3    0    0 -0.46515432495E+01 -0.59879389335E+01  0.15478043848E+00  0.75839451817E+01  0.51100000000E-03 0.  1.
        -12    1    3    3    0    0  0.35865664665E+01  0.23050144494E+02  0.36081217773E+02  0.42965415117E+02  0.00000000000E+00 0.  1.
</event>
<event>
 7    1  0.2468912E-015  0.9000772E+02  0.7816164E-02  0.1186339E+00
        -11   -1    0    0    0    0  0.00000000000E+00  0.00000000000E+00  0.45593999997E+02  0.45594000000E+02  0.51100000000E-03 0.  1.
         11   -1    0    0    0    0 -0.00000000000E+00 -0.00000000000E+00 -0.45593999997E+02  0.45594000000E+02  0.51100000000E-03 0. -1.
    9900012    2    1    2    0    0  0.44472118314E+00 -0.45394529448E+00  0.99459071360E+00  0.90007722936E+02  0.89999984078E+02 0.  0.
         12    1    1    2    0    0 -0.44472118314E+00  0.45394529448E+00 -0.99459071360E+00  0.11802770644E+01  0.00000000000E+00 0. -1.
         11    1    3    3    0    0  0.35745830352E+01 -0.24071988756E+01 -0.76497019499E+01  0.87801019633E+01  0.51100000000E-03 0. -1.
        -11    1    3    3    0    0 -0.36814398941E+02 -0.17947916615E+02 -0.86033901833E+00  0.40965447193E+02  0.51100000000E-03 0.  1.
         12    1    3    3    0    0  0.33684537089E+02  0.19901170196E+02  0.95046316818E+01  0.40262173780E+02  0.00000000000E+00 0. -1.
</event>
<event>
 7    1  0.2468912E-015  0.9000776E+02  0.7816164E-02  0.1186339E+00
        -11   -1    0    0    0    0  0.00000000000E+00  0.00000000000E+00  0.45593999997E+02  0.45594000000E+02  0.51100000000E-03 0.  1.
         11   -1    0    0    0    0 -0.00000000000E+00 -0.00000000000E+00 -0.45593999997E+02  0.45594000000E+02  0.51100000000E-03 0. -1.
    9900012    2    1    2    0    0 -0.11517227769E+01  0.61581644254E-01  0.25041004038E+00  0.90007761532E+02  0.90000023184E+02 0.  0.
         12    1    1    2    0    0  0.11517227769E+01 -0.61581644254E-01 -0.25041004038E+00  0.11802384683E+01  0.00000000000E+00 0. -1.
         11    1    3    3    0    0 -0.42310664367E+01 -0.45102496769E+01  0.87362740693E+01  0.10703586325E+02  0.51100000000E-03 0. -1.
        -11    1    3    3    0    0 -0.67672673118E+01 -0.13105433847E+02  0.31337427097E+02  0.34634991562E+02  0.51100000000E-03 0.  1.
         12    1    3    3    0    0  0.98466109716E+01  0.17677265168E+02 -0.39823291125E+02  0.44669183645E+02  0.00000000000E+00 0. -1.
</event>
<event>
 7    1  0.2468912E-015  0.9000776E+02  0.7816164E-02  0.1186339E+00
        -11   -1    0    0    0    0  0.00000000000E+00  0.00000000000E+00  0.45593999997E+02  0.45594000000E+02  0.51100000000E-03 0. -1.
         11   -1    0    0    0    0 -0.00000000000E+00 -0.00000000000E+00 -0.45593999997E+02  0.45594000000E+02  0.51100000000E-03 0.  1.
    9900012    2    1    2    0    0  0.56358489855E+00  0.68218281323E+00 -0.78100480766E+00  0.90007758568E+02  0.90000020181E+02 0.  0.
         12    1    1    2    0    0 -0.56358489855E+00 -0.68218281323E+00  0.78100480766E+00  0.11802414321E+01  0.00000000000E+00 0. -1.
         11    1    3    3    0    0  0.42409824290E+01 -0.12778442335E+01 -0.53925677847E+01  0.69784386091E+01  0.51100000000E-03 0. -1.
        -11    1    3    3    0    0 -0.11276596511E+02 -0.19109872481E+02 -0.32696116725E+02  0.39514363266E+02  0.51100000000E-03 0.  1.
         12    1    3    3    0    0  0.75991989808E+01  0.21069899528E+02  0.37307679702E+02  0.43514956693E+02  0.00000000000E+00 0. -1.
</event>
<event>
 7    1  0.2468912E-015  0.9000775E+02  0.7816164E-02  0.1186339E+00
        -11   -1    0    0    0    0  0.00000000000E+00  0.00000000000E+00  0.45593999997E+02  0.45594000000E+02  0.51100000000E-03 0. -1.
         11   -1    0    0    0    0 -0.00000000000E+00 -0.00000000000E+00 -0.45593999997E+02  0.45594000000E+02  0.51100000000E-03 0.  1.
    9900012    2    1    2    0    0  0.26666964257E+00 -0.11481569067E+01 -0.60038194501E-01  0.90007753600E+02  0.90000015147E+02 0.  0.
         12    1    1    2    0    0 -0.26666964257E+00  0.11481569067E+01  0.60038194501E-01  0.11802464004E+01  0.00000000000E+00 0. -1.
         11    1    3    3    0    0 -0.41147990619E+02 -0.17556157302E+01  0.10197928559E+02  0.42429200626E+02  0.51100000000E-03 0. -1.
        -11    1    3    3    0    0  0.59173343724E+01 -0.79043189433E+01 -0.33531120727E+01  0.10427677827E+02  0.51100000000E-03 0.  1.
        -12    1    3    3    0    0  0.35497325889E+02  0.85117777667E+01 -0.69048546809E+01  0.37150875147E+02  0.00000000000E+00 0.  1.
</event>
<event>
 7    1  0.2468912E-015  0.9000770E+02  0.7816164E-02  0.1186339E+00
        -11   -1    0    0    0    0  0.00000000000E+00  0.00000000000E+00  0.45593999997E+02  0.45594000000E+02  0.51100000000E-03 0.  1.
         11   -1    0    0    0    0 -0.00000000000E+00 -0.00000000000E+00 -0.45593999997E+02  0.45594000000E+02  0.51100000000E-03 0. -1.
    9900012    2    1    2    0    0 -0.40809965714E+00  0.46667742175E-01  0.11065172076E+01  0.90007701928E+02  0.89999962793E+02 0.  0.
         12    1    1    2    0    0  0.40809965714E+00 -0.46667742175E-01 -0.11065172076E+01  0.11802980721E+01  0.00000000000E+00 0. -1.
         11    1    3    3    0    0 -0.11707029859E+02  0.60179657581E+01  0.26779619741E+01  0.13432867921E+02  0.51100000000E-03 0. -1.
        -11    1    3    3    0    0 -0.17388062821E+02  0.15506037553E+02  0.23303215396E+02  0.32951809925E+02  0.51100000000E-03 0.  1.
         12    1    3    3    0    0  0.28686993023E+02 -0.21477335569E+02 -0.24874660163E+02  0.43623024082E+02  0.00000000000E+00 0. -1.
</event>
<event>
 7    1  0.2468912E-015  0.9000776E+02  0.7816164E-02  0.1186339E+00
        -11   -1    0    0    0    0  0.00000000000E+00  0.00000000000E+00  0.45593999997E+02  0.45594000000E+02  0.51100000000E-03 0. -1.
         11   -1    0    0    0    0 -0.00000000000E+00 -0.00000000000E+00 -0.45593999997E+02  0.45594000000E+02  0.51100000000E-03 0.  1.
    9900012    2    1    2    0    0 -0.71182964065E+00 -0.61006762289E+00 -0.71699395984E+00  0.90007760922E+02  0.90000022567E+02 0.  0.
         12    1    1    2    0    0  0.71182964065E+00  0.61006762289E+00  0.71699395984E+00  0.11802390776E+01  0.00000000000E+00 0. -1.
         11    1    3    3    0    0 -0.33336191324E+02  0.90091796838E+01  0.73523753108E+01  0.35306152346E+02  0.51100000000E-03 0. -1.
        -11    1    3    3    0    0 -0.65277101407E+01  0.77622394118E+01  0.27718982395E+01  0.10514122906E+02  0.51100000000E-03 0.  1.
        -12    1    3    3    0    0  0.39152071824E+02 -0.17381486718E+02 -0.10841267510E+02  0.44187485670E+02  0.00000000000E+00 0.  1.
</event>
<event>
 7    1  0.2468912E-015  0.9000783E+02  0.7816164E-02  0.1186339E+00
        -11   -1    0    0    0    0  0.00000000000E+00  0.00000000000E+00  0.45593999997E+02  0.45594000000E+02  0.51100000000E-03 0. -1.
         11   -1    0    0    0    0 -0.00000000000E+00 -0.00000000000E+00 -0.45593999997E+02  0.45594000000E+02  0.51100000000E-03 0.  1.
    9900012    2    1    2    0    0  0.51997321204E+00  0.10591010749E+01 -0.27145977991E-01  0.90007828770E+02  0.90000091310E+02 0.  0.
         12    1    1    2    0    0 -0.51997321204E+00 -0.10591010749E+01  0.27145977991E-01  0.11801712301E+01  0.00000000000E+00 0. -1.
         11    1    3    3    0    0 -0.62940302659E+01 -0.15841325756E+02  0.31328637073E+02  0.35665752758E+02  0.51100000000E-03 0. -1.
        -11    1    3    3    0    0 -0.63499640766E+01 -0.10049600423E+02 -0.14307767971E+01  0.11973455430E+02  0.51100000000E-03 0.  1.
        -12    1    3    3    0    0  0.13163967555E+02  0.26950027254E+02 -0.29925006254E+02  0.42368620582E+02  0.00000000000E+00 0.  1.
</event>
<event>
 7    1  0.2468912E-015  0.9000774E+02  0.7816164E-02  0.1186339E+00
        -11   -1    0    0    0    0  0.00000000000E+00  0.00000000000E+00  0.45593999997E+02  0.45594000000E+02  0.51100000000E-03 0.  1.
         11   -1    0    0    0    0 -0.00000000000E+00 -0.00000000000E+00 -0.45593999997E+02  0.45594000000E+02  0.51100000000E-03 0. -1.
    9900012    2    1    2    0    0  0.23559975952E+00 -0.39385497084E+00  0.10873741414E+01  0.90007740915E+02  0.90000002295E+02 0.  0.
         12    1    1    2    0    0 -0.23559975952E+00  0.39385497084E+00 -0.10873741414E+01  0.11802590851E+01  0.00000000000E+00 0. -1.
         11    1    3    3    0    0 -0.37936578962E+01 -0.11358762672E+01 -0.88278334224E+01  0.96753655394E+01  0.51100000000E-03 0. -1.
        -11    1    3    3    0    0  0.41676477509E+02  0.16190232231E+01  0.89780674545E+01  0.42663282917E+02  0.51100000000E-03 0.  1.
         12    1    3    3    0    0 -0.37647219853E+02 -0.87700192673E+00  0.93714010918E+00  0.37669092459E+02  0.00000000000E+00 0. -1.
</event>
<event>
 7    1  0.2468912E-015  0.9000772E+02  0.7816164E-02  0.1186339E+00
        -11   -1    0    0    0    0  0.00000000000E+00  0.00000000000E+00  0.45593999997E+02  0.45594000000E+02  0.51100000000E-03 0.  1.
         11   -1    0    0    0    0 -0.00000000000E+00 -0.00000000000E+00 -0.45593999997E+02  0.45594000000E+02  0.51100000000E-03 0. -1.
    9900012    2    1    2    0    0  0.10391115903E+01 -0.13436337873E+00 -0.54337394025E+00  0.90007719672E+02  0.89999980771E+02 0.  0.
         12    1    1    2    0    0 -0.10391115903E+01  0.13436337873E+00  0.54337394025E+00  0.11802803284E+01  0.00000000000E+00 0. -1.
         11    1    3    3    0    0  0.33316499248E+02  0.10316266789E+02 -0.19990246214E+02  0.40199806300E+02  0.51100000000E-03 0. -1.
        -11    1    3    3    0    0 -0.31025145897E+01  0.93819698745E+01  0.82228043578E+00  0.99158005669E+01  0.51100000000E-03 0.  1.
        -12    1    3    3    0    0 -0.29174873068E+02 -0.19832600042E+02  0.18624591838E+02  0.39892112805E+02  0.00000000000E+00 0.  1.
</event>
<event>
 7    1  0.2468912E-015  0.9000777E+02  0.7816164E-02  0.1186339E+00
        -11   -1    0    0    0    0  0.00000000000E+00  0.00000000000E+00  0.45593999997E+02  0.45594000000E+02  0.51100000000E-03 0.  1.
         11   -1    0    0    0    0 -0.00000000000E+00 -0.00000000000E+00 -0.45593999997E+02  0.45594000000E+02  0.51100000000E-03 0. -1.
    9900012    2    1    2    0    0 -0.35210953294E+00 -0.10953472628E+01  0.26299151566E+00  0.90007774900E+02  0.90000036729E+02 0.  0.
         12    1    1    2    0    0  0.35210953294E+00  0.10953472628E+01 -0.26299151566E+00  0.11802250999E+01  0.00000000000E+00 0. -1.
         11    1    3    3    0    0  0.17840961214E+02  0.30984449124E+02 -0.17269882928E+02  0.39706231767E+02  0.51100000000E-03 0. -1.
        -11    1    3    3    0    0  0.73536454463E+01 -0.50515617260E+01 -0.56814343997E+00  0.89396400627E+01  0.51100000000E-03 0.  1.
        -12    1    3    3    0    0 -0.25546716193E+02 -0.27028234661E+02  0.18101017884E+02  0.41361903070E+02  0.00000000000E+00 0.  1.
</event>
<event>
 7    1  0.2468912E-015  0.9000781E+02  0.7816164E-02  0.1186339E+00
        -11   -1    0    0    0    0  0.00000000000E+00  0.00000000000E+00  0.45593999997E+02  0.45594000000E+02  0.51100000000E-03 0.  1.
         11   -1    0    0    0    0 -0.00000000000E+00 -0.00000000000E+00 -0.45593999997E+02  0.45594000000E+02  0.51100000000E-03 0. -1.
    9900012    2    1    2    0    0 -0.38314702715E+00  0.95637135179E+00  0.57568419700E+00  0.90007805058E+02  0.90000067285E+02 0.  0.
         12    1    1    2    0    0  0.38314702715E+00 -0.95637135179E+00 -0.57568419700E+00  0.11801949422E+01  0.00000000000E+00 0. -1.
         11    1    3    3    0    0 -0.23110745382E+02 -0.76792797876E+01 -0.26550619442E+02  0.36027951415E+02  0.51100000000E-03 0. -1.
        -11    1    3    3    0    0 -0.10778424842E+02 -0.22873803571E+01  0.35377728366E+01  0.11572484084E+02  0.51100000000E-03 0.  1.
        -12    1    3    3    0    0  0.33506023196E+02  0.10923031496E+02  0.23588530802E+02  0.42407369559E+02  0.00000000000E+00 0.  1.
</event>
<event>
 7    1  0.2468912E-015  0.9000772E+02  0.7816164E-02  0.1186339E+00
        -11   -1    0    0    0    0  0.00000000000E+00  0.00000000000E+00  0.45593999997E+02  0.45594000000E+02  0.51100000000E-03 0.  1.
         11   -1    0    0    0    0 -0.00000000000E+00 -0.00000000000E+00 -0.45593999997E+02  0.45594000000E+02  0.51100000000E-03 0. -1.
    9900012    2    1    2    0    0  0.42012845292E+00 -0.10664326013E+01  0.28156075426E+00  0.90007719157E+02  0.89999980250E+02 0.  0.
         12    1    1    2    0    0 -0.42012845292E+00  0.10664326013E+01 -0.28156075426E+00  0.11802808430E+01  0.00000000000E+00 0. -1.
         11    1    3    3    0    0 -0.10666117527E+02 -0.80605919549E+01  0.65196128407E+01  0.14874291836E+02  0.51100000000E-03 0. -1.
        -11    1    3    3    0    0  0.10567174868E+02 -0.27808926157E+02  0.16049643789E+02  0.33802257687E+02  0.51100000000E-03 0.  1.
         12    1    3    3    0    0  0.51907111221E+00  0.34803085511E+02 -0.22287695875E+02  0.41331169634E+02  0.00000000000E+00 0. -1.
</event>
<event>
 7    1  0.2468912E-015  0.9000776E+02  0.7816164E-02  0.1186339E+00
        -11   -1    0    0    0    0  0.00000000000E+00  0.00000000000E+00  0.45593999997E+02  0.45594000000E+02  0.51100000000E-03 0.  1.
         11   -1    0    0    0    0 -0.00000000000E+00 -0.00000000000E+00 -0.45593999997E+02  0.45594000000E+02  0.51100000000E-03 0. -1.
    9900012    2    1    2    0    0 -0.73049107425E+00 -0.81336584020E+00 -0.44473860973E+00  0.90007756961E+02  0.90000018553E+02 0.  0.
         12    1    1    2    0    0  0.73049107425E+00  0.81336584020E+00  0.44473860973E+00  0.11802430388E+01  0.00000000000E+00 0. -1.
         11    1    3    3    0    0  0.10443601847E+02 -0.33468766313E+02 -0.13781903357E+02  0.37671846231E+02  0.51100000000E-03 0. -1.
        -11    1    3    3    0    0  0.24642028439E+01 -0.74258411674E+01  0.46957645733E+01  0.91249996103E+01  0.51100000000E-03 0.  1.
        -12    1    3    3    0    0 -0.13638295765E+02  0.40081241640E+02  0.86414001741E+01  0.43210911120E+02  0.00000000000E+00 0.  1.
</event>
<event>
 7    1  0.2468912E-015  0.9000768E+02  0.7816164E-02  0.1186339E+00
        -11   -1    0    0    0    0  0.00000000000E+00  0.00000000000E+00  0.45593999997E+02  0.45594000000E+02  0.51100000000E-03 0. -1.
         11   -1    0    0    0    0 -0.00000000000E+00 -0.00000000000E+00 -0.45593999997E+02  0.45594000000E+02  0.51100000000E-03 0.  1.
    9900012    2    1    2    0    0  0.48736167216E+00  0.18981362981E+00 -0.10581109432E+01  0.90007682508E+02  0.89999943117E+02 0.  0.
         12    1    1    2    0    0 -0.48736167216E+00 -0.18981362981E+00  0.10581109432E+01  0.11803174919E+01  0.00000000000E+00 0. -1.
         11    1    3    3    0    0 -0.15849104332E+02  0.33274454953E+02 -0.10053727978E+02  0.38202891344E+02  0.51100000000E-03 0. -1.
        -11    1    3    3    0    0 -0.95888255243E+01 -0.24034035918E+01 -0.21556506277E+01  0.10117744494E+02  0.51100000000E-03 0.  1.
        -12    1    3    3    0    0  0.25925291528E+02 -0.30681237731E+02  0.11151267662E+02  0.41687046670E+02  0.00000000000E+00 0.  1.
</event>
<event>
 7    1  0.2468912E-015  0.9000780E+02  0.7816164E-02  0.1186339E+00
        -11   -1    0    0    0    0  0.00000000000E+00  0.00000000000E+00  0.45593999997E+02  0.45594000000E+02  0.51100000000E-03 0.  1.
         11   -1    0    0    0    0 -0.00000000000E+00 -0.00000000000E+00 -0.45593999997E+02  0.45594000000E+02  0.51100000000E-03 0. -1.
    9900012    2    1    2    0    0 -0.11706007791E+01  0.42757052903E-02  0.15013354208E+00  0.90007803175E+02  0.90000065377E+02 0.  0.
         12    1    1    2    0    0  0.11706007791E+01 -0.42757052903E-02 -0.15013354208E+00  0.11801968251E+01  0.00000000000E+00 0. -1.
         11    1    3    3    0    0 -0.10239803093E+02 -0.97823628916E+00  0.15836933166E+01  0.10407622130E+02  0.51100000000E-03 0. -1.
        -11    1    3    3    0    0  0.36799530285E+02 -0.12739411742E+02  0.18170222980E+02  0.42972724421E+02  0.51100000000E-03 0.  1.
         12    1    3    3    0    0 -0.27730327972E+02  0.13721923736E+02 -0.19603782755E+02  0.36627456624E+02  0.00000000000E+00 0. -1.
</event>
<event>
 7    1  0.2468912E-015  0.9000784E+02  0.7816164E-02  0.1186339E+00
        -11   -1    0    0    0    0  0.00000000000E+00  0.00000000000E+00  0.45593999997E+02  0.45594000000E+02  0.51100000000E-03 0. -1.
         11   -1    0    0    0    0 -0.00000000000E+00 -0.00000000000E+00 -0.45593999997E+02  0.45594000000E+02  0.51100000000E-03 0.  1.
    9900012    2    1    2    0    0  0.33762649983E+00  0.74820648104E+00 -0.84791609985E+00  0.90007844797E+02  0.90000107548E+02 0.  0.
         12    1    1    2    0    0 -0.33762649983E+00 -0.74820648104E+00  0.84791609985E+00  0.11801552034E+01  0.00000000000E+00 0. -1.
         11    1    3    3    0    0 -0.16975889431E+02 -0.26557454839E+02  0.27257098178E+02  0.41670476729E+02  0.51100000000E-03 0. -1.
        -11    1    3    3    0    0 -0.43331715929E+01  0.70378494100E+01 -0.13048299526E+01  0.83672147001E+01  0.51100000000E-03 0.  1.
        -12    1    3    3    0    0  0.21646687524E+02  0.20267811910E+02 -0.26800184325E+02  0.39970153367E+02  0.00000000000E+00 0.  1.
</event>
<event>
 7    1  0.2468912E-015  0.9000782E+02  0.7816164E-02  0.1186339E+00
        -11   -1    0    0    0    0  0.00000000000E+00  0.00000000000E+00  0.45593999997E+02  0.45594000000E+02  0.51100000000E-03 0. -1.
         11   -1    0    0    0    0 -0.00000000000E+00 -0.00000000000E+00 -0.45593999997E+02  0.45594000000E+02  0.51100000000E-03 0.  1.
    9900012    2    1    2    0    0 -0.44367600999E+00 -0.10466829622E+01  0.31690051815E+00  0.90007822232E+02  0.90000084686E+02 0.  0.
         12    1    1    2    0    0  0.44367600999E+00  0.10466829622E+01 -0.31690051815E+00  0.11801777678E+01  0.00000000000E+00 0. -1.
         11    1    3    3    0    0  0.50925400509E+01 -0.16198696088E+02  0.25864888055E+02  0.30940655350E+02  0.51100000000E-03 0. -1.
        -11    1    3    3    0    0 -0.15869532961E+02  0.14280356013E+02  0.88720613548E+01  0.23118912544E+02  0.51100000000E-03 0.  1.
        -12    1    3    3    0    0  0.10333316900E+02  0.87165711290E+00 -0.34420048892E+02  0.35948254339E+02  0.00000000000E+00 0.  1.
</event>
<event>
 7    1  0.2468912E-015  0.9000776E+02  0.7816164E-02  0.1186339E+00
        -11   -1    0    0    0    0  0.00000000000E+00  0.00000000000E+00  0.45593999997E+02  0.45594000000E+02  0.51100000000E-03 0.  1.
         11   -1    0    0    0    0 -0.00000000000E+00 -0.00000000000E+00 -0.45593999997E+02  0.45594000000E+02  0.51100000000E-03 0. -1.
    9900012    2    1    2    0    0 -0.20511412173E+00  0.11249882133E+01  0.29206763498E+00  0.90007756895E+02  0.90000018486E+02 0.  0.
         12    1    1    2    0    0  0.20511412173E+00 -0.11249882133E+01 -0.29206763498E+00  0.11802431048E+01  0.00000000000E+00 0. -1.
         11    1    3    3    0    0  0.22956390103E+02 -0.23511816017E+02 -0.19769977353E+02  0.38349098344E+02  0.51100000000E-03 0. -1.
        -11    1    3    3    0    0 -0.85235162293E+01 -0.45577836322E+01 -0.46288521288E+01  0.10716808893E+02  0.51100000000E-03 0.  1.
        -12    1    3    3    0    0 -0.14637987996E+02  0.29194587863E+02  0.24690897117E+02  0.40941849659E+02  0.00000000000E+00 0.  1.
</event>
<event>
 7    1  0.2468912E-015  0.9000786E+02  0.7816164E-02  0.1186339E+00
        -11   -1    0    0    0    0  0.00000000000E+00  0.00000000000E+00  0.45593999997E+02  0.45594000000E+02  0.51100000000E-03 0. -1.
         11   -1    0    0    0    0 -0.00000000000E+00 -0.00000000000E+00 -0.45593999997E+02  0.45594000000E+02  0.51100000000E-03 0.  1.
    9900012    2    1    2    0    0 -0.37182753556E+00 -0.91643009241E+00 -0.64391083312E+00  0.90007863994E+02  0.90000126999E+02 0.  0.
         12    1    1    2    0    0  0.37182753556E+00  0.91643009241E+00  0.64391083312E+00  0.11801360055E+01  0.00000000000E+00 0. -1.
         11    1    3    3    0    0 -0.38090394588E+02  0.15311406787E+02 -0.17377637142E+01  0.41089380144E+02  0.51100000000E-03 0. -1.
        -11    1    3    3    0    0 -0.22383941412E+01 -0.52972570543E+01  0.45733017490E+01  0.73475458338E+01  0.51100000000E-03 0.  1.
        -12    1    3    3    0    0  0.39956961193E+02 -0.10930579825E+02 -0.34794488679E+01  0.41570938016E+02  0.00000000000E+00 0.  1.
</event>
<event>
 7    1  0.2468912E-015  0.9000757E+02  0.7816164E-02  0.1186339E+00
        -11   -1    0    0    0    0  0.00000000000E+00  0.00000000000E+00  0.45593999997E+02  0.45594000000E+02  0.51100000000E-03 0.  1.
         11   -1    0    0    0    0 -0.00000000000E+00 -0.00000000000E+00 -0.45593999997E+02  0.45594000000E+02  0.51100000000E-03 0. -1.
    9900012    2    1    2    0    0  0.35185979803E+00  0.10935409072E+00  0.11214545078E+01  0.90007566246E+02  0.89999825320E+02 0.  0.
         12    1    1    2    0    0 -0.35185979803E+00 -0.10935409072E+00 -0.11214545078E+01  0.11804337540E+01  0.00000000000E+00 0. -1.
         11    1    3    3    0    0  0.27949190394E+01  0.42178188945E+00  0.94402288190E+01  0.98543083377E+01  0.51100000000E-03 0. -1.
        -11    1    3    3    0    0 -0.12734266375E+02 -0.25840647282E+02  0.24147328906E+02  0.37589813588E+02  0.51100000000E-03 0.  1.
         12    1    3    3    0    0  0.10291207134E+02  0.25528219483E+02 -0.32466103217E+02  0.42563444320E+02  0.00000000000E+00 0. -1.
</event>
<event>
 7    1  0.2468912E-015  0.9000776E+02  0.7816164E-02  0.1186339E+00
        -11   -1    0    0    0    0  0.00000000000E+00  0.00000000000E+00  0.45593999997E+02  0.45594000000E+02  0.51100000000E-03 0.  1.
         11   -1    0    0    0    0 -0.00000000000E+00 -0.00000000000E+00 -0.45593999997E+02  0.45594000000E+02  0.51100000000E-03 0. -1.
    9900012    2    1    2    0    0  0.11263265259E+01 -0.23044825924E+00 -0.26692742474E+00  0.90007759307E+02  0.90000020930E+02 0.  0.
         12    1    1    2    0    0 -0.11263265259E+01  0.23044825924E+00  0.26692742474E+00  0.11802406929E+01  0.00000000000E+00 0. -1.
         11    1    3    3    0    0 -0.13964488063E+02  0.95456845108E+00 -0.17869977020E+01  0.14110687044E+02  0.51100000000E-03 0. -1.
        -11    1    3    3    0    0 -0.27413848167E+02 -0.14147022369E+02 -0.40442251752E+01  0.31112908426E+02  0.51100000000E-03 0.  1.
         12    1    3    3    0    0  0.42504662756E+02  0.12962005659E+02  0.55642954525E+01  0.44784163837E+02  0.00000000000E+00 0. -1.
</event>
<event>
 7    1  0.2468912E-015  0.9000782E+02  0.7816164E-02  0.1186339E+00
        -11   -1    0    0    0    0  0.00000000000E+00  0.00000000000E+00  0.45593999997E+02  0.45594000000E+02  0.51100000000E-03 0.  1.
         11   -1    0    0    0    0 -0.00000000000E+00 -0.00000000000E+00 -0.45593999997E+02  0.45594000000E+02  0.51100000000E-03 0. -1.
    9900012    2    1    2    0    0  0.10699836558E+01 -0.14532104179E+00 -0.47628885279E+00  0.90007815989E+02  0.90000078360E+02 0.  0.
         12    1    1    2    0    0 -0.10699836558E+01  0.14532104179E+00  0.47628885279E+00  0.11801840112E+01  0.00000000000E+00 0. -1.
         11    1    3    3    0    0  0.29638131343E+02  0.53849393413E+01 -0.23902325516E+02  0.38454356925E+02  0.51100000000E-03 0. -1.
        -11    1    3    3    0    0  0.77201564693E+01 -0.50016323390E+01  0.20174414405E+01  0.94173888202E+01  0.51100000000E-03 0.  1.
        -12    1    3    3    0    0 -0.36288304156E+02 -0.52862804410E+00  0.21408595223E+02  0.42136070243E+02  0.00000000000E+00 0.  1.
</event>
<event>
 7    1  0.2468912E-015  0.9000770E+02  0.7816164E-02  0.1186339E+00
        -11   -1    0    0    0    0  0.00000000000E+00  0.00000000000E+00  0.45593999997E+02  0.45594000000E+02  0.51100000000E-03 0.  1.
         11   -1    0    0    0    0 -0.00000000000E+00 -0.00000000000E+00 -0.45593999997E+02  0.45594000000E+02  0.51100000000E-03 0. -1.
    9900012    2    1    2    0    0 -0.11549623018E+01  0.24273689166E+00 -0.15422728541E-01  0.90007704707E+02  0.89999965609E+02 0.  0.
         12    1    1    2    0    0  0.11549623018E+01 -0.24273689166E+00  0.15422728541E-01  0.11802952926E+01  0.00000000000E+00 0. -1.
         11    1    3    3    0    0 -0.42868658150E+01 -0.96171399983E+01 -0.30928979695E+01  0.10974179622E+02  0.51100000000E-03 0. -1.
        -11    1    3    3    0    0 -0.32328470952E+02  0.24530650920E+02  0.23867314696E+01  0.40651929303E+02  0.51100000000E-03 0.  1.
         12    1    3    3    0    0  0.35460374466E+02 -0.14670774030E+02  0.69074377134E+00  0.38381595783E+02  0.00000000000E+00 0. -1.
</event>
<event>
 7    1  0.2468912E-015  0.9000770E+02  0.7816164E-02  0.1186339E+00
        -11   -1    0    0    0    0  0.00000000000E+00  0.00000000000E+00  0.45593999997E+02  0.45594000000E+02  0.51100000000E-03 0.  1.
         11   -1    0    0    0    0 -0.00000000000E+00 -0.00000000000E+00 -0.45593999997E+02  0.45594000000E+02  0.51100000000E-03 0. -1.
    9900012    2    1    2    0    0  0.38823377060E+00  0.76456414666E+00  0.81105869398E+00  0.90007703427E+02  0.89999964312E+02 0.  0.
         12    1    1    2    0    0 -0.38823377060E+00 -0.76456414666E+00 -0.81105869398E+00  0.11802965729E+01  0.00000000000E+00 0. -1.
         11    1    3    3    0    0 -0.58932710531E+01  0.33364276849E+01  0.23216716921E+01  0.71590888463E+01  0.51100000000E-03 0. -1.
        -11    1    3    3    0    0 -0.37583235946E+02 -0.74014916703E+01  0.33530459105E+01  0.38451588007E+02  0.51100000000E-03 0.  1.
         12    1    3    3    0    0  0.43864740769E+02  0.48296281320E+01 -0.48636589087E+01  0.44397026574E+02  0.00000000000E+00 0. -1.
</event>
<event>
 7    1  0.2468912E-015  0.9000770E+02  0.7816164E-02  0.1186339E+00
        -11   -1    0    0    0    0  0.00000000000E+00  0.00000000000E+00  0.45593999997E+02  0.45594000000E+02  0.51100000000E-03 0. -1.
         11   -1    0    0    0    0 -0.00000000000E+00 -0.00000000000E+00 -0.45593999997E+02  0.45594000000E+02  0.51100000000E-03 0.  1.
    9900012    2    1    2    0    0  0.10520042796E+01  0.35804314861E+00 -0.39775708493E+00  0.90007695548E+02  0.89999956329E+02 0.  0.
         12    1    1    2    0    0 -0.10520042796E+01 -0.35804314861E+00  0.39775708493E+00  0.11803044519E+01  0.00000000000E+00 0. -1.
         11    1    3    3    0    0 -0.15356316715E+02  0.34726792947E+02  0.98332573283E+01  0.39223201825E+02  0.51100000000E-03 0. -1.
        -11    1    3    3    0    0  0.10186100832E+02  0.12018370776E+01  0.52181042178E+01  0.11507809279E+02  0.51100000000E-03 0.  1.
        -12    1    3    3    0    0  0.62222201635E+01 -0.35570586876E+02 -0.15449118631E+02  0.39276684444E+02  0.00000000000E+00 0.  1.
</event>
<event>
 7    1  0.2468912E-015  0.9000777E+02  0.7816164E-02  0.1186339E+00
        -11   -1    0    0    0    0  0.00000000000E+00  0.00000000000E+00  0.45593999997E+02  0.45594000000E+02  0.51100000000E-03 0.  1.
         11   -1    0    0    0    0 -0.00000000000E+00 -0.00000000000E+00 -0.45593999997E+02  0.45594000000E+02  0.51100000000E-03 0. -1.
    9900012    2    1    2    0    0 -0.45425629740E+00  0.10161921128E+01  0.39235566787E+00  0.90007771986E+02  0.90000033777E+02 0.  0.
         12    1    1    2    0    0  0.45425629740E+00 -0.10161921128E+01 -0.39235566787E+00  0.11802280136E+01  0.00000000000E+00 0. -1.
         11    1    3    3    0    0 -0.54039343150E+00  0.96285923285E+01 -0.11782758724E+02  0.15226136039E+02  0.51100000000E-03 0. -1.
        -11    1    3    3    0    0 -0.32510936762E+02 -0.13281801565E+02 -0.81921616977E+01  0.36062151565E+02  0.51100000000E-03 0.  1.
         12    1    3    3    0    0  0.32597073896E+02  0.46694013494E+01  0.20367276089E+02  0.38719484382E+02  0.00000000000E+00 0. -1.
</event>
<event>
 7    1  0.2468912E-015  0.9000773E+02  0.7816164E-02  0.1186339E+00
        -11   -1    0    0    0    0  0.00000000000E+00  0.00000000000E+00  0.45593999997E+02  0.45594000000E+02  0.51100000000E-03 0.  1.
         11   -1    0    0    0    0 -0.00000000000E+00 -0.00000000000E+00 -0.45593999997E+02  0.45594000000E+02  0.51100000000E-03 0. -1.
    9900012    2    1    2    0    0  0.59396516770E+00  0.33416638177E+00  0.96362908269E+00  0.90007727658E+02  0.89999988864E+02 0.  0.
         12    1    1    2    0    0 -0.59396516770E+00 -0.33416638177E+00 -0.96362908269E+00  0.11802723415E+01  0.00000000000E+00 0. -1.
         11    1    3    3    0    0  0.52873682106E+01 -0.49677555333E+01  0.50716754819E+01  0.88519348217E+01  0.51100000000E-03 0. -1.
        -11    1    3    3    0    0  0.30248278090E+02  0.26373743787E+02 -0.42127255232E+01  0.40351948470E+02  0.51100000000E-03 0.  1.
         12    1    3    3    0    0 -0.34941681133E+02 -0.21071821871E+02  0.10467912408E+00  0.40803844367E+02  0.00000000000E+00 0. -1.
</event>
<event>
 7    1  0.2468912E-015  0.9000783E+02  0.7816164E-02  0.1186339E+00
        -11   -1    0    0    0    0  0.00000000000E+00  0.00000000000E+00  0.45593999997E+02  0.45594000000E+02  0.51100000000E-03 0.  1.
         11   -1    0    0    0    0 -0.00000000000E+00 -0.00000000000E+00 -0.45593999997E+02  0.45594000000E+02  0.51100000000E-03 0. -1.
    9900012    2    1    2    0    0  0.83318859628E+00  0.79911728032E+00 -0.24498672763E+00  0.90007826216E+02  0.90000088722E+02 0.  0.
         12    1    1    2    0    0 -0.83318859628E+00 -0.79911728032E+00  0.24498672763E+00  0.11801737844E+01  0.00000000000E+00 0. -1.
         11    1    3    3    0    0  0.50479759824E+01 -0.30706240741E+01  0.80643466508E+01  0.99972236590E+01  0.51100000000E-03 0. -1.
        -11    1    3    3    0    0  0.55261074290E+01  0.23973529495E+02  0.28066457520E+02  0.37322835071E+02  0.51100000000E-03 0.  1.
         12    1    3    3    0    0 -0.97408948151E+01 -0.20103788141E+02 -0.36375790898E+02  0.42687767485E+02  0.00000000000E+00 0. -1.
</event>
<event>
 7    1  0.2468912E-015  0.9000765E+02  0.7816164E-02  0.1186339E+00
        -11   -1    0    0    0    0  0.00000000000E+00  0.00000000000E+00  0.45593999997E+02  0.45594000000E+02  0.51100000000E-03 0.  1.
         11   -1    0    0    0    0 -0.00000000000E+00 -0.00000000000E+00 -0.45593999997E+02  0.45594000000E+02  0.51100000000E-03 0. -1.
    9900012    2    1    2    0    0 -0.21849574042E+00  0.10281153671E+01  0.53707936294E+00  0.90007654356E+02  0.89999914594E+02 0.  0.
         12    1    1    2    0    0  0.21849574042E+00 -0.10281153671E+01 -0.53707936294E+00  0.11803456437E+01  0.00000000000E+00 0. -1.
         11    1    3    3    0    0 -0.56153670322E+01 -0.10639411579E+02 -0.32761732222E+02  0.34900723834E+02  0.51100000000E-03 0. -1.
        -11    1    3    3    0    0  0.62045716761E+01 -0.10455966351E+01 -0.89719642580E+01  0.10958381492E+02  0.51100000000E-03 0.  1.
        -12    1    3    3    0    0 -0.80770038431E+00  0.12713123581E+02  0.42270775843E+02  0.44148549031E+02  0.00000000000E+00 0.  1.
</event>
<event>
 7    1  0.2468912E-015  0.9000777E+02  0.7816164E-02  0.1186339E+00
        -11   -1    0    0    0    0  0.00000000000E+00  0.00000000000E+00  0.45593999997E+02  0.45594000000E+02  0.51100000000E-03 0. -1.
         11   -1    0    0    0    0 -0.00000000000E+00 -0.00000000000E+00 -0.45593999997E+02  0.45594000000E+02  0.51100000000E-03 0.  1.
    9900012    2    1    2    0    0  0.78453145380E+00  0.80272783660E+00 -0.36480576081E+00  0.90007769165E+02  0.90000030918E+02 0.  0.
         12    1    1    2    0    0 -0.78453145380E+00 -0.80272783660E+00  0.36480576081E+00  0.11802308354E+01  0.00000000000E+00 0. -1.
         11    1    3    3    0    0 -0.29575365523E+01  0.93261833138E+01  0.88168215156E+00  0.98235472889E+01  0.51100000000E-03 0. -1.
        -11    1    3    3    0    0  0.41502521524E+02 -0.38688659275E+01 -0.48691532454E+01  0.41965891746E+02  0.51100000000E-03 0.  1.
         12    1    3    3    0    0 -0.37760453518E+02 -0.46545895497E+01  0.36226653330E+01  0.38218330130E+02  0.00000000000E+00 0. -1.
</event>
<event>
 7    1  0.2468912E-015  0.9000812E+02  0.7816164E-02  0.1186338E+00
        -11   -1    0    0    0    0  0.00000000000E+00  0.00000000000E+00  0.45593999997E+02  0.45594000000E+02  0.51100000000E-03 0.  1.
         11   -1    0    0    0    0 -0.00000000000E+00 -0.00000000000E+00 -0.45593999997E+02  0.45594000000E+02  0.51100000000E-03 0. -1.
    9900012    2    1    2    0    0  0.65456702184E+00 -0.83650546503E+00  0.51373888840E+00  0.90008115673E+02  0.90000381999E+02 0.  0.
         12    1    1    2    0    0 -0.65456702184E+00  0.83650546503E+00 -0.51373888840E+00  0.11798843268E+01  0.00000000000E+00 0. -1.
         11    1    3    3    0    0  0.14134428548E+02  0.37943713890E+02 -0.28833603104E+01  0.40593364742E+02  0.51100000000E-03 0. -1.
        -11    1    3    3    0    0 -0.21560330959E+01 -0.46573896729E+01  0.11470874732E+02  0.12566651290E+02  0.51100000000E-03 0.  1.
        -12    1    3    3    0    0 -0.11323828430E+02 -0.34122829682E+02 -0.80737755328E+01  0.36848099641E+02  0.00000000000E+00 0.  1.
</event>
<event>
 7    1  0.2468912E-015  0.9000773E+02  0.7816164E-02  0.1186339E+00
        -11   -1    0    0    0    0  0.00000000000E+00  0.00000000000E+00  0.45593999997E+02  0.45594000000E+02  0.51100000000E-03 0.  1.
         11   -1    0    0    0    0 -0.00000000000E+00 -0.00000000000E+00 -0.45593999997E+02  0.45594000000E+02  0.51100000000E-03 0. -1.
    9900012    2    1    2    0    0  0.59314750371E+00 -0.58851501462E+00  0.83358171644E+00  0.90007732081E+02  0.89999993344E+02 0.  0.
         12    1    1    2    0    0 -0.59314750371E+00  0.58851501462E+00 -0.83358171644E+00  0.11802679194E+01  0.00000000000E+00 0. -1.
         11    1    3    3    0    0 -0.34457054704E+01  0.42197854159E+01  0.90725187915E+01  0.10582536210E+02  0.51100000000E-03 0. -1.
        -11    1    3    3    0    0 -0.12406476781E+02  0.32500306956E+02  0.77316155504E+01  0.35636617371E+02  0.51100000000E-03 0.  1.
         12    1    3    3    0    0  0.16445329755E+02 -0.37308607387E+02 -0.15970552625E+02  0.43788578500E+02  0.00000000000E+00 0. -1.
</event>
<event>
 7    1  0.2468912E-015  0.9000753E+02  0.7816164E-02  0.1186339E+00
        -11   -1    0    0    0    0  0.00000000000E+00  0.00000000000E+00  0.45593999997E+02  0.45594000000E+02  0.51100000000E-03 0.  1.
         11   -1    0    0    0    0 -0.00000000000E+00 -0.00000000000E+00 -0.45593999997E+02  0.45594000000E+02  0.51100000000E-03 0. -1.
    9900012    2    1    2    0    0  0.10139623430E+01  0.60132930300E+00  0.61633738434E-01  0.90007527518E+02  0.89999786081E+02 0.  0.
         12    1    1    2    0    0 -0.10139623430E+01 -0.60132930300E+00 -0.61633738434E-01  0.11804724823E+01  0.00000000000E+00 0. -1.
         11    1    3    3    0    0 -0.28964796662E+02 -0.21915382174E+02 -0.21075697012E+02  0.41993195000E+02  0.51100000000E-03 0. -1.
        -11    1    3    3    0    0  0.48669267102E+01 -0.40604563718E+01  0.48770943157E+01  0.79975202891E+01  0.51100000000E-03 0.  1.
        -12    1    3    3    0    0  0.25111832295E+02  0.26577167848E+02  0.16260236435E+02  0.40016812229E+02  0.00000000000E+00 0.  1.
</event>
<event>
 7    1  0.2468912E-015  0.9000768E+02  0.7816164E-02  0.1186339E+00
        -11   -1    0    0    0    0  0.00000000000E+00  0.00000000000E+00  0.45593999997E+02  0.45594000000E+02  0.51100000000E-03 0. -1.
         11   -1    0    0    0    0 -0.00000000000E+00 -0.00000000000E+00 -0.45593999997E+02  0.45594000000E+02  0.51100000000E-03 0.  1.
    9900012    2    1    2    0    0  0.10061903139E+01 -0.61496520894E+00 -0.50504319186E-01  0.90007681466E+02  0.89999942061E+02 0.  0.
         12    1    1    2    0    0 -0.10061903139E+01  0.61496520894E+00  0.50504319186E-01  0.11803185343E+01  0.00000000000E+00 0. -1.
         11    1    3    3    0    0  0.24475315955E+02 -0.45590545256E+01 -0.25095978856E+02  0.35350165831E+02  0.51100000000E-03 0. -1.
        -11    1    3    3    0    0  0.84436677106E+01  0.38991161683E+01 -0.52286294793E+01  0.10669451616E+02  0.51100000000E-03 0.  1.
        -12    1    3    3    0    0 -0.31912793352E+02  0.44973148285E-01  0.30274104016E+02  0.43988064018E+02  0.00000000000E+00 0.  1.
</event>
<event>
 7    1  0.2468912E-015  0.9000774E+02  0.7816164E-02  0.1186339E+00
        -11   -1    0    0    0    0  0.00000000000E+00  0.00000000000E+00  0.45593999997E+02  0.45594000000E+02  0.51100000000E-03 0. -1.
         11   -1    0    0    0    0 -0.00000000000E+00 -0.00000000000E+00 -0.45593999997E+02  0.45594000000E+02  0.51100000000E-03 0.  1.
    9900012    2    1    2    0    0 -0.11650341950E+01  0.79473016408E-01 -0.17145450180E+00  0.90007738469E+02  0.89999999817E+02 0.  0.
         12    1    1    2    0    0  0.11650341950E+01 -0.79473016408E-01  0.17145450180E+00  0.11802615312E+01  0.00000000000E+00 0. -1.
         11    1    3    3    0    0 -0.11417271397E+01 -0.21022414470E+01  0.42285257656E+01  0.48583320568E+01  0.51100000000E-03 0. -1.
        -11    1    3    3    0    0 -0.36273632097E+02  0.22583125320E+02  0.32593300484E+01  0.42853204867E+02  0.51100000000E-03 0.  1.
         12    1    3    3    0    0  0.36250325042E+02 -0.20401410857E+02 -0.76593103158E+01  0.42296201545E+02  0.00000000000E+00 0. -1.
</event>
<event>
 7    1  0.2468912E-015  0.9000776E+02  0.7816164E-02  0.1186339E+00
        -11   -1    0    0    0    0  0.00000000000E+00  0.00000000000E+00  0.45593999997E+02  0.45594000000E+02  0.51100000000E-03 0. -1.
         11   -1    0    0    0    0 -0.00000000000E+00 -0.00000000000E+00 -0.45593999997E+02  0.45594000000E+02  0.51100000000E-03 0.  1.
    9900012    2    1    2    0    0  0.34946619829E+00  0.82693635616E+00 -0.76617085684E+00  0.90007759286E+02  0.90000020909E+02 0.  0.
         12    1    1    2    0    0 -0.34946619829E+00 -0.82693635616E+00  0.76617085684E+00  0.11802407139E+01  0.00000000000E+00 0. -1.
         11    1    3    3    0    0  0.86381914142E+01 -0.35611487197E+02 -0.56835659305E+01  0.37082331281E+02  0.51100000000E-03 0. -1.
        -11    1    3    3    0    0  0.23820990552E+00 -0.49564613599E+01  0.91919497953E+01  0.10445821867E+02  0.51100000000E-03 0.  1.
        -12    1    3    3    0    0 -0.85269351214E+01  0.41394884913E+02 -0.42745547216E+01  0.42479606138E+02  0.00000000000E+00 0.  1.
</event>
<event>
 7    1  0.2468912E-015  0.9000775E+02  0.7816164E-02  0.1186339E+00
        -11   -1    0    0    0    0  0.00000000000E+00  0.00000000000E+00  0.45593999997E+02  0.45594000000E+02  0.51100000000E-03 0. -1.
         11   -1    0    0    0    0 -0.00000000000E+00 -0.00000000000E+00 -0.45593999997E+02  0.45594000000E+02  0.51100000000E-03 0.  1.
    9900012    2    1    2    0    0 -0.42776223693E+00  0.80530050430E+00 -0.74933074095E+00  0.90007751724E+02  0.90000013247E+02 0.  0.
         12    1    1    2    0    0  0.42776223693E+00 -0.80530050430E+00  0.74933074095E+00  0.11802482760E+01  0.00000000000E+00 0. -1.
         11    1    3    3    0    0  0.47661504060E+01 -0.54658887470E+01 -0.54622363466E+01  0.90789952999E+01  0.51100000000E-03 0. -1.
        -11    1    3    3    0    0  0.34463208452E+02  0.70614234134E+01 -0.12978930022E+02  0.37497054047E+02  0.51100000000E-03 0.  1.
         12    1    3    3    0    0 -0.39657121095E+02 -0.79023416212E+00  0.17691835627E+02  0.43431702378E+02  0.00000000000E+00 0. -1.
</event>
<event>
 7    1  0.2468912E-015  0.9000776E+02  0.7816164E-02  0.1186339E+00
        -11   -1    0    0    0    0  0.00000000000E+00  0.00000000000E+00  0.45593999997E+02  0.45594000000E+02  0.51100000000E-03 0.  1.
         11   -1    0    0    0    0 -0.00000000000E+00 -0.00000000000E+00 -0.45593999997E+02  0.45594000000E+02  0.51100000000E-03 0. -1.
    9900012    2    1    2    0    0 -0.22214503434E+00  0.10490108863E+01  0.49314757365E+00  0.90007759861E+02  0.90000021491E+02 0.  0.
         12    1    1    2    0    0  0.22214503434E+00 -0.10490108863E+01 -0.49314757365E+00  0.11802401388E+01  0.00000000000E+00 0. -1.
         11    1    3    3    0    0  0.14090616141E+02 -0.79896213467E+00 -0.26037581144E+02  0.29616539903E+02  0.51100000000E-03 0. -1.
        -11    1    3    3    0    0  0.95244150873E+01 -0.18808354866E+02  0.17986491245E+02  0.27712498319E+02  0.51100000000E-03 0.  1.
        -12    1    3    3    0    0 -0.23837176263E+02  0.20656327887E+02  0.85442374724E+01  0.32678721639E+02  0.00000000000E+00 0.  1.
</event>
<event>
 7    1  0.2468912E-015  0.9000783E+02  0.7816164E-02  0.1186339E+00
        -11   -1    0    0    0    0  0.00000000000E+00  0.00000000000E+00  0.45593999997E+02  0.45594000000E+02  0.51100000000E-03 0.  1.
         11   -1    0    0    0    0 -0.00000000000E+00 -0.00000000000E+00 -0.45593999997E+02  0.45594000000E+02  0.51100000000E-03 0. -1.
    9900012    2    1    2    0    0 -0.89088000512E+00  0.43701617463E+00  0.63887103422E+00  0.90007827759E+02  0.90000090285E+02 0.  0.
         12    1    1    2    0    0  0.89088000512E+00 -0.43701617463E+00 -0.63887103422E+00  0.11801722411E+01  0.00000000000E+00 0. -1.
         11    1    3    3    0    0 -0.33000394013E+01 -0.86487686235E+01 -0.48383864567E+00  0.92696040287E+01  0.51100000000E-03 0. -1.
        -11    1    3    3    0    0  0.18178457896E+02 -0.10429950784E+02  0.33659367702E+02  0.39650892036E+02  0.51100000000E-03 0.  1.
         12    1    3    3    0    0 -0.15769298500E+02  0.19515735582E+02 -0.32536658022E+02  0.41087331694E+02  0.00000000000E+00 0. -1.
</event>
<event>
 7    1  0.2468912E-015  0.9000775E+02  0.7816164E-02  0.1186339E+00
        -11   -1    0    0    0    0  0.00000000000E+00  0.00000000000E+00  0.45593999997E+02  0.45594000000E+02  0.51100000000E-03 0. -1.
         11   -1    0    0    0    0 -0.00000000000E+00 -0.00000000000E+00 -0.45593999997E+02  0.45594000000E+02  0.51100000000E-03 0.  1.
    9900012    2    1    2    0    0  0.84961687188E+00 -0.63269515342E+00 -0.52042296236E+00  0.90007749160E+02  0.90000010649E+02 0.  0.
         12    1    1    2    0    0 -0.84961687188E+00  0.63269515342E+00  0.52042296236E+00  0.11802508402E+01  0.00000000000E+00 0. -1.
         11    1    3    3    0    0 -0.14163168450E+01 -0.13081314522E+02  0.35387024268E+02  0.37754049185E+02  0.51100000000E-03 0. -1.
        -11    1    3    3    0    0  0.10372901154E+02  0.27641027851E+01  0.31641850302E+01  0.11191488271E+02  0.51100000000E-03 0.  1.
        -12    1    3    3    0    0 -0.81069674373E+01  0.96845165833E+01 -0.39071632261E+02  0.41062211704E+02  0.00000000000E+00 0.  1.
</event>
<event>
 7    1  0.2468912E-015  0.9000771E+02  0.7816164E-02  0.1186339E+00
        -11   -1    0    0    0    0  0.00000000000E+00  0.00000000000E+00  0.45593999997E+02  0.45594000000E+02  0.51100000000E-03 0.  1.
         11   -1    0    0    0    0 -0.00000000000E+00 -0.00000000000E+00 -0.45593999997E+02  0.45594000000E+02  0.51100000000E-03 0. -1.
    9900012    2    1    2    0    0 -0.11139952499E+01 -0.38988388591E+00 -0.94406403176E-02  0.90007710211E+02  0.89999971185E+02 0.  0.
         12    1    1    2    0    0  0.11139952499E+01  0.38988388591E+00  0.94406403176E-02  0.11802897894E+01  0.00000000000E+00 0. -1.
         11    1    3    3    0    0  0.53900086307E+01  0.67309024065E+01 -0.76165629225E+00  0.86566368073E+01  0.51100000000E-03 0. -1.
        -11    1    3    3    0    0  0.36791360003E+02  0.28139001027E+01 -0.72540091863E+00  0.36905940056E+02  0.51100000000E-03 0.  1.
         12    1    3    3    0    0 -0.43295363883E+02 -0.99346863952E+01  0.14776165706E+01  0.44445133348E+02  0.00000000000E+00 0. -1.
</event>
<event>
 7    1  0.2468912E-015  0.9000777E+02  0.7816164E-02  0.1186339E+00
        -11   -1    0    0    0    0  0.00000000000E+00  0.00000000000E+00  0.45593999997E+02  0.45594000000E+02  0.51100000000E-03 0.  1.
         11   -1    0    0    0    0 -0.00000000000E+00 -0.00000000000E+00 -0.45593999997E+02  0.45594000000E+02  0.51100000000E-03 0. -1.
    9900012    2    1    2    0    0  0.74297125471E+00 -0.21622446535E-01  0.91677097246E+00  0.90007770009E+02  0.90000031773E+02 0.  0.
         12    1    1    2    0    0 -0.74297125471E+00  0.21622446535E-01 -0.91677097246E+00  0.11802299909E+01  0.00000000000E+00 0. -1.
         11    1    3    3    0    0 -0.84705541670E+01 -0.39948305807E+01  0.35552355262E+01  0.10017417790E+02  0.51100000000E-03 0. -1.
        -11    1    3    3    0    0 -0.13852846141E+02  0.36975464457E+02  0.15019502067E+01  0.39513822553E+02  0.51100000000E-03 0.  1.
         12    1    3    3    0    0  0.23066371563E+02 -0.33002256323E+02 -0.41404147604E+01  0.40476529667E+02  0.00000000000E+00 0. -1.
</event>
<event>
 7    1  0.2468912E-015  0.9000765E+02  0.7816164E-02  0.1186339E+00
        -11   -1    0    0    0    0  0.00000000000E+00  0.00000000000E+00  0.45593999997E+02  0.45594000000E+02  0.51100000000E-03 0.  1.
         11   -1    0    0    0    0 -0.00000000000E+00 -0.00000000000E+00 -0.45593999997E+02  0.45594000000E+02  0.51100000000E-03 0. -1.
    9900012    2    1    2    0    0 -0.39511420038E+00 -0.75461449314E-01  0.11096883350E+01  0.90007653499E+02  0.89999913725E+02 0.  0.
         12    1    1    2    0    0  0.39511420038E+00  0.75461449314E-01 -0.11096883350E+01  0.11803465010E+01  0.00000000000E+00 0. -1.
         11    1    3    3    0    0  0.20649591017E+02  0.21831054026E+02 -0.27304838087E+02  0.40602397864E+02  0.51100000000E-03 0. -1.
        -11    1    3    3    0    0  0.73968500494E+00 -0.17029767655E+01  0.17736939840E+02  0.17833852610E+02  0.51100000000E-03 0.  1.
        -12    1    3    3    0    0 -0.21784390222E+02 -0.20203538710E+02  0.10677586582E+02  0.31571403025E+02  0.00000000000E+00 0.  1.
</event>
<event>
 7    1  0.2468912E-015  0.9000775E+02  0.7816164E-02  0.1186339E+00
        -11   -1    0    0    0    0  0.00000000000E+00  0.00000000000E+00  0.45593999997E+02  0.45594000000E+02  0.51100000000E-03 0.  1.
         11   -1    0    0    0    0 -0.00000000000E+00 -0.00000000000E+00 -0.45593999997E+02  0.45594000000E+02  0.51100000000E-03 0. -1.
    9900012    2    1    2    0    0  0.31309668424E+00 -0.23798966473E+00  0.11127984452E+01  0.90007750453E+02  0.90000011959E+02 0.  0.
         12    1    1    2    0    0 -0.31309668424E+00  0.23798966473E+00 -0.11127984452E+01  0.11802495473E+01  0.00000000000E+00 0. -1.
         11    1    3    3    0    0 -0.35693416531E+02  0.33298087323E+01 -0.14684128935E+02  0.38739272744E+02  0.51100000000E-03 0. -1.
        -11    1    3    3    0    0 -0.55608883433E+01  0.33611701304E+01  0.34453690574E+01  0.73546931965E+01  0.51100000000E-03 0.  1.
        -12    1    3    3    0    0  0.41567401559E+02 -0.69289685274E+01  0.12351558323E+02  0.43913784513E+02  0.00000000000E+00 0.  1.
</event>
<event>
 7    1  0.2896909E-015  0.9000772E+02  0.7816164E-02  0.1186339E+00
        -11   -1    0    0    0    0  0.00000000000E+00  0.00000000000E+00  0.45593999997E+02  0.45594000000E+02  0.51100000000E-03 0. -1.
         11   -1    0    0    0    0 -0.00000000000E+00 -0.00000000000E+00 -0.45593999997E+02  0.45594000000E+02  0.51100000000E-03 0.  1.
    9900012    2    1    2    0    0 -0.11307922199E+01  0.21159696541E+00 -0.26381066568E+00  0.90007720208E+02  0.89999981315E+02 0.  0.
         12    1    1    2    0    0  0.11307922199E+01 -0.21159696541E+00  0.26381066568E+00  0.11802797921E+01  0.00000000000E+00 0. -1.
         11    1    3    3    0    0  0.24453715285E+02 -0.13967600587E+02  0.28677814384E+02  0.40193222010E+02  0.51100000000E-03 0. -1.
        -11    1    3    3    0    0 -0.39880699831E+01  0.68687914630E+01  0.46591831440E+01  0.92083107127E+01  0.51100000000E-03 0.  1.
        -12    1    3    3    0    0 -0.21596437521E+02  0.73104060897E+01 -0.33600808194E+02  0.40606187486E+02  0.00000000000E+00 0.  1.
</event>
<event>
 7    1  0.2468912E-015  0.9000769E+02  0.7816164E-02  0.1186339E+00
        -11   -1    0    0    0    0  0.00000000000E+00  0.00000000000E+00  0.45593999997E+02  0.45594000000E+02  0.51100000000E-03 0.  1.
         11   -1    0    0    0    0 -0.00000000000E+00 -0.00000000000E+00 -0.45593999997E+02  0.45594000000E+02  0.51100000000E-03 0. -1.
    9900012    2    1    2    0    0  0.90647337013E+00  0.33371719027E+00  0.67828135552E+00  0.90007692103E+02  0.89999952839E+02 0.  0.
         12    1    1    2    0    0 -0.90647337013E+00 -0.33371719027E+00 -0.67828135552E+00  0.11803078967E+01  0.00000000000E+00 0. -1.
         11    1    3    3    0    0 -0.21975922584E+02 -0.11237686091E+02 -0.30895602841E+02  0.39544469111E+02  0.51100000000E-03 0. -1.
        -11    1    3    3    0    0  0.13110120712E+01  0.12550570275E+02  0.50715493881E+00  0.12629044828E+02  0.51100000000E-03 0.  1.
        -12    1    3    3    0    0  0.21571383883E+02 -0.97916699371E+00  0.31066729257E+02  0.37834178164E+02  0.00000000000E+00 0.  1.
</event>
<event>
 7    1  0.3206221E-015  0.9000769E+02  0.7816164E-02  0.1186339E+00
        -11   -1    0    0    0    0  0.00000000000E+00  0.00000000000E+00  0.45593999997E+02  0.45594000000E+02  0.51100000000E-03 0. -1.
         11   -1    0    0    0    0 -0.00000000000E+00 -0.00000000000E+00 -0.45593999997E+02  0.45594000000E+02  0.51100000000E-03 0.  1.
    9900012    2    1    2    0    0  0.22302755215E-01 -0.52952929904E+00 -0.10546265116E+01  0.90007688274E+02  0.89999948959E+02 0.  0.
         12    1    1    2    0    0 -0.22302755215E-01  0.52952929904E+00  0.10546265116E+01  0.11803117259E+01  0.00000000000E+00 0. -1.
         11    1    3    3    0    0  0.61868198635E+00  0.18064992905E+02  0.34475511038E+02  0.38926695180E+02  0.51100000000E-03 0. -1.
        -11    1    3    3    0    0  0.64944305995E+01  0.58642373442E+01 -0.19988067485E+01  0.89756413208E+01  0.51100000000E-03 0.  1.
        -12    1    3    3    0    0 -0.70908098306E+01 -0.24458759548E+02 -0.33531330801E+02  0.42105351773E+02  0.00000000000E+00 0.  1.
</event>
<event>
 7    1  0.2468912E-015  0.9000792E+02  0.7816164E-02  0.1186339E+00
        -11   -1    0    0    0    0  0.00000000000E+00  0.00000000000E+00  0.45593999997E+02  0.45594000000E+02  0.51100000000E-03 0.  1.
         11   -1    0    0    0    0 -0.00000000000E+00 -0.00000000000E+00 -0.45593999997E+02  0.45594000000E+02  0.51100000000E-03 0. -1.
    9900012    2    1    2    0    0  0.60653606645E-01  0.78183348206E+00  0.88183641265E+00  0.90007924616E+02  0.90000188421E+02 0.  0.
         12    1    1    2    0    0 -0.60653606645E-01 -0.78183348206E+00 -0.88183641265E+00  0.11800753842E+01  0.00000000000E+00 0. -1.
         11    1    3    3    0    0  0.35819261973E+01  0.88382958258E+01 -0.15810839921E+01  0.96667210179E+01  0.51100000000E-03 0. -1.
        -11    1    3    3    0    0 -0.20435719474E+02  0.20127323349E+02  0.26946235963E+02  0.39355144625E+02  0.51100000000E-03 0.  1.
         12    1    3    3    0    0  0.16914446884E+02 -0.28183785693E+02 -0.24483315559E+02  0.40986058973E+02  0.00000000000E+00 0. -1.
</event>
<event>
 7    1  0.2468912E-015  0.9000773E+02  0.7816164E-02  0.1186339E+00
        -11   -1    0    0    0    0  0.00000000000E+00  0.00000000000E+00  0.45593999997E+02  0.45594000000E+02  0.51100000000E-03 0. -1.
         11   -1    0    0    0    0 -0.00000000000E+00 -0.00000000000E+00 -0.45593999997E+02  0.45594000000E+02  0.51100000000E-03 0.  1.
    9900012    2    1    2    0    0 -0.84448050096E+00  0.14960394633E+00 -0.81086320501E+00  0.90007734015E+02  0.89999995304E+02 0.  0.
         12    1    1    2    0    0  0.84448050096E+00 -0.14960394633E+00  0.81086320501E+00  0.11802659846E+01  0.00000000000E+00 0. -1.
         11    1    3    3    0    0 -0.56141537813E+01  0.23791882443E+02  0.26288452156E+02  0.35897842691E+02  0.51100000000E-03 0. -1.
        -11    1    3    3    0    0 -0.15130626073E+01 -0.49743655980E+01  0.10470235080E+02  0.11690145185E+02  0.51100000000E-03 0.  1.
        -12    1    3    3    0    0  0.62827358876E+01 -0.18667912898E+02 -0.37569550441E+02  0.42419746139E+02  0.00000000000E+00 0.  1.
</event>
<event>
 7    1  0.2468912E-015  0.9000769E+02  0.7816164E-02  0.1186339E+00
        -11   -1    0    0    0    0  0.00000000000E+00  0.00000000000E+00  0.45593999997E+02  0.45594000000E+02  0.51100000000E-03 0.  1.
         11   -1    0    0    0    0 -0.00000000000E+00 -0.00000000000E+00 -0.45593999997E+02  0.45594000000E+02  0.51100000000E-03 0. -1.
    9900012    2    1    2    0    0  0.10985328747E+01  0.35242788022E+00 -0.24932242411E+00  0.90007685822E+02  0.89999946475E+02 0.  0.
         12    1    1    2    0    0 -0.10985328747E+01 -0.35242788022E+00  0.24932242411E+00  0.11803141780E+01  0.00000000000E+00 0. -1.
         11    1    3    3    0    0  0.19035201897E+02 -0.12196323607E+02 -0.32473533341E+02  0.39567911099E+02  0.51100000000E-03 0. -1.
        -11    1    3    3    0    0 -0.64058814776E+01 -0.73678261768E+01 -0.12234760003E+01  0.98395667516E+01  0.51100000000E-03 0.  1.
        -12    1    3    3    0    0 -0.11530787545E+02  0.19916577664E+02  0.33447686917E+02  0.40600207972E+02  0.00000000000E+00 0.  1.
</event>
<event>
 7    1  0.2468912E-015  0.9000781E+02  0.7816164E-02  0.1186339E+00
        -11   -1    0    0    0    0  0.00000000000E+00  0.00000000000E+00  0.45593999997E+02  0.45594000000E+02  0.51100000000E-03 0.  1.
         11   -1    0    0    0    0 -0.00000000000E+00 -0.00000000000E+00 -0.45593999997E+02  0.45594000000E+02  0.51100000000E-03 0. -1.
    9900012    2    1    2    0    0  0.70865263905E+00 -0.87525794828E+00  0.35297614152E+00  0.90007806289E+02  0.90000068532E+02 0.  0.
         12    1    1    2    0    0 -0.70865263905E+00  0.87525794828E+00 -0.35297614152E+00  0.11801937109E+01  0.00000000000E+00 0. -1.
         11    1    3    3    0    0 -0.56628711113E+00  0.52458894080E+01  0.41765425844E+01  0.67293049413E+01  0.51100000000E-03 0. -1.
        -11    1    3    3    0    0  0.32169569943E+02 -0.16065189793E+02  0.21691847300E+02  0.41994139984E+02  0.51100000000E-03 0.  1.
         12    1    3    3    0    0 -0.30894630193E+02  0.99440424367E+01 -0.25515413743E+02  0.41284361364E+02  0.00000000000E+00 0. -1.
</event>
<event>
 7    1  0.2468912E-015  0.9000741E+02  0.7816164E-02  0.1186340E+00
        -11   -1    0    0    0    0  0.00000000000E+00  0.00000000000E+00  0.45593999997E+02  0.45594000000E+02  0.51100000000E-03 0. -1.
         11   -1    0    0    0    0 -0.00000000000E+00 -0.00000000000E+00 -0.45593999997E+02  0.45594000000E+02  0.51100000000E-03 0.  1.
    9900012    2    1    2    0    0  0.25160176646E-01  0.84990135373E+00 -0.81903383826E+00  0.90007414648E+02  0.89999671721E+02 0.  0.
         12    1    1    2    0    0 -0.25160176646E-01 -0.84990135373E+00  0.81903383826E+00  0.11805853522E+01  0.00000000000E+00 0. -1.
         11    1    3    3    0    0 -0.22321060120E+01  0.44897284195E+01  0.76062300856E+01  0.91101424196E+01  0.51100000000E-03 0. -1.
        -11    1    3    3    0    0 -0.15246517111E+01  0.18764586812E+02 -0.38704911915E+02  0.43040730566E+02  0.51100000000E-03 0.  1.
         12    1    3    3    0    0  0.37819178997E+01 -0.22404413878E+02  0.30279647991E+02  0.37856541662E+02  0.00000000000E+00 0. -1.
</event>
<event>
 7    1  0.2468912E-015  0.9000768E+02  0.7816164E-02  0.1186339E+00
        -11   -1    0    0    0    0  0.00000000000E+00  0.00000000000E+00  0.45593999997E+02  0.45594000000E+02  0.51100000000E-03 0.  1.
         11   -1    0    0    0    0 -0.00000000000E+00 -0.00000000000E+00 -0.45593999997E+02  0.45594000000E+02  0.51100000000E-03 0. -1.
    9900012    2    1    2    0    0 -0.31270353624E-01 -0.63529346442E+00  0.99426752827E+00  0.90007684983E+02  0.89999945625E+02 0.  0.
         12    1    1    2    0    0  0.31270353624E-01  0.63529346442E+00 -0.99426752827E+00  0.11803150167E+01  0.00000000000E+00 0. -1.
         11    1    3    3    0    0 -0.14143676423E+01 -0.36070041408E+02 -0.17095847492E+01  0.36138220810E+02  0.51100000000E-03 0. -1.
        -11    1    3    3    0    0 -0.45539675936E+01 -0.81875005100E+01  0.30213612527E+01  0.98439021494E+01  0.51100000000E-03 0.  1.
        -12    1    3    3    0    0  0.59370648823E+01  0.43622248454E+02 -0.31750897522E+00  0.44025562024E+02  0.00000000000E+00 0.  1.
</event>
<event>
 7    1  0.2468912E-015  0.9000780E+02  0.7816164E-02  0.1186339E+00
        -11   -1    0    0    0    0  0.00000000000E+00  0.00000000000E+00  0.45593999997E+02  0.45594000000E+02  0.51100000000E-03 0. -1.
         11   -1    0    0    0    0 -0.00000000000E+00 -0.00000000000E+00 -0.45593999997E+02  0.45594000000E+02  0.51100000000E-03 0.  1.
    9900012    2    1    2    0    0 -0.34394732233E+00 -0.29947685130E+00 -0.10885233253E+01  0.90007801214E+02  0.90000063390E+02 0.  0.
         12    1    1    2    0    0  0.34394732233E+00  0.29947685130E+00  0.10885233253E+01  0.11801987861E+01  0.00000000000E+00 0. -1.
         11    1    3    3    0    0 -0.49963335895E+01  0.87317596592E+00 -0.69144761620E+01  0.85752997884E+01  0.51100000000E-03 0. -1.
        -11    1    3    3    0    0 -0.23073312383E+02  0.30269602465E+02  0.98631184392E+01  0.39318032546E+02  0.51100000000E-03 0.  1.
         12    1    3    3    0    0  0.27725698650E+02 -0.31442255282E+02 -0.40371656026E+01  0.42114468879E+02  0.00000000000E+00 0. -1.
</event>
<event>
 7    1  0.2468912E-015  0.9000779E+02  0.7816164E-02  0.1186339E+00
        -11   -1    0    0    0    0  0.00000000000E+00  0.00000000000E+00  0.45593999997E+02  0.45594000000E+02  0.51100000000E-03 0.  1.
         11   -1    0    0    0    0 -0.00000000000E+00 -0.00000000000E+00 -0.45593999997E+02  0.45594000000E+02  0.51100000000E-03 0. -1.
    9900012    2    1    2    0    0  0.12247340607E+00  0.58918506140E+00  0.10152587466E+01  0.90007792775E+02  0.90000054839E+02 0.  0.
         12    1    1    2    0    0 -0.12247340607E+00 -0.58918506140E+00 -0.10152587466E+01  0.11802072252E+01  0.00000000000E+00 0. -1.
         11    1    3    3    0    0 -0.16142255974E+02 -0.31909214198E+02 -0.29233189307E+01  0.35879188571E+02  0.51100000000E-03 0. -1.
        -11    1    3    3    0    0  0.56446240593E+00 -0.80166539433E+01 -0.54044562145E+01  0.96847047188E+01  0.51100000000E-03 0.  1.
        -12    1    3    3    0    0  0.15700266974E+02  0.40515053203E+02  0.93430338918E+01  0.44443899485E+02  0.00000000000E+00 0.  1.
</event>
<event>
 7    1  0.2468912E-015  0.9000770E+02  0.7816164E-02  0.1186339E+00
        -11   -1    0    0    0    0  0.00000000000E+00  0.00000000000E+00  0.45593999997E+02  0.45594000000E+02  0.51100000000E-03 0.  1.
         11   -1    0    0    0    0 -0.00000000000E+00 -0.00000000000E+00 -0.45593999997E+02  0.45594000000E+02  0.51100000000E-03 0. -1.
    9900012    2    1    2    0    0 -0.59634050262E+00  0.74528160067E+00  0.69429841756E+00  0.90007696246E+02  0.89999957036E+02 0.  0.
         12    1    1    2    0    0  0.59634050262E+00 -0.74528160067E+00 -0.69429841756E+00  0.11803037541E+01  0.00000000000E+00 0. -1.
         11    1    3    3    0    0 -0.30011103284E+02  0.47848257138E+00  0.18600379311E+02  0.35311037604E+02  0.51100000000E-03 0. -1.
        -11    1    3    3    0    0 -0.32898414422E+01  0.32927394785E+01  0.10364102638E+02  0.11361329752E+02  0.51100000000E-03 0.  1.
        -12    1    3    3    0    0  0.32704604224E+02 -0.30259404492E+01 -0.28270183532E+02  0.43335328889E+02  0.00000000000E+00 0.  1.
</event>
<event>
 7    1  0.2468912E-015  0.9000797E+02  0.7816164E-02  0.1186339E+00
        -11   -1    0    0    0    0  0.00000000000E+00  0.00000000000E+00  0.45593999997E+02  0.45594000000E+02  0.51100000000E-03 0.  1.
         11   -1    0    0    0    0 -0.00000000000E+00 -0.00000000000E+00 -0.45593999997E+02  0.45594000000E+02  0.51100000000E-03 0. -1.
    9900012    2    1    2    0    0 -0.40764961712E+00 -0.14830950863E+00  0.10974004172E+01  0.90007973900E+02  0.90000238355E+02 0.  0.
         12    1    1    2    0    0  0.40764961712E+00  0.14830950863E+00 -0.10974004172E+01  0.11800260999E+01  0.00000000000E+00 0. -1.
         11    1    3    3    0    0  0.14570693215E+02 -0.30514147206E+02 -0.24461582584E+00  0.33815353282E+02  0.51100000000E-03 0. -1.
        -11    1    3    3    0    0 -0.85543948879E+01 -0.11069493863E+02 -0.19880842408E+01  0.14130245769E+02  0.51100000000E-03 0.  1.
        -12    1    3    3    0    0 -0.64239479438E+01  0.41435331560E+02  0.33301004839E+01  0.42062374849E+02  0.00000000000E+00 0.  1.
</event>
<event>
 7    1  0.2468912E-015  0.9000775E+02  0.7816164E-02  0.1186339E+00
        -11   -1    0    0    0    0  0.00000000000E+00  0.00000000000E+00  0.45593999997E+02  0.45594000000E+02  0.51100000000E-03 0. -1.
         11   -1    0    0    0    0 -0.00000000000E+00 -0.00000000000E+00 -0.45593999997E+02  0.45594000000E+02  0.51100000000E-03 0.  1.
    9900012    2    1    2    0    0  0.10799449184E+00 -0.80147647151E+00 -0.85963626157E+00  0.90007745008E+02  0.90000006442E+02 0.  0.
         12    1    1    2    0    0 -0.10799449184E+00  0.80147647151E+00  0.85963626157E+00  0.11802549923E+01  0.00000000000E+00 0. -1.
         11    1    3    3    0    0  0.75039315144E+01  0.63842510474E+01 -0.27902585602E+01  0.10239784798E+02  0.51100000000E-03 0. -1.
        -11    1    3    3    0    0 -0.33402316082E+02  0.97910499648E+00 -0.24781933330E+02  0.41603095871E+02  0.51100000000E-03 0.  1.
         12    1    3    3    0    0  0.26006379059E+02 -0.81648325154E+01  0.26712555629E+02  0.38164864339E+02  0.00000000000E+00 0. -1.
</event>
<event>
 7    1  0.2468912E-015  0.9000770E+02  0.7816164E-02  0.1186339E+00
        -11   -1    0    0    0    0  0.00000000000E+00  0.00000000000E+00  0.45593999997E+02  0.45594000000E+02  0.51100000000E-03 0. -1.
         11   -1    0    0    0    0 -0.00000000000E+00 -0.00000000000E+00 -0.45593999997E+02  0.45594000000E+02  0.51100000000E-03 0.  1.
    9900012    2    1    2    0    0  0.10283137861E+01 -0.51337634827E+00 -0.26857964247E+00  0.90007695149E+02  0.89999955925E+02 0.  0.
         12    1    1    2    0    0 -0.10283137861E+01  0.51337634827E+00  0.26857964247E+00  0.11803048513E+01  0.00000000000E+00 0. -1.
         11    1    3    3    0    0 -0.27589460498E+02 -0.19085518564E+02  0.15067812320E+02  0.36776001928E+02  0.51100000000E-03 0. -1.
        -11    1    3    3    0    0 -0.80150604410E+01 -0.28791611250E+01 -0.28851473429E+01  0.89919318341E+01  0.51100000000E-03 0.  1.
        -12    1    3    3    0    0  0.36632834725E+02  0.21451303340E+02 -0.12451244619E+02  0.44239761387E+02  0.00000000000E+00 0.  1.
</event>
<event>
 7    1  0.2468912E-015  0.9000778E+02  0.7816164E-02  0.1186339E+00
        -11   -1    0    0    0    0  0.00000000000E+00  0.00000000000E+00  0.45593999997E+02  0.45594000000E+02  0.51100000000E-03 0. -1.
         11   -1    0    0    0    0 -0.00000000000E+00 -0.00000000000E+00 -0.45593999997E+02  0.45594000000E+02  0.51100000000E-03 0.  1.
    9900012    2    1    2    0    0 -0.11503920751E+01  0.16696576371E+00 -0.20404560767E+00  0.90007782180E+02  0.90000044105E+02 0.  0.
         12    1    1    2    0    0  0.11503920751E+01 -0.16696576371E+00  0.20404560767E+00  0.11802178200E+01  0.00000000000E+00 0. -1.
         11    1    3    3    0    0 -0.21524894889E+02 -0.31404502531E+02  0.10819119042E+02  0.39580515615E+02  0.51100000000E-03 0. -1.
        -11    1    3    3    0    0  0.82686148027E+01 -0.56082101621E+01 -0.86549963192E+00  0.10028514439E+02  0.51100000000E-03 0.  1.
        -12    1    3    3    0    0  0.12105888012E+02  0.37179678457E+02 -0.10157665018E+02  0.40398752126E+02  0.00000000000E+00 0.  1.
</event>
<event>
 7    1  0.2468912E-015  0.9000779E+02  0.7816164E-02  0.1186339E+00
        -11   -1    0    0    0    0  0.00000000000E+00  0.00000000000E+00  0.45593999997E+02  0.45594000000E+02  0.51100000000E-03 0. -1.
         11   -1    0    0    0    0 -0.00000000000E+00 -0.00000000000E+00 -0.45593999997E+02  0.45594000000E+02  0.51100000000E-03 0.  1.
    9900012    2    1    2    0    0 -0.41158396134E+00  0.12772096691E+00 -0.10987213667E+01  0.90007787034E+02  0.90000049023E+02 0.  0.
         12    1    1    2    0    0  0.41158396134E+00 -0.12772096691E+00  0.10987213667E+01  0.11802129657E+01  0.00000000000E+00 0. -1.
         11    1    3    3    0    0  0.54370664570E+01  0.15911150676E+01  0.11081838309E+02  0.12445902112E+02  0.51100000000E-03 0. -1.
        -11    1    3    3    0    0 -0.25147831900E+02  0.24561108327E+02 -0.24555649770E+02  0.42879382312E+02  0.51100000000E-03 0.  1.
         12    1    3    3    0    0  0.19299181482E+02 -0.26024502428E+02  0.12375090095E+02  0.34682502611E+02  0.00000000000E+00 0. -1.
</event>
<event>
 7    1  0.2468912E-015  0.9000778E+02  0.7816164E-02  0.1186339E+00
        -11   -1    0    0    0    0  0.00000000000E+00  0.00000000000E+00  0.45593999997E+02  0.45594000000E+02  0.51100000000E-03 0. -1.
         11   -1    0    0    0    0 -0.00000000000E+00 -0.00000000000E+00 -0.45593999997E+02  0.45594000000E+02  0.51100000000E-03 0.  1.
    9900012    2    1    2    0    0  0.10138640068E+01 -0.44885528016E+00 -0.40438603874E+00  0.90007779955E+02  0.90000041850E+02 0.  0.
         12    1    1    2    0    0 -0.10138640068E+01  0.44885528016E+00  0.40438603874E+00  0.11802200452E+01  0.00000000000E+00 0. -1.
         11    1    3    3    0    0  0.33655427592E+01 -0.42211249217E+01  0.66538686825E+01  0.85684737482E+01  0.51100000000E-03 0. -1.
        -11    1    3    3    0    0 -0.10556641764E+02  0.34670082766E+01 -0.43081946506E+02  0.44491762684E+02  0.51100000000E-03 0.  1.
         12    1    3    3    0    0  0.82049630121E+01  0.30526136492E+00  0.36023691785E+02  0.36947543522E+02  0.00000000000E+00 0. -1.
</event>
<event>
 7    1  0.2468912E-015  0.9000775E+02  0.7816164E-02  0.1186339E+00
        -11   -1    0    0    0    0  0.00000000000E+00  0.00000000000E+00  0.45593999997E+02  0.45594000000E+02  0.51100000000E-03 0.  1.
         11   -1    0    0    0    0 -0.00000000000E+00 -0.00000000000E+00 -0.45593999997E+02  0.45594000000E+02  0.51100000000E-03 0. -1.
    9900012    2    1    2    0    0 -0.60535603590E+00 -0.98313073001E+00  0.24492420793E+00  0.90007750098E+02  0.90000011600E+02 0.  0.
         12    1    1    2    0    0  0.60535603590E+00  0.98313073001E+00 -0.24492420793E+00  0.11802499016E+01  0.00000000000E+00 0. -1.
         11    1    3    3    0    0  0.19286614311E+02  0.34202718159E+02 -0.13531141742E+02  0.41531809714E+02  0.51100000000E-03 0. -1.
        -11    1    3    3    0    0 -0.11169385945E+01 -0.23239407451E+01  0.10130656274E+02  0.10453633302E+02  0.51100000000E-03 0.  1.
        -12    1    3    3    0    0 -0.18775031752E+02 -0.32861908144E+02  0.36454096756E+01  0.38022307082E+02  0.00000000000E+00 0.  1.
</event>
<event>
 7    1  0.2468912E-015  0.9000756E+02  0.7816164E-02  0.1186339E+00
        -11   -1    0    0    0    0  0.00000000000E+00  0.00000000000E+00  0.45593999997E+02  0.45594000000E+02  0.51100000000E-03 0.  1.
         11   -1    0    0    0    0 -0.00000000000E+00 -0.00000000000E+00 -0.45593999997E+02  0.45594000000E+02  0.51100000000E-03 0. -1.
    9900012    2    1    2    0    0 -0.72429922514E+00 -0.92511627725E+00 -0.11393429179E+00  0.90007563421E+02  0.89999822458E+02 0.  0.
         12    1    1    2    0    0  0.72429922514E+00  0.92511627725E+00  0.11393429179E+00  0.11804365789E+01  0.00000000000E+00 0. -1.
         11    1    3    3    0    0 -0.71052532871E+01  0.33185826084E+01 -0.55654578544E+01  0.96162329523E+01  0.51100000000E-03 0. -1.
        -11    1    3    3    0    0 -0.84163939424E-02 -0.40106176596E+02  0.14856837245E+02  0.42769511164E+02  0.51100000000E-03 0.  1.
         12    1    3    3    0    0  0.63893704559E+01  0.35862477710E+02 -0.94053136827E+01  0.37621819305E+02  0.00000000000E+00 0. -1.
</event>
<event>
 7    1  0.2468912E-015  0.9000781E+02  0.7816164E-02  0.1186339E+00
        -11   -1    0    0    0    0  0.00000000000E+00  0.00000000000E+00  0.45593999997E+02  0.45594000000E+02  0.51100000000E-03 0.  1.
         11   -1    0    0    0    0 -0.00000000000E+00 -0.00000000000E+00 -0.45593999997E+02  0.45594000000E+02  0.51100000000E-03 0. -1.
    9900012    2    1    2    0    0  0.10341239437E+01  0.25521352066E+00  0.50822388960E+00  0.90007814509E+02  0.90000076860E+02 0.  0.
         12    1    1    2    0    0 -0.10341239437E+01 -0.25521352066E+00 -0.50822388960E+00  0.11801854914E+01  0.00000000000E+00 0. -1.
         11    1    3    3    0    0  0.14192324835E+02 -0.33879932978E+02  0.20460616808E+02  0.42046507384E+02  0.51100000000E-03 0. -1.
        -11    1    3    3    0    0 -0.77631342829E+01 -0.12116333545E+01 -0.34808493921E+01  0.85936384629E+01  0.51100000000E-03 0.  1.
        -12    1    3    3    0    0 -0.53950666088E+01  0.35346779853E+02 -0.16471543526E+02  0.39367668661E+02  0.00000000000E+00 0.  1.
</event>
<event>
 7    1  0.2468912E-015  0.9000778E+02  0.7816164E-02  0.1186339E+00
        -11   -1    0    0    0    0  0.00000000000E+00  0.00000000000E+00  0.45593999997E+02  0.45594000000E+02  0.51100000000E-03 0.  1.
         11   -1    0    0    0    0 -0.00000000000E+00 -0.00000000000E+00 -0.45593999997E+02  0.45594000000E+02  0.51100000000E-03 0. -1.
    9900012    2    1    2    0    0  0.39298054105E+00 -0.10941704232E+01  0.20317422968E+00  0.90007778670E+02  0.90000040548E+02 0.  0.
         12    1    1    2    0    0 -0.39298054105E+00  0.10941704232E+01 -0.20317422968E+00  0.11802213302E+01  0.00000000000E+00 0. -1.
         11    1    3    3    0    0 -0.58353368407E+01 -0.13024170050E+01 -0.82072291984E+01  0.10154115298E+02  0.51100000000E-03 0. -1.
        -11    1    3    3    0    0 -0.30902095562E+02 -0.17004883604E+02 -0.72932566177E+01  0.36018011729E+02  0.51100000000E-03 0.  1.
         12    1    3    3    0    0  0.37130412944E+02  0.17213130186E+02  0.15703660046E+02  0.43835651644E+02  0.00000000000E+00 0. -1.
</event>
<event>
 7    1  0.2468912E-015  0.9000770E+02  0.7816164E-02  0.1186339E+00
        -11   -1    0    0    0    0  0.00000000000E+00  0.00000000000E+00  0.45593999997E+02  0.45594000000E+02  0.51100000000E-03 0.  1.
         11   -1    0    0    0    0 -0.00000000000E+00 -0.00000000000E+00 -0.45593999997E+02  0.45594000000E+02  0.51100000000E-03 0. -1.
    9900012    2    1    2    0    0  0.56373314756E+00 -0.88418372749E+00  0.54179057343E+00  0.90007697941E+02  0.89999958754E+02 0.  0.
         12    1    1    2    0    0 -0.56373314756E+00  0.88418372749E+00 -0.54179057343E+00  0.11803020593E+01  0.00000000000E+00 0. -1.
         11    1    3    3    0    0  0.59342863447E+01 -0.25484509292E+01  0.53723073970E+01  0.84007168497E+01  0.51100000000E-03 0. -1.
        -11    1    3    3    0    0  0.10206741803E+02  0.29757242727E+02  0.23108312761E+02  0.39034154171E+02  0.51100000000E-03 0.  1.
         12    1    3    3    0    0 -0.15577295000E+02 -0.28092975525E+02 -0.27938829585E+02  0.42572826920E+02  0.00000000000E+00 0. -1.
</event>
<event>
 7    1  0.2468912E-015  0.9000777E+02  0.7816164E-02  0.1186339E+00
        -11   -1    0    0    0    0  0.00000000000E+00  0.00000000000E+00  0.45593999997E+02  0.45594000000E+02  0.51100000000E-03 0.  1.
         11   -1    0    0    0    0 -0.00000000000E+00 -0.00000000000E+00 -0.45593999997E+02  0.45594000000E+02  0.51100000000E-03 0. -1.
    9900012    2    1    2    0    0 -0.17128749509E+00  0.89520350873E+00  0.74981627227E+00  0.90007765629E+02  0.90000027335E+02 0.  0.
         12    1    1    2    0    0  0.17128749509E+00 -0.89520350873E+00 -0.74981627227E+00  0.11802343709E+01  0.00000000000E+00 0. -1.
         11    1    3    3    0    0 -0.23078896622E+01 -0.59854882391E+01  0.87641062966E+01  0.10861030503E+02  0.51100000000E-03 0. -1.
        -11    1    3    3    0    0 -0.17473185288E+02  0.30666851431E+02  0.17253844731E+02  0.39286933439E+02  0.51100000000E-03 0.  1.
         12    1    3    3    0    0  0.19609787456E+02 -0.23786159683E+02 -0.25268134755E+02  0.39859801687E+02  0.00000000000E+00 0. -1.
</event>
<event>
 7    1  0.2468912E-015  0.9000771E+02  0.7816164E-02  0.1186339E+00
        -11   -1    0    0    0    0  0.00000000000E+00  0.00000000000E+00  0.45593999997E+02  0.45594000000E+02  0.51100000000E-03 0.  1.
         11   -1    0    0    0    0 -0.00000000000E+00 -0.00000000000E+00 -0.45593999997E+02  0.45594000000E+02  0.51100000000E-03 0. -1.
    9900012    2    1    2    0    0  0.44761143692E+00 -0.91596796740E+00  0.59475496026E+00  0.90007709028E+02  0.89999969987E+02 0.  0.
         12    1    1    2    0    0 -0.44761143692E+00  0.91596796740E+00 -0.59475496026E+00  0.11802909720E+01  0.00000000000E+00 0. -1.
         11    1    3    3    0    0 -0.33406147763E+01  0.36726031990E+02  0.86596045825E+01  0.37880732366E+02  0.51100000000E-03 0. -1.
        -11    1    3    3    0    0  0.24258418710E+01  0.54776220113E+01 -0.66670752580E+01  0.89631994532E+01  0.51100000000E-03 0.  1.
        -12    1    3    3    0    0  0.13623843422E+01 -0.43119621968E+02 -0.13977743642E+01  0.43163777209E+02  0.00000000000E+00 0.  1.
</event>
<event>
 7    1  0.2468912E-015  0.9000765E+02  0.7816164E-02  0.1186339E+00
        -11   -1    0    0    0    0  0.00000000000E+00  0.00000000000E+00  0.45593999997E+02  0.45594000000E+02  0.51100000000E-03 0. -1.
         11   -1    0    0    0    0 -0.00000000000E+00 -0.00000000000E+00 -0.45593999997E+02  0.45594000000E+02  0.51100000000E-03 0.  1.
    9900012    2    1    2    0    0 -0.86954950342E+00 -0.52914933964E+00  0.59759163997E+00  0.90007647879E+02  0.89999908030E+02 0.  0.
         12    1    1    2    0    0  0.86954950342E+00  0.52914933964E+00 -0.59759163997E+00  0.11803521215E+01  0.00000000000E+00 0. -1.
         11    1    3    3    0    0  0.61356853483E+01  0.55812517305E+01 -0.58307689996E+01  0.10138780645E+02  0.51100000000E-03 0. -1.
        -11    1    3    3    0    0  0.15172239954E+02 -0.63773564659E+01 -0.31723524507E+02  0.35738628235E+02  0.51100000000E-03 0.  1.
         12    1    3    3    0    0 -0.22177474806E+02  0.26695539579E+00  0.38151885146E+02  0.44130238999E+02  0.00000000000E+00 0. -1.
</event>
<event>
 7    1  0.2468912E-015  0.9000795E+02  0.7816164E-02  0.1186339E+00
        -11   -1    0    0    0    0  0.00000000000E+00  0.00000000000E+00  0.45593999997E+02  0.45594000000E+02  0.51100000000E-03 0.  1.
         11   -1    0    0    0    0 -0.00000000000E+00 -0.00000000000E+00 -0.45593999997E+02  0.45594000000E+02  0.51100000000E-03 0. -1.
    9900012    2    1    2    0    0 -0.31738674981E+00  0.93657582096E+00  0.64389267286E+00  0.90007954920E+02  0.90000219124E+02 0.  0.
         12    1    1    2    0    0  0.31738674981E+00 -0.93657582096E+00 -0.64389267286E+00  0.11800450803E+01  0.00000000000E+00 0. -1.
         11    1    3    3    0    0 -0.34008127740E+02 -0.18925455187E+02  0.10151408596E+02  0.40221594985E+02  0.51100000000E-03 0. -1.
        -11    1    3    3    0    0  0.48798444943E+01 -0.72824121818E+01  0.10228539559E+01  0.88256807075E+01  0.51100000000E-03 0.  1.
        -12    1    3    3    0    0  0.28810896496E+02  0.27144443190E+02 -0.10530369879E+02  0.40960679227E+02  0.00000000000E+00 0.  1.
</event>
<event>
 7    1  0.2468912E-015  0.9000774E+02  0.7816164E-02  0.1186339E+00
        -11   -1    0    0    0    0  0.00000000000E+00  0.00000000000E+00  0.45593999997E+02  0.45594000000E+02  0.51100000000E-03 0.  1.
         11   -1    0    0    0    0 -0.00000000000E+00 -0.00000000000E+00 -0.45593999997E+02  0.45594000000E+02  0.51100000000E-03 0. -1.
    9900012    2    1    2    0    0  0.27970942873E+00  0.11161188909E+01  0.26276180424E+00  0.90007744727E+02  0.90000006158E+02 0.  0.
         12    1    1    2    0    0 -0.27970942873E+00 -0.11161188909E+01 -0.26276180424E+00  0.11802552728E+01  0.00000000000E+00 0. -1.
         11    1    3    3    0    0  0.17339890526E+01  0.13553751986E+00  0.87731679338E+01  0.89439121367E+01  0.51100000000E-03 0. -1.
        -11    1    3    3    0    0  0.27335563152E+01  0.40568627256E+02 -0.18593327428E+01  0.40703107572E+02  0.51100000000E-03 0.  1.
         12    1    3    3    0    0 -0.41878359391E+01 -0.39588045884E+02 -0.66510733868E+01  0.40360725018E+02  0.00000000000E+00 0. -1.
</event>
<event>
 7    1  0.2468912E-015  0.9000774E+02  0.7816164E-02  0.1186339E+00
        -11   -1    0    0    0    0  0.00000000000E+00  0.00000000000E+00  0.45593999997E+02  0.45594000000E+02  0.51100000000E-03 0.  1.
         11   -1    0    0    0    0 -0.00000000000E+00 -0.00000000000E+00 -0.45593999997E+02  0.45594000000E+02  0.51100000000E-03 0. -1.
    9900012    2    1    2    0    0 -0.61613781784E+00 -0.25646646372E+00 -0.97345554789E+00  0.90007738774E+02  0.90000000126E+02 0.  0.
         12    1    1    2    0    0  0.61613781784E+00  0.25646646372E+00  0.97345554789E+00  0.11802612259E+01  0.00000000000E+00 0. -1.
         11    1    3    3    0    0  0.29596191867E+02  0.25370802979E+02 -0.31418493027E+01  0.39108610742E+02  0.51100000000E-03 0. -1.
        -11    1    3    3    0    0  0.45856881652E+01  0.13978396485E+01 -0.42099299599E+01  0.63801255599E+01  0.51100000000E-03 0.  1.
        -12    1    3    3    0    0 -0.34798017850E+02 -0.27025109091E+02  0.63783237148E+01  0.44519002472E+02  0.00000000000E+00 0.  1.
</event>
<event>
 7    1  0.2468912E-015  0.9000780E+02  0.7816164E-02  0.1186339E+00
        -11   -1    0    0    0    0  0.00000000000E+00  0.00000000000E+00  0.45593999997E+02  0.45594000000E+02  0.51100000000E-03 0. -1.
         11   -1    0    0    0    0 -0.00000000000E+00 -0.00000000000E+00 -0.45593999997E+02  0.45594000000E+02  0.51100000000E-03 0.  1.
    9900012    2    1    2    0    0 -0.10761703352E+01 -0.38112042521E+00 -0.29914513587E+00  0.90007795280E+02  0.90000057378E+02 0.  0.
         12    1    1    2    0    0  0.10761703352E+01  0.38112042521E+00  0.29914513587E+00  0.11802047200E+01  0.00000000000E+00 0. -1.
         11    1    3    3    0    0 -0.58400729584E+01  0.36407236543E+01 -0.73969229527E+01  0.10103256421E+02  0.51100000000E-03 0. -1.
        -11    1    3    3    0    0 -0.16419110766E+02 -0.24906750352E+02 -0.22938112264E+02  0.37630976681E+02  0.51100000000E-03 0.  1.
         12    1    3    3    0    0  0.21183013389E+02  0.20884906272E+02  0.30035890081E+02  0.42273562178E+02  0.00000000000E+00 0. -1.
</event>
<event>
 7    1  0.2468912E-015  0.9000779E+02  0.7816164E-02  0.1186339E+00
        -11   -1    0    0    0    0  0.00000000000E+00  0.00000000000E+00  0.45593999997E+02  0.45594000000E+02  0.51100000000E-03 0. -1.
         11   -1    0    0    0    0 -0.00000000000E+00 -0.00000000000E+00 -0.45593999997E+02  0.45594000000E+02  0.51100000000E-03 0.  1.
    9900012    2    1    2    0    0  0.54416983542E+00 -0.98588432849E+00 -0.35328445387E+00  0.90007788737E+02  0.90000050749E+02 0.  0.
         12    1    1    2    0    0 -0.54416983542E+00  0.98588432849E+00  0.35328445387E+00  0.11802112626E+01  0.00000000000E+00 0. -1.
         11    1    3    3    0    0  0.22945495046E+02  0.14525594629E+02  0.28892852518E+02  0.39652056304E+02  0.51100000000E-03 0. -1.
        -11    1    3    3    0    0 -0.21699804493E+00 -0.79479580917E+01  0.46005432534E+01  0.91859743340E+01  0.51100000000E-03 0.  1.
        -12    1    3    3    0    0 -0.22184327166E+02 -0.75635208658E+01 -0.33846680225E+02  0.41169758099E+02  0.00000000000E+00 0.  1.
</event>
<event>
 7    1  0.2468912E-015  0.9000746E+02  0.7816164E-02  0.1186340E+00
        -11   -1    0    0    0    0  0.00000000000E+00  0.00000000000E+00  0.45593999997E+02  0.45594000000E+02  0.51100000000E-03 0.  1.
         11   -1    0    0    0    0 -0.00000000000E+00 -0.00000000000E+00 -0.45593999997E+02  0.45594000000E+02  0.51100000000E-03 0. -1.
    9900012    2    1    2    0    0  0.10766253406E+01  0.48428301386E+00  0.46465719158E-02  0.90007460398E+02  0.89999718075E+02 0.  0.
         12    1    1    2    0    0 -0.10766253406E+01 -0.48428301386E+00 -0.46465719158E-02  0.11805396021E+01  0.00000000000E+00 0. -1.
         11    1    3    3    0    0 -0.12537745583E+02 -0.58408088448E+01 -0.31918774867E+02  0.34786754686E+02  0.51100000000E-03 0. -1.
        -11    1    3    3    0    0 -0.10555964116E+02  0.84078995846E+01 -0.18666215196E+01  0.13623708379E+02  0.51100000000E-03 0.  1.
        -12    1    3    3    0    0  0.24170335039E+02 -0.20828077259E+01  0.33790042959E+02  0.41596997333E+02  0.00000000000E+00 0.  1.
</event>
<event>
 7    1  0.2468912E-015  0.9000774E+02  0.7816164E-02  0.1186339E+00
        -11   -1    0    0    0    0  0.00000000000E+00  0.00000000000E+00  0.45593999997E+02  0.45594000000E+02  0.51100000000E-03 0. -1.
         11   -1    0    0    0    0 -0.00000000000E+00 -0.00000000000E+00 -0.45593999997E+02  0.45594000000E+02  0.51100000000E-03 0.  1.
    9900012    2    1    2    0    0 -0.69990102782E+00  0.24054439373E+00 -0.91940200052E+00  0.90007736007E+02  0.89999997323E+02 0.  0.
         12    1    1    2    0    0  0.69990102782E+00 -0.24054439373E+00  0.91940200052E+00  0.11802639928E+01  0.00000000000E+00 0. -1.
         11    1    3    3    0    0 -0.75185021442E+01 -0.10512087029E+02 -0.57414848043E+01  0.14142011746E+02  0.51100000000E-03 0. -1.
        -11    1    3    3    0    0  0.10954024829E+01  0.30339628726E+02 -0.25274801117E+02  0.39503272644E+02  0.51100000000E-03 0.  1.
         12    1    3    3    0    0  0.57231986335E+01 -0.19586997303E+02  0.30096883920E+02  0.36362451618E+02  0.00000000000E+00 0. -1.
</event>
<event>
 7    1  0.2468912E-015  0.9000769E+02  0.7816164E-02  0.1186339E+00
        -11   -1    0    0    0    0  0.00000000000E+00  0.00000000000E+00  0.45593999997E+02  0.45594000000E+02  0.51100000000E-03 0.  1.
         11   -1    0    0    0    0 -0.00000000000E+00 -0.00000000000E+00 -0.45593999997E+02  0.45594000000E+02  0.51100000000E-03 0. -1.
    9900012    2    1    2    0    0  0.77275526345E+00  0.82856469744E+00  0.33083648154E+00  0.90007693712E+02  0.89999954469E+02 0.  0.
         12    1    1    2    0    0 -0.77275526345E+00 -0.82856469744E+00 -0.33083648154E+00  0.11803062876E+01  0.00000000000E+00 0. -1.
         11    1    3    3    0    0 -0.16301248976E+02 -0.17321078008E+01  0.69813870844E+01  0.17817706965E+02  0.51100000000E-03 0. -1.
        -11    1    3    3    0    0  0.65277609179E+01  0.14279050606E+02  0.29129184371E+02  0.33090970539E+02  0.51100000000E-03 0.  1.
         12    1    3    3    0    0  0.10546243322E+02 -0.11718378107E+02 -0.35779734974E+02  0.39099016209E+02  0.00000000000E+00 0. -1.
</event>
<event>
 7    1  0.2468912E-015  0.9000773E+02  0.7816164E-02  0.1186339E+00
        -11   -1    0    0    0    0  0.00000000000E+00  0.00000000000E+00  0.45593999997E+02  0.45594000000E+02  0.51100000000E-03 0. -1.
         11   -1    0    0    0    0 -0.00000000000E+00 -0.00000000000E+00 -0.45593999997E+02  0.45594000000E+02  0.51100000000E-03 0.  1.
    9900012    2    1    2    0    0 -0.18313513442E+00 -0.10650619567E+01 -0.47448109370E+00  0.90007734031E+02  0.89999995320E+02 0.  0.
         12    1    1    2    0    0  0.18313513442E+00  0.10650619567E+01  0.47448109370E+00  0.11802659689E+01  0.00000000000E+00 0. -1.
         11    1    3    3    0    0  0.98007651282E+00  0.35976192996E+02  0.32113175595E+01  0.36132527910E+02  0.51100000000E-03 0. -1.
        -11    1    3    3    0    0 -0.36824863698E+01  0.69540565256E+01 -0.57713697209E+01  0.97584997177E+01  0.51100000000E-03 0.  1.
        -12    1    3    3    0    0  0.25192747225E+01 -0.43995311478E+02  0.20855710678E+01  0.44116706403E+02  0.00000000000E+00 0.  1.
</event>
<event>
 7    1  0.2468912E-015  0.9000772E+02  0.7816164E-02  0.1186339E+00
        -11   -1    0    0    0    0  0.00000000000E+00  0.00000000000E+00  0.45593999997E+02  0.45594000000E+02  0.51100000000E-03 0. -1.
         11   -1    0    0    0    0 -0.00000000000E+00 -0.00000000000E+00 -0.45593999997E+02  0.45594000000E+02  0.51100000000E-03 0.  1.
    9900012    2    1    2    0    0  0.70168668053E+00  0.82421388927E+00 -0.47049781361E+00  0.90007719980E+02  0.89999981084E+02 0.  0.
         12    1    1    2    0    0 -0.70168668053E+00 -0.82421388927E+00  0.47049781361E+00  0.11802800200E+01  0.00000000000E+00 0. -1.
         11    1    3    3    0    0  0.94450873047E+01 -0.16843010330E+01 -0.10267555585E+01  0.96488741002E+01  0.51100000000E-03 0. -1.
        -11    1    3    3    0    0  0.19737527258E+02  0.31627554635E+02  0.98916081193E+01  0.38570923062E+02  0.51100000000E-03 0.  1.
         12    1    3    3    0    0 -0.28480927882E+02 -0.29119039713E+02 -0.93353503744E+01  0.41787922818E+02  0.00000000000E+00 0. -1.
</event>
<event>
 7    1  0.2468912E-015  0.9000773E+02  0.7816164E-02  0.1186339E+00
        -11   -1    0    0    0    0  0.00000000000E+00  0.00000000000E+00  0.45593999997E+02  0.45594000000E+02  0.51100000000E-03 0.  1.
         11   -1    0    0    0    0 -0.00000000000E+00 -0.00000000000E+00 -0.45593999997E+02  0.45594000000E+02  0.51100000000E-03 0. -1.
    9900012    2    1    2    0    0  0.12563103421E+00 -0.33795503341E+00  0.11238457348E+01  0.90007734777E+02  0.89999996076E+02 0.  0.
         12    1    1    2    0    0 -0.12563103421E+00  0.33795503341E+00 -0.11238457348E+01  0.11802652232E+01  0.00000000000E+00 0. -1.
         11    1    3    3    0    0 -0.67713258419E+01 -0.39676124872E+02  0.16816900586E+02  0.43621713447E+02  0.51100000000E-03 0. -1.
        -11    1    3    3    0    0 -0.47351073284E+00 -0.14277226915E+01 -0.24846374731E+01  0.29044841421E+01  0.51100000000E-03 0.  1.
        -12    1    3    3    0    0  0.73704676089E+01  0.40765892530E+02 -0.13208417378E+02  0.43481537187E+02  0.00000000000E+00 0.  1.
</event>
<event>
 7    1  0.2468912E-015  0.9000765E+02  0.7816164E-02  0.1186339E+00
        -11   -1    0    0    0    0  0.00000000000E+00  0.00000000000E+00  0.45593999997E+02  0.45594000000E+02  0.51100000000E-03 0. -1.
         11   -1    0    0    0    0 -0.00000000000E+00 -0.00000000000E+00 -0.45593999997E+02  0.45594000000E+02  0.51100000000E-03 0.  1.
    9900012    2    1    2    0    0 -0.54742537826E+00  0.98534178768E+00 -0.35021524679E+00  0.90007651025E+02  0.89999911219E+02 0.  0.
         12    1    1    2    0    0  0.54742537826E+00 -0.98534178768E+00  0.35021524679E+00  0.11803489748E+01  0.00000000000E+00 0. -1.
         11    1    3    3    0    0 -0.77576529509E+01  0.86588437692E+01  0.22278937064E+01  0.11837240614E+02  0.51100000000E-03 0. -1.
        -11    1    3    3    0    0 -0.51323522785E+01 -0.39000665461E+02  0.12503351941E+02  0.41276225073E+02  0.51100000000E-03 0.  1.
         12    1    3    3    0    0  0.12342579851E+02  0.31327163479E+02 -0.15081460894E+02  0.36894185338E+02  0.00000000000E+00 0. -1.
</event>
<event>
 7    1  0.2468912E-015  0.9000795E+02  0.7816164E-02  0.1186339E+00
        -11   -1    0    0    0    0  0.00000000000E+00  0.00000000000E+00  0.45593999997E+02  0.45594000000E+02  0.51100000000E-03 0.  1.
         11   -1    0    0    0    0 -0.00000000000E+00 -0.00000000000E+00 -0.45593999997E+02  0.45594000000E+02  0.51100000000E-03 0. -1.
    9900012    2    1    2    0    0  0.33473343405E+00  0.42913710942E+00  0.10470467759E+01  0.90007952509E+02  0.90000216682E+02 0.  0.
         12    1    1    2    0    0 -0.33473343405E+00 -0.42913710942E+00 -0.10470467759E+01  0.11800474912E+01  0.00000000000E+00 0. -1.
         11    1    3    3    0    0  0.22687073552E+01  0.28142382169E+01 -0.92464677770E+01  0.99279472409E+01  0.51100000000E-03 0. -1.
        -11    1    3    3    0    0  0.29960663598E+02  0.23688689099E+02  0.59662189666E+01  0.38657355361E+02  0.51100000000E-03 0.  1.
         12    1    3    3    0    0 -0.31894637519E+02 -0.26073790207E+02  0.43272955863E+01  0.41422649907E+02  0.00000000000E+00 0. -1.
</event>
<event>
 7    1  0.2468912E-015  0.9000776E+02  0.7816164E-02  0.1186339E+00
        -11   -1    0    0    0    0  0.00000000000E+00  0.00000000000E+00  0.45593999997E+02  0.45594000000E+02  0.51100000000E-03 0. -1.
         11   -1    0    0    0    0 -0.00000000000E+00 -0.00000000000E+00 -0.45593999997E+02  0.45594000000E+02  0.51100000000E-03 0.  1.
    9900012    2    1    2    0    0  0.18015362014E-01  0.28560459507E+00 -0.11450219128E+01  0.90007758618E+02  0.90000020232E+02 0.  0.
         12    1    1    2    0    0 -0.18015362014E-01 -0.28560459507E+00  0.11450219128E+01  0.11802413816E+01  0.00000000000E+00 0. -1.
         11    1    3    3    0    0  0.26120789791E+01 -0.37740054194E+02 -0.31157829044E+01  0.37958434511E+02  0.51100000000E-03 0. -1.
        -11    1    3    3    0    0 -0.28338845510E+01 -0.51356011170E+01 -0.57367693756E+01  0.82046220883E+01  0.51100000000E-03 0.  1.
        -12    1    3    3    0    0  0.23982093390E+00  0.43161259906E+02  0.77075303672E+01  0.43844702019E+02  0.00000000000E+00 0.  1.
</event>
<event>
 7    1  0.2468912E-015  0.9000773E+02  0.7816164E-02  0.1186339E+00
        -11   -1    0    0    0    0  0.00000000000E+00  0.00000000000E+00  0.45593999997E+02  0.45594000000E+02  0.51100000000E-03 0. -1.
         11   -1    0    0    0    0 -0.00000000000E+00 -0.00000000000E+00 -0.45593999997E+02  0.45594000000E+02  0.51100000000E-03 0.  1.
    9900012    2    1    2    0    0 -0.25210326115E+00  0.56739941541E+00 -0.10037603141E+01  0.90007731844E+02  0.89999993105E+02 0.  0.
         12    1    1    2    0    0  0.25210326115E+00 -0.56739941541E+00  0.10037603141E+01  0.11802681556E+01  0.00000000000E+00 0. -1.
         11    1    3    3    0    0 -0.78074360016E+01 -0.23070626568E+01 -0.44801123212E+01  0.92924701610E+01  0.51100000000E-03 0. -1.
        -11    1    3    3    0    0 -0.28642757271E+02 -0.21389799691E+02  0.87937893525E+01  0.36813880620E+02  0.51100000000E-03 0.  1.
         12    1    3    3    0    0  0.36198090011E+02  0.24264261763E+02 -0.53174373454E+01  0.43901381063E+02  0.00000000000E+00 0. -1.
</event>
<event>
 7    1  0.2468912E-015  0.9000763E+02  0.7816164E-02  0.1186339E+00
        -11   -1    0    0    0    0  0.00000000000E+00  0.00000000000E+00  0.45593999997E+02  0.45594000000E+02  0.51100000000E-03 0.  1.
         11   -1    0    0    0    0 -0.00000000000E+00 -0.00000000000E+00 -0.45593999997E+02  0.45594000000E+02  0.51100000000E-03 0. -1.
    9900012    2    1    2    0    0 -0.26079018518E+00 -0.59034925553E+00  0.98830820188E+00  0.90007628505E+02  0.89999888401E+02 0.  0.
         12    1    1    2    0    0  0.26079018518E+00  0.59034925553E+00 -0.98830820188E+00  0.11803714949E+01  0.00000000000E+00 0. -1.
         11    1    3    3    0    0  0.65357961959E+01  0.45806642399E+01  0.54642799967E+01  0.96725112011E+01  0.51100000000E-03 0. -1.
        -11    1    3    3    0    0  0.32483003332E+02 -0.19464982254E+02  0.25276895726E+01  0.37952868857E+02  0.51100000000E-03 0.  1.
         12    1    3    3    0    0 -0.39279589713E+02  0.14293968758E+02 -0.70036613674E+01  0.42382248447E+02  0.00000000000E+00 0. -1.
</event>
<event>
 7    1  0.2468912E-015  0.9000753E+02  0.7816164E-02  0.1186339E+00
        -11   -1    0    0    0    0  0.00000000000E+00  0.00000000000E+00  0.45593999997E+02  0.45594000000E+02  0.51100000000E-03 0. -1.
         11   -1    0    0    0    0 -0.00000000000E+00 -0.00000000000E+00 -0.45593999997E+02  0.45594000000E+02  0.51100000000E-03 0.  1.
    9900012    2    1    2    0    0  0.32863091044E+00  0.27834816857E-01 -0.11334594818E+01  0.90007532529E+02  0.89999791159E+02 0.  0.
         12    1    1    2    0    0 -0.32863091044E+00 -0.27834816857E-01  0.11334594818E+01  0.11804674706E+01  0.00000000000E+00 0. -1.
         11    1    3    3    0    0  0.23027631293E+01  0.24689965598E+02  0.25912245921E+02  0.35865604807E+02  0.51100000000E-03 0. -1.
        -11    1    3    3    0    0  0.97019314599E+00  0.10656150060E+02 -0.23772647494E+01  0.10961122059E+02  0.51100000000E-03 0.  1.
        -12    1    3    3    0    0 -0.29443253648E+01 -0.35318280841E+02 -0.24668440653E+02  0.43180805663E+02  0.00000000000E+00 0.  1.
</event>
<event>
 7    1  0.2468912E-015  0.9000772E+02  0.7816164E-02  0.1186339E+00
        -11   -1    0    0    0    0  0.00000000000E+00  0.00000000000E+00  0.45593999997E+02  0.45594000000E+02  0.51100000000E-03 0.  1.
         11   -1    0    0    0    0 -0.00000000000E+00 -0.00000000000E+00 -0.45593999997E+02  0.45594000000E+02  0.51100000000E-03 0. -1.
    9900012    2    1    2    0    0  0.73363117348E+00 -0.87770876003E-02  0.92453117612E+00  0.90007724764E+02  0.89999985931E+02 0.  0.
         12    1    1    2    0    0 -0.73363117348E+00  0.87770876003E-02 -0.92453117612E+00  0.11802752355E+01  0.00000000000E+00 0. -1.
         11    1    3    3    0    0 -0.78280353876E+01 -0.56206380370E+01  0.10214887706E+01  0.96908797094E+01  0.51100000000E-03 0. -1.
        -11    1    3    3    0    0  0.31425475733E+02 -0.15665949468E+02  0.22555468585E+02  0.41734058766E+02  0.51100000000E-03 0.  1.
         12    1    3    3    0    0 -0.22863809172E+02  0.21277810417E+02 -0.22652426179E+02  0.38582786289E+02  0.00000000000E+00 0. -1.
</event>
<event>
 7    1  0.2468912E-015  0.9000869E+02  0.7816164E-02  0.1186337E+00
        -11   -1    0    0    0    0  0.00000000000E+00  0.00000000000E+00  0.45593999997E+02  0.45594000000E+02  0.51100000000E-03 0.  1.
         11   -1    0    0    0    0 -0.00000000000E+00 -0.00000000000E+00 -0.45593999997E+02  0.45594000000E+02  0.51100000000E-03 0. -1.
    9900012    2    1    2    0    0  0.49440378443E+00 -0.62289345587E+00  0.87082673621E+00  0.90008690641E+02  0.90000964552E+02 0.  0.
         12    1    1    2    0    0 -0.49440378443E+00  0.62289345587E+00 -0.87082673621E+00  0.11793093589E+01  0.00000000000E+00 0. -1.
         11    1    3    3    0    0 -0.68729821375E+01  0.35719769365E+02  0.17768537813E+02  0.40482845048E+02  0.51100000000E-03 0. -1.
        -11    1    3    3    0    0 -0.80305079753E+01 -0.11901389990E+01 -0.20188323301E+01  0.83654750861E+01  0.51100000000E-03 0.  1.
        -12    1    3    3    0    0  0.15397893897E+02 -0.35152523822E+02 -0.14878878746E+02  0.41160370507E+02  0.00000000000E+00 0.  1.
</event>
<event>
 7    1  0.2468912E-015  0.9000776E+02  0.7816164E-02  0.1186339E+00
        -11   -1    0    0    0    0  0.00000000000E+00  0.00000000000E+00  0.45593999997E+02  0.45594000000E+02  0.51100000000E-03 0.  1.
         11   -1    0    0    0    0 -0.00000000000E+00 -0.00000000000E+00 -0.45593999997E+02  0.45594000000E+02  0.51100000000E-03 0. -1.
    9900012    2    1    2    0    0  0.25964874623E+00  0.11354965453E+01 -0.19026912137E+00  0.90007757561E+02  0.90000019161E+02 0.  0.
         12    1    1    2    0    0 -0.25964874623E+00 -0.11354965453E+01  0.19026912137E+00  0.11802424388E+01  0.00000000000E+00 0. -1.
         11    1    3    3    0    0  0.50715701014E+01  0.76008737648E+01  0.12081210399E+01  0.92170310833E+01  0.51100000000E-03 0. -1.
        -11    1    3    3    0    0  0.26892815002E+02  0.12231024941E+02  0.22299533650E+02  0.37014735864E+02  0.51100000000E-03 0.  1.
         12    1    3    3    0    0 -0.31704736357E+02 -0.18696402160E+02 -0.23697923811E+02  0.43775990614E+02  0.00000000000E+00 0. -1.
</event>
<event>
 7    1  0.2468912E-015  0.9000775E+02  0.7816164E-02  0.1186339E+00
        -11   -1    0    0    0    0  0.00000000000E+00  0.00000000000E+00  0.45593999997E+02  0.45594000000E+02  0.51100000000E-03 0.  1.
         11   -1    0    0    0    0 -0.00000000000E+00 -0.00000000000E+00 -0.45593999997E+02  0.45594000000E+02  0.51100000000E-03 0. -1.
    9900012    2    1    2    0    0  0.19036478760E+00  0.40500655934E+00  0.10921131243E+01  0.90007754203E+02  0.90000015758E+02 0.  0.
         12    1    1    2    0    0 -0.19036478760E+00 -0.40500655934E+00 -0.10921131243E+01  0.11802457971E+01  0.00000000000E+00 0. -1.
         11    1    3    3    0    0 -0.47483598854E+01  0.41854579431E+01  0.54010128543E+01  0.83208124548E+01  0.51100000000E-03 0. -1.
        -11    1    3    3    0    0  0.27770894990E+02  0.16121009222E+02  0.24109206579E+02  0.40154244968E+02  0.51100000000E-03 0.  1.
         12    1    3    3    0    0 -0.22832170317E+02 -0.19901460606E+02 -0.28418106309E+02  0.41532696780E+02  0.00000000000E+00 0. -1.
</event>
<event>
 7    1  0.2468912E-015  0.9000775E+02  0.7816164E-02  0.1186339E+00
        -11   -1    0    0    0    0  0.00000000000E+00  0.00000000000E+00  0.45593999997E+02  0.45594000000E+02  0.51100000000E-03 0.  1.
         11   -1    0    0    0    0 -0.00000000000E+00 -0.00000000000E+00 -0.45593999997E+02  0.45594000000E+02  0.51100000000E-03 0. -1.
    9900012    2    1    2    0    0  0.56010678811E+00 -0.45139876602E-01  0.10378968672E+01  0.90007751243E+02  0.90000012759E+02 0.  0.
         12    1    1    2    0    0 -0.56010678811E+00  0.45139876602E-01 -0.10378968672E+01  0.11802487574E+01  0.00000000000E+00 0. -1.
         11    1    3    3    0    0  0.20350759424E+02 -0.63723347241E+01  0.17613052648E+01  0.21397716128E+02  0.51100000000E-03 0. -1.
        -11    1    3    3    0    0  0.98436795481E+01  0.20347215327E+02  0.19701701049E+02  0.29984399662E+02  0.51100000000E-03 0.  1.
         12    1    3    3    0    0 -0.29634332184E+02 -0.14020020479E+02 -0.20425109447E+02  0.38625635453E+02  0.00000000000E+00 0. -1.
</event>
<event>
 7    1  0.2468912E-015  0.9000770E+02  0.7816164E-02  0.1186339E+00
        -11   -1    0    0    0    0  0.00000000000E+00  0.00000000000E+00  0.45593999997E+02  0.45594000000E+02  0.51100000000E-03 0. -1.
         11   -1    0    0    0    0 -0.00000000000E+00 -0.00000000000E+00 -0.45593999997E+02  0.45594000000E+02  0.51100000000E-03 0.  1.
    9900012    2    1    2    0    0 -0.10152493284E+01  0.16019023559E+00 -0.58026854699E+00  0.90007701861E+02  0.89999962725E+02 0.  0.
         12    1    1    2    0    0  0.10152493284E+01 -0.16019023559E+00  0.58026854699E+00  0.11802981391E+01  0.00000000000E+00 0. -1.
         11    1    3    3    0    0 -0.26990089824E+02 -0.71774636715E+01  0.14869988789E+02  0.31640124847E+02  0.51100000000E-03 0. -1.
        -11    1    3    3    0    0 -0.36279344518E+00  0.11260814374E+02  0.14453771129E+02  0.18326185079E+02  0.51100000000E-03 0.  1.
        -12    1    3    3    0    0  0.26337633941E+02 -0.39231604674E+01 -0.29904028465E+02  0.40041391935E+02  0.00000000000E+00 0.  1.
</event>
<event>
 7    1  0.2468912E-015  0.9000762E+02  0.7816164E-02  0.1186339E+00
        -11   -1    0    0    0    0  0.00000000000E+00  0.00000000000E+00  0.45593999997E+02  0.45594000000E+02  0.51100000000E-03 0.  1.
         11   -1    0    0    0    0 -0.00000000000E+00 -0.00000000000E+00 -0.45593999997E+02  0.45594000000E+02  0.51100000000E-03 0. -1.
    9900012    2    1    2    0    0 -0.57949147640E+00  0.91621898523E+00  0.46692487701E+00  0.90007624449E+02  0.89999884292E+02 0.  0.
         12    1    1    2    0    0  0.57949147640E+00 -0.91621898523E+00 -0.46692487701E+00  0.11803755508E+01  0.00000000000E+00 0. -1.
         11    1    3    3    0    0 -0.33054439284E+02 -0.15309767864E+01 -0.15660493269E+02  0.36608617783E+02  0.51100000000E-03 0. -1.
        -11    1    3    3    0    0 -0.33909324494E+01 -0.10452642729E+02 -0.20381473670E+01  0.11176323539E+02  0.51100000000E-03 0.  1.
        -12    1    3    3    0    0  0.35865880257E+02  0.12899838501E+02  0.18165565513E+02  0.42222683126E+02  0.00000000000E+00 0.  1.
</event>
<event>
 7    1  0.2468912E-015  0.9000784E+02  0.7816164E-02  0.1186339E+00
        -11   -1    0    0    0    0  0.00000000000E+00  0.00000000000E+00  0.45593999997E+02  0.45594000000E+02  0.51100000000E-03 0.  1.
         11   -1    0    0    0    0 -0.00000000000E+00 -0.00000000000E+00 -0.45593999997E+02  0.45594000000E+02  0.51100000000E-03 0. -1.
    9900012    2    1    2    0    0  0.89520004811E+00  0.68625036879E+00  0.34706793668E+00  0.90007839482E+02  0.90000102163E+02 0.  0.
         12    1    1    2    0    0 -0.89520004811E+00 -0.68625036879E+00 -0.34706793668E+00  0.11801605177E+01  0.00000000000E+00 0. -1.
         11    1    3    3    0    0  0.89933021148E+00  0.90759887856E+01  0.80692586660E+01  0.12177655889E+02  0.51100000000E-03 0. -1.
        -11    1    3    3    0    0  0.31274864821E+02 -0.22270932419E+02 -0.17565940595E+02  0.42221722723E+02  0.51100000000E-03 0.  1.
         12    1    3    3    0    0 -0.31278994985E+02  0.13881194002E+02  0.98437498656E+01  0.35608460871E+02  0.00000000000E+00 0. -1.
</event>
<event>
 7    1  0.2468912E-015  0.9000778E+02  0.7816164E-02  0.1186339E+00
        -11   -1    0    0    0    0  0.00000000000E+00  0.00000000000E+00  0.45593999997E+02  0.45594000000E+02  0.51100000000E-03 0.  1.
         11   -1    0    0    0    0 -0.00000000000E+00 -0.00000000000E+00 -0.45593999997E+02  0.45594000000E+02  0.51100000000E-03 0. -1.
    9900012    2    1    2    0    0 -0.74935690983E+00  0.75976107343E+00  0.50414035773E+00  0.90007775374E+02  0.90000037209E+02 0.  0.
         12    1    1    2    0    0  0.74935690983E+00 -0.75976107343E+00 -0.50414035773E+00  0.11802246258E+01  0.00000000000E+00 0. -1.
         11    1    3    3    0    0  0.82331732443E+00  0.81701278977E+01 -0.40386132578E+01  0.91509146313E+01  0.51100000000E-03 0. -1.
        -11    1    3    3    0    0 -0.80609609642E-02  0.29243232830E+02  0.25331583248E+02  0.38689221257E+02  0.51100000000E-03 0.  1.
         12    1    3    3    0    0 -0.15646132733E+01 -0.36653599655E+02 -0.20788829632E+02  0.42167639486E+02  0.00000000000E+00 0. -1.
</event>
<event>
 7    1  0.2468912E-015  0.9000760E+02  0.7816164E-02  0.1186339E+00
        -11   -1    0    0    0    0  0.00000000000E+00  0.00000000000E+00  0.45593999997E+02  0.45594000000E+02  0.51100000000E-03 0. -1.
         11   -1    0    0    0    0 -0.00000000000E+00 -0.00000000000E+00 -0.45593999997E+02  0.45594000000E+02  0.51100000000E-03 0.  1.
    9900012    2    1    2    0    0  0.21837381847E+00 -0.10683605706E+01 -0.45194154998E+00  0.90007604898E+02  0.89999864482E+02 0.  0.
         12    1    1    2    0    0 -0.21837381847E+00  0.10683605706E+01  0.45194154998E+00  0.11803951025E+01  0.00000000000E+00 0. -1.
         11    1    3    3    0    0 -0.54289314190E+01  0.33096669486E+01 -0.51725285735E+01  0.81964775219E+01  0.51100000000E-03 0. -1.
        -11    1    3    3    0    0 -0.27015200807E+02 -0.29845922696E+02  0.23958087937E+01  0.40327906916E+02  0.51100000000E-03 0.  1.
         12    1    3    3    0    0  0.32662506044E+02  0.25467895177E+02  0.23247782298E+01  0.41483220459E+02  0.00000000000E+00 0. -1.
</event>
<event>
 7    1  0.2468912E-015  0.9000781E+02  0.7816164E-02  0.1186339E+00
        -11   -1    0    0    0    0  0.00000000000E+00  0.00000000000E+00  0.45593999997E+02  0.45594000000E+02  0.51100000000E-03 0.  1.
         11   -1    0    0    0    0 -0.00000000000E+00 -0.00000000000E+00 -0.45593999997E+02  0.45594000000E+02  0.51100000000E-03 0. -1.
    9900012    2    1    2    0    0  0.10972456665E+01 -0.13756131598E-01 -0.43442110513E+00  0.90007805533E+02  0.90000067766E+02 0.  0.
         12    1    1    2    0    0 -0.10972456665E+01  0.13756131598E-01  0.43442110513E+00  0.11801944672E+01  0.00000000000E+00 0. -1.
         11    1    3    3    0    0  0.45427266626E+01 -0.69646325083E+01 -0.34979155078E+01  0.90209691645E+01  0.51100000000E-03 0. -1.
        -11    1    3    3    0    0  0.26564061245E+02  0.11799512792E+02  0.28976097286E+02  0.41042564078E+02  0.51100000000E-03 0.  1.
         12    1    3    3    0    0 -0.30009542241E+02 -0.48486364155E+01 -0.25912602883E+02  0.39944272290E+02  0.00000000000E+00 0. -1.
</event>
<event>
 7    1  0.2468912E-015  0.9000779E+02  0.7816164E-02  0.1186339E+00
        -11   -1    0    0    0    0  0.00000000000E+00  0.00000000000E+00  0.45593999997E+02  0.45594000000E+02  0.51100000000E-03 0. -1.
         11   -1    0    0    0    0 -0.00000000000E+00 -0.00000000000E+00 -0.45593999997E+02  0.45594000000E+02  0.51100000000E-03 0.  1.
    9900012    2    1    2    0    0  0.61984306071E-01  0.11123332904E+01  0.38955941326E+00  0.90007794959E+02  0.90000057052E+02 0.  0.
         12    1    1    2    0    0 -0.61984306071E-01 -0.11123332904E+01 -0.38955941326E+00  0.11802050413E+01  0.00000000000E+00 0. -1.
         11    1    3    3    0    0  0.44994027482E+01 -0.78091336334E+01  0.73555715311E+00  0.90425791554E+01  0.51100000000E-03 0. -1.
        -11    1    3    3    0    0  0.37050053883E+02  0.10701149534E+02  0.57626665780E+01  0.38992684191E+02  0.51100000000E-03 0.  1.
         12    1    3    3    0    0 -0.41487472326E+02 -0.17796826099E+01 -0.61086643179E+01  0.41972531612E+02  0.00000000000E+00 0. -1.
</event>
<event>
 7    1  0.2468912E-015  0.9000772E+02  0.7816164E-02  0.1186339E+00
        -11   -1    0    0    0    0  0.00000000000E+00  0.00000000000E+00  0.45593999997E+02  0.45594000000E+02  0.51100000000E-03 0.  1.
         11   -1    0    0    0    0 -0.00000000000E+00 -0.00000000000E+00 -0.45593999997E+02  0.45594000000E+02  0.51100000000E-03 0. -1.
    9900012    2    1    2    0    0  0.81433608463E+00  0.38815083909E+00  0.76109279626E+00  0.90007717586E+02  0.89999978658E+02 0.  0.
         12    1    1    2    0    0 -0.81433608463E+00 -0.38815083909E+00 -0.76109279626E+00  0.11802824141E+01  0.00000000000E+00 0. -1.
         11    1    3    3    0    0 -0.51596790507E+01  0.91474558117E+01  0.38108167342E+01  0.11172312213E+02  0.51100000000E-03 0. -1.
        -11    1    3    3    0    0  0.69031298309E+01  0.23049228762E+02 -0.29065516382E+02  0.37732272537E+02  0.51100000000E-03 0.  1.
         12    1    3    3    0    0 -0.92911469552E+00 -0.31808533735E+02  0.26015792444E+02  0.41103132836E+02  0.00000000000E+00 0. -1.
</event>
<event>
 7    1  0.3802830E-015  0.9000776E+02  0.7816164E-02  0.1186339E+00
        -11   -1    0    0    0    0  0.00000000000E+00  0.00000000000E+00  0.45593999997E+02  0.45594000000E+02  0.51100000000E-03 0. -1.
         11   -1    0    0    0    0 -0.00000000000E+00 -0.00000000000E+00 -0.45593999997E+02  0.45594000000E+02  0.51100000000E-03 0.  1.
    9900012    2    1    2    0    0 -0.36015959301E+00 -0.12419978749E+00 -0.11170653586E+01  0.90007756154E+02  0.90000017736E+02 0.  0.
         12    1    1    2    0    0  0.36015959301E+00  0.12419978749E+00  0.11170653586E+01  0.11802438456E+01  0.00000000000E+00 0. -1.
         11    1    3    3    0    0 -0.13872043711E+02 -0.73800589374E+01  0.32316559214E+02  0.35934090587E+02  0.51100000000E-03 0. -1.
        -11    1    3    3    0    0 -0.56215149649E+01  0.44415736672E+01  0.65190706303E+01  0.96864487448E+01  0.51100000000E-03 0.  1.
        -12    1    3    3    0    0  0.19133399083E+02  0.28142854828E+01 -0.39952695203E+02  0.44387216822E+02  0.00000000000E+00 0.  1.
</event>
<event>
 7    1  0.2468912E-015  0.9000773E+02  0.7816164E-02  0.1186339E+00
        -11   -1    0    0    0    0  0.00000000000E+00  0.00000000000E+00  0.45593999997E+02  0.45594000000E+02  0.51100000000E-03 0.  1.
         11   -1    0    0    0    0 -0.00000000000E+00 -0.00000000000E+00 -0.45593999997E+02  0.45594000000E+02  0.51100000000E-03 0. -1.
    9900012    2    1    2    0    0 -0.79792296678E+00  0.83499330546E+00  0.24320053715E+00  0.90007728259E+02  0.89999989472E+02 0.  0.
         12    1    1    2    0    0  0.79792296678E+00 -0.83499330546E+00 -0.24320053715E+00  0.11802717409E+01  0.00000000000E+00 0. -1.
         11    1    3    3    0    0 -0.29550937005E+01 -0.32890101456E+01 -0.74965920424E+01  0.87033935352E+01  0.51100000000E-03 0. -1.
        -11    1    3    3    0    0 -0.15190790704E+02  0.16126484679E+02 -0.30461195710E+02  0.37665741392E+02  0.51100000000E-03 0.  1.
         12    1    3    3    0    0  0.17347961438E+02 -0.12002481228E+02  0.38200988289E+02  0.43638593331E+02  0.00000000000E+00 0. -1.
</event>
<event>
 7    1  0.2468912E-015  0.9000766E+02  0.7816164E-02  0.1186339E+00
        -11   -1    0    0    0    0  0.00000000000E+00  0.00000000000E+00  0.45593999997E+02  0.45594000000E+02  0.51100000000E-03 0. -1.
         11   -1    0    0    0    0 -0.00000000000E+00 -0.00000000000E+00 -0.45593999997E+02  0.45594000000E+02  0.51100000000E-03 0.  1.
    9900012    2    1    2    0    0 -0.41576278786E+00  0.64250243906E+00  0.89862542678E+00  0.90007662871E+02  0.89999923221E+02 0.  0.
         12    1    1    2    0    0  0.41576278786E+00 -0.64250243906E+00 -0.89862542678E+00  0.11803371288E+01  0.00000000000E+00 0. -1.
         11    1    3    3    0    0 -0.61699894177E+01  0.83362409355E+01 -0.66996255834E+00  0.10392811575E+02  0.51100000000E-03 0. -1.
        -11    1    3    3    0    0 -0.24094911858E+02  0.16679103670E+02 -0.19975937747E+02  0.35465410837E+02  0.51100000000E-03 0.  1.
         12    1    3    3    0    0  0.29849138488E+02 -0.24372842167E+02  0.21544525732E+02  0.44149440459E+02  0.00000000000E+00 0. -1.
</event>
<event>
 7    1  0.2468912E-015  0.9000786E+02  0.7816164E-02  0.1186339E+00
        -11   -1    0    0    0    0  0.00000000000E+00  0.00000000000E+00  0.45593999997E+02  0.45594000000E+02  0.51100000000E-03 0.  1.
         11   -1    0    0    0    0 -0.00000000000E+00 -0.00000000000E+00 -0.45593999997E+02  0.45594000000E+02  0.51100000000E-03 0. -1.
    9900012    2    1    2    0    0 -0.76729203894E+00 -0.88488051445E+00  0.14485763529E+00  0.90007858342E+02  0.90000121272E+02 0.  0.
         12    1    1    2    0    0  0.76729203894E+00  0.88488051445E+00 -0.14485763529E+00  0.11801416578E+01  0.00000000000E+00 0. -1.
         11    1    3    3    0    0 -0.43533326386E+01  0.60148911724E+00  0.75011033511E+01  0.86936670034E+01  0.51100000000E-03 0. -1.
        -11    1    3    3    0    0  0.94503727904E+01  0.38597408782E+02 -0.91001283535E+01  0.40766185091E+02  0.51100000000E-03 0.  1.
         12    1    3    3    0    0 -0.58643321906E+01 -0.40083778414E+02  0.17438826378E+01  0.40548006247E+02  0.00000000000E+00 0. -1.
</event>
<event>
 7    1  0.2468912E-015  0.9000777E+02  0.7816164E-02  0.1186339E+00
        -11   -1    0    0    0    0  0.00000000000E+00  0.00000000000E+00  0.45593999997E+02  0.45594000000E+02  0.51100000000E-03 0.  1.
         11   -1    0    0    0    0 -0.00000000000E+00 -0.00000000000E+00 -0.45593999997E+02  0.45594000000E+02  0.51100000000E-03 0. -1.
    9900012    2    1    2    0    0  0.52825983814E-01  0.10188754776E+01  0.59333908241E+00  0.90007767358E+02  0.90000029087E+02 0.  0.
         12    1    1    2    0    0 -0.52825983814E-01 -0.10188754776E+01 -0.59333908241E+00  0.11802326424E+01  0.00000000000E+00 0. -1.
         11    1    3    3    0    0 -0.29031391346E+02  0.21433395280E+02  0.10159610761E+02  0.37489062509E+02  0.51100000000E-03 0. -1.
        -11    1    3    3    0    0 -0.21651758318E+01  0.86643360993E+01 -0.10620880423E+01  0.89937054486E+01  0.51100000000E-03 0.  1.
        -12    1    3    3    0    0  0.31249393162E+02 -0.29078855901E+02 -0.85041836362E+01  0.43524999401E+02  0.00000000000E+00 0.  1.
</event>
<event>
 7    1  0.2468912E-015  0.9000773E+02  0.7816164E-02  0.1186339E+00
        -11   -1    0    0    0    0  0.00000000000E+00  0.00000000000E+00  0.45593999997E+02  0.45594000000E+02  0.51100000000E-03 0.  1.
         11   -1    0    0    0    0 -0.00000000000E+00 -0.00000000000E+00 -0.45593999997E+02  0.45594000000E+02  0.51100000000E-03 0. -1.
    9900012    2    1    2    0    0 -0.79758899950E+00  0.47322119832E+00  0.73003566593E+00  0.90007729443E+02  0.89999990671E+02 0.  0.
         12    1    1    2    0    0  0.79758899950E+00 -0.47322119832E+00 -0.73003566593E+00  0.11802705572E+01  0.00000000000E+00 0. -1.
         11    1    3    3    0    0  0.20264703216E+02  0.20721692337E+02  0.55040963013E+01  0.29501555994E+02  0.51100000000E-03 0. -1.
        -11    1    3    3    0    0  0.15026254485E+02 -0.81232049864E+01  0.98558745954E+01  0.19720878464E+02  0.51100000000E-03 0.  1.
         12    1    3    3    0    0 -0.36088546700E+02 -0.12125266152E+02 -0.14629935231E+02  0.40785294985E+02  0.00000000000E+00 0. -1.
</event>
<event>
 7    1  0.2468912E-015  0.9000773E+02  0.7816164E-02  0.1186339E+00
        -11   -1    0    0    0    0  0.00000000000E+00  0.00000000000E+00  0.45593999997E+02  0.45594000000E+02  0.51100000000E-03 0.  1.
         11   -1    0    0    0    0 -0.00000000000E+00 -0.00000000000E+00 -0.45593999997E+02  0.45594000000E+02  0.51100000000E-03 0. -1.
    9900012    2    1    2    0    0  0.52604702597E+00  0.78754739896E+00 -0.70432316030E+00  0.90007734143E+02  0.89999995434E+02 0.  0.
         12    1    1    2    0    0 -0.52604702597E+00 -0.78754739896E+00  0.70432316030E+00  0.11802658570E+01  0.00000000000E+00 0. -1.
         11    1    3    3    0    0 -0.35490829248E+02 -0.15607963301E+01  0.60209744779E+01  0.36031752383E+02  0.51100000000E-03 0. -1.
        -11    1    3    3    0    0  0.14576268120E+01 -0.48786756333E+01  0.12696790157E+02  0.13679716094E+02  0.51100000000E-03 0.  1.
        -12    1    3    3    0    0  0.34559249462E+02  0.72270193623E+01 -0.19422087796E+02  0.40296265665E+02  0.00000000000E+00 0.  1.
</event>
<event>
 7    1  0.2468912E-015  0.9000772E+02  0.7816164E-02  0.1186339E+00
        -11   -1    0    0    0    0  0.00000000000E+00  0.00000000000E+00  0.45593999997E+02  0.45594000000E+02  0.51100000000E-03 0.  1.
         11   -1    0    0    0    0 -0.00000000000E+00 -0.00000000000E+00 -0.45593999997E+02  0.45594000000E+02  0.51100000000E-03 0. -1.
    9900012    2    1    2    0    0  0.60653211186E+00  0.89609387388E+00  0.47136717762E+00  0.90007723571E+02  0.89999984722E+02 0.  0.
         12    1    1    2    0    0 -0.60653211186E+00 -0.89609387388E+00 -0.47136717762E+00  0.11802764293E+01  0.00000000000E+00 0. -1.
         11    1    3    3    0    0  0.20503037277E+02 -0.13378353527E+02  0.27296521745E+02  0.36666810337E+02  0.51100000000E-03 0. -1.
        -11    1    3    3    0    0  0.85027318611E+01  0.24386275528E+01  0.40719488460E+01  0.97377677682E+01  0.51100000000E-03 0.  1.
        -12    1    3    3    0    0 -0.28399237026E+02  0.11835819848E+02 -0.30897103413E+02  0.43603145465E+02  0.00000000000E+00 0.  1.
</event>
<event>
 7    1  0.2468912E-015  0.9000776E+02  0.7816164E-02  0.1186339E+00
        -11   -1    0    0    0    0  0.00000000000E+00  0.00000000000E+00  0.45593999997E+02  0.45594000000E+02  0.51100000000E-03 0.  1.
         11   -1    0    0    0    0 -0.00000000000E+00 -0.00000000000E+00 -0.45593999997E+02  0.45594000000E+02  0.51100000000E-03 0. -1.
    9900012    2    1    2    0    0 -0.10850197494E+01 -0.12557385532E+00 -0.44714065663E+00  0.90007757899E+02  0.90000019503E+02 0.  0.
         12    1    1    2    0    0  0.10850197494E+01  0.12557385532E+00  0.44714065663E+00  0.11802421008E+01  0.00000000000E+00 0. -1.
         11    1    3    3    0    0 -0.28851099615E+02  0.16088233028E+02 -0.18389122471E+02  0.37807102725E+02  0.51100000000E-03 0. -1.
        -11    1    3    3    0    0  0.23954900884E+01  0.53064285378E+01 -0.80834921077E+01  0.99618974853E+01  0.51100000000E-03 0.  1.
        -12    1    3    3    0    0  0.25370589777E+02 -0.21520235421E+02  0.26025473922E+02  0.42238757689E+02  0.00000000000E+00 0.  1.
</event>
<event>
 7    1  0.2468912E-015  0.9000776E+02  0.7816164E-02  0.1186339E+00
        -11   -1    0    0    0    0  0.00000000000E+00  0.00000000000E+00  0.45593999997E+02  0.45594000000E+02  0.51100000000E-03 0. -1.
         11   -1    0    0    0    0 -0.00000000000E+00 -0.00000000000E+00 -0.45593999997E+02  0.45594000000E+02  0.51100000000E-03 0.  1.
    9900012    2    1    2    0    0 -0.10795425867E+01  0.24371687406E+00 -0.41007781790E+00  0.90007756835E+02  0.90000018425E+02 0.  0.
         12    1    1    2    0    0  0.10795425867E+01 -0.24371687406E+00  0.41007781790E+00  0.11802431647E+01  0.00000000000E+00 0. -1.
         11    1    3    3    0    0  0.16102250243E+01 -0.84636342228E+01  0.36541077937E+02  0.37542992767E+02  0.51100000000E-03 0. -1.
        -11    1    3    3    0    0 -0.98621648574E+01 -0.34576134047E+01  0.23428818695E+01  0.10710111197E+02  0.51100000000E-03 0.  1.
        -12    1    3    3    0    0  0.71723972464E+01  0.12164964502E+02 -0.39294037624E+02  0.41754652871E+02  0.00000000000E+00 0.  1.
</event>
<event>
 7    1  0.2468912E-015  0.9000782E+02  0.7816164E-02  0.1186339E+00
        -11   -1    0    0    0    0  0.00000000000E+00  0.00000000000E+00  0.45593999997E+02  0.45594000000E+02  0.51100000000E-03 0. -1.
         11   -1    0    0    0    0 -0.00000000000E+00 -0.00000000000E+00 -0.45593999997E+02  0.45594000000E+02  0.51100000000E-03 0.  1.
    9900012    2    1    2    0    0  0.76402042139E+00  0.22806318455E+00 -0.87010511269E+00  0.90007820807E+02  0.90000083242E+02 0.  0.
         12    1    1    2    0    0 -0.76402042139E+00 -0.22806318455E+00  0.87010511269E+00  0.11801791930E+01  0.00000000000E+00 0. -1.
         11    1    3    3    0    0 -0.60277740142E+00  0.57006174564E+00 -0.85399146417E+01  0.85801196575E+01  0.51100000000E-03 0. -1.
        -11    1    3    3    0    0 -0.13015723915E+02 -0.27441787488E+02 -0.22960975542E+02  0.38074494976E+02  0.51100000000E-03 0.  1.
         12    1    3    3    0    0  0.14382521738E+02  0.27099788927E+02  0.30630785071E+02  0.43353206173E+02  0.00000000000E+00 0. -1.
</event>
<event>
 7    1  0.2685097E-015  0.9000778E+02  0.7816164E-02  0.1186339E+00
        -11   -1    0    0    0    0  0.00000000000E+00  0.00000000000E+00  0.45593999997E+02  0.45594000000E+02  0.51100000000E-03 0. -1.
         11   -1    0    0    0    0 -0.00000000000E+00 -0.00000000000E+00 -0.45593999997E+02  0.45594000000E+02  0.51100000000E-03 0.  1.
    9900012    2    1    2    0    0 -0.67828549655E+00  0.94829883453E+00 -0.18323881595E+00  0.90007780377E+02  0.90000042278E+02 0.  0.
         12    1    1    2    0    0  0.67828549655E+00 -0.94829883453E+00  0.18323881595E+00  0.11802196228E+01  0.00000000000E+00 0. -1.
         11    1    3    3    0    0  0.27614460210E+02  0.27004525972E+02  0.11065483304E+02  0.40177702233E+02  0.51100000000E-03 0. -1.
        -11    1    3    3    0    0  0.52536572318E+01 -0.72679837759E+01  0.19514744866E+01  0.91778404546E+01  0.51100000000E-03 0.  1.
        -12    1    3    3    0    0 -0.33546402939E+02 -0.18788243362E+02 -0.13200196607E+02  0.40652237690E+02  0.00000000000E+00 0.  1.
</event>
<event>
 7    1  0.2468912E-015  0.9000772E+02  0.7816164E-02  0.1186339E+00
        -11   -1    0    0    0    0  0.00000000000E+00  0.00000000000E+00  0.45593999997E+02  0.45594000000E+02  0.51100000000E-03 0. -1.
         11   -1    0    0    0    0 -0.00000000000E+00 -0.00000000000E+00 -0.45593999997E+02  0.45594000000E+02  0.51100000000E-03 0.  1.
    9900012    2    1    2    0    0  0.39363015513E+00 -0.10386134776E+01 -0.39925387426E+00  0.90007717699E+02  0.89999978772E+02 0.  0.
         12    1    1    2    0    0 -0.39363015513E+00  0.10386134776E+01  0.39925387426E+00  0.11802823014E+01  0.00000000000E+00 0. -1.
         11    1    3    3    0    0  0.10355725809E+02 -0.22267229219E+01  0.46363668175E+01  0.11562666194E+02  0.51100000000E-03 0. -1.
        -11    1    3    3    0    0 -0.78131880660E+01  0.36123912501E+02  0.12861383612E+02  0.39133082562E+02  0.51100000000E-03 0.  1.
         12    1    3    3    0    0 -0.21489075876E+01 -0.34935803057E+02 -0.17897004303E+02  0.39311968942E+02  0.00000000000E+00 0. -1.
</event>
<event>
 7    1  0.2622522E-015  0.9000796E+02  0.7816164E-02  0.1186339E+00
        -11   -1    0    0    0    0  0.00000000000E+00  0.00000000000E+00  0.45593999997E+02  0.45594000000E+02  0.51100000000E-03 0. -1.
         11   -1    0    0    0    0 -0.00000000000E+00 -0.00000000000E+00 -0.45593999997E+02  0.45594000000E+02  0.51100000000E-03 0.  1.
    9900012    2    1    2    0    0  0.10641156499E+01  0.41548050903E+00 -0.29585235429E+00  0.90007959837E+02  0.90000224107E+02 0.  0.
         12    1    1    2    0    0 -0.10641156499E+01 -0.41548050903E+00  0.29585235429E+00  0.11800401625E+01  0.00000000000E+00 0. -1.
         11    1    3    3    0    0  0.32274034474E+02 -0.16331512333E+02  0.19188896073E+02  0.40945638707E+02  0.51100000000E-03 0. -1.
        -11    1    3    3    0    0  0.44117611047E+01  0.64235709881E+01 -0.49296990524E+01  0.92210538060E+01  0.51100000000E-03 0.  1.
        -12    1    3    3    0    0 -0.35621679929E+02  0.10323421854E+02 -0.14555049375E+02  0.39841267325E+02  0.00000000000E+00 0.  1.
</event>
<event>
 7    1  0.2468912E-015  0.9000776E+02  0.7816164E-02  0.1186339E+00
        -11   -1    0    0    0    0  0.00000000000E+00  0.00000000000E+00  0.45593999997E+02  0.45594000000E+02  0.51100000000E-03 0. -1.
         11   -1    0    0    0    0 -0.00000000000E+00 -0.00000000000E+00 -0.45593999997E+02  0.45594000000E+02  0.51100000000E-03 0.  1.
    9900012    2    1    2    0    0 -0.73300739102E+00  0.87995000115E+00  0.28522222627E+00  0.90007761228E+02  0.90000022877E+02 0.  0.
         12    1    1    2    0    0  0.73300739102E+00 -0.87995000115E+00 -0.28522222627E+00  0.11802387717E+01  0.00000000000E+00 0. -1.
         11    1    3    3    0    0  0.39807196292E+01  0.13451297987E+02  0.19945674009E+02  0.24384697214E+02  0.51100000000E-03 0. -1.
        -11    1    3    3    0    0  0.14908125805E+02  0.21634448884E+01  0.16231439634E+02  0.22144803943E+02  0.51100000000E-03 0.  1.
        -12    1    3    3    0    0 -0.19621852826E+02 -0.14734792874E+02 -0.35891891417E+02  0.43478260071E+02  0.00000000000E+00 0.  1.
</event>
<event>
 7    1  0.2468912E-015  0.9000774E+02  0.7816164E-02  0.1186339E+00
        -11   -1    0    0    0    0  0.00000000000E+00  0.00000000000E+00  0.45593999997E+02  0.45594000000E+02  0.51100000000E-03 0. -1.
         11   -1    0    0    0    0 -0.00000000000E+00 -0.00000000000E+00 -0.45593999997E+02  0.45594000000E+02  0.51100000000E-03 0.  1.
    9900012    2    1    2    0    0  0.94035430932E+00 -0.70292524579E+00 -0.12105385706E+00  0.90007735553E+02  0.89999996862E+02 0.  0.
         12    1    1    2    0    0 -0.94035430932E+00  0.70292524579E+00  0.12105385706E+00  0.11802644469E+01  0.00000000000E+00 0. -1.
         11    1    3    3    0    0 -0.23210510169E+02  0.30840129776E+02 -0.10701612916E+02  0.40054536650E+02  0.51100000000E-03 0. -1.
        -11    1    3    3    0    0 -0.23713796225E+01 -0.92058276249E+00  0.90632788544E+01  0.94134976385E+01  0.51100000000E-03 0.  1.
        -12    1    3    3    0    0  0.26522244101E+02 -0.30622472259E+02  0.15172802050E+01  0.40539701265E+02  0.00000000000E+00 0.  1.
</event>
<event>
 7    1  0.2468912E-015  0.9000770E+02  0.7816164E-02  0.1186339E+00
        -11   -1    0    0    0    0  0.00000000000E+00  0.00000000000E+00  0.45593999997E+02  0.45594000000E+02  0.51100000000E-03 0. -1.
         11   -1    0    0    0    0 -0.00000000000E+00 -0.00000000000E+00 -0.45593999997E+02  0.45594000000E+02  0.51100000000E-03 0.  1.
    9900012    2    1    2    0    0 -0.55646223149E+00 -0.94792324446E+00 -0.42999031232E+00  0.90007703274E+02  0.89999964157E+02 0.  0.
         12    1    1    2    0    0  0.55646223149E+00  0.94792324446E+00  0.42999031232E+00  0.11802967259E+01  0.00000000000E+00 0. -1.
         11    1    3    3    0    0 -0.63949100316E+01  0.12378550973E+01 -0.73740757795E+01  0.98389101743E+01  0.51100000000E-03 0. -1.
        -11    1    3    3    0    0  0.37685850209E+02 -0.16940947025E+02 -0.78870583180E+01  0.42064529965E+02  0.51100000000E-03 0.  1.
         12    1    3    3    0    0 -0.31847402408E+02  0.14755168683E+02  0.14831143785E+02  0.38104263134E+02  0.00000000000E+00 0. -1.
</event>
<event>
 7    1  0.2468912E-015  0.9000773E+02  0.7816164E-02  0.1186339E+00
        -11   -1    0    0    0    0  0.00000000000E+00  0.00000000000E+00  0.45593999997E+02  0.45594000000E+02  0.51100000000E-03 0.  1.
         11   -1    0    0    0    0 -0.00000000000E+00 -0.00000000000E+00 -0.45593999997E+02  0.45594000000E+02  0.51100000000E-03 0. -1.
    9900012    2    1    2    0    0  0.84413083853E-01  0.11020887440E+01  0.41389503502E+00  0.90007731273E+02  0.89999992526E+02 0.  0.
         12    1    1    2    0    0 -0.84413083853E-01 -0.11020887440E+01 -0.41389503502E+00  0.11802687272E+01  0.00000000000E+00 0. -1.
         11    1    3    3    0    0  0.14576789750E+02 -0.32233987654E+02 -0.15819230781E+01  0.35412077606E+02  0.51100000000E-03 0. -1.
        -11    1    3    3    0    0  0.90314431654E+01 -0.38697950545E+01  0.38128526740E+01  0.10539455640E+02  0.51100000000E-03 0.  1.
        -12    1    3    3    0    0 -0.23523819832E+02  0.37205871452E+02 -0.18170345609E+01  0.44056198027E+02  0.00000000000E+00 0.  1.
</event>
<event>
 7    1  0.2468912E-015  0.9000775E+02  0.7816164E-02  0.1186339E+00
        -11   -1    0    0    0    0  0.00000000000E+00  0.00000000000E+00  0.45593999997E+02  0.45594000000E+02  0.51100000000E-03 0. -1.
         11   -1    0    0    0    0 -0.00000000000E+00 -0.00000000000E+00 -0.45593999997E+02  0.45594000000E+02  0.51100000000E-03 0.  1.
    9900012    2    1    2    0    0 -0.42297295492E+00 -0.81889504958E+00 -0.73722081102E+00  0.90007750134E+02  0.90000011635E+02 0.  0.
         12    1    1    2    0    0  0.42297295492E+00  0.81889504958E+00  0.73722081102E+00  0.11802498663E+01  0.00000000000E+00 0. -1.
         11    1    3    3    0    0  0.18279302069E+02 -0.28650357958E+02 -0.10492808097E+02  0.35567891662E+02  0.51100000000E-03 0. -1.
        -11    1    3    3    0    0 -0.12399538342E+01 -0.10733067742E+02  0.47800418006E+01  0.11814610808E+02  0.51100000000E-03 0.  1.
        -12    1    3    3    0    0 -0.17462321189E+02  0.38564530650E+02  0.49755454850E+01  0.42625247664E+02  0.00000000000E+00 0.  1.
</event>
<event>
 7    1  0.2468912E-015  0.9000779E+02  0.7816164E-02  0.1186339E+00
        -11   -1    0    0    0    0  0.00000000000E+00  0.00000000000E+00  0.45593999997E+02  0.45594000000E+02  0.51100000000E-03 0.  1.
         11   -1    0    0    0    0 -0.00000000000E+00 -0.00000000000E+00 -0.45593999997E+02  0.45594000000E+02  0.51100000000E-03 0. -1.
    9900012    2    1    2    0    0 -0.90751169778E+00 -0.29744570941E+00 -0.69342131147E+00  0.90007794701E+02  0.90000056791E+02 0.  0.
         12    1    1    2    0    0  0.90751169778E+00  0.29744570941E+00  0.69342131147E+00  0.11802052986E+01  0.00000000000E+00 0. -1.
         11    1    3    3    0    0 -0.89597766885E+01  0.83280403582E+00 -0.33478050346E+01  0.96009874326E+01  0.51100000000E-03 0. -1.
        -11    1    3    3    0    0 -0.13166284841E+02 -0.35062080901E+02 -0.93935504796E+01  0.38612683985E+02  0.51100000000E-03 0.  1.
         12    1    3    3    0    0  0.21218549832E+02  0.33931831156E+02  0.12047934203E+02  0.41794123284E+02  0.00000000000E+00 0. -1.
</event>
<event>
 7    1  0.2468912E-015  0.9000757E+02  0.7816164E-02  0.1186339E+00
        -11   -1    0    0    0    0  0.00000000000E+00  0.00000000000E+00  0.45593999997E+02  0.45594000000E+02  0.51100000000E-03 0.  1.
         11   -1    0    0    0    0 -0.00000000000E+00 -0.00000000000E+00 -0.45593999997E+02  0.45594000000E+02  0.51100000000E-03 0. -1.
    9900012    2    1    2    0    0  0.43502970437E+00  0.93763075290E+00  0.57009414032E+00  0.90007572280E+02  0.89999831434E+02 0.  0.
         12    1    1    2    0    0 -0.43502970437E+00 -0.93763075290E+00 -0.57009414032E+00  0.11804277196E+01  0.00000000000E+00 0. -1.
         11    1    3    3    0    0 -0.31319801409E+01  0.22126641326E+02 -0.25170223697E+02  0.33659140173E+02  0.51100000000E-03 0. -1.
        -11    1    3    3    0    0 -0.59316800722E+01  0.93149114205E+01 -0.49001924974E+01  0.12081568194E+02  0.51100000000E-03 0.  1.
        -12    1    3    3    0    0  0.94986899175E+01 -0.30503921994E+02  0.30640510335E+02  0.44266863913E+02  0.00000000000E+00 0.  1.
</event>
<event>
 7    1  0.2468912E-015  0.9000769E+02  0.7816164E-02  0.1186339E+00
        -11   -1    0    0    0    0  0.00000000000E+00  0.00000000000E+00  0.45593999997E+02  0.45594000000E+02  0.51100000000E-03 0.  1.
         11   -1    0    0    0    0 -0.00000000000E+00 -0.00000000000E+00 -0.45593999997E+02  0.45594000000E+02  0.51100000000E-03 0. -1.
    9900012    2    1    2    0    0 -0.72919818506E+00  0.70431214898E+00  0.60443335076E+00  0.90007692721E+02  0.89999953465E+02 0.  0.
         12    1    1    2    0    0  0.72919818506E+00 -0.70431214898E+00 -0.60443335076E+00  0.11803072786E+01  0.00000000000E+00 0. -1.
         11    1    3    3    0    0 -0.35147515551E+01 -0.74813663288E+01  0.12087726887E+01  0.83537687492E+01  0.51100000000E-03 0. -1.
        -11    1    3    3    0    0  0.16604880474E+02 -0.33599787193E+02 -0.28358969159E+01  0.37586035526E+02  0.51100000000E-03 0.  1.
         12    1    3    3    0    0 -0.13819327104E+02  0.41785465670E+02  0.22315575780E+01  0.44067888447E+02  0.00000000000E+00 0. -1.
</event>
<event>
 7    1  0.2468912E-015  0.9000779E+02  0.7816164E-02  0.1186339E+00
        -11   -1    0    0    0    0  0.00000000000E+00  0.00000000000E+00  0.45593999997E+02  0.45594000000E+02  0.51100000000E-03 0.  1.
         11   -1    0    0    0    0 -0.00000000000E+00 -0.00000000000E+00 -0.45593999997E+02  0.45594000000E+02  0.51100000000E-03 0. -1.
    9900012    2    1    2    0    0  0.19225816461E+00 -0.62306431243E+00 -0.98372489543E+00  0.90007793658E+02  0.90000055734E+02 0.  0.
         12    1    1    2    0    0 -0.19225816461E+00  0.62306431243E+00  0.98372489543E+00  0.11802063418E+01  0.00000000000E+00 0. -1.
         11    1    3    3    0    0 -0.26380009519E+01  0.70130030081E+01 -0.37111230517E+01  0.83614409512E+01  0.51100000000E-03 0. -1.
        -11    1    3    3    0    0 -0.59457182121E+01  0.11865818279E+02  0.38081164590E+02  0.40327711381E+02  0.51100000000E-03 0.  1.
         12    1    3    3    0    0  0.87759773286E+01 -0.19501885599E+02 -0.35353766433E+02  0.41318641326E+02  0.00000000000E+00 0. -1.
</event>
<event>
 7    1  0.2468912E-015  0.9000775E+02  0.7816164E-02  0.1186339E+00
        -11   -1    0    0    0    0  0.00000000000E+00  0.00000000000E+00  0.45593999997E+02  0.45594000000E+02  0.51100000000E-03 0. -1.
         11   -1    0    0    0    0 -0.00000000000E+00 -0.00000000000E+00 -0.45593999997E+02  0.45594000000E+02  0.51100000000E-03 0.  1.
    9900012    2    1    2    0    0 -0.29788511741E+00  0.49449181071E+00 -0.10294372538E+01  0.90007746318E+02  0.90000007770E+02 0.  0.
         12    1    1    2    0    0  0.29788511741E+00 -0.49449181071E+00  0.10294372538E+01  0.11802536819E+01  0.00000000000E+00 0. -1.
         11    1    3    3    0    0  0.39950393978E+02 -0.85651857951E+01  0.93991912869E+01  0.41925424075E+02  0.51100000000E-03 0. -1.
        -11    1    3    3    0    0 -0.30436041979E+01  0.88714424044E+01 -0.45183834967E+01  0.10410658314E+02  0.51100000000E-03 0.  1.
        -12    1    3    3    0    0 -0.37204674898E+02  0.18823520141E+00 -0.59102450441E+01  0.37671663930E+02  0.00000000000E+00 0.  1.
</event>
<event>
 7    1  0.2468912E-015  0.9000773E+02  0.7816164E-02  0.1186339E+00
        -11   -1    0    0    0    0  0.00000000000E+00  0.00000000000E+00  0.45593999997E+02  0.45594000000E+02  0.51100000000E-03 0. -1.
         11   -1    0    0    0    0 -0.00000000000E+00 -0.00000000000E+00 -0.45593999997E+02  0.45594000000E+02  0.51100000000E-03 0.  1.
    9900012    2    1    2    0    0 -0.79030160085E+00  0.81023279984E+00  0.33465459535E+00  0.90007725664E+02  0.89999986843E+02 0.  0.
         12    1    1    2    0    0  0.79030160085E+00 -0.81023279984E+00 -0.33465459535E+00  0.11802743361E+01  0.00000000000E+00 0. -1.
         11    1    3    3    0    0 -0.55151229394E+01 -0.79604109114E+01 -0.14104551449E+02  0.17109152368E+02  0.51100000000E-03 0. -1.
        -11    1    3    3    0    0 -0.33305674160E-01  0.22574724631E+02 -0.23294474476E+02  0.32438431571E+02  0.51100000000E-03 0.  1.
         12    1    3    3    0    0  0.47581270127E+01 -0.13804080920E+02  0.37733680521E+02  0.40460141724E+02  0.00000000000E+00 0. -1.
</event>
<event>
 7    1  0.2468912E-015  0.9000773E+02  0.7816164E-02  0.1186339E+00
        -11   -1    0    0    0    0  0.00000000000E+00  0.00000000000E+00  0.45593999997E+02  0.45594000000E+02  0.51100000000E-03 0. -1.
         11   -1    0    0    0    0 -0.00000000000E+00 -0.00000000000E+00 -0.45593999997E+02  0.45594000000E+02  0.51100000000E-03 0.  1.
    9900012    2    1    2    0    0 -0.78843841873E+00  0.86013226786E+00  0.17766975130E+00  0.90007733420E+02  0.89999994702E+02 0.  0.
         12    1    1    2    0    0  0.78843841873E+00 -0.86013226786E+00 -0.17766975130E+00  0.11802665796E+01  0.00000000000E+00 0. -1.
         11    1    3    3    0    0  0.11138663925E+02  0.14170800748E+01 -0.83210378939E+01  0.13975608104E+02  0.51100000000E-03 0. -1.
        -11    1    3    3    0    0  0.14127473385E+02  0.31232197341E+02  0.64393259100E+01  0.34878368274E+02  0.51100000000E-03 0.  1.
         12    1    3    3    0    0 -0.26054575729E+02 -0.31789145148E+02  0.20593817352E+01  0.41153757043E+02  0.00000000000E+00 0. -1.
</event>
<event>
 7    1  0.2468912E-015  0.9000783E+02  0.7816164E-02  0.1186339E+00
        -11   -1    0    0    0    0  0.00000000000E+00  0.00000000000E+00  0.45593999997E+02  0.45594000000E+02  0.51100000000E-03 0.  1.
         11   -1    0    0    0    0 -0.00000000000E+00 -0.00000000000E+00 -0.45593999997E+02  0.45594000000E+02  0.51100000000E-03 0. -1.
    9900012    2    1    2    0    0  0.25382842054E+00 -0.10998570901E+01  0.34450431606E+00  0.90007831491E+02  0.90000094067E+02 0.  0.
         12    1    1    2    0    0 -0.25382842054E+00  0.10998570901E+01 -0.34450431606E+00  0.11801685090E+01  0.00000000000E+00 0. -1.
         11    1    3    3    0    0 -0.15710165171E+02 -0.18431899321E+02  0.16655587626E+02  0.29393074044E+02  0.51100000000E-03 0. -1.
        -11    1    3    3    0    0 -0.20774486265E+01 -0.16217998619E+02  0.48289774192E+01  0.17048703621E+02  0.51100000000E-03 0.  1.
        -12    1    3    3    0    0  0.18041442218E+02  0.33550040850E+02 -0.21140060730E+02  0.43566053826E+02  0.00000000000E+00 0.  1.
</event>
<event>
 7    1  0.2468912E-015  0.9000778E+02  0.7816164E-02  0.1186339E+00
        -11   -1    0    0    0    0  0.00000000000E+00  0.00000000000E+00  0.45593999997E+02  0.45594000000E+02  0.51100000000E-03 0. -1.
         11   -1    0    0    0    0 -0.00000000000E+00 -0.00000000000E+00 -0.45593999997E+02  0.45594000000E+02  0.51100000000E-03 0.  1.
    9900012    2    1    2    0    0  0.10385552231E+01 -0.55547580919E+00 -0.75880005638E-01  0.90007784722E+02  0.90000046681E+02 0.  0.
         12    1    1    2    0    0 -0.10385552231E+01  0.55547580919E+00  0.75880005638E-01  0.11802152776E+01  0.00000000000E+00 0. -1.
         11    1    3    3    0    0 -0.40820353558E+02  0.32104951213E+01  0.12737714591E+02  0.42881906636E+02  0.51100000000E-03 0. -1.
        -11    1    3    3    0    0  0.85344965229E+01 -0.39654892277E-01  0.42138984251E+01  0.95182006498E+01  0.51100000000E-03 0.  1.
        -12    1    3    3    0    0  0.33324412258E+02 -0.37263160382E+01 -0.17027493022E+02  0.37607677436E+02  0.00000000000E+00 0.  1.
</event>
<event>
 7    1  0.2468912E-015  0.9000773E+02  0.7816164E-02  0.1186339E+00
        -11   -1    0    0    0    0  0.00000000000E+00  0.00000000000E+00  0.45593999997E+02  0.45594000000E+02  0.51100000000E-03 0.  1.
         11   -1    0    0    0    0 -0.00000000000E+00 -0.00000000000E+00 -0.45593999997E+02  0.45594000000E+02  0.51100000000E-03 0. -1.
    9900012    2    1    2    0    0  0.99259412279E+00 -0.23232665828E+00  0.59483437110E+00  0.90007726007E+02  0.89999987191E+02 0.  0.
         12    1    1    2    0    0 -0.99259412279E+00  0.23232665828E+00 -0.59483437110E+00  0.11802739927E+01  0.00000000000E+00 0. -1.
         11    1    3    3    0    0 -0.54937337093E+01  0.52651337260E+01 -0.30419187744E+00  0.76154629656E+01  0.51100000000E-03 0. -1.
        -11    1    3    3    0    0  0.22146182964E+02  0.11773983492E+02  0.33787055594E+02  0.42079035553E+02  0.51100000000E-03 0.  1.
         12    1    3    3    0    0 -0.15659855132E+02 -0.17271443876E+02 -0.32888029345E+02  0.40313227488E+02  0.00000000000E+00 0. -1.
</event>
<event>
 7    1  0.2468912E-015  0.9000692E+02  0.7816164E-02  0.1186341E+00
        -11   -1    0    0    0    0  0.00000000000E+00  0.00000000000E+00  0.45593999997E+02  0.45594000000E+02  0.51100000000E-03 0. -1.
         11   -1    0    0    0    0 -0.00000000000E+00 -0.00000000000E+00 -0.45593999997E+02  0.45594000000E+02  0.51100000000E-03 0.  1.
    9900012    2    1    2    0    0  0.17597773027E+00 -0.10827206236E+00 -0.11628698351E+01  0.90006916915E+02  0.89999167414E+02 0.  0.
         12    1    1    2    0    0 -0.17597773027E+00  0.10827206236E+00  0.11628698351E+01  0.11810830853E+01  0.00000000000E+00 0. -1.
         11    1    3    3    0    0  0.57339517566E+01  0.34288939226E+01  0.79396111783E+01  0.10376557339E+02  0.51100000000E-03 0. -1.
        -11    1    3    3    0    0 -0.28819916991E+02  0.19013681913E+02 -0.25876208861E+02  0.43147258320E+02  0.51100000000E-03 0.  1.
         12    1    3    3    0    0  0.23261942964E+02 -0.22550847898E+02  0.16773727847E+02  0.36483101256E+02  0.00000000000E+00 0. -1.
</event>
<event>
 7    1  0.2468912E-015  0.9000765E+02  0.7816164E-02  0.1186339E+00
        -11   -1    0    0    0    0  0.00000000000E+00  0.00000000000E+00  0.45593999997E+02  0.45594000000E+02  0.51100000000E-03 0. -1.
         11   -1    0    0    0    0 -0.00000000000E+00 -0.00000000000E+00 -0.45593999997E+02  0.45594000000E+02  0.51100000000E-03 0.  1.
    9900012    2    1    2    0    0  0.31784698835E+00  0.63006020278E+00  0.94615749069E+00  0.90007654049E+02  0.89999914282E+02 0.  0.
         12    1    1    2    0    0 -0.31784698835E+00 -0.63006020278E+00 -0.94615749069E+00  0.11803459511E+01  0.00000000000E+00 0. -1.
         11    1    3    3    0    0  0.31954068638E+01 -0.24012208125E+02 -0.37117619232E+02  0.44322843115E+02  0.51100000000E-03 0.  1.
        -11    1    3    3    0    0  0.25479096223E+00  0.11799541448E+02  0.21124715346E+02  0.24198092808E+02  0.51100000000E-03 0. -1.
        -12    1    3    3    0    0 -0.31323508376E+01  0.12842726880E+02  0.16939061377E+02  0.21486718126E+02  0.00000000000E+00 0.  1.
</event>
<event>
 7    1  0.2468912E-015  0.9000774E+02  0.7816164E-02  0.1186339E+00
        -11   -1    0    0    0    0  0.00000000000E+00  0.00000000000E+00  0.45593999997E+02  0.45594000000E+02  0.51100000000E-03 0. -1.
         11   -1    0    0    0    0 -0.00000000000E+00 -0.00000000000E+00 -0.45593999997E+02  0.45594000000E+02  0.51100000000E-03 0.  1.
    9900012    2    1    2    0    0 -0.70353305233E+00 -0.82368325523E+00 -0.46862710938E+00  0.90007735526E+02  0.89999996835E+02 0.  0.
         12    1    1    2    0    0  0.70353305233E+00  0.82368325523E+00  0.46862710938E+00  0.11802644739E+01  0.00000000000E+00 0. -1.
         11    1    3    3    0    0 -0.42353607361E+01  0.18556439401E+02  0.33822743220E+02  0.38810535722E+02  0.51100000000E-03 0. -1.
        -11    1    3    3    0    0 -0.98948225245E+01  0.25838261399E+01 -0.29593828643E+01  0.10646202023E+02  0.51100000000E-03 0.  1.
        -12    1    3    3    0    0  0.13426650208E+02 -0.21963948796E+02 -0.31331987465E+02  0.40550997781E+02  0.00000000000E+00 0.  1.
</event>
<event>
 7    1  0.2468912E-015  0.9000776E+02  0.7816164E-02  0.1186339E+00
        -11   -1    0    0    0    0  0.00000000000E+00  0.00000000000E+00  0.45593999997E+02  0.45594000000E+02  0.51100000000E-03 0.  1.
         11   -1    0    0    0    0 -0.00000000000E+00 -0.00000000000E+00 -0.45593999997E+02  0.45594000000E+02  0.51100000000E-03 0. -1.
    9900012    2    1    2    0    0  0.42235964315E+00  0.34861135364E+00  0.10454934831E+01  0.90007756734E+02  0.90000018323E+02 0.  0.
         12    1    1    2    0    0 -0.42235964315E+00 -0.34861135364E+00 -0.10454934831E+01  0.11802432661E+01  0.00000000000E+00 0. -1.
         11    1    3    3    0    0  0.16320207378E+02 -0.25753917813E+02  0.19204465173E+02  0.36033663905E+02  0.51100000000E-03 0. -1.
        -11    1    3    3    0    0  0.64264396591E+01 -0.78774087065E+01 -0.39113323352E+01  0.10892713873E+02  0.51100000000E-03 0.  1.
        -12    1    3    3    0    0 -0.22324287394E+02  0.33979937873E+02 -0.14247639355E+02  0.43081378956E+02  0.00000000000E+00 0.  1.
</event>
<event>
 7    1  0.2468912E-015  0.9000772E+02  0.7816164E-02  0.1186339E+00
        -11   -1    0    0    0    0  0.00000000000E+00  0.00000000000E+00  0.45593999997E+02  0.45594000000E+02  0.51100000000E-03 0.  1.
         11   -1    0    0    0    0 -0.00000000000E+00 -0.00000000000E+00 -0.45593999997E+02  0.45594000000E+02  0.51100000000E-03 0. -1.
    9900012    2    1    2    0    0 -0.28620842494E+00  0.66217174981E+00  0.93417486629E+00  0.90007716403E+02  0.89999977459E+02 0.  0.
         12    1    1    2    0    0  0.28620842494E+00 -0.66217174981E+00 -0.93417486629E+00  0.11802835971E+01  0.00000000000E+00 0. -1.
         11    1    3    3    0    0 -0.53508090425E+01 -0.51397368341E+01  0.62546108757E+01  0.97040305853E+01  0.51100000000E-03 0. -1.
        -11    1    3    3    0    0 -0.11548751484E+02 -0.29777371292E+01  0.34375135551E+02  0.36385306425E+02  0.51100000000E-03 0.  1.
         12    1    3    3    0    0  0.16613352102E+02  0.87796457131E+01 -0.39695571561E+02  0.43918379392E+02  0.00000000000E+00 0. -1.
</event>
<event>
 7    1  0.2468912E-015  0.9000763E+02  0.7816164E-02  0.1186339E+00
        -11   -1    0    0    0    0  0.00000000000E+00  0.00000000000E+00  0.45593999997E+02  0.45594000000E+02  0.51100000000E-03 0.  1.
         11   -1    0    0    0    0 -0.00000000000E+00 -0.00000000000E+00 -0.45593999997E+02  0.45594000000E+02  0.51100000000E-03 0. -1.
    9900012    2    1    2    0    0  0.40394130361E+00 -0.28341751693E+00  0.10722748781E+01  0.90007632481E+02  0.89999892430E+02 0.  0.
         12    1    1    2    0    0 -0.40394130361E+00  0.28341751693E+00 -0.10722748781E+01  0.11803675190E+01  0.00000000000E+00 0. -1.
         11    1    3    3    0    0  0.81473077459E+01  0.22161246470E+02  0.29190538281E+02  0.37544466890E+02  0.51100000000E-03 0. -1.
        -11    1    3    3    0    0 -0.18768172435E+01  0.94336160605E+01 -0.10078802895E+00  0.96190287156E+01  0.51100000000E-03 0.  1.
        -12    1    3    3    0    0 -0.58665491988E+01 -0.31878280048E+02 -0.28017475374E+02  0.42844136876E+02  0.00000000000E+00 0.  1.
</event>
<event>
 7    1  0.2468912E-015  0.9000783E+02  0.7816164E-02  0.1186339E+00
        -11   -1    0    0    0    0  0.00000000000E+00  0.00000000000E+00  0.45593999997E+02  0.45594000000E+02  0.51100000000E-03 0. -1.
         11   -1    0    0    0    0 -0.00000000000E+00 -0.00000000000E+00 -0.45593999997E+02  0.45594000000E+02  0.51100000000E-03 0.  1.
    9900012    2    1    2    0    0 -0.55394379892E+00  0.24510785104E+00 -0.10128479276E+01  0.90007833692E+02  0.90000096296E+02 0.  0.
         12    1    1    2    0    0  0.55394379892E+00 -0.24510785104E+00  0.10128479276E+01  0.11801663084E+01  0.00000000000E+00 0. -1.
         11    1    3    3    0    0 -0.86653129055E+00  0.39191931444E+02 -0.14214310529E+02  0.41698980694E+02  0.51100000000E-03 0. -1.
        -11    1    3    3    0    0  0.44656353121E+01 -0.41624580284E+01 -0.58302054247E+01  0.84415194801E+01  0.51100000000E-03 0.  1.
        -12    1    3    3    0    0 -0.41530478204E+01 -0.34784365565E+02  0.19031668026E+02  0.39867333518E+02  0.00000000000E+00 0.  1.
</event>
<event>
 7    1  0.2468912E-015  0.9000778E+02  0.7816164E-02  0.1186339E+00
        -11   -1    0    0    0    0  0.00000000000E+00  0.00000000000E+00  0.45593999997E+02  0.45594000000E+02  0.51100000000E-03 0. -1.
         11   -1    0    0    0    0 -0.00000000000E+00 -0.00000000000E+00 -0.45593999997E+02  0.45594000000E+02  0.51100000000E-03 0.  1.
    9900012    2    1    2    0    0 -0.59061345815E+00  0.74716098115E+00 -0.69702614580E+00  0.90007780005E+02  0.90000041901E+02 0.  0.
         12    1    1    2    0    0  0.59061345815E+00 -0.74716098115E+00  0.69702614580E+00  0.11802199950E+01  0.00000000000E+00 0. -1.
         11    1    3    3    0    0 -0.80690898168E+01  0.35249895784E+02 -0.11639231270E+02  0.37988643936E+02  0.51100000000E-03 0. -1.
        -11    1    3    3    0    0  0.56230704975E+01  0.12219060343E+01 -0.92851601679E+01  0.10923652127E+02  0.51100000000E-03 0.  1.
        -12    1    3    3    0    0  0.18554058611E+01 -0.35724640837E+02  0.20227365292E+02  0.41095483943E+02  0.00000000000E+00 0.  1.
</event>
<event>
 7    1  0.2468912E-015  0.9000773E+02  0.7816164E-02  0.1186339E+00
        -11   -1    0    0    0    0  0.00000000000E+00  0.00000000000E+00  0.45593999997E+02  0.45594000000E+02  0.51100000000E-03 0. -1.
         11   -1    0    0    0    0 -0.00000000000E+00 -0.00000000000E+00 -0.45593999997E+02  0.45594000000E+02  0.51100000000E-03 0.  1.
    9900012    2    1    2    0    0  0.43098914308E+00  0.89960856466E+00 -0.63085786488E+00  0.90007733565E+02  0.89999994848E+02 0.  0.
         12    1    1    2    0    0 -0.43098914308E+00 -0.89960856466E+00  0.63085786488E+00  0.11802664346E+01  0.00000000000E+00 0. -1.
         11    1    3    3    0    0 -0.72533832010E+01 -0.12475715807E+02 -0.15377995514E+02  0.21088807435E+02  0.51100000000E-03 0. -1.
        -11    1    3    3    0    0 -0.38611913044E+01  0.10315592163E+02 -0.25051835357E+02  0.27366305834E+02  0.51100000000E-03 0.  1.
         12    1    3    3    0    0  0.11545563648E+02  0.30597322092E+01  0.39798973006E+02  0.41552620296E+02  0.00000000000E+00 0. -1.
</event>
<event>
 7    1  0.2468912E-015  0.9000829E+02  0.7816164E-02  0.1186338E+00
        -11   -1    0    0    0    0  0.00000000000E+00  0.00000000000E+00  0.45593999997E+02  0.45594000000E+02  0.51100000000E-03 0. -1.
         11   -1    0    0    0    0 -0.00000000000E+00 -0.00000000000E+00 -0.45593999997E+02  0.45594000000E+02  0.51100000000E-03 0.  1.
    9900012    2    1    2    0    0  0.47399192152E+00 -0.16472854440E+00 -0.10676621169E+01  0.90008294007E+02  0.90000562686E+02 0.  0.
         12    1    1    2    0    0 -0.47399192152E+00  0.16472854440E+00  0.10676621169E+01  0.11797059934E+01  0.00000000000E+00 0. -1.
         11    1    3    3    0    0 -0.29994142107E+01  0.85424897153E+01 -0.30747511978E+00  0.90589821368E+01  0.51100000000E-03 0. -1.
        -11    1    3    3    0    0  0.28762331399E+02  0.24130959556E+02 -0.91917899306E+01  0.38653123017E+02  0.51100000000E-03 0.  1.
         12    1    3    3    0    0 -0.25288925267E+02 -0.32838177816E+02  0.84316029335E+01  0.42296188852E+02  0.00000000000E+00 0. -1.
</event>
<event>
 7    1  0.2468912E-015  0.9000777E+02  0.7816164E-02  0.1186339E+00
        -11   -1    0    0    0    0  0.00000000000E+00  0.00000000000E+00  0.45593999997E+02  0.45594000000E+02  0.51100000000E-03 0. -1.
         11   -1    0    0    0    0 -0.00000000000E+00 -0.00000000000E+00 -0.45593999997E+02  0.45594000000E+02  0.51100000000E-03 0.  1.
    9900012    2    1    2    0    0 -0.84852976988E-02 -0.25894119001E+00 -0.11514403985E+01  0.90007772254E+02  0.90000034048E+02 0.  0.
         12    1    1    2    0    0  0.84852976988E-02  0.25894119001E+00  0.11514403985E+01  0.11802277456E+01  0.00000000000E+00 0. -1.
         11    1    3    3    0    0 -0.72197533516E+01 -0.55634064103E+01  0.50913807989E+01  0.10440234099E+02  0.51100000000E-03 0. -1.
        -11    1    3    3    0    0 -0.29098102919E+02  0.82403201729E+01  0.18572911236E+02  0.35490216991E+02  0.51100000000E-03 0.  1.
         12    1    3    3    0    0  0.36309370973E+02 -0.29358549526E+01 -0.24815732434E+02  0.44077321164E+02  0.00000000000E+00 0. -1.
</event>
<event>
 7    1  0.2468912E-015  0.9000778E+02  0.7816164E-02  0.1186339E+00
        -11   -1    0    0    0    0  0.00000000000E+00  0.00000000000E+00  0.45593999997E+02  0.45594000000E+02  0.51100000000E-03 0. -1.
         11   -1    0    0    0    0 -0.00000000000E+00 -0.00000000000E+00 -0.45593999997E+02  0.45594000000E+02  0.51100000000E-03 0.  1.
    9900012    2    1    2    0    0  0.61144573989E+00  0.34166657897E+00 -0.94990718433E+00  0.90007777308E+02  0.90000039168E+02 0.  0.
         12    1    1    2    0    0 -0.61144573989E+00 -0.34166657897E+00  0.94990718433E+00  0.11802226921E+01  0.00000000000E+00 0. -1.
         11    1    3    3    0    0 -0.29269626140E+01 -0.32949411247E+01 -0.87708632829E+01  0.98158947706E+01  0.51100000000E-03 0. -1.
        -11    1    3    3    0    0  0.11234175296E+02 -0.26536496916E+02 -0.22628616371E+02  0.36639413781E+02  0.51100000000E-03 0.  1.
         12    1    3    3    0    0 -0.76957669416E+01  0.30173104619E+02  0.30449572469E+02  0.43552468756E+02  0.00000000000E+00 0. -1.
</event>
<event>
 7    1  0.2468912E-015  0.9000769E+02  0.7816164E-02  0.1186339E+00
        -11   -1    0    0    0    0  0.00000000000E+00  0.00000000000E+00  0.45593999997E+02  0.45594000000E+02  0.51100000000E-03 0.  1.
         11   -1    0    0    0    0 -0.00000000000E+00 -0.00000000000E+00 -0.45593999997E+02  0.45594000000E+02  0.51100000000E-03 0. -1.
    9900012    2    1    2    0    0 -0.93593775874E+00  0.40700885781E+00  0.59286281477E+00  0.90007694101E+02  0.89999954863E+02 0.  0.
         12    1    1    2    0    0  0.93593775874E+00 -0.40700885781E+00 -0.59286281477E+00  0.11803058992E+01  0.00000000000E+00 0. -1.
         11    1    3    3    0    0 -0.30406558695E+02  0.12425522123E+02 -0.17107378368E+02  0.37035318368E+02  0.51100000000E-03 0. -1.
        -11    1    3    3    0    0 -0.62493748566E+01 -0.17316383058E+01 -0.60436166869E+01  0.88644548754E+01  0.51100000000E-03 0.  1.
        -12    1    3    3    0    0  0.35719995793E+02 -0.10286874959E+02  0.23743857870E+02  0.44107920858E+02  0.00000000000E+00 0.  1.
</event>
<event>
 7    1  0.2468912E-015  0.9000773E+02  0.7816164E-02  0.1186339E+00
        -11   -1    0    0    0    0  0.00000000000E+00  0.00000000000E+00  0.45593999997E+02  0.45594000000E+02  0.51100000000E-03 0.  1.
         11   -1    0    0    0    0 -0.00000000000E+00 -0.00000000000E+00 -0.45593999997E+02  0.45594000000E+02  0.51100000000E-03 0. -1.
    9900012    2    1    2    0    0 -0.89285744754E-01  0.50461260108E+00 -0.10632208608E+01  0.90007726972E+02  0.89999988168E+02 0.  0.
         12    1    1    2    0    0  0.89285744754E-01 -0.50461260108E+00  0.10632208608E+01  0.11802730278E+01  0.00000000000E+00 0. -1.
         11    1    3    3    0    0  0.33100283952E+01 -0.56806636836E+01 -0.57329139951E+01  0.87231032895E+01  0.51100000000E-03 0. -1.
        -11    1    3    3    0    0  0.21257384676E+02  0.18204799803E+01  0.35591084248E+02  0.41495973646E+02  0.51100000000E-03 0.  1.
         12    1    3    3    0    0 -0.24656698816E+02  0.43647963043E+01 -0.30921391114E+02  0.39788650036E+02  0.00000000000E+00 0. -1.
</event>
<event>
 7    1  0.2537767E-015  0.9000770E+02  0.7816164E-02  0.1186339E+00
        -11   -1    0    0    0    0  0.00000000000E+00  0.00000000000E+00  0.45593999997E+02  0.45594000000E+02  0.51100000000E-03 0. -1.
         11   -1    0    0    0    0 -0.00000000000E+00 -0.00000000000E+00 -0.45593999997E+02  0.45594000000E+02  0.51100000000E-03 0.  1.
    9900012    2    1    2    0    0  0.68907605749E-01  0.36365752753E+00 -0.11207642852E+01  0.90007700191E+02  0.89999961034E+02 0.  0.
         12    1    1    2    0    0 -0.68907605749E-01 -0.36365752753E+00  0.11207642852E+01  0.11802998087E+01  0.00000000000E+00 0. -1.
         11    1    3    3    0    0 -0.26491795597E+02  0.24592645589E+02  0.10468460529E+02  0.37632460950E+02  0.51100000000E-03 0. -1.
        -11    1    3    3    0    0  0.28292407335E+01  0.94504599505E+01 -0.18015383288E+01  0.10028027574E+02  0.51100000000E-03 0.  1.
        -12    1    3    3    0    0  0.23731462470E+02 -0.33679448012E+02 -0.97876864857E+01  0.42347211668E+02  0.00000000000E+00 0.  1.
</event>
<event>
 7    1  0.2468912E-015  0.9000773E+02  0.7816164E-02  0.1186339E+00
        -11   -1    0    0    0    0  0.00000000000E+00  0.00000000000E+00  0.45593999997E+02  0.45594000000E+02  0.51100000000E-03 0. -1.
         11   -1    0    0    0    0 -0.00000000000E+00 -0.00000000000E+00 -0.45593999997E+02  0.45594000000E+02  0.51100000000E-03 0.  1.
    9900012    2    1    2    0    0  0.64246288476E+00  0.16131406698E+00  0.97685887982E+00  0.90007731362E+02  0.89999992616E+02 0.  0.
         12    1    1    2    0    0 -0.64246288476E+00 -0.16131406698E+00 -0.97685887982E+00  0.11802686379E+01  0.00000000000E+00 0. -1.
         11    1    3    3    0    0  0.34656158093E+01  0.36169228952E+02  0.10001666355E+02  0.37686296529E+02  0.51100000000E-03 0. -1.
        -11    1    3    3    0    0  0.75244337460E+01  0.48913944706E+01 -0.40331766004E+01  0.98391746003E+01  0.51100000000E-03 0.  1.
        -12    1    3    3    0    0 -0.10347586671E+02 -0.40899309356E+02 -0.49916308746E+01  0.42482260233E+02  0.00000000000E+00 0.  1.
</event>
<event>
 7    1  0.2468912E-015  0.9000769E+02  0.7816164E-02  0.1186339E+00
        -11   -1    0    0    0    0  0.00000000000E+00  0.00000000000E+00  0.45593999997E+02  0.45594000000E+02  0.51100000000E-03 0.  1.
         11   -1    0    0    0    0 -0.00000000000E+00 -0.00000000000E+00 -0.45593999997E+02  0.45594000000E+02  0.51100000000E-03 0. -1.
    9900012    2    1    2    0    0  0.50515545771E+00  0.10422387352E+01  0.22735139776E+00  0.90007689754E+02  0.89999950459E+02 0.  0.
         12    1    1    2    0    0 -0.50515545771E+00 -0.10422387352E+01 -0.22735139776E+00  0.11803102455E+01  0.00000000000E+00 0. -1.
         11    1    3    3    0    0 -0.15525472904E+02  0.33409268663E+02 -0.16174768600E+02  0.40234844116E+02  0.51100000000E-03 0. -1.
        -11    1    3    3    0    0 -0.87073409925E+01 -0.51790816805E+01  0.49242210206E+01  0.11264485214E+02  0.51100000000E-03 0.  1.
        -12    1    3    3    0    0  0.24737969354E+02 -0.27187948248E+02  0.11477898977E+02  0.38508360425E+02  0.00000000000E+00 0.  1.
</event>
<event>
 7    1  0.3548871E-015  0.9000776E+02  0.7816164E-02  0.1186339E+00
        -11   -1    0    0    0    0  0.00000000000E+00  0.00000000000E+00  0.45593999997E+02  0.45594000000E+02  0.51100000000E-03 0. -1.
         11   -1    0    0    0    0 -0.00000000000E+00 -0.00000000000E+00 -0.45593999997E+02  0.45594000000E+02  0.51100000000E-03 0.  1.
    9900012    2    1    2    0    0  0.22286079715E+00 -0.67717729687E+00 -0.94060307475E+00  0.90007758427E+02  0.90000020038E+02 0.  0.
         12    1    1    2    0    0 -0.22286079715E+00  0.67717729687E+00  0.94060307475E+00  0.11802415730E+01  0.00000000000E+00 0. -1.
         11    1    3    3    0    0 -0.80552451841E+00 -0.35351244246E+02  0.10432478936E+02  0.36867274872E+02  0.51100000000E-03 0. -1.
        -11    1    3    3    0    0 -0.72135331473E+01 -0.62666879890E+01  0.93851724572E+00  0.96014193586E+01  0.51100000000E-03 0.  1.
        -12    1    3    3    0    0  0.82419184629E+01  0.40940754938E+02 -0.12311599256E+02  0.43539064196E+02  0.00000000000E+00 0.  1.
</event>
<event>
 7    1  0.2468912E-015  0.9000782E+02  0.7816164E-02  0.1186339E+00
        -11   -1    0    0    0    0  0.00000000000E+00  0.00000000000E+00  0.45593999997E+02  0.45594000000E+02  0.51100000000E-03 0. -1.
         11   -1    0    0    0    0 -0.00000000000E+00 -0.00000000000E+00 -0.45593999997E+02  0.45594000000E+02  0.51100000000E-03 0.  1.
    9900012    2    1    2    0    0  0.11442172321E+01  0.21730912414E-01 -0.28830679903E+00  0.90007819456E+02  0.90000081872E+02 0.  0.
         12    1    1    2    0    0 -0.11442172321E+01 -0.21730912414E-01  0.28830679903E+00  0.11801805443E+01  0.00000000000E+00 0. -1.
         11    1    3    3    0    0  0.33107961101E+01 -0.66536561228E+01 -0.48716616371E+01  0.88862589457E+01  0.51100000000E-03 0. -1.
        -11    1    3    3    0    0 -0.40799087380E+02 -0.37680912671E+01  0.23624271247E+01  0.41040773690E+02  0.51100000000E-03 0.  1.
         12    1    3    3    0    0  0.38632508502E+02  0.10443478302E+02  0.22209277134E+01  0.40080786820E+02  0.00000000000E+00 0. -1.
</event>
<event>
 7    1  0.2468912E-015  0.9000782E+02  0.7816164E-02  0.1186339E+00
        -11   -1    0    0    0    0  0.00000000000E+00  0.00000000000E+00  0.45593999997E+02  0.45594000000E+02  0.51100000000E-03 0.  1.
         11   -1    0    0    0    0 -0.00000000000E+00 -0.00000000000E+00 -0.45593999997E+02  0.45594000000E+02  0.51100000000E-03 0. -1.
    9900012    2    1    2    0    0  0.54106337564E+00  0.59665980210E+00  0.86260218438E+00  0.90007815682E+02  0.90000078049E+02 0.  0.
         12    1    1    2    0    0 -0.54106337564E+00 -0.59665980210E+00 -0.86260218438E+00  0.11801843180E+01  0.00000000000E+00 0. -1.
         11    1    3    3    0    0 -0.81687137507E+01 -0.21472214401E+01  0.66740168441E+00  0.84725361919E+01  0.51100000000E-03 0. -1.
        -11    1    3    3    0    0 -0.11260779053E+02 -0.36094168030E+02  0.15616416845E+01  0.37842209709E+02  0.51100000000E-03 0.  1.
         12    1    3    3    0    0  0.19970556179E+02  0.38838049272E+02 -0.13664411845E+01  0.43693069781E+02  0.00000000000E+00 0. -1.
</event>
<event>
 7    1  0.2468912E-015  0.9000740E+02  0.7816164E-02  0.1186340E+00
        -11   -1    0    0    0    0  0.00000000000E+00  0.00000000000E+00  0.45593999997E+02  0.45594000000E+02  0.51100000000E-03 0.  1.
         11   -1    0    0    0    0 -0.00000000000E+00 -0.00000000000E+00 -0.45593999997E+02  0.45594000000E+02  0.51100000000E-03 0. -1.
    9900012    2    1    2    0    0  0.88551905870E+00 -0.67164150276E+00 -0.39820349629E+00  0.90007401704E+02  0.89999658606E+02 0.  0.
         12    1    1    2    0    0 -0.88551905870E+00  0.67164150276E+00  0.39820349629E+00  0.11805982958E+01  0.00000000000E+00 0. -1.
         11    1    3    3    0    0 -0.95121281711E+01 -0.37228730229E+01  0.14240878914E+01  0.10313505344E+02  0.51100000000E-03 0. -1.
        -11    1    3    3    0    0 -0.98889408581E+01 -0.31986678918E+02  0.13913544217E+02  0.36256385540E+02  0.51100000000E-03 0.  1.
         12    1    3    3    0    0  0.20286588088E+02  0.35037910438E+02 -0.15735835605E+02  0.43437510821E+02  0.00000000000E+00 0. -1.
</event>
<event>
 7    1  0.2468912E-015  0.9000791E+02  0.7816164E-02  0.1186339E+00
        -11   -1    0    0    0    0  0.00000000000E+00  0.00000000000E+00  0.45593999997E+02  0.45594000000E+02  0.51100000000E-03 0. -1.
         11   -1    0    0    0    0 -0.00000000000E+00 -0.00000000000E+00 -0.45593999997E+02  0.45594000000E+02  0.51100000000E-03 0.  1.
    9900012    2    1    2    0    0 -0.10037194393E+01 -0.49341631514E+00 -0.37644565925E+00  0.90007905213E+02  0.90000168761E+02 0.  0.
         12    1    1    2    0    0  0.10037194393E+01  0.49341631514E+00  0.37644565925E+00  0.11800947874E+01  0.00000000000E+00 0. -1.
         11    1    3    3    0    0 -0.13092619853E+02  0.17529462470E+02  0.19760215656E+02  0.29481602266E+02  0.51100000000E-03 0. -1.
        -11    1    3    3    0    0  0.47423727837E+01  0.63357791091E+01  0.15109523515E+02  0.17056667249E+02  0.51100000000E-03 0.  1.
        -12    1    3    3    0    0  0.73465276299E+01 -0.24358657894E+02 -0.35246184830E+02  0.43469635698E+02  0.00000000000E+00 0.  1.
</event>
<event>
 7    1  0.2468912E-015  0.9000773E+02  0.7816164E-02  0.1186339E+00
        -11   -1    0    0    0    0  0.00000000000E+00  0.00000000000E+00  0.45593999997E+02  0.45594000000E+02  0.51100000000E-03 0.  1.
         11   -1    0    0    0    0 -0.00000000000E+00 -0.00000000000E+00 -0.45593999997E+02  0.45594000000E+02  0.51100000000E-03 0. -1.
    9900012    2    1    2    0    0 -0.10005340422E+01  0.51807830579E+00  0.35150098890E+00  0.90007734587E+02  0.89999995883E+02 0.  0.
         12    1    1    2    0    0  0.10005340422E+01 -0.51807830579E+00 -0.35150098890E+00  0.11802654132E+01  0.00000000000E+00 0. -1.
         11    1    3    3    0    0  0.75045737843E+01 -0.44308512479E+01  0.10129554509E+02  0.13362595006E+02  0.51100000000E-03 0. -1.
        -11    1    3    3    0    0  0.16886887351E+02  0.54963816136E+01  0.26778399022E+02  0.32131912948E+02  0.51100000000E-03 0.  1.
         12    1    3    3    0    0 -0.25391995178E+02 -0.54745205991E+00 -0.36556452542E+02  0.44513226633E+02  0.00000000000E+00 0. -1.
</event>
<event>
 7    1  0.2468912E-015  0.9000778E+02  0.7816164E-02  0.1186339E+00
        -11   -1    0    0    0    0  0.00000000000E+00  0.00000000000E+00  0.45593999997E+02  0.45594000000E+02  0.51100000000E-03 0.  1.
         11   -1    0    0    0    0 -0.00000000000E+00 -0.00000000000E+00 -0.45593999997E+02  0.45594000000E+02  0.51100000000E-03 0. -1.
    9900012    2    1    2    0    0  0.11628786780E+01 -0.62561764659E-01  0.19164928660E+00  0.90007775342E+02  0.90000037177E+02 0.  0.
         12    1    1    2    0    0 -0.11628786780E+01  0.62561764659E-01 -0.19164928660E+00  0.11802246580E+01  0.00000000000E+00 0. -1.
         11    1    3    3    0    0 -0.72797858229E+01 -0.12425983817E+01 -0.34896355688E+02  0.35669244075E+02  0.51100000000E-03 0. -1.
        -11    1    3    3    0    0 -0.33300269676E+01  0.38949453228E+01 -0.80488660329E+01  0.95416939455E+01  0.51100000000E-03 0.  1.
        -12    1    3    3    0    0  0.11772691469E+02 -0.27149087058E+01  0.43136871007E+02  0.44796837321E+02  0.00000000000E+00 0.  1.
</event>
<event>
 7    1  0.2468912E-015  0.9000775E+02  0.7816164E-02  0.1186339E+00
        -11   -1    0    0    0    0  0.00000000000E+00  0.00000000000E+00  0.45593999997E+02  0.45594000000E+02  0.51100000000E-03 0.  1.
         11   -1    0    0    0    0 -0.00000000000E+00 -0.00000000000E+00 -0.45593999997E+02  0.45594000000E+02  0.51100000000E-03 0. -1.
    9900012    2    1    2    0    0 -0.71614592481E+00  0.91533776251E+00  0.20564924891E+00  0.90007745867E+02  0.90000007312E+02 0.  0.
         12    1    1    2    0    0  0.71614592481E+00 -0.91533776251E+00 -0.20564924891E+00  0.11802541331E+01  0.00000000000E+00 0. -1.
         11    1    3    3    0    0 -0.19244505734E+02 -0.29462004308E+02 -0.44412247206E+01  0.35469496417E+02  0.51100000000E-03 0. -1.
        -11    1    3    3    0    0 -0.61753967183E+01 -0.50937508697E+01 -0.60195421844E+01  0.10015823028E+02  0.51100000000E-03 0.  1.
        -12    1    3    3    0    0  0.24703756528E+02  0.35471092940E+02  0.10666416154E+02  0.44522426422E+02  0.00000000000E+00 0.  1.
</event>
<event>
 7    1  0.2468912E-015  0.9000799E+02  0.7816164E-02  0.1186339E+00
        -11   -1    0    0    0    0  0.00000000000E+00  0.00000000000E+00  0.45593999997E+02  0.45594000000E+02  0.51100000000E-03 0.  1.
         11   -1    0    0    0    0 -0.00000000000E+00 -0.00000000000E+00 -0.45593999997E+02  0.45594000000E+02  0.51100000000E-03 0. -1.
    9900012    2    1    2    0    0 -0.59372332903E+00 -0.56681195712E+00  0.84773241268E+00  0.90007985835E+02  0.90000250448E+02 0.  0.
         12    1    1    2    0    0  0.59372332903E+00  0.56681195712E+00 -0.84773241268E+00  0.11800141650E+01  0.00000000000E+00 0. -1.
         11    1    3    3    0    0 -0.73979105389E+01  0.12406131497E+02  0.21417187666E+01  0.14602333327E+02  0.51100000000E-03 0. -1.
        -11    1    3    3    0    0 -0.21557356202E+02 -0.33812043082E+02 -0.26320120176E+01  0.40185835207E+02  0.51100000000E-03 0.  1.
         12    1    3    3    0    0  0.28361543412E+02  0.20839099628E+02  0.13380256637E+01  0.35219817300E+02  0.00000000000E+00 0. -1.
</event>
<event>
 7    1  0.2468912E-015  0.9000770E+02  0.7816164E-02  0.1186339E+00
        -11   -1    0    0    0    0  0.00000000000E+00  0.00000000000E+00  0.45593999997E+02  0.45594000000E+02  0.51100000000E-03 0.  1.
         11   -1    0    0    0    0 -0.00000000000E+00 -0.00000000000E+00 -0.45593999997E+02  0.45594000000E+02  0.51100000000E-03 0. -1.
    9900012    2    1    2    0    0 -0.10747842069E+01 -0.38788759558E+00  0.29577946245E+00  0.90007702000E+02  0.89999962866E+02 0.  0.
         12    1    1    2    0    0  0.10747842069E+01  0.38788759558E+00 -0.29577946245E+00  0.11802979999E+01  0.00000000000E+00 0. -1.
         11    1    3    3    0    0  0.59375460801E+01  0.73517251423E+01  0.29925756433E+00  0.94547274616E+01  0.51100000000E-03 0. -1.
        -11    1    3    3    0    0  0.21312335276E+02 -0.45003499268E+01  0.31350879027E+02  0.38175206619E+02  0.51100000000E-03 0.  1.
         12    1    3    3    0    0 -0.28324665563E+02 -0.32392628111E+01 -0.31354357129E+02  0.42377767919E+02  0.00000000000E+00 0. -1.
</event>
<event>
 7    1  0.2468912E-015  0.9000778E+02  0.7816164E-02  0.1186339E+00
        -11   -1    0    0    0    0  0.00000000000E+00  0.00000000000E+00  0.45593999997E+02  0.45594000000E+02  0.51100000000E-03 0. -1.
         11   -1    0    0    0    0 -0.00000000000E+00 -0.00000000000E+00 -0.45593999997E+02  0.45594000000E+02  0.51100000000E-03 0.  1.
    9900012    2    1    2    0    0  0.60682925801E+00  0.32846425544E+00 -0.95749154308E+00  0.90007779440E+02  0.90000041328E+02 0.  0.
         12    1    1    2    0    0 -0.60682925801E+00 -0.32846425544E+00  0.95749154308E+00  0.11802205601E+01  0.00000000000E+00 0. -1.
         11    1    3    3    0    0 -0.62355135446E+01  0.30132725767E+02  0.19762862425E+02  0.36570938227E+02  0.51100000000E-03 0. -1.
        -11    1    3    3    0    0  0.24179631393E+01  0.11014379895E+01  0.95729658065E+01  0.99348571193E+01  0.51100000000E-03 0.  1.
        -12    1    3    3    0    0  0.44243796633E+01 -0.30905699501E+02 -0.30293319775E+02  0.43501984093E+02  0.00000000000E+00 0.  1.
</event>
<event>
 7    1  0.2468912E-015  0.9000777E+02  0.7816164E-02  0.1186339E+00
        -11   -1    0    0    0    0  0.00000000000E+00  0.00000000000E+00  0.45593999997E+02  0.45594000000E+02  0.51100000000E-03 0. -1.
         11   -1    0    0    0    0 -0.00000000000E+00 -0.00000000000E+00 -0.45593999997E+02  0.45594000000E+02  0.51100000000E-03 0.  1.
    9900012    2    1    2    0    0  0.55821566448E+00  0.61670230302E+00 -0.83727185891E+00  0.90007766708E+02  0.90000028428E+02 0.  0.
         12    1    1    2    0    0 -0.55821566448E+00 -0.61670230302E+00  0.83727185891E+00  0.11802332923E+01  0.00000000000E+00 0. -1.
         11    1    3    3    0    0  0.12346727752E+02  0.14658554409E+02  0.33531301021E+02  0.38622053959E+02  0.51100000000E-03 0. -1.
        -11    1    3    3    0    0  0.66825367294E+01  0.66451993480E+01 -0.39390843657E+01  0.10214272241E+02  0.51100000000E-03 0.  1.
        -12    1    3    3    0    0 -0.18471048817E+02 -0.20687051454E+02 -0.30429488514E+02  0.41171440508E+02  0.00000000000E+00 0.  1.
</event>
<event>
 7    1  0.2468912E-015  0.9000780E+02  0.7816164E-02  0.1186339E+00
        -11   -1    0    0    0    0  0.00000000000E+00  0.00000000000E+00  0.45593999997E+02  0.45594000000E+02  0.51100000000E-03 0. -1.
         11   -1    0    0    0    0 -0.00000000000E+00 -0.00000000000E+00 -0.45593999997E+02  0.45594000000E+02  0.51100000000E-03 0.  1.
    9900012    2    1    2    0    0 -0.24872446093E+00  0.11049092227E+01  0.33193428535E+00  0.90007801450E+02  0.90000063629E+02 0.  0.
         12    1    1    2    0    0  0.24872446093E+00 -0.11049092227E+01 -0.33193428535E+00  0.11801985501E+01  0.00000000000E+00 0. -1.
         11    1    3    3    0    0 -0.69684109859E+01 -0.24891458474E+02  0.31059277676E+02  0.40408194548E+02  0.51100000000E-03 0. -1.
        -11    1    3    3    0    0  0.88293949734E+01  0.67697043085E+01  0.22662643209E+01  0.11354429367E+02  0.51100000000E-03 0.  1.
        -12    1    3    3    0    0 -0.21097084485E+01  0.19226663388E+02 -0.32993607712E+02  0.38245177534E+02  0.00000000000E+00 0.  1.
</event>
<event>
 7    1  0.2468912E-015  0.9000798E+02  0.7816164E-02  0.1186339E+00
        -11   -1    0    0    0    0  0.00000000000E+00  0.00000000000E+00  0.45593999997E+02  0.45594000000E+02  0.51100000000E-03 0.  1.
         11   -1    0    0    0    0 -0.00000000000E+00 -0.00000000000E+00 -0.45593999997E+02  0.45594000000E+02  0.51100000000E-03 0. -1.
    9900012    2    1    2    0    0 -0.10051368573E+01  0.48259949908E+00  0.38632376705E+00  0.90007979478E+02  0.90000244007E+02 0.  0.
         12    1    1    2    0    0  0.10051368573E+01 -0.48259949908E+00 -0.38632376705E+00  0.11800205216E+01  0.00000000000E+00 0. -1.
         11    1    3    3    0    0  0.22450979046E+01  0.16298708009E+01 -0.10189004009E+02  0.10559959583E+02  0.51100000000E-03 0. -1.
        -11    1    3    3    0    0  0.35869280429E+02  0.11282175731E+02  0.69808755101E+01  0.38244285728E+02  0.51100000000E-03 0.  1.
         12    1    3    3    0    0 -0.39119515190E+02 -0.12429447033E+02  0.35944522659E+01  0.41203734168E+02  0.00000000000E+00 0. -1.
</event>
<event>
 7    1  0.2468912E-015  0.9000767E+02  0.7816164E-02  0.1186339E+00
        -11   -1    0    0    0    0  0.00000000000E+00  0.00000000000E+00  0.45593999997E+02  0.45594000000E+02  0.51100000000E-03 0. -1.
         11   -1    0    0    0    0 -0.00000000000E+00 -0.00000000000E+00 -0.45593999997E+02  0.45594000000E+02  0.51100000000E-03 0.  1.
    9900012    2    1    2    0    0 -0.11187955760E+01 -0.13570534277E+00 -0.35078415308E+00  0.90007674196E+02  0.89999934696E+02 0.  0.
         12    1    1    2    0    0  0.11187955760E+01  0.13570534277E+00  0.35078415308E+00  0.11803258037E+01  0.00000000000E+00 0. -1.
         11    1    3    3    0    0 -0.19316408049E+02  0.38446153861E+02  0.10007002684E+02  0.44174319119E+02  0.51100000000E-03 0. -1.
        -11    1    3    3    0    0 -0.65109284081E+00 -0.92115423708E+01 -0.50759932300E+01  0.10537653547E+02  0.51100000000E-03 0.  1.
        -12    1    3    3    0    0  0.18848705314E+02 -0.29370316833E+02 -0.52817936069E+01  0.35295701531E+02  0.00000000000E+00 0.  1.
</event>
<event>
 7    1  0.2468912E-015  0.9000772E+02  0.7816164E-02  0.1186339E+00
        -11   -1    0    0    0    0  0.00000000000E+00  0.00000000000E+00  0.45593999997E+02  0.45594000000E+02  0.51100000000E-03 0. -1.
         11   -1    0    0    0    0 -0.00000000000E+00 -0.00000000000E+00 -0.45593999997E+02  0.45594000000E+02  0.51100000000E-03 0.  1.
    9900012    2    1    2    0    0  0.28622449708E-01 -0.85720415810E+00 -0.81082727419E+00  0.90007720761E+02  0.89999981875E+02 0.  0.
         12    1    1    2    0    0 -0.28622449708E-01  0.85720415810E+00  0.81082727419E+00  0.11802792389E+01  0.00000000000E+00 0. -1.
         11    1    3    3    0    0  0.12514715719E+01  0.84878919867E+01 -0.24731673381E+01  0.89290004154E+01  0.51100000000E-03 0. -1.
        -11    1    3    3    0    0  0.19102472043E+02  0.30384499005E+02  0.54051593954E+01  0.36295150727E+02  0.51100000000E-03 0.  1.
         12    1    3    3    0    0 -0.20325321165E+02 -0.39729595150E+02 -0.37428193315E+01  0.44783569619E+02  0.00000000000E+00 0. -1.
</event>
<event>
 7    1  0.2468912E-015  0.9000769E+02  0.7816164E-02  0.1186339E+00
        -11   -1    0    0    0    0  0.00000000000E+00  0.00000000000E+00  0.45593999997E+02  0.45594000000E+02  0.51100000000E-03 0.  1.
         11   -1    0    0    0    0 -0.00000000000E+00 -0.00000000000E+00 -0.45593999997E+02  0.45594000000E+02  0.51100000000E-03 0. -1.
    9900012    2    1    2    0    0  0.11329279261E+00  0.22916785893E+00  0.11522933340E+01  0.90007689409E+02  0.89999950109E+02 0.  0.
         12    1    1    2    0    0 -0.11329279261E+00 -0.22916785893E+00 -0.11522933340E+01  0.11803105913E+01  0.00000000000E+00 0. -1.
         11    1    3    3    0    0 -0.13931984466E+01 -0.55863286943E+01 -0.16259758787E+01  0.59826305261E+01  0.51100000000E-03 0. -1.
        -11    1    3    3    0    0 -0.37057152399E+02  0.20391243698E+02  0.57778053618E+01  0.42689792674E+02  0.51100000000E-03 0.  1.
         12    1    3    3    0    0  0.38563643638E+02 -0.14575747145E+02 -0.29995361492E+01  0.41335266209E+02  0.00000000000E+00 0. -1.
</event>
<event>
 7    1  0.2468912E-015  0.9000849E+02  0.7816164E-02  0.1186338E+00
        -11   -1    0    0    0    0  0.00000000000E+00  0.00000000000E+00  0.45593999997E+02  0.45594000000E+02  0.51100000000E-03 0.  1.
         11   -1    0    0    0    0 -0.00000000000E+00 -0.00000000000E+00 -0.45593999997E+02  0.45594000000E+02  0.51100000000E-03 0. -1.
    9900012    2    1    2    0    0  0.36569619587E+00  0.19616217713E+00  0.11041005814E+01  0.90008486795E+02  0.90000758017E+02 0.  0.
         12    1    1    2    0    0 -0.36569619587E+00 -0.19616217713E+00 -0.11041005814E+01  0.11795132052E+01  0.00000000000E+00 0. -1.
         11    1    3    3    0    0  0.45950033314E+01  0.90882620652E+01  0.90110721634E+00  0.10223627412E+02  0.51100000000E-03 0. -1.
        -11    1    3    3    0    0 -0.23138766510E+02  0.29200446564E+02  0.47692931951E-01  0.37256823133E+02  0.51100000000E-03 0.  1.
         12    1    3    3    0    0  0.18909459374E+02 -0.38092546452E+02  0.15530043313E+00  0.42528036249E+02  0.00000000000E+00 0. -1.
</event>
<event>
 7    1  0.2468912E-015  0.9000772E+02  0.7816164E-02  0.1186339E+00
        -11   -1    0    0    0    0  0.00000000000E+00  0.00000000000E+00  0.45593999997E+02  0.45594000000E+02  0.51100000000E-03 0.  1.
         11   -1    0    0    0    0 -0.00000000000E+00 -0.00000000000E+00 -0.45593999997E+02  0.45594000000E+02  0.51100000000E-03 0. -1.
    9900012    2    1    2    0    0 -0.21564635352E+00  0.39122068073E+00  0.10924750516E+01  0.90007720919E+02  0.89999982035E+02 0.  0.
         12    1    1    2    0    0  0.21564635352E+00 -0.39122068073E+00 -0.10924750516E+01  0.11802790810E+01  0.00000000000E+00 0. -1.
         11    1    3    3    0    0 -0.12062157863E+02  0.27280731345E+02 -0.24035469988E+02  0.38307150414E+02  0.51100000000E-03 0. -1.
        -11    1    3    3    0    0  0.51626260140E+01  0.46852540376E+01 -0.41597457082E+01  0.81183617421E+01  0.51100000000E-03 0.  1.
        -12    1    3    3    0    0  0.66838854958E+01 -0.31574764702E+02  0.29287690748E+02  0.43582208763E+02  0.00000000000E+00 0.  1.
</event>
<event>
 7    1  0.2468912E-015  0.9000774E+02  0.7816164E-02  0.1186339E+00
        -11   -1    0    0    0    0  0.00000000000E+00  0.00000000000E+00  0.45593999997E+02  0.45594000000E+02  0.51100000000E-03 0.  1.
         11   -1    0    0    0    0 -0.00000000000E+00 -0.00000000000E+00 -0.45593999997E+02  0.45594000000E+02  0.51100000000E-03 0. -1.
    9900012    2    1    2    0    0  0.49966043256E+00  0.83737251571E+00  0.66494570501E+00  0.90007743219E+02  0.90000004630E+02 0.  0.
         12    1    1    2    0    0 -0.49966043256E+00 -0.83737251571E+00 -0.66494570501E+00  0.11802567808E+01  0.00000000000E+00 0. -1.
         11    1    3    3    0    0 -0.12246035502E+02  0.63729284891E+01 -0.35928984526E+02  0.38489888703E+02  0.51100000000E-03 0. -1.
        -11    1    3    3    0    0  0.10655480301E+02 -0.22396305815E+00 -0.33470635862E+01  0.11171045377E+02  0.51100000000E-03 0.  1.
        -12    1    3    3    0    0  0.20902156338E+01 -0.53115929152E+01  0.39940993817E+02  0.40346809140E+02  0.00000000000E+00 0.  1.
</event>
<event>
 7    1  0.2468912E-015  0.9000772E+02  0.7816164E-02  0.1186339E+00
        -11   -1    0    0    0    0  0.00000000000E+00  0.00000000000E+00  0.45593999997E+02  0.45594000000E+02  0.51100000000E-03 0.  1.
         11   -1    0    0    0    0 -0.00000000000E+00 -0.00000000000E+00 -0.45593999997E+02  0.45594000000E+02  0.51100000000E-03 0. -1.
    9900012    2    1    2    0    0 -0.10927346710E+01  0.10314418567E+00 -0.43399180778E+00  0.90007721781E+02  0.89999982909E+02 0.  0.
         12    1    1    2    0    0  0.10927346710E+01 -0.10314418567E+00  0.43399180778E+00  0.11802782187E+01  0.00000000000E+00 0. -1.
         11    1    3    3    0    0 -0.28533039718E+02 -0.40372648568E+01 -0.26316875675E+02  0.39025783895E+02  0.51100000000E-03 0. -1.
        -11    1    3    3    0    0 -0.13278891304E+01  0.70649366315E+01 -0.49368650613E+01  0.87206224574E+01  0.51100000000E-03 0.  1.
        -12    1    3    3    0    0  0.28768194177E+02 -0.29245275891E+01  0.30819748928E+02  0.42261315429E+02  0.00000000000E+00 0.  1.
</event>
<event>
 7    1  0.2468912E-015  0.9000777E+02  0.7816164E-02  0.1186339E+00
        -11   -1    0    0    0    0  0.00000000000E+00  0.00000000000E+00  0.45593999997E+02  0.45594000000E+02  0.51100000000E-03 0.  1.
         11   -1    0    0    0    0 -0.00000000000E+00 -0.00000000000E+00 -0.45593999997E+02  0.45594000000E+02  0.51100000000E-03 0. -1.
    9900012    2    1    2    0    0 -0.68680450343E+00 -0.77732115621E+00 -0.56303823060E+00  0.90007770931E+02  0.90000032707E+02 0.  0.
         12    1    1    2    0    0  0.68680450343E+00  0.77732115621E+00  0.56303823060E+00  0.11802290688E+01  0.00000000000E+00 0. -1.
         11    1    3    3    0    0  0.10798995477E+02  0.33849955198E+02  0.24532935632E+01  0.35615395825E+02  0.51100000000E-03 0. -1.
        -11    1    3    3    0    0  0.75831265908E+00  0.83722005696E+01 -0.47393972491E+01  0.96504231519E+01  0.51100000000E-03 0.  1.
        -12    1    3    3    0    0 -0.12244112639E+02 -0.42999476924E+02  0.17230654553E+01  0.44741951954E+02  0.00000000000E+00 0.  1.
</event>
<event>
 7    1  0.2468912E-015  0.9000770E+02  0.7816164E-02  0.1186339E+00
        -11   -1    0    0    0    0  0.00000000000E+00  0.00000000000E+00  0.45593999997E+02  0.45594000000E+02  0.51100000000E-03 0. -1.
         11   -1    0    0    0    0 -0.00000000000E+00 -0.00000000000E+00 -0.45593999997E+02  0.45594000000E+02  0.51100000000E-03 0.  1.
    9900012    2    1    2    0    0 -0.35034689365E+00 -0.11174867706E+01 -0.14696818120E+00  0.90007695262E+02  0.89999956039E+02 0.  0.
         12    1    1    2    0    0  0.35034689365E+00  0.11174867706E+01  0.14696818120E+00  0.11803047381E+01  0.00000000000E+00 0. -1.
         11    1    3    3    0    0  0.37802949968E+02  0.84696974594E+00  0.54562004718E+01  0.38204064023E+02  0.51100000000E-03 0. -1.
        -11    1    3    3    0    0  0.16345612411E+01  0.56970592753E+01  0.71855524166E+01  0.93145283633E+01  0.51100000000E-03 0.  1.
        -12    1    3    3    0    0 -0.39787858102E+02 -0.76615157919E+01 -0.12788721070E+02  0.42489102876E+02  0.00000000000E+00 0.  1.
</event>
<event>
 7    1  0.2468912E-015  0.9000774E+02  0.7816164E-02  0.1186339E+00
        -11   -1    0    0    0    0  0.00000000000E+00  0.00000000000E+00  0.45593999997E+02  0.45594000000E+02  0.51100000000E-03 0.  1.
         11   -1    0    0    0    0 -0.00000000000E+00 -0.00000000000E+00 -0.45593999997E+02  0.45594000000E+02  0.51100000000E-03 0. -1.
    9900012    2    1    2    0    0  0.41491684437E+00 -0.46602710841E+00  0.10018319323E+01  0.90007743895E+02  0.90000005314E+02 0.  0.
         12    1    1    2    0    0 -0.41491684437E+00  0.46602710841E+00 -0.10018319323E+01  0.11802561053E+01  0.00000000000E+00 0. -1.
         11    1    3    3    0    0  0.77400783645E+01 -0.36781179826E+01  0.48254524574E+01  0.98347524962E+01  0.51100000000E-03 0. -1.
        -11    1    3    3    0    0 -0.37247138042E+02 -0.11441952094E+02  0.15179142659E+02  0.41817148781E+02  0.51100000000E-03 0.  1.
         12    1    3    3    0    0  0.29921976522E+02  0.14654042968E+02 -0.19002763184E+02  0.38355842618E+02  0.00000000000E+00 0. -1.
</event>
<event>
 7    1  0.2468912E-015  0.9000773E+02  0.7816164E-02  0.1186339E+00
        -11   -1    0    0    0    0  0.00000000000E+00  0.00000000000E+00  0.45593999997E+02  0.45594000000E+02  0.51100000000E-03 0.  1.
         11   -1    0    0    0    0 -0.00000000000E+00 -0.00000000000E+00 -0.45593999997E+02  0.45594000000E+02  0.51100000000E-03 0. -1.
    9900012    2    1    2    0    0  0.56666097339E+00  0.50358861169E+00  0.90461859838E+00  0.90007728439E+02  0.89999989655E+02 0.  0.
         12    1    1    2    0    0 -0.56666097339E+00 -0.50358861169E+00 -0.90461859838E+00  0.11802715608E+01  0.00000000000E+00 0. -1.
         11    1    3    3    0    0  0.20015936843E+02 -0.27437181696E+02 -0.17900994481E+02  0.38391174387E+02  0.51100000000E-03 0. -1.
        -11    1    3    3    0    0  0.48434269016E+01 -0.30871417503E+01  0.95398441656E+01  0.11135432426E+02  0.51100000000E-03 0.  1.
        -12    1    3    3    0    0 -0.24292702771E+02  0.31027912058E+02  0.92657689142E+01  0.40481121627E+02  0.00000000000E+00 0.  1.
</event>
<event>
 7    1  0.2468912E-015  0.9000762E+02  0.7816164E-02  0.1186339E+00
        -11   -1    0    0    0    0  0.00000000000E+00  0.00000000000E+00  0.45593999997E+02  0.45594000000E+02  0.51100000000E-03 0. -1.
         11   -1    0    0    0    0 -0.00000000000E+00 -0.00000000000E+00 -0.45593999997E+02  0.45594000000E+02  0.51100000000E-03 0.  1.
    9900012    2    1    2    0    0  0.19984249907E+00 -0.35487016111E+00 -0.11078931968E+01  0.90007619895E+02  0.89999879678E+02 0.  0.
         12    1    1    2    0    0 -0.19984249907E+00  0.35487016111E+00  0.11078931968E+01  0.11803801045E+01  0.00000000000E+00 0. -1.
         11    1    3    3    0    0 -0.74873913582E+01  0.40467858698E+01  0.21122462947E+01  0.87692126156E+01  0.51100000000E-03 0. -1.
        -11    1    3    3    0    0  0.23153874592E+02  0.18507116879E+02 -0.30409653397E+02  0.42466013514E+02  0.51100000000E-03 0.  1.
         12    1    3    3    0    0 -0.15466640735E+02 -0.22908772910E+02  0.27189513906E+02  0.38772393765E+02  0.00000000000E+00 0. -1.
</event>
<event>
 7    1  0.2468912E-015  0.9000772E+02  0.7816164E-02  0.1186339E+00
        -11   -1    0    0    0    0  0.00000000000E+00  0.00000000000E+00  0.45593999997E+02  0.45594000000E+02  0.51100000000E-03 0. -1.
         11   -1    0    0    0    0 -0.00000000000E+00 -0.00000000000E+00 -0.45593999997E+02  0.45594000000E+02  0.51100000000E-03 0.  1.
    9900012    2    1    2    0    0 -0.46825662764E+00 -0.10822813213E+01 -0.49717737026E-01  0.90007716567E+02  0.89999977626E+02 0.  0.
         12    1    1    2    0    0  0.46825662764E+00  0.10822813213E+01  0.49717737026E-01  0.11802834325E+01  0.00000000000E+00 0. -1.
         11    1    3    3    0    0 -0.25061185328E+01  0.25311669696E+01 -0.71245445398E+01  0.79653356169E+01  0.51100000000E-03 0. -1.
        -11    1    3    3    0    0 -0.15633074797E+01  0.36383343474E+02 -0.10945108269E+02  0.38026135853E+02  0.51100000000E-03 0.  1.
         12    1    3    3    0    0  0.36011693849E+01 -0.39996791765E+02  0.18019935072E+02  0.44016245097E+02  0.00000000000E+00 0. -1.
</event>
<event>
 7    1  0.2468912E-015  0.9000774E+02  0.7816164E-02  0.1186339E+00
        -11   -1    0    0    0    0  0.00000000000E+00  0.00000000000E+00  0.45593999997E+02  0.45594000000E+02  0.51100000000E-03 0. -1.
         11   -1    0    0    0    0 -0.00000000000E+00 -0.00000000000E+00 -0.45593999997E+02  0.45594000000E+02  0.51100000000E-03 0.  1.
    9900012    2    1    2    0    0  0.10147226885E+01 -0.29284611510E+00 -0.52687408197E+00  0.90007738470E+02  0.89999999817E+02 0.  0.
         12    1    1    2    0    0 -0.10147226885E+01  0.29284611510E+00  0.52687408197E+00  0.11802615303E+01  0.00000000000E+00 0. -1.
         11    1    3    3    0    0 -0.87891584937E+01  0.45628981944E+01  0.63505669354E+01  0.11764312459E+02  0.51100000000E-03 0. -1.
        -11    1    3    3    0    0  0.20649721725E+02  0.97917052211E+01 -0.36734383559E+02  0.43263187980E+02  0.51100000000E-03 0.  1.
         12    1    3    3    0    0 -0.10845840543E+02 -0.14647449531E+02  0.29856942541E+02  0.34980238032E+02  0.00000000000E+00 0. -1.
</event>
<event>
 7    1  0.2468912E-015  0.9000764E+02  0.7816164E-02  0.1186339E+00
        -11   -1    0    0    0    0  0.00000000000E+00  0.00000000000E+00  0.45593999997E+02  0.45594000000E+02  0.51100000000E-03 0.  1.
         11   -1    0    0    0    0 -0.00000000000E+00 -0.00000000000E+00 -0.45593999997E+02  0.45594000000E+02  0.51100000000E-03 0. -1.
    9900012    2    1    2    0    0 -0.98117483121E+00 -0.79231415353E-01 -0.65136403346E+00  0.90007637017E+02  0.89999897026E+02 0.  0.
         12    1    1    2    0    0  0.98117483121E+00  0.79231415353E-01  0.65136403346E+00  0.11803629826E+01  0.00000000000E+00 0. -1.
         11    1    3    3    0    0  0.91029223993E+01  0.29513215527E+01  0.20991503606E+02  0.23069822691E+02  0.51100000000E-03 0. -1.
        -11    1    3    3    0    0  0.15712861689E+02  0.15446580705E+02  0.80714085284E+01  0.23465688011E+02  0.51100000000E-03 0.  1.
         12    1    3    3    0    0 -0.25796958919E+02 -0.18477133673E+02 -0.29714276167E+02  0.43472126316E+02  0.00000000000E+00 0. -1.
</event>
<event>
 7    1  0.2468912E-015  0.9000771E+02  0.7816164E-02  0.1186339E+00
        -11   -1    0    0    0    0  0.00000000000E+00  0.00000000000E+00  0.45593999997E+02  0.45594000000E+02  0.51100000000E-03 0. -1.
         11   -1    0    0    0    0 -0.00000000000E+00 -0.00000000000E+00 -0.45593999997E+02  0.45594000000E+02  0.51100000000E-03 0.  1.
    9900012    2    1    2    0    0 -0.10757528822E+01 -0.42550756107E+00 -0.23405753077E+00  0.90007710258E+02  0.89999971233E+02 0.  0.
         12    1    1    2    0    0  0.10757528822E+01  0.42550756107E+00  0.23405753077E+00  0.11802897423E+01  0.00000000000E+00 0. -1.
         11    1    3    3    0    0  0.26666454213E+02  0.30591809798E+02  0.48004738190E+01  0.40865672100E+02  0.51100000000E-03 0. -1.
        -11    1    3    3    0    0 -0.14494822725E+02 -0.26106245404E+01  0.60131150199E+01  0.15908261968E+02  0.51100000000E-03 0.  1.
        -12    1    3    3    0    0 -0.13247384370E+02 -0.28406692819E+02 -0.11047646370E+02  0.33233776190E+02  0.00000000000E+00 0.  1.
</event>
<event>
 7    1  0.2468912E-015  0.9000774E+02  0.7816164E-02  0.1186339E+00
        -11   -1    0    0    0    0  0.00000000000E+00  0.00000000000E+00  0.45593999997E+02  0.45594000000E+02  0.51100000000E-03 0. -1.
         11   -1    0    0    0    0 -0.00000000000E+00 -0.00000000000E+00 -0.45593999997E+02  0.45594000000E+02  0.51100000000E-03 0.  1.
    9900012    2    1    2    0    0 -0.10212292736E-01 -0.11199643084E+01 -0.37228441585E+00  0.90007737305E+02  0.89999998637E+02 0.  0.
         12    1    1    2    0    0  0.10212292736E-01  0.11199643084E+01  0.37228441585E+00  0.11802626950E+01  0.00000000000E+00 0. -1.
         11    1    3    3    0    0  0.67098670325E+01  0.23823305863E+02 -0.25871918077E+02  0.35804027191E+02  0.51100000000E-03 0. -1.
        -11    1    3    3    0    0  0.57331134566E+01  0.94765730555E+01  0.41419622031E+01  0.11824968412E+02  0.51100000000E-03 0.  1.
        -12    1    3    3    0    0 -0.12453192782E+02 -0.34419843226E+02  0.21357671458E+02  0.42378741703E+02  0.00000000000E+00 0.  1.
</event>
<event>
 7    1  0.2468912E-015  0.9000771E+02  0.7816164E-02  0.1186339E+00
        -11   -1    0    0    0    0  0.00000000000E+00  0.00000000000E+00  0.45593999997E+02  0.45594000000E+02  0.51100000000E-03 0. -1.
         11   -1    0    0    0    0 -0.00000000000E+00 -0.00000000000E+00 -0.45593999997E+02  0.45594000000E+02  0.51100000000E-03 0.  1.
    9900012    2    1    2    0    0  0.66329122192E+00  0.81452760911E+00  0.53821493398E+00  0.90007709448E+02  0.89999970413E+02 0.  0.
         12    1    1    2    0    0 -0.66329122192E+00 -0.81452760911E+00 -0.53821493398E+00  0.11802905516E+01  0.00000000000E+00 0. -1.
         11    1    3    3    0    0 -0.38386876373E+01  0.57156403013E+01 -0.64717865291E+01  0.94492374280E+01  0.51100000000E-03 0. -1.
        -11    1    3    3    0    0 -0.11976579888E+02 -0.11939331694E+02 -0.32799305876E+02  0.36902311219E+02  0.51100000000E-03 0.  1.
         12    1    3    3    0    0  0.16478558747E+02  0.70382190020E+01  0.39809307339E+02  0.43656160801E+02  0.00000000000E+00 0. -1.
</event>
<event>
 7    1  0.2468912E-015  0.9000801E+02  0.7816164E-02  0.1186338E+00
        -11   -1    0    0    0    0  0.00000000000E+00  0.00000000000E+00  0.45593999997E+02  0.45594000000E+02  0.51100000000E-03 0. -1.
         11   -1    0    0    0    0 -0.00000000000E+00 -0.00000000000E+00 -0.45593999997E+02  0.45594000000E+02  0.51100000000E-03 0.  1.
    9900012    2    1    2    0    0 -0.15438752647E+00  0.95956312064E+00 -0.66915569586E+00  0.90008014307E+02  0.90000279295E+02 0.  0.
         12    1    1    2    0    0  0.15438752647E+00 -0.95956312064E+00  0.66915569586E+00  0.11799856932E+01  0.00000000000E+00 0. -1.
         11    1    3    3    0    0  0.61392600940E+01  0.84666858740E+01 -0.13847082175E+01  0.10549535596E+02  0.51100000000E-03 0. -1.
        -11    1    3    3    0    0 -0.19293267984E+02 -0.24364670903E+02 -0.29265281903E+02  0.42688688230E+02  0.51100000000E-03 0.  1.
         12    1    3    3    0    0  0.12999620363E+02  0.16857548149E+02  0.29980834424E+02  0.36769790480E+02  0.00000000000E+00 0. -1.
</event>
<event>
 7    1  0.2468912E-015  0.9000773E+02  0.7816164E-02  0.1186339E+00
        -11   -1    0    0    0    0  0.00000000000E+00  0.00000000000E+00  0.45593999997E+02  0.45594000000E+02  0.51100000000E-03 0. -1.
         11   -1    0    0    0    0 -0.00000000000E+00 -0.00000000000E+00 -0.45593999997E+02  0.45594000000E+02  0.51100000000E-03 0.  1.
    9900012    2    1    2    0    0  0.10669381593E+01 -0.46228728677E+00  0.20240051252E+00  0.90007732006E+02  0.89999993268E+02 0.  0.
         12    1    1    2    0    0 -0.10669381593E+01  0.46228728677E+00 -0.20240051252E+00  0.11802679944E+01  0.00000000000E+00 0. -1.
         11    1    3    3    0    0  0.21844894253E+02 -0.94463068336E+01  0.17234805545E+02  0.29384870940E+02  0.51100000000E-03 0. -1.
        -11    1    3    3    0    0  0.13324032023E+02 -0.11403406714E+02 -0.37715583665E+00  0.17541657870E+02  0.51100000000E-03 0.  1.
        -12    1    3    3    0    0 -0.34101988116E+02  0.20387426261E+02 -0.16655249196E+02  0.43081203196E+02  0.00000000000E+00 0.  1.
</event>
<event>
 7    1  0.2468912E-015  0.9000776E+02  0.7816164E-02  0.1186339E+00
        -11   -1    0    0    0    0  0.00000000000E+00  0.00000000000E+00  0.45593999997E+02  0.45594000000E+02  0.51100000000E-03 0. -1.
         11   -1    0    0    0    0 -0.00000000000E+00 -0.00000000000E+00 -0.45593999997E+02  0.45594000000E+02  0.51100000000E-03 0.  1.
    9900012    2    1    2    0    0 -0.61345380509E+00  0.98928956929E+00 -0.19480954752E+00  0.90007758422E+02  0.90000020033E+02 0.  0.
         12    1    1    2    0    0  0.61345380509E+00 -0.98928956929E+00  0.19480954752E+00  0.11802415781E+01  0.00000000000E+00 0. -1.
         11    1    3    3    0    0  0.10463076565E+02 -0.32828470993E+02  0.75152176595E+01  0.35265606130E+02  0.51100000000E-03 0. -1.
        -11    1    3    3    0    0  0.12089414445E+02 -0.11496080746E+01 -0.31793100389E+01  0.12553228785E+02  0.51100000000E-03 0.  1.
        -12    1    3    3    0    0 -0.23165944815E+02  0.34967368637E+02 -0.45307171681E+01  0.42188923507E+02  0.00000000000E+00 0.  1.
</event>
<event>
 7    1  0.2468912E-015  0.9000764E+02  0.7816164E-02  0.1186339E+00
        -11   -1    0    0    0    0  0.00000000000E+00  0.00000000000E+00  0.45593999997E+02  0.45594000000E+02  0.51100000000E-03 0.  1.
         11   -1    0    0    0    0 -0.00000000000E+00 -0.00000000000E+00 -0.45593999997E+02  0.45594000000E+02  0.51100000000E-03 0. -1.
    9900012    2    1    2    0    0 -0.72009364450E+00  0.29379647587E-01  0.93479551122E+00  0.90007643838E+02  0.89999903937E+02 0.  0.
         12    1    1    2    0    0  0.72009364450E+00 -0.29379647587E-01 -0.93479551122E+00  0.11803561616E+01  0.00000000000E+00 0. -1.
         11    1    3    3    0    0 -0.38620738624E+01 -0.77268278701E+01 -0.78271214522E+00  0.86736452554E+01  0.51100000000E-03 0. -1.
        -11    1    3    3    0    0 -0.72816200600E+01 -0.25940963695E+02 -0.25255988875E+02  0.36929941273E+02  0.51100000000E-03 0.  1.
         12    1    3    3    0    0  0.10423600278E+02  0.33697171212E+02  0.26973496531E+02  0.44404057310E+02  0.00000000000E+00 0. -1.
</event>
<event>
 7    1  0.2468912E-015  0.9000666E+02  0.7816164E-02  0.1186341E+00
        -11   -1    0    0    0    0  0.00000000000E+00  0.00000000000E+00  0.45593999997E+02  0.45594000000E+02  0.51100000000E-03 0. -1.
         11   -1    0    0    0    0 -0.00000000000E+00 -0.00000000000E+00 -0.45593999997E+02  0.45594000000E+02  0.51100000000E-03 0.  1.
    9900012    2    1    2    0    0 -0.88664613533E+00  0.78053004247E+00  0.14153838591E-01  0.90006658031E+02  0.89998905110E+02 0.  0.
         12    1    1    2    0    0  0.88664613533E+00 -0.78053004247E+00 -0.14153838591E-01  0.11813419690E+01  0.00000000000E+00 0. -1.
         11    1    3    3    0    0 -0.53412395090E+01  0.35405224989E+02  0.53549499269E+01  0.36204064481E+02  0.51100000000E-03 0. -1.
        -11    1    3    3    0    0  0.87964641063E+01  0.61439445741E+01  0.45061427044E+01  0.11637489336E+02  0.51100000000E-03 0.  1.
        -12    1    3    3    0    0 -0.43418707326E+01 -0.40768639520E+02 -0.98469387927E+01  0.42165104214E+02  0.00000000000E+00 0.  1.
</event>
<event>
 7    1  0.2468912E-015  0.9000772E+02  0.7816164E-02  0.1186339E+00
        -11   -1    0    0    0    0  0.00000000000E+00  0.00000000000E+00  0.45593999997E+02  0.45594000000E+02  0.51100000000E-03 0. -1.
         11   -1    0    0    0    0 -0.00000000000E+00 -0.00000000000E+00 -0.45593999997E+02  0.45594000000E+02  0.51100000000E-03 0.  1.
    9900012    2    1    2    0    0  0.10862869041E+01  0.31366979271E+00 -0.33858946916E+00  0.90007724267E+02  0.89999985427E+02 0.  0.
         12    1    1    2    0    0 -0.10862869041E+01 -0.31366979271E+00  0.33858946916E+00  0.11802757329E+01  0.00000000000E+00 0. -1.
         11    1    3    3    0    0  0.58746972646E+01 -0.89016906083E+00 -0.55829542718E+01  0.81531495491E+01  0.51100000000E-03 0. -1.
        -11    1    3    3    0    0 -0.15623665118E+02 -0.36177086044E+02 -0.89803649748E+01  0.40416919993E+02  0.51100000000E-03 0.  1.
         12    1    3    3    0    0  0.10835254757E+02  0.37380924898E+02  0.14224729777E+02  0.41437654725E+02  0.00000000000E+00 0. -1.
</event>
<event>
 7    1  0.2468912E-015  0.9000813E+02  0.7816164E-02  0.1186338E+00
        -11   -1    0    0    0    0  0.00000000000E+00  0.00000000000E+00  0.45593999997E+02  0.45594000000E+02  0.51100000000E-03 0.  1.
         11   -1    0    0    0    0 -0.00000000000E+00 -0.00000000000E+00 -0.45593999997E+02  0.45594000000E+02  0.51100000000E-03 0. -1.
    9900012    2    1    2    0    0  0.92948356045E+00 -0.83425452680E-01  0.72194517416E+00  0.90008125291E+02  0.90000391744E+02 0.  0.
         12    1    1    2    0    0 -0.92948356045E+00  0.83425452680E-01 -0.72194517416E+00  0.11798747094E+01  0.00000000000E+00 0. -1.
         11    1    3    3    0    0  0.28879557146E+02  0.18110054152E+02 -0.24560941744E+02  0.42014791942E+02  0.51100000000E-03 0. -1.
        -11    1    3    3    0    0 -0.63168650192E+01  0.54009085097E+01  0.24195263132E+01  0.86560212709E+01  0.51100000000E-03 0.  1.
        -12    1    3    3    0    0 -0.21633208566E+02 -0.23594388115E+02  0.22863360605E+02  0.39337312078E+02  0.00000000000E+00 0.  1.
</event>
<event>
 7    1  0.2468912E-015  0.9000769E+02  0.7816164E-02  0.1186339E+00
        -11   -1    0    0    0    0  0.00000000000E+00  0.00000000000E+00  0.45593999997E+02  0.45594000000E+02  0.51100000000E-03 0.  1.
         11   -1    0    0    0    0 -0.00000000000E+00 -0.00000000000E+00 -0.45593999997E+02  0.45594000000E+02  0.51100000000E-03 0. -1.
    9900012    2    1    2    0    0 -0.10563133895E+01 -0.47758262164E+00  0.22190397811E+00  0.90007693043E+02  0.89999953791E+02 0.  0.
         12    1    1    2    0    0  0.10563133895E+01  0.47758262164E+00 -0.22190397811E+00  0.11803069570E+01  0.00000000000E+00 0. -1.
         11    1    3    3    0    0 -0.37012681330E+02  0.54113619835E+01 -0.78747366752E+01  0.38226076122E+02  0.51100000000E-03 0. -1.
        -11    1    3    3    0    0 -0.20438144894E+01  0.71213919764E+01  0.89350515876E+01  0.11607176594E+02  0.51100000000E-03 0.  1.
        -12    1    3    3    0    0  0.38000182430E+02 -0.13010336582E+02 -0.83841093424E+00  0.40174440327E+02  0.00000000000E+00 0.  1.
</event>
<event>
 7    1  0.2468912E-015  0.9000789E+02  0.7816164E-02  0.1186339E+00
        -11   -1    0    0    0    0  0.00000000000E+00  0.00000000000E+00  0.45593999997E+02  0.45594000000E+02  0.51100000000E-03 0. -1.
         11   -1    0    0    0    0 -0.00000000000E+00 -0.00000000000E+00 -0.45593999997E+02  0.45594000000E+02  0.51100000000E-03 0.  1.
    9900012    2    1    2    0    0  0.34496678207E-01 -0.11775579700E+01 -0.69493141301E-01  0.90007888950E+02  0.90000152284E+02 0.  0.
         12    1    1    2    0    0 -0.34496678207E-01  0.11775579700E+01  0.69493141301E-01  0.11801110499E+01  0.00000000000E+00 0. -1.
         11    1    3    3    0    0  0.41366784707E+01  0.74035607126E+01  0.54257411828E+01  0.10067943566E+02  0.51100000000E-03 0. -1.
        -11    1    3    3    0    0  0.30030051760E+02  0.16603517185E+02  0.83572051705E+01  0.35317469758E+02  0.51100000000E-03 0.  1.
         12    1    3    3    0    0 -0.34132233552E+02 -0.25184635868E+02 -0.13852439495E+02  0.44622475626E+02  0.00000000000E+00 0. -1.
</event>
<event>
 7    1  0.2468912E-015  0.9000776E+02  0.7816164E-02  0.1186339E+00
        -11   -1    0    0    0    0  0.00000000000E+00  0.00000000000E+00  0.45593999997E+02  0.45594000000E+02  0.51100000000E-03 0.  1.
         11   -1    0    0    0    0 -0.00000000000E+00 -0.00000000000E+00 -0.45593999997E+02  0.45594000000E+02  0.51100000000E-03 0. -1.
    9900012    2    1    2    0    0 -0.35092018281E+00  0.14621438640E+00  0.11173388942E+01  0.90007758573E+02  0.90000020186E+02 0.  0.
         12    1    1    2    0    0  0.35092018281E+00 -0.14621438640E+00 -0.11173388942E+01  0.11802414270E+01  0.00000000000E+00 0. -1.
         11    1    3    3    0    0  0.40510125306E+01  0.32331385264E+02 -0.16305038094E+02  0.36436018486E+02  0.51100000000E-03 0. -1.
        -11    1    3    3    0    0  0.15551816365E+00  0.90997979292E+01  0.37521179913E+01  0.98442317087E+01  0.51100000000E-03 0.  1.
        -12    1    3    3    0    0 -0.45574508770E+01 -0.41284968807E+02  0.13670258997E+02  0.43727508378E+02  0.00000000000E+00 0.  1.
</event>
<event>
 7    1  0.2468912E-015  0.9000783E+02  0.7816164E-02  0.1186339E+00
        -11   -1    0    0    0    0  0.00000000000E+00  0.00000000000E+00  0.45593999997E+02  0.45594000000E+02  0.51100000000E-03 0. -1.
         11   -1    0    0    0    0 -0.00000000000E+00 -0.00000000000E+00 -0.45593999997E+02  0.45594000000E+02  0.51100000000E-03 0.  1.
    9900012    2    1    2    0    0 -0.14148671367E+00  0.10982945148E+01 -0.40809127432E+00  0.90007827208E+02  0.90000089727E+02 0.  0.
         12    1    1    2    0    0  0.14148671367E+00 -0.10982945148E+01  0.40809127432E+00  0.11801727922E+01  0.00000000000E+00 0. -1.
         11    1    3    3    0    0 -0.61256232573E+01  0.61861592116E+01  0.27526466308E+01  0.91306565929E+01  0.51100000000E-03 0. -1.
        -11    1    3    3    0    0 -0.35494822748E+02  0.57354820420E+01  0.74426517832E+01  0.36717451736E+02  0.51100000000E-03 0.  1.
         12    1    3    3    0    0  0.41478959292E+02 -0.10823346739E+02 -0.10603389688E+02  0.44159718879E+02  0.00000000000E+00 0. -1.
</event>
<event>
 7    1  0.2468912E-015  0.9000745E+02  0.7816164E-02  0.1186340E+00
        -11   -1    0    0    0    0  0.00000000000E+00  0.00000000000E+00  0.45593999997E+02  0.45594000000E+02  0.51100000000E-03 0.  1.
         11   -1    0    0    0    0 -0.00000000000E+00 -0.00000000000E+00 -0.45593999997E+02  0.45594000000E+02  0.51100000000E-03 0. -1.
    9900012    2    1    2    0    0  0.96572110242E+00  0.66737536932E+00 -0.12530312868E+00  0.90007445891E+02  0.89999703376E+02 0.  0.
         12    1    1    2    0    0 -0.96572110242E+00 -0.66737536932E+00  0.12530312868E+00  0.11805541094E+01  0.00000000000E+00 0. -1.
         11    1    3    3    0    0 -0.43234252660E+01  0.14722075414E+02  0.84797924979E+00  0.15367191663E+02  0.51100000000E-03 0. -1.
        -11    1    3    3    0    0 -0.31505089883E+02 -0.71998740564E+00  0.11528555255E+02  0.33555873658E+02  0.51100000000E-03 0.  1.
         12    1    3    3    0    0  0.36794236252E+02 -0.13334712639E+02 -0.12501837634E+02  0.41084380569E+02  0.00000000000E+00 0. -1.
</event>
<event>
 7    1  0.2468912E-015  0.9000772E+02  0.7816164E-02  0.1186339E+00
        -11   -1    0    0    0    0  0.00000000000E+00  0.00000000000E+00  0.45593999997E+02  0.45594000000E+02  0.51100000000E-03 0.  1.
         11   -1    0    0    0    0 -0.00000000000E+00 -0.00000000000E+00 -0.45593999997E+02  0.45594000000E+02  0.51100000000E-03 0. -1.
    9900012    2    1    2    0    0 -0.11700689818E+01  0.65003748497E-01  0.14058084471E+00  0.90007724658E+02  0.89999985823E+02 0.  0.
         12    1    1    2    0    0  0.11700689818E+01 -0.65003748497E-01 -0.14058084471E+00  0.11802753422E+01  0.00000000000E+00 0. -1.
         11    1    3    3    0    0 -0.11436827476E+02 -0.33344590687E+02  0.15282395519E+02  0.38421535158E+02  0.51100000000E-03 0. -1.
        -11    1    3    3    0    0  0.11702350329E+00 -0.63152148006E+01 -0.76259710525E+01  0.99020738854E+01  0.51100000000E-03 0.  1.
        -12    1    3    3    0    0  0.10149734991E+02  0.39724809236E+02 -0.75158436223E+01  0.41684115615E+02  0.00000000000E+00 0.  1.
</event>
<event>
 7    1  0.2468912E-015  0.9000748E+02  0.7816164E-02  0.1186340E+00
        -11   -1    0    0    0    0  0.00000000000E+00  0.00000000000E+00  0.45593999997E+02  0.45594000000E+02  0.51100000000E-03 0.  1.
         11   -1    0    0    0    0 -0.00000000000E+00 -0.00000000000E+00 -0.45593999997E+02  0.45594000000E+02  0.51100000000E-03 0. -1.
    9900012    2    1    2    0    0  0.45346295160E-01 -0.83851847014E+00  0.82973520902E+00  0.90007478917E+02  0.89999736838E+02 0.  0.
         12    1    1    2    0    0 -0.45346295160E-01  0.83851847014E+00 -0.82973520902E+00  0.11805210834E+01  0.00000000000E+00 0. -1.
         11    1    3    3    0    0 -0.35627175767E+02  0.78769097345E+01 -0.15206880346E+02  0.39529616368E+02  0.51100000000E-03 0. -1.
        -11    1    3    3    0    0  0.35316621794E+01  0.61665918105E+01 -0.55344042296E+01  0.90071706293E+01  0.51100000000E-03 0.  1.
        -12    1    3    3    0    0  0.32140859883E+02 -0.14882020015E+02  0.21571019785E+02  0.41470691919E+02  0.00000000000E+00 0.  1.
</event>
<event>
 7    1  0.2468912E-015  0.9000803E+02  0.7816164E-02  0.1186338E+00
        -11   -1    0    0    0    0  0.00000000000E+00  0.00000000000E+00  0.45593999997E+02  0.45594000000E+02  0.51100000000E-03 0. -1.
         11   -1    0    0    0    0 -0.00000000000E+00 -0.00000000000E+00 -0.45593999997E+02  0.45594000000E+02  0.51100000000E-03 0.  1.
    9900012    2    1    2    0    0 -0.81019359598E+00  0.74536750038E-01 -0.85461261513E+00  0.90008028766E+02  0.90000293946E+02 0.  0.
         12    1    1    2    0    0  0.81019359598E+00 -0.74536750038E-01  0.85461261513E+00  0.11799712336E+01  0.00000000000E+00 0. -1.
         11    1    3    3    0    0 -0.54348433286E+00  0.85346060907E+01 -0.35339700903E+01  0.92533140660E+01  0.51100000000E-03 0. -1.
        -11    1    3    3    0    0  0.38919290275E+02  0.26327857581E+01 -0.49479453914E+01  0.39320794501E+02  0.51100000000E-03 0.  1.
         12    1    3    3    0    0 -0.39185999538E+02 -0.11092855099E+02  0.76273028666E+01  0.41433920199E+02  0.00000000000E+00 0. -1.
</event>
<event>
 7    1  0.2468912E-015  0.9000768E+02  0.7816164E-02  0.1186339E+00
        -11   -1    0    0    0    0  0.00000000000E+00  0.00000000000E+00  0.45593999997E+02  0.45594000000E+02  0.51100000000E-03 0. -1.
         11   -1    0    0    0    0 -0.00000000000E+00 -0.00000000000E+00 -0.45593999997E+02  0.45594000000E+02  0.51100000000E-03 0.  1.
    9900012    2    1    2    0    0  0.55786365265E+00  0.45210239482E+00 -0.93678096903E+00  0.90007675039E+02  0.89999935549E+02 0.  0.
         12    1    1    2    0    0 -0.55786365265E+00 -0.45210239482E+00  0.93678096903E+00  0.11803249613E+01  0.00000000000E+00 0. -1.
         11    1    3    3    0    0 -0.10883370161E+02 -0.38671938942E+02  0.14020263193E+02  0.42550374709E+02  0.51100000000E-03 0. -1.
        -11    1    3    3    0    0  0.24530447934E+01  0.62186358364E+01  0.46215566033E+01  0.81269702917E+01  0.51100000000E-03 0.  1.
        -12    1    3    3    0    0  0.89881890205E+01  0.32905405500E+02 -0.19578600765E+02  0.39330330038E+02  0.00000000000E+00 0.  1.
</event>
<event>
 7    1  0.2468912E-015  0.9000695E+02  0.7816164E-02  0.1186341E+00
        -11   -1    0    0    0    0  0.00000000000E+00  0.00000000000E+00  0.45593999997E+02  0.45594000000E+02  0.51100000000E-03 0.  1.
         11   -1    0    0    0    0 -0.00000000000E+00 -0.00000000000E+00 -0.45593999997E+02  0.45594000000E+02  0.51100000000E-03 0. -1.
    9900012    2    1    2    0    0 -0.73441106009E+00 -0.24622377095E+00  0.89157168181E+00  0.90006947159E+02  0.89999198057E+02 0.  0.
         12    1    1    2    0    0  0.73441106009E+00  0.24622377095E+00 -0.89157168181E+00  0.11810528415E+01  0.00000000000E+00 0. -1.
         11    1    3    3    0    0 -0.19786200437E+02 -0.76853574715E+01 -0.28316940711E+02  0.35389370985E+02  0.51100000000E-03 0. -1.
        -11    1    3    3    0    0 -0.30280647990E+01 -0.71492274957E+01 -0.65317579335E+01  0.10146156522E+02  0.51100000000E-03 0.  1.
        -12    1    3    3    0    0  0.22079854176E+02  0.14588361196E+02  0.35740270326E+02  0.44471419652E+02  0.00000000000E+00 0.  1.
</event>
<event>
 7    1  0.2468912E-015  0.9000770E+02  0.7816164E-02  0.1186339E+00
        -11   -1    0    0    0    0  0.00000000000E+00  0.00000000000E+00  0.45593999997E+02  0.45594000000E+02  0.51100000000E-03 0. -1.
         11   -1    0    0    0    0 -0.00000000000E+00 -0.00000000000E+00 -0.45593999997E+02  0.45594000000E+02  0.51100000000E-03 0.  1.
    9900012    2    1    2    0    0 -0.10821894667E+01 -0.47107351361E+00  0.80472277006E-02  0.90007699591E+02  0.89999960426E+02 0.  0.
         12    1    1    2    0    0  0.10821894667E+01  0.47107351361E+00 -0.80472277006E-02  0.11803004088E+01  0.00000000000E+00 0. -1.
         11    1    3    3    0    0 -0.52246591319E+01  0.58347097871E+01 -0.48297091540E+01  0.92014668460E+01  0.51100000000E-03 0. -1.
        -11    1    3    3    0    0 -0.23644916105E+02 -0.15775928019E+02 -0.25790297222E+02  0.38381003029E+02  0.51100000000E-03 0.  1.
         12    1    3    3    0    0  0.27787385770E+02  0.94701447181E+01  0.30628053604E+02  0.42425229716E+02  0.00000000000E+00 0. -1.
</event>
<event>
 7    1  0.2468912E-015  0.9000778E+02  0.7816164E-02  0.1186339E+00
        -11   -1    0    0    0    0  0.00000000000E+00  0.00000000000E+00  0.45593999997E+02  0.45594000000E+02  0.51100000000E-03 0.  1.
         11   -1    0    0    0    0 -0.00000000000E+00 -0.00000000000E+00 -0.45593999997E+02  0.45594000000E+02  0.51100000000E-03 0. -1.
    9900012    2    1    2    0    0  0.30463506407E+00  0.11397725319E+01 -0.32312466085E-01  0.90007776274E+02  0.90000038121E+02 0.  0.
         12    1    1    2    0    0 -0.30463506407E+00 -0.11397725319E+01  0.32312466085E-01  0.11802237255E+01  0.00000000000E+00 0. -1.
         11    1    3    3    0    0 -0.53320487507E+01 -0.22516468204E+02  0.13637059952E+02  0.26858732075E+02  0.51100000000E-03 0. -1.
        -11    1    3    3    0    0 -0.11054593296E+02 -0.14182116997E+02 -0.12270222110E+02  0.21769125530E+02  0.51100000000E-03 0.  1.
        -12    1    3    3    0    0  0.16691277111E+02  0.37838357733E+02 -0.13991503082E+01  0.41379918670E+02  0.00000000000E+00 0.  1.
</event>
<event>
 7    1  0.2468912E-015  0.9000782E+02  0.7816164E-02  0.1186339E+00
        -11   -1    0    0    0    0  0.00000000000E+00  0.00000000000E+00  0.45593999997E+02  0.45594000000E+02  0.51100000000E-03 0.  1.
         11   -1    0    0    0    0 -0.00000000000E+00 -0.00000000000E+00 -0.45593999997E+02  0.45594000000E+02  0.51100000000E-03 0. -1.
    9900012    2    1    2    0    0 -0.42086177695E+00 -0.84648200184E+00 -0.70652177730E+00  0.90007818049E+02  0.90000080448E+02 0.  0.
         12    1    1    2    0    0  0.42086177695E+00  0.84648200184E+00  0.70652177730E+00  0.11801819506E+01  0.00000000000E+00 0. -1.
         11    1    3    3    0    0 -0.41157701774E+02 -0.14955423513E+01 -0.17673865104E+01  0.41222769407E+02  0.51100000000E-03 0. -1.
        -11    1    3    3    0    0  0.47289500922E+01 -0.47510581600E+01 -0.88004532900E+01  0.11062707670E+02  0.51100000000E-03 0.  1.
        -12    1    3    3    0    0  0.36007889905E+02  0.54001185095E+01  0.98613180231E+01  0.37722340973E+02  0.00000000000E+00 0.  1.
</event>
<event>
 7    1  0.2468912E-015  0.9000807E+02  0.7816164E-02  0.1186338E+00
        -11   -1    0    0    0    0  0.00000000000E+00  0.00000000000E+00  0.45593999997E+02  0.45594000000E+02  0.51100000000E-03 0. -1.
         11   -1    0    0    0    0 -0.00000000000E+00 -0.00000000000E+00 -0.45593999997E+02  0.45594000000E+02  0.51100000000E-03 0.  1.
    9900012    2    1    2    0    0 -0.67751852741E+00 -0.66076923162E+00 -0.70469153555E+00  0.90008068861E+02  0.90000334569E+02 0.  0.
         12    1    1    2    0    0  0.67751852741E+00  0.66076923162E+00  0.70469153555E+00  0.11799311390E+01  0.00000000000E+00 0. -1.
         11    1    3    3    0    0  0.22064114454E+02 -0.13904023621E+02  0.25983962323E+02  0.36814580233E+02  0.51100000000E-03 0. -1.
        -11    1    3    3    0    0 -0.52729117821E+01 -0.61661002023E+01  0.68985608133E+01  0.10649625905E+02  0.51100000000E-03 0.  1.
        -12    1    3    3    0    0 -0.17468721199E+02  0.19409354592E+02 -0.33587214672E+02  0.42543862723E+02  0.00000000000E+00 0.  1.
</event>
<event>
 7    1  0.2468912E-015  0.9000772E+02  0.7816164E-02  0.1186339E+00
        -11   -1    0    0    0    0  0.00000000000E+00  0.00000000000E+00  0.45593999997E+02  0.45594000000E+02  0.51100000000E-03 0.  1.
         11   -1    0    0    0    0 -0.00000000000E+00 -0.00000000000E+00 -0.45593999997E+02  0.45594000000E+02  0.51100000000E-03 0. -1.
    9900012    2    1    2    0    0  0.16112401108E+00  0.10984436071E+01  0.40064837539E+00  0.90007721039E+02  0.89999982157E+02 0.  0.
         12    1    1    2    0    0 -0.16112401108E+00 -0.10984436071E+01 -0.40064837539E+00  0.11802789609E+01  0.00000000000E+00 0. -1.
         11    1    3    3    0    0  0.71012360961E+01  0.97855200664E+01  0.30275011779E+01  0.12463936806E+02  0.51100000000E-03 0. -1.
        -11    1    3    3    0    0 -0.16568623694E+02  0.28261374235E+02  0.14340264164E+02  0.35761260343E+02  0.51100000000E-03 0.  1.
         12    1    3    3    0    0  0.96285116087E+01 -0.36948450694E+02 -0.16967116967E+02  0.41782523890E+02  0.00000000000E+00 0. -1.
</event>
<event>
 7    1  0.2468912E-015  0.9000767E+02  0.7816164E-02  0.1186339E+00
        -11   -1    0    0    0    0  0.00000000000E+00  0.00000000000E+00  0.45593999997E+02  0.45594000000E+02  0.51100000000E-03 0.  1.
         11   -1    0    0    0    0 -0.00000000000E+00 -0.00000000000E+00 -0.45593999997E+02  0.45594000000E+02  0.51100000000E-03 0. -1.
    9900012    2    1    2    0    0 -0.11448720189E+01  0.17882063267E+00  0.22464957202E+00  0.90007671152E+02  0.89999931612E+02 0.  0.
         12    1    1    2    0    0  0.11448720189E+01 -0.17882063267E+00 -0.22464957202E+00  0.11803288476E+01  0.00000000000E+00 0. -1.
         11    1    3    3    0    0  0.24857558129E+02 -0.17538378175E+02 -0.21760981049E+02  0.37403652249E+02  0.51100000000E-03 0. -1.
        -11    1    3    3    0    0  0.57820893136E+01 -0.44861763565E+01  0.92483989698E+01  0.11793694031E+02  0.51100000000E-03 0.  1.
        -12    1    3    3    0    0 -0.31784519461E+02  0.22203375164E+02  0.12737231651E+02  0.40810324872E+02  0.00000000000E+00 0.  1.
</event>
<event>
 7    1  0.2468912E-015  0.9000772E+02  0.7816164E-02  0.1186339E+00
        -11   -1    0    0    0    0  0.00000000000E+00  0.00000000000E+00  0.45593999997E+02  0.45594000000E+02  0.51100000000E-03 0. -1.
         11   -1    0    0    0    0 -0.00000000000E+00 -0.00000000000E+00 -0.45593999997E+02  0.45594000000E+02  0.51100000000E-03 0.  1.
    9900012    2    1    2    0    0 -0.93650837657E+00  0.29423805602E+00  0.65531099396E+00  0.90007721867E+02  0.89999982995E+02 0.  0.
         12    1    1    2    0    0  0.93650837657E+00 -0.29423805602E+00 -0.65531099396E+00  0.11802781332E+01  0.00000000000E+00 0. -1.
         11    1    3    3    0    0  0.16006322143E+02 -0.20052219911E+01  0.61890519475E+01  0.17277952079E+02  0.51100000000E-03 0. -1.
        -11    1    3    3    0    0  0.87587598913E+01 -0.36155297457E+01 -0.33188865412E+02  0.34515050598E+02  0.51100000000E-03 0.  1.
         12    1    3    3    0    0 -0.25701590411E+02  0.59149897927E+01  0.27655124459E+02  0.38214719189E+02  0.00000000000E+00 0. -1.
</event>
<event>
 7    1  0.2468912E-015  0.9000809E+02  0.7816164E-02  0.1186338E+00
        -11   -1    0    0    0    0  0.00000000000E+00  0.00000000000E+00  0.45593999997E+02  0.45594000000E+02  0.51100000000E-03 0. -1.
         11   -1    0    0    0    0 -0.00000000000E+00 -0.00000000000E+00 -0.45593999997E+02  0.45594000000E+02  0.51100000000E-03 0.  1.
    9900012    2    1    2    0    0  0.10948225083E+01 -0.19953336409E+00 -0.39209699454E+00  0.90008089011E+02  0.90000354986E+02 0.  0.
         12    1    1    2    0    0 -0.10948225083E+01  0.19953336409E+00  0.39209699454E+00  0.11799109887E+01  0.00000000000E+00 0. -1.
         11    1    3    3    0    0  0.38197720004E+02 -0.26768277855E+01  0.14777626313E+02  0.41043994203E+02  0.51100000000E-03 0. -1.
        -11    1    3    3    0    0  0.25127959931E+00 -0.20969140091E+01  0.55964211404E+01  0.59816485721E+01  0.51100000000E-03 0.  1.
        -12    1    3    3    0    0 -0.37354177095E+02  0.45742084305E+01 -0.20766144448E+02  0.42982446236E+02  0.00000000000E+00 0.  1.
</event>
<event>
 7    1  0.2468912E-015  0.9000778E+02  0.7816164E-02  0.1186339E+00
        -11   -1    0    0    0    0  0.00000000000E+00  0.00000000000E+00  0.45593999997E+02  0.45594000000E+02  0.51100000000E-03 0. -1.
         11   -1    0    0    0    0 -0.00000000000E+00 -0.00000000000E+00 -0.45593999997E+02  0.45594000000E+02  0.51100000000E-03 0.  1.
    9900012    2    1    2    0    0 -0.45838286763E+00 -0.10603509660E+01 -0.24180857187E+00  0.90007775271E+02  0.90000037105E+02 0.  0.
         12    1    1    2    0    0  0.45838286763E+00  0.10603509660E+01  0.24180857187E+00  0.11802247286E+01  0.00000000000E+00 0. -1.
         11    1    3    3    0    0 -0.80334042857E+01 -0.62076237122E+01 -0.47407892922E+01  0.11204698119E+02  0.51100000000E-03 0. -1.
        -11    1    3    3    0    0  0.32140867758E+01  0.72185461554E+01 -0.36588962444E+02  0.37432471670E+02  0.51100000000E-03 0.  1.
         12    1    3    3    0    0  0.43609346422E+01 -0.20712734092E+01  0.41087943164E+02  0.41370605482E+02  0.00000000000E+00 0. -1.
</event>
<event>
 7    1  0.2468912E-015  0.9000773E+02  0.7816164E-02  0.1186339E+00
        -11   -1    0    0    0    0  0.00000000000E+00  0.00000000000E+00  0.45593999997E+02  0.45594000000E+02  0.51100000000E-03 0.  1.
         11   -1    0    0    0    0 -0.00000000000E+00 -0.00000000000E+00 -0.45593999997E+02  0.45594000000E+02  0.51100000000E-03 0. -1.
    9900012    2    1    2    0    0 -0.15320649330E+00 -0.78638852270E+00  0.86669659271E+00  0.90007727946E+02  0.89999989155E+02 0.  0.
         12    1    1    2    0    0  0.15320649330E+00  0.78638852270E+00 -0.86669659271E+00  0.11802720543E+01  0.00000000000E+00 0. -1.
         11    1    3    3    0    0 -0.40270695886E+01 -0.38726882992E+01 -0.86655847865E+01  0.10310546256E+02  0.51100000000E-03 0. -1.
        -11    1    3    3    0    0  0.20201480209E+02 -0.30508086547E+02  0.18907419883E+02  0.41186571529E+02  0.51100000000E-03 0.  1.
         12    1    3    3    0    0 -0.16327617114E+02  0.33594386323E+02 -0.93751385038E+01  0.38510610162E+02  0.00000000000E+00 0. -1.
</event>
<event>
 7    1  0.2468912E-015  0.9000776E+02  0.7816164E-02  0.1186339E+00
        -11   -1    0    0    0    0  0.00000000000E+00  0.00000000000E+00  0.45593999997E+02  0.45594000000E+02  0.51100000000E-03 0. -1.
         11   -1    0    0    0    0 -0.00000000000E+00 -0.00000000000E+00 -0.45593999997E+02  0.45594000000E+02  0.51100000000E-03 0.  1.
    9900012    2    1    2    0    0  0.66765409765E+00  0.13776177680E+00 -0.96343941914E+00  0.90007764508E+02  0.90000026200E+02 0.  0.
         12    1    1    2    0    0 -0.66765409765E+00 -0.13776177680E+00  0.96343941914E+00  0.11802354916E+01  0.00000000000E+00 0. -1.
         11    1    3    3    0    0 -0.77610187127E+01 -0.16661284891E+01 -0.58240968863E+01  0.98452780765E+01  0.51100000000E-03 0. -1.
        -11    1    3    3    0    0 -0.35837626554E+01 -0.34371812465E+02 -0.14419668214E+02  0.37445849951E+02  0.51100000000E-03 0.  1.
         12    1    3    3    0    0  0.12012435466E+02  0.36175702731E+02  0.19280325681E+02  0.42716636481E+02  0.00000000000E+00 0. -1.
</event>
<event>
 7    1  0.2468912E-015  0.9000772E+02  0.7816164E-02  0.1186339E+00
        -11   -1    0    0    0    0  0.00000000000E+00  0.00000000000E+00  0.45593999997E+02  0.45594000000E+02  0.51100000000E-03 0.  1.
         11   -1    0    0    0    0 -0.00000000000E+00 -0.00000000000E+00 -0.45593999997E+02  0.45594000000E+02  0.51100000000E-03 0. -1.
    9900012    2    1    2    0    0  0.88726443162E+00 -0.99045884834E-02  0.77828621503E+00  0.90007717955E+02  0.89999979032E+02 0.  0.
         12    1    1    2    0    0 -0.88726443162E+00  0.99045884834E-02 -0.77828621503E+00  0.11802820447E+01  0.00000000000E+00 0. -1.
         11    1    3    3    0    0 -0.26573124672E+02 -0.26308786002E+02 -0.32539483923E+01  0.37534935142E+02  0.51100000000E-03 0. -1.
        -11    1    3    3    0    0 -0.68130945521E+01 -0.12408358786E+01 -0.36677956484E+01  0.78364951498E+01  0.51100000000E-03 0.  1.
        -12    1    3    3    0    0  0.34273483655E+02  0.27539717292E+02  0.77000302557E+01  0.44636287663E+02  0.00000000000E+00 0.  1.
</event>
<event>
 7    1  0.2468912E-015  0.9000775E+02  0.7816164E-02  0.1186339E+00
        -11   -1    0    0    0    0  0.00000000000E+00  0.00000000000E+00  0.45593999997E+02  0.45594000000E+02  0.51100000000E-03 0.  1.
         11   -1    0    0    0    0 -0.00000000000E+00 -0.00000000000E+00 -0.45593999997E+02  0.45594000000E+02  0.51100000000E-03 0. -1.
    9900012    2    1    2    0    0 -0.24839798993E-01  0.20217965530E+00  0.11625416553E+01  0.90007747176E+02  0.90000008639E+02 0.  0.
         12    1    1    2    0    0  0.24839798993E-01 -0.20217965530E+00 -0.11625416553E+01  0.11802528242E+01  0.00000000000E+00 0. -1.
         11    1    3    3    0    0  0.14053477553E+02 -0.27623002149E+02 -0.27542366559E+02  0.41462180779E+02  0.51100000000E-03 0. -1.
        -11    1    3    3    0    0  0.31769776753E+01 -0.13700084825E+01  0.82378737994E+01  0.89349132837E+01  0.51100000000E-03 0.  1.
        -12    1    3    3    0    0 -0.17255295027E+02  0.29195190287E+02  0.20467034415E+02  0.39610653113E+02  0.00000000000E+00 0.  1.
</event>
<event>
 7    1  0.2468912E-015  0.9000772E+02  0.7816164E-02  0.1186339E+00
        -11   -1    0    0    0    0  0.00000000000E+00  0.00000000000E+00  0.45593999997E+02  0.45594000000E+02  0.51100000000E-03 0.  1.
         11   -1    0    0    0    0 -0.00000000000E+00 -0.00000000000E+00 -0.45593999997E+02  0.45594000000E+02  0.51100000000E-03 0. -1.
    9900012    2    1    2    0    0  0.31487385672E-01  0.88493047672E+00  0.78036141265E+00  0.90007721500E+02  0.89999982623E+02 0.  0.
         12    1    1    2    0    0 -0.31487385672E-01 -0.88493047672E+00 -0.78036141265E+00  0.11802785004E+01  0.00000000000E+00 0. -1.
         11    1    3    3    0    0 -0.50890140788E+01 -0.21746793908E+00  0.87146519348E+01  0.10094083178E+02  0.51100000000E-03 0. -1.
        -11    1    3    3    0    0 -0.14094101469E+02 -0.20267445133E+02  0.25725916467E+02  0.35654393934E+02  0.51100000000E-03 0.  1.
         12    1    3    3    0    0  0.19214602934E+02  0.21369843549E+02 -0.33660206990E+02  0.44259244388E+02  0.00000000000E+00 0. -1.
</event>
<event>
 7    1  0.2468912E-015  0.9000763E+02  0.7816164E-02  0.1186339E+00
        -11   -1    0    0    0    0  0.00000000000E+00  0.00000000000E+00  0.45593999997E+02  0.45594000000E+02  0.51100000000E-03 0.  1.
         11   -1    0    0    0    0 -0.00000000000E+00 -0.00000000000E+00 -0.45593999997E+02  0.45594000000E+02  0.51100000000E-03 0. -1.
    9900012    2    1    2    0    0  0.48454885951E+00 -0.10162508601E+01  0.35457940460E+00  0.90007627194E+02  0.89999887072E+02 0.  0.
         12    1    1    2    0    0 -0.48454885951E+00  0.10162508601E+01 -0.35457940460E+00  0.11803728064E+01  0.00000000000E+00 0. -1.
         11    1    3    3    0    0  0.34242598279E+01 -0.43501399175E+01 -0.80162498321E+01  0.97421524472E+01  0.51100000000E-03 0. -1.
        -11    1    3    3    0    0  0.24972486463E+01 -0.37706217991E+02 -0.10699694039E+01  0.37803967527E+02  0.51100000000E-03 0.  1.
         12    1    3    3    0    0 -0.54369596147E+01  0.41040107048E+02  0.94407986406E+01  0.42461507220E+02  0.00000000000E+00 0. -1.
</event>
<event>
 7    1  0.2468912E-015  0.9000775E+02  0.7816164E-02  0.1186339E+00
        -11   -1    0    0    0    0  0.00000000000E+00  0.00000000000E+00  0.45593999997E+02  0.45594000000E+02  0.51100000000E-03 0.  1.
         11   -1    0    0    0    0 -0.00000000000E+00 -0.00000000000E+00 -0.45593999997E+02  0.45594000000E+02  0.51100000000E-03 0. -1.
    9900012    2    1    2    0    0  0.77906044383E+00  0.64930277377E-01  0.88422204694E+00  0.90007745898E+02  0.90000007344E+02 0.  0.
         12    1    1    2    0    0 -0.77906044383E+00 -0.64930277377E-01 -0.88422204694E+00  0.11802541016E+01  0.00000000000E+00 0. -1.
         11    1    3    3    0    0 -0.80697052923E+01  0.49963835913E+01 -0.67667368355E+01  0.11656445434E+02  0.51100000000E-03 0. -1.
        -11    1    3    3    0    0 -0.24737462648E+02  0.23376983468E+02  0.25474185147E+01  0.34130847568E+02  0.51100000000E-03 0.  1.
         12    1    3    3    0    0  0.33586228384E+02 -0.28308436782E+02  0.51035403678E+01  0.44220452897E+02  0.00000000000E+00 0. -1.
</event>
<event>
 7    1  0.2910078E-015  0.9000774E+02  0.7816164E-02  0.1186339E+00
        -11   -1    0    0    0    0  0.00000000000E+00  0.00000000000E+00  0.45593999997E+02  0.45594000000E+02  0.51100000000E-03 0.  1.
         11   -1    0    0    0    0 -0.00000000000E+00 -0.00000000000E+00 -0.45593999997E+02  0.45594000000E+02  0.51100000000E-03 0. -1.
    9900012    2    1    2    0    0 -0.82192261737E+00  0.66302854396E+00 -0.52712037775E+00  0.90007737516E+02  0.89999998851E+02 0.  0.
         12    1    1    2    0    0  0.82192261737E+00 -0.66302854396E+00  0.52712037775E+00  0.11802624842E+01  0.00000000000E+00 0. -1.
         11    1    3    3    0    0 -0.46460594014E+01  0.72026607244E+01  0.35749172094E+02  0.36762310797E+02  0.51100000000E-03 0. -1.
        -11    1    3    3    0    0  0.83442127768E+00 -0.48597382416E+01  0.76957252807E+01  0.91398852565E+01  0.51100000000E-03 0.  1.
        -12    1    3    3    0    0  0.29897155063E+01 -0.16798939389E+01 -0.43972017752E+02  0.44105541462E+02  0.00000000000E+00 0.  1.
</event>
<event>
 7    1  0.2468912E-015  0.9000793E+02  0.7816164E-02  0.1186339E+00
        -11   -1    0    0    0    0  0.00000000000E+00  0.00000000000E+00  0.45593999997E+02  0.45594000000E+02  0.51100000000E-03 0. -1.
         11   -1    0    0    0    0 -0.00000000000E+00 -0.00000000000E+00 -0.45593999997E+02  0.45594000000E+02  0.51100000000E-03 0.  1.
    9900012    2    1    2    0    0 -0.20092805607E+00  0.48210935730E+00 -0.10581942265E+01  0.90007925199E+02  0.90000189011E+02 0.  0.
         12    1    1    2    0    0  0.20092805607E+00 -0.48210935730E+00  0.10581942265E+01  0.11800748015E+01  0.00000000000E+00 0. -1.
         11    1    3    3    0    0 -0.45860198635E+01  0.24527149718E+01  0.92176314724E+01  0.10583577805E+02  0.51100000000E-03 0. -1.
        -11    1    3    3    0    0  0.52056713129E+01  0.37789028914E+02 -0.10826177539E+02  0.39652438014E+02  0.51100000000E-03 0.  1.
         12    1    3    3    0    0 -0.82057950541E+00 -0.39759634529E+02  0.55035183983E+00  0.39771909380E+02  0.00000000000E+00 0. -1.
</event>
<event>
 7    1  0.2468912E-015  0.9000718E+02  0.7816164E-02  0.1186340E+00
        -11   -1    0    0    0    0  0.00000000000E+00  0.00000000000E+00  0.45593999997E+02  0.45594000000E+02  0.51100000000E-03 0.  1.
         11   -1    0    0    0    0 -0.00000000000E+00 -0.00000000000E+00 -0.45593999997E+02  0.45594000000E+02  0.51100000000E-03 0. -1.
    9900012    2    1    2    0    0 -0.15906143247E+00  0.10026850185E+01  0.60303667049E+00  0.90007182058E+02  0.89999436060E+02 0.  0.
         12    1    1    2    0    0  0.15906143247E+00 -0.10026850185E+01 -0.60303667049E+00  0.11808179418E+01  0.00000000000E+00 0. -1.
         11    1    3    3    0    0 -0.61369613057E+01 -0.11154259559E+02 -0.13469125053E+01  0.12802108183E+02  0.51100000000E-03 0. -1.
        -11    1    3    3    0    0  0.71912767881E+00  0.87260493605E+01  0.38824610480E+02  0.39799641472E+02  0.51100000000E-03 0.  1.
         12    1    3    3    0    0  0.52587721945E+01  0.34308952166E+01 -0.36874661305E+02  0.37405432404E+02  0.00000000000E+00 0. -1.
</event>
<event>
 7    1  0.2468912E-015  0.9000771E+02  0.7816164E-02  0.1186339E+00
        -11   -1    0    0    0    0  0.00000000000E+00  0.00000000000E+00  0.45593999997E+02  0.45594000000E+02  0.51100000000E-03 0. -1.
         11   -1    0    0    0    0 -0.00000000000E+00 -0.00000000000E+00 -0.45593999997E+02  0.45594000000E+02  0.51100000000E-03 0.  1.
    9900012    2    1    2    0    0  0.76167215251E-01  0.10863887068E+01 -0.45500821692E+00  0.90007714295E+02  0.89999975324E+02 0.  0.
         12    1    1    2    0    0 -0.76167215251E-01 -0.10863887068E+01  0.45500821692E+00  0.11802857046E+01  0.00000000000E+00 0. -1.
         11    1    3    3    0    0 -0.34460668207E+02  0.34716347201E+01 -0.13371300620E+02  0.37126561670E+02  0.51100000000E-03 0. -1.
        -11    1    3    3    0    0 -0.46761968128E+01  0.92507013151E+01  0.21725848764E+01  0.10590675935E+02  0.51100000000E-03 0.  1.
        -12    1    3    3    0    0  0.39213032235E+02 -0.11635947328E+02  0.10743707527E+02  0.42290476690E+02  0.00000000000E+00 0.  1.
</event>
<event>
 7    1  0.2468912E-015  0.9000776E+02  0.7816164E-02  0.1186339E+00
        -11   -1    0    0    0    0  0.00000000000E+00  0.00000000000E+00  0.45593999997E+02  0.45594000000E+02  0.51100000000E-03 0.  1.
         11   -1    0    0    0    0 -0.00000000000E+00 -0.00000000000E+00 -0.45593999997E+02  0.45594000000E+02  0.51100000000E-03 0. -1.
    9900012    2    1    2    0    0  0.14205704635E+00  0.88891872250E-01  0.11682820277E+01  0.90007760674E+02  0.90000022315E+02 0.  0.
         12    1    1    2    0    0 -0.14205704635E+00 -0.88891872250E-01 -0.11682820277E+01  0.11802393256E+01  0.00000000000E+00 0. -1.
         11    1    3    3    0    0 -0.10676692285E+02 -0.15808662682E+01 -0.42498320622E+01  0.11599653836E+02  0.51100000000E-03 0. -1.
        -11    1    3    3    0    0 -0.80425517006E+01 -0.51376966252E+01  0.38531908127E+02  0.39696177507E+02  0.51100000000E-03 0.  1.
         12    1    3    3    0    0  0.18861301032E+02  0.68074547657E+01 -0.33113794037E+02  0.38711929331E+02  0.00000000000E+00 0. -1.
</event>
<event>
 7    1  0.2468912E-015  0.9000773E+02  0.7816164E-02  0.1186339E+00
        -11   -1    0    0    0    0  0.00000000000E+00  0.00000000000E+00  0.45593999997E+02  0.45594000000E+02  0.51100000000E-03 0. -1.
         11   -1    0    0    0    0 -0.00000000000E+00 -0.00000000000E+00 -0.45593999997E+02  0.45594000000E+02  0.51100000000E-03 0.  1.
    9900012    2    1    2    0    0  0.47211244585E+00 -0.48458232887E+00  0.96711738351E+00  0.90007734679E+02  0.89999995977E+02 0.  0.
         12    1    1    2    0    0 -0.47211244585E+00  0.48458232887E+00 -0.96711738351E+00  0.11802653212E+01  0.00000000000E+00 0. -1.
         11    1    3    3    0    0 -0.15509036695E+02  0.21420220298E+02  0.23145564233E+02  0.35143608249E+02  0.51100000000E-03 0. -1.
        -11    1    3    3    0    0 -0.83745657939E+01  0.13204580998E+01  0.64721072814E+01  0.10666074008E+02  0.51100000000E-03 0.  1.
        -12    1    3    3    0    0  0.24355714935E+02 -0.23225260727E+02 -0.28650554131E+02  0.44198052421E+02  0.00000000000E+00 0.  1.
</event>
<event>
 7    1  0.2468912E-015  0.9000766E+02  0.7816164E-02  0.1186339E+00
        -11   -1    0    0    0    0  0.00000000000E+00  0.00000000000E+00  0.45593999997E+02  0.45594000000E+02  0.51100000000E-03 0. -1.
         11   -1    0    0    0    0 -0.00000000000E+00 -0.00000000000E+00 -0.45593999997E+02  0.45594000000E+02  0.51100000000E-03 0.  1.
    9900012    2    1    2    0    0  0.42752444377E+00 -0.10434497720E+01 -0.34876001684E+00  0.90007661859E+02  0.89999922196E+02 0.  0.
         12    1    1    2    0    0 -0.42752444377E+00  0.10434497720E+01  0.34876001684E+00  0.11803381406E+01  0.00000000000E+00 0. -1.
         11    1    3    3    0    0  0.10941659587E+02 -0.18349631770E+02  0.28655688128E+02  0.35743214223E+02  0.51100000000E-03 0. -1.
        -11    1    3    3    0    0 -0.70032765601E+01 -0.74154186166E+01  0.55658642292E+01  0.11619516372E+02  0.51100000000E-03 0.  1.
        -12    1    3    3    0    0 -0.35108585826E+01  0.24721600614E+02 -0.34570312374E+02  0.42644931265E+02  0.00000000000E+00 0.  1.
</event>
<event>
 7    1  0.2468912E-015  0.9000773E+02  0.7816164E-02  0.1186339E+00
        -11   -1    0    0    0    0  0.00000000000E+00  0.00000000000E+00  0.45593999997E+02  0.45594000000E+02  0.51100000000E-03 0. -1.
         11   -1    0    0    0    0 -0.00000000000E+00 -0.00000000000E+00 -0.45593999997E+02  0.45594000000E+02  0.51100000000E-03 0.  1.
    9900012    2    1    2    0    0  0.40516421103E+00 -0.36670021163E+00 -0.10461451959E+01  0.90007725941E+02  0.89999987124E+02 0.  0.
         12    1    1    2    0    0 -0.40516421103E+00  0.36670021163E+00  0.10461451959E+01  0.11802740589E+01  0.00000000000E+00 0. -1.
         11    1    3    3    0    0 -0.20581672129E+01 -0.17491774907E+02  0.35667948333E+02  0.39779401456E+02  0.51100000000E-03 0. -1.
        -11    1    3    3    0    0  0.33762177946E+00 -0.74141342747E+01 -0.20416469161E+01  0.76975124488E+01  0.51100000000E-03 0.  1.
        -12    1    3    3    0    0  0.21257096445E+01  0.24539208970E+02 -0.34672446613E+02  0.42530812036E+02  0.00000000000E+00 0.  1.
</event>
<event>
 7    1  0.2468912E-015  0.9000762E+02  0.7816164E-02  0.1186339E+00
        -11   -1    0    0    0    0  0.00000000000E+00  0.00000000000E+00  0.45593999997E+02  0.45594000000E+02  0.51100000000E-03 0.  1.
         11   -1    0    0    0    0 -0.00000000000E+00 -0.00000000000E+00 -0.45593999997E+02  0.45594000000E+02  0.51100000000E-03 0. -1.
    9900012    2    1    2    0    0  0.54560257627E-01 -0.97349935513E+00  0.66529644611E+00  0.90007619901E+02  0.89999879684E+02 0.  0.
         12    1    1    2    0    0 -0.54560257627E-01  0.97349935513E+00 -0.66529644611E+00  0.11803800987E+01  0.00000000000E+00 0. -1.
         11    1    3    3    0    0 -0.23699884038E+02 -0.52499953545E+01 -0.18940203967E+02  0.30789255937E+02  0.51100000000E-03 0. -1.
        -11    1    3    3    0    0 -0.82517766353E+01  0.16508557405E+02  0.16599560610E+02  0.24822765720E+02  0.51100000000E-03 0.  1.
        -12    1    3    3    0    0  0.32006220930E+02 -0.12232061406E+02  0.30059398025E+01  0.34395598244E+02  0.00000000000E+00 0.  1.
</event>
<event>
 7    1  0.2468912E-015  0.9000776E+02  0.7816164E-02  0.1186339E+00
        -11   -1    0    0    0    0  0.00000000000E+00  0.00000000000E+00  0.45593999997E+02  0.45594000000E+02  0.51100000000E-03 0. -1.
         11   -1    0    0    0    0 -0.00000000000E+00 -0.00000000000E+00 -0.45593999997E+02  0.45594000000E+02  0.51100000000E-03 0.  1.
    9900012    2    1    2    0    0  0.58226196519E-01 -0.59664023936E+00 -0.10166642934E+01  0.90007755894E+02  0.90000017471E+02 0.  0.
         12    1    1    2    0    0 -0.58226196519E-01  0.59664023936E+00  0.10166642934E+01  0.11802441064E+01  0.00000000000E+00 0. -1.
         11    1    3    3    0    0 -0.16967487541E+02 -0.22389997769E+02  0.81996218583E+01  0.29265020629E+02  0.51100000000E-03 0. -1.
        -11    1    3    3    0    0 -0.10855906275E+02  0.67401968639E+01  0.15836867414E+02  0.20349135720E+02  0.51100000000E-03 0.  1.
         12    1    3    3    0    0  0.27881620013E+02  0.15053160666E+02 -0.25053153566E+02  0.40393599544E+02  0.00000000000E+00 0. -1.
</event>
<event>
 7    1  0.2468912E-015  0.9000780E+02  0.7816164E-02  0.1186339E+00
        -11   -1    0    0    0    0  0.00000000000E+00  0.00000000000E+00  0.45593999997E+02  0.45594000000E+02  0.51100000000E-03 0.  1.
         11   -1    0    0    0    0 -0.00000000000E+00 -0.00000000000E+00 -0.45593999997E+02  0.45594000000E+02  0.51100000000E-03 0. -1.
    9900012    2    1    2    0    0  0.12017772903E+00 -0.11361263179E+01  0.29604713354E+00  0.90007801033E+02  0.90000063206E+02 0.  0.
         12    1    1    2    0    0 -0.12017772903E+00  0.11361263179E+01 -0.29604713354E+00  0.11801989672E+01  0.00000000000E+00 0. -1.
         11    1    3    3    0    0  0.32636125834E+02  0.22885644116E+02 -0.13436595429E+02  0.42064373442E+02  0.51100000000E-03 0. -1.
        -11    1    3    3    0    0 -0.87934222615E+01 -0.82408754433E+00 -0.46820052446E+01  0.99962277246E+01  0.51100000000E-03 0.  1.
        -12    1    3    3    0    0 -0.23722525844E+02 -0.23197682889E+02  0.18414647807E+02  0.37947199866E+02  0.00000000000E+00 0.  1.
</event>
<event>
 7    1  0.2468912E-015  0.9000757E+02  0.7816164E-02  0.1186339E+00
        -11   -1    0    0    0    0  0.00000000000E+00  0.00000000000E+00  0.45593999997E+02  0.45594000000E+02  0.51100000000E-03 0.  1.
         11   -1    0    0    0    0 -0.00000000000E+00 -0.00000000000E+00 -0.45593999997E+02  0.45594000000E+02  0.51100000000E-03 0. -1.
    9900012    2    1    2    0    0  0.84492993122E+00 -0.77234356615E+00  0.28808894516E+00  0.90007569395E+02  0.89999828511E+02 0.  0.
         12    1    1    2    0    0 -0.84492993122E+00  0.77234356615E+00 -0.28808894516E+00  0.11804306050E+01  0.00000000000E+00 0. -1.
         11    1    3    3    0    0 -0.40193270331E+02  0.39459332805E+01 -0.70373231975E+01  0.40995039790E+02  0.51100000000E-03 0. -1.
        -11    1    3    3    0    0 -0.90543890180E+00  0.51835060587E+00  0.66567069035E+01  0.67379710607E+01  0.51100000000E-03 0.  1.
        -12    1    3    3    0    0  0.41943639164E+02 -0.52366274525E+01  0.66870523925E+00  0.42274558544E+02  0.00000000000E+00 0.  1.
</event>
<event>
 7    1  0.2468912E-015  0.9000776E+02  0.7816164E-02  0.1186339E+00
        -11   -1    0    0    0    0  0.00000000000E+00  0.00000000000E+00  0.45593999997E+02  0.45594000000E+02  0.51100000000E-03 0.  1.
         11   -1    0    0    0    0 -0.00000000000E+00 -0.00000000000E+00 -0.45593999997E+02  0.45594000000E+02  0.51100000000E-03 0. -1.
    9900012    2    1    2    0    0 -0.33020638505E+00 -0.50798145913E+00  0.10128643545E+01  0.90007756118E+02  0.90000017699E+02 0.  0.
         12    1    1    2    0    0  0.33020638505E+00  0.50798145913E+00 -0.10128643545E+01  0.11802438816E+01  0.00000000000E+00 0. -1.
         11    1    3    3    0    0 -0.35505122600E+01 -0.81624584536E+01  0.46808672062E+01  0.10056956964E+02  0.51100000000E-03 0. -1.
        -11    1    3    3    0    0  0.37308178485E+02 -0.50676731883E+01  0.13131634107E+02  0.39875071260E+02  0.51100000000E-03 0.  1.
         12    1    3    3    0    0 -0.34087872610E+02  0.12722150183E+02 -0.16799636958E+02  0.40075727894E+02  0.00000000000E+00 0. -1.
</event>
<event>
 7    1  0.2468912E-015  0.9000773E+02  0.7816164E-02  0.1186339E+00
        -11   -1    0    0    0    0  0.00000000000E+00  0.00000000000E+00  0.45593999997E+02  0.45594000000E+02  0.51100000000E-03 0. -1.
         11   -1    0    0    0    0 -0.00000000000E+00 -0.00000000000E+00 -0.45593999997E+02  0.45594000000E+02  0.51100000000E-03 0.  1.
    9900012    2    1    2    0    0  0.81714932126E+00 -0.52621668329E+00  0.66962544368E+00  0.90007730859E+02  0.89999992106E+02 0.  0.
         12    1    1    2    0    0 -0.81714932126E+00  0.52621668329E+00 -0.66962544368E+00  0.11802691413E+01  0.00000000000E+00 0. -1.
         11    1    3    3    0    0 -0.43258217553E+01  0.97521801769E+01 -0.56686026460E+01  0.12081010234E+02  0.51100000000E-03 0. -1.
        -11    1    3    3    0    0  0.31384556334E+01 -0.58316778407E+01 -0.35344493442E+02  0.35959582689E+02  0.51100000000E-03 0.  1.
         12    1    3    3    0    0  0.20045154432E+01 -0.44467190195E+01  0.41682721532E+02  0.41967137936E+02  0.00000000000E+00 0. -1.
</event>
<event>
 7    1  0.2468912E-015  0.9000768E+02  0.7816164E-02  0.1186339E+00
        -11   -1    0    0    0    0  0.00000000000E+00  0.00000000000E+00  0.45593999997E+02  0.45594000000E+02  0.51100000000E-03 0.  1.
         11   -1    0    0    0    0 -0.00000000000E+00 -0.00000000000E+00 -0.45593999997E+02  0.45594000000E+02  0.51100000000E-03 0. -1.
    9900012    2    1    2    0    0  0.45980016484E+00  0.93948802216E+00  0.54690392888E+00  0.90007678924E+02  0.89999939486E+02 0.  0.
         12    1    1    2    0    0 -0.45980016484E+00 -0.93948802216E+00 -0.54690392888E+00  0.11803210761E+01  0.00000000000E+00 0. -1.
         11    1    3    3    0    0  0.27229449458E+02  0.12390459850E+02  0.88015722650E+01  0.31183875443E+02  0.51100000000E-03 0.  1.
        -11    1    3    3    0    0 -0.46435400944E+01 -0.18288607196E+02  0.16398772202E+02  0.24999106940E+02  0.51100000000E-03 0. -1.
         12    1    3    3    0    0 -0.22126109199E+02  0.68376353688E+01 -0.24653440538E+02  0.33824696541E+02  0.00000000000E+00 0. -1.
</event>
<event>
 7    1  0.2468912E-015  0.9000775E+02  0.7816164E-02  0.1186339E+00
        -11   -1    0    0    0    0  0.00000000000E+00  0.00000000000E+00  0.45593999997E+02  0.45594000000E+02  0.51100000000E-03 0.  1.
         11   -1    0    0    0    0 -0.00000000000E+00 -0.00000000000E+00 -0.45593999997E+02  0.45594000000E+02  0.51100000000E-03 0. -1.
    9900012    2    1    2    0    0  0.59595294977E+00 -0.10068033615E+01  0.15546360569E+00  0.90007753475E+02  0.90000015021E+02 0.  0.
         12    1    1    2    0    0 -0.59595294977E+00  0.10068033615E+01 -0.15546360569E+00  0.11802465250E+01  0.00000000000E+00 0. -1.
         11    1    3    3    0    0  0.71499614899E+01 -0.69824225712E+01  0.23186293283E+01  0.10259250289E+02  0.51100000000E-03 0. -1.
        -11    1    3    3    0    0  0.59699162387E+01  0.41325637312E+02  0.31396428300E+01  0.41872491645E+02  0.51100000000E-03 0.  1.
         12    1    3    3    0    0 -0.12523924779E+02 -0.35350018103E+02 -0.53028085527E+01  0.37876011541E+02  0.00000000000E+00 0. -1.
</event>
<event>
 7    1  0.2468912E-015  0.9000783E+02  0.7816164E-02  0.1186339E+00
        -11   -1    0    0    0    0  0.00000000000E+00  0.00000000000E+00  0.45593999997E+02  0.45594000000E+02  0.51100000000E-03 0.  1.
         11   -1    0    0    0    0 -0.00000000000E+00 -0.00000000000E+00 -0.45593999997E+02  0.45594000000E+02  0.51100000000E-03 0. -1.
    9900012    2    1    2    0    0 -0.67531558814E+00  0.84337814634E+00 -0.47483673073E+00  0.90007827232E+02  0.90000089751E+02 0.  0.
         12    1    1    2    0    0  0.67531558814E+00 -0.84337814634E+00  0.47483673073E+00  0.11801727679E+01  0.00000000000E+00 0. -1.
         11    1    3    3    0    0 -0.21920113011E+02 -0.47658348873E+01 -0.35335843108E+02  0.41854824632E+02  0.51100000000E-03 0. -1.
        -11    1    3    3    0    0  0.70115966021E+01 -0.82633913892E+01  0.42190584147E+01  0.11629556240E+02  0.51100000000E-03 0.  1.
        -12    1    3    3    0    0  0.14233200820E+02  0.13872604423E+02  0.30641947963E+02  0.36523446360E+02  0.00000000000E+00 0.  1.
</event>
<event>
 7    1  0.2468912E-015  0.9000694E+02  0.7816164E-02  0.1186341E+00
        -11   -1    0    0    0    0  0.00000000000E+00  0.00000000000E+00  0.45593999997E+02  0.45594000000E+02  0.51100000000E-03 0.  1.
         11   -1    0    0    0    0 -0.00000000000E+00 -0.00000000000E+00 -0.45593999997E+02  0.45594000000E+02  0.51100000000E-03 0. -1.
    9900012    2    1    2    0    0  0.45705242890E+00 -0.68249791210E+00  0.84864589558E+00  0.90006941077E+02  0.89999191896E+02 0.  0.
         12    1    1    2    0    0 -0.45705242890E+00  0.68249791210E+00 -0.84864589558E+00  0.11810589227E+01  0.00000000000E+00 0. -1.
         11    1    3    3    0    0  0.34371875528E+02  0.73816715110E+01 -0.80277277729E+01  0.36060495214E+02  0.51100000000E-03 0. -1.
        -11    1    3    3    0    0  0.88506668955E+01 -0.53405645909E+01  0.11144082932E+01  0.10397011145E+02  0.51100000000E-03 0.  1.
        -12    1    3    3    0    0 -0.42765489995E+02 -0.27236048322E+01  0.77619653753E+01  0.43549434718E+02  0.00000000000E+00 0.  1.
</event>
<event>
 7    1  0.2468912E-015  0.9000724E+02  0.7816164E-02  0.1186340E+00
        -11   -1    0    0    0    0  0.00000000000E+00  0.00000000000E+00  0.45593999997E+02  0.45594000000E+02  0.51100000000E-03 0.  1.
         11   -1    0    0    0    0 -0.00000000000E+00 -0.00000000000E+00 -0.45593999997E+02  0.45594000000E+02  0.51100000000E-03 0. -1.
    9900012    2    1    2    0    0 -0.10420749292E+01 -0.54161150142E-01  0.55258172111E+00  0.90007237472E+02  0.89999492206E+02 0.  0.
         12    1    1    2    0    0  0.10420749292E+01  0.54161150142E-01 -0.55258172111E+00  0.11807625277E+01  0.00000000000E+00 0. -1.
         11    1    3    3    0    0 -0.23231018554E+02 -0.29181313448E+02  0.71423386898E+01  0.37976865061E+02  0.51100000000E-03 0. -1.
        -11    1    3    3    0    0 -0.91235446337E+01  0.81810266485E+00 -0.31151642170E+01  0.96753608208E+01  0.51100000000E-03 0.  1.
        -12    1    3    3    0    0  0.31312488258E+02  0.28309049633E+02 -0.34745927517E+01  0.42355011591E+02  0.00000000000E+00 0.  1.
</event>
<event>
 7    1  0.2468912E-015  0.9000775E+02  0.7816164E-02  0.1186339E+00
        -11   -1    0    0    0    0  0.00000000000E+00  0.00000000000E+00  0.45593999997E+02  0.45594000000E+02  0.51100000000E-03 0. -1.
         11   -1    0    0    0    0 -0.00000000000E+00 -0.00000000000E+00 -0.45593999997E+02  0.45594000000E+02  0.51100000000E-03 0.  1.
    9900012    2    1    2    0    0 -0.48933650373E+00 -0.10010715810E+01  0.38908309473E+00  0.90007754187E+02  0.90000015742E+02 0.  0.
         12    1    1    2    0    0  0.48933650373E+00  0.10010715810E+01 -0.38908309473E+00  0.11802458129E+01  0.00000000000E+00 0. -1.
         11    1    3    3    0    0 -0.56117550801E+01 -0.83853041379E+01 -0.65499910277E+01  0.12029443183E+02  0.51100000000E-03 0. -1.
        -11    1    3    3    0    0 -0.16454663182E+02 -0.30063213331E+02  0.44867781802E+00  0.34274685240E+02  0.51100000000E-03 0.  1.
         12    1    3    3    0    0  0.21577081758E+02  0.37447445888E+02  0.64903963044E+01  0.43703625764E+02  0.00000000000E+00 0. -1.
</event>
<event>
 7    1  0.2468912E-015  0.9000776E+02  0.7816164E-02  0.1186339E+00
        -11   -1    0    0    0    0  0.00000000000E+00  0.00000000000E+00  0.45593999997E+02  0.45594000000E+02  0.51100000000E-03 0.  1.
         11   -1    0    0    0    0 -0.00000000000E+00 -0.00000000000E+00 -0.45593999997E+02  0.45594000000E+02  0.51100000000E-03 0. -1.
    9900012    2    1    2    0    0  0.44538927471E+00  0.17014518262E+00  0.10796468934E+01  0.90007763412E+02  0.90000025089E+02 0.  0.
         12    1    1    2    0    0 -0.44538927471E+00 -0.17014518262E+00 -0.10796468934E+01  0.11802365880E+01  0.00000000000E+00 0. -1.
         11    1    3    3    0    0 -0.32056527829E+02 -0.43115745135E+01 -0.26974136422E+02  0.42116679442E+02  0.51100000000E-03 0. -1.
        -11    1    3    3    0    0 -0.77123457297E+00 -0.46555133873E+00  0.93670752002E+01  0.94102943037E+01  0.51100000000E-03 0.  1.
        -12    1    3    3    0    0  0.33273151676E+02  0.49472710348E+01  0.18686708116E+02  0.38480789667E+02  0.00000000000E+00 0.  1.
</event>
<event>
 7    1  0.2468912E-015  0.9000780E+02  0.7816164E-02  0.1186339E+00
        -11   -1    0    0    0    0  0.00000000000E+00  0.00000000000E+00  0.45593999997E+02  0.45594000000E+02  0.51100000000E-03 0.  1.
         11   -1    0    0    0    0 -0.00000000000E+00 -0.00000000000E+00 -0.45593999997E+02  0.45594000000E+02  0.51100000000E-03 0. -1.
    9900012    2    1    2    0    0 -0.76070902308E+00  0.41128842167E+00 -0.80314534711E+00  0.90007797122E+02  0.90000059244E+02 0.  0.
         12    1    1    2    0    0  0.76070902308E+00 -0.41128842167E+00  0.80314534711E+00  0.11802028775E+01  0.00000000000E+00 0. -1.
         11    1    3    3    0    0 -0.57399174187E+01 -0.17837003621E+02  0.14961230204E+01  0.18797439573E+02  0.51100000000E-03 0. -1.
        -11    1    3    3    0    0  0.22233050122E+02 -0.11928680792E+02  0.17965438846E+02  0.30973519922E+02  0.51100000000E-03 0.  1.
         12    1    3    3    0    0 -0.17253841726E+02  0.30176972835E+02 -0.20264707214E+02  0.40236837627E+02  0.00000000000E+00 0. -1.
</event>
<event>
 7    1  0.2468912E-015  0.9000776E+02  0.7816164E-02  0.1186339E+00
        -11   -1    0    0    0    0  0.00000000000E+00  0.00000000000E+00  0.45593999997E+02  0.45594000000E+02  0.51100000000E-03 0. -1.
         11   -1    0    0    0    0 -0.00000000000E+00 -0.00000000000E+00 -0.45593999997E+02  0.45594000000E+02  0.51100000000E-03 0.  1.
    9900012    2    1    2    0    0  0.87125225554E+00  0.75122664324E+00  0.26372128074E+00  0.90007758128E+02  0.90000019735E+02 0.  0.
         12    1    1    2    0    0 -0.87125225554E+00 -0.75122664324E+00 -0.26372128074E+00  0.11802418719E+01  0.00000000000E+00 0. -1.
         11    1    3    3    0    0 -0.16448680657E+02 -0.22422819713E+02  0.12595454678E+02  0.30528468976E+02  0.51100000000E-03 0. -1.
        -11    1    3    3    0    0 -0.13268285969E+02 -0.55026827348E+01  0.32885433189E+01  0.14735720113E+02  0.51100000000E-03 0.  1.
        -12    1    3    3    0    0  0.30588218881E+02  0.28676729091E+02 -0.15620276716E+02  0.44743569039E+02  0.00000000000E+00 0.  1.
</event>
<event>
 7    1  0.2468912E-015  0.9000822E+02  0.7816164E-02  0.1186338E+00
        -11   -1    0    0    0    0  0.00000000000E+00  0.00000000000E+00  0.45593999997E+02  0.45594000000E+02  0.51100000000E-03 0.  1.
         11   -1    0    0    0    0 -0.00000000000E+00 -0.00000000000E+00 -0.45593999997E+02  0.45594000000E+02  0.51100000000E-03 0. -1.
    9900012    2    1    2    0    0 -0.45416946889E+00  0.97139566262E+00  0.49194163628E+00  0.90008217811E+02  0.90000485485E+02 0.  0.
         12    1    1    2    0    0  0.45416946889E+00 -0.97139566262E+00 -0.49194163628E+00  0.11797821889E+01  0.00000000000E+00 0. -1.
         11    1    3    3    0    0 -0.33582438108E+02  0.22877205672E+02 -0.12259352962E+02  0.42443355475E+02  0.51100000000E-03 0. -1.
        -11    1    3    3    0    0  0.14100755067E+02 -0.10387343709E+02 -0.59588004331E+01  0.18499608257E+02  0.51100000000E-03 0.  1.
        -12    1    3    3    0    0  0.19027513573E+02 -0.11518466300E+02  0.18710095031E+02  0.29065254080E+02  0.00000000000E+00 0.  1.
</event>
<event>
 7    1  0.2468912E-015  0.9000772E+02  0.7816164E-02  0.1186339E+00
        -11   -1    0    0    0    0  0.00000000000E+00  0.00000000000E+00  0.45593999997E+02  0.45594000000E+02  0.51100000000E-03 0. -1.
         11   -1    0    0    0    0 -0.00000000000E+00 -0.00000000000E+00 -0.45593999997E+02  0.45594000000E+02  0.51100000000E-03 0.  1.
    9900012    2    1    2    0    0  0.51184245739E+00  0.90431618283E+00  0.55972046696E+00  0.90007721448E+02  0.89999982571E+02 0.  0.
         12    1    1    2    0    0 -0.51184245739E+00 -0.90431618283E+00 -0.55972046696E+00  0.11802785522E+01  0.00000000000E+00 0. -1.
         11    1    3    3    0    0  0.31383911823E+02 -0.21652864368E+02 -0.62488405366E+01  0.38637345470E+02  0.51100000000E-03 0. -1.
        -11    1    3    3    0    0  0.43174062692E+00 -0.38997711049E+01  0.95173484574E+01  0.10294393453E+02  0.51100000000E-03 0.  1.
        -12    1    3    3    0    0 -0.31303809993E+02  0.26456951655E+02 -0.27087874539E+01  0.41075982525E+02  0.00000000000E+00 0.  1.
</event>
<event>
 7    1  0.2468912E-015  0.9000759E+02  0.7816164E-02  0.1186339E+00
        -11   -1    0    0    0    0  0.00000000000E+00  0.00000000000E+00  0.45593999997E+02  0.45594000000E+02  0.51100000000E-03 0.  1.
         11   -1    0    0    0    0 -0.00000000000E+00 -0.00000000000E+00 -0.45593999997E+02  0.45594000000E+02  0.51100000000E-03 0. -1.
    9900012    2    1    2    0    0  0.11753489291E+01 -0.70766868732E-01  0.83128411116E-01  0.90007591856E+02  0.89999851268E+02 0.  0.
         12    1    1    2    0    0 -0.11753489291E+01  0.70766868732E-01 -0.83128411116E-01  0.11804081445E+01  0.00000000000E+00 0. -1.
         11    1    3    3    0    0 -0.35959111605E+02 -0.24006289974E+01  0.33573867687E+01  0.36195203731E+02  0.51100000000E-03 0. -1.
        -11    1    3    3    0    0 -0.57068299736E+01 -0.62946488217E+01 -0.53873987660E+01  0.10060545604E+02  0.51100000000E-03 0.  1.
        -12    1    3    3    0    0  0.42841290507E+02  0.86245109503E+01  0.21131404083E+01  0.43751842520E+02  0.00000000000E+00 0.  1.
</event>
<event>
 7    1  0.2468912E-015  0.9000775E+02  0.7816164E-02  0.1186339E+00
        -11   -1    0    0    0    0  0.00000000000E+00  0.00000000000E+00  0.45593999997E+02  0.45594000000E+02  0.51100000000E-03 0. -1.
         11   -1    0    0    0    0 -0.00000000000E+00 -0.00000000000E+00 -0.45593999997E+02  0.45594000000E+02  0.51100000000E-03 0.  1.
    9900012    2    1    2    0    0  0.73349813224E+00 -0.91161604114E+00 -0.15470665687E+00  0.90007746864E+02  0.90000008322E+02 0.  0.
         12    1    1    2    0    0 -0.73349813224E+00  0.91161604114E+00  0.15470665687E+00  0.11802531365E+01  0.00000000000E+00 0. -1.
         11    1    3    3    0    0 -0.96783778522E+01  0.17550215658E+01 -0.35468271633E+01  0.10456150426E+02  0.51100000000E-03 0. -1.
        -11    1    3    3    0    0 -0.25567679018E+02 -0.16770947962E+02  0.20989710758E+02  0.37088257763E+02  0.51100000000E-03 0.  1.
         12    1    3    3    0    0  0.35979555003E+02  0.14104310355E+02 -0.17597590251E+02  0.42463338675E+02  0.00000000000E+00 0. -1.
</event>
<event>
 7    1  0.2468912E-015  0.9000858E+02  0.7816164E-02  0.1186337E+00
        -11   -1    0    0    0    0  0.00000000000E+00  0.00000000000E+00  0.45593999997E+02  0.45594000000E+02  0.51100000000E-03 0.  1.
         11   -1    0    0    0    0 -0.00000000000E+00 -0.00000000000E+00 -0.45593999997E+02  0.45594000000E+02  0.51100000000E-03 0. -1.
    9900012    2    1    2    0    0 -0.12794242942E+00  0.11457951036E+01 -0.24860738869E+00  0.90008584332E+02  0.90000856841E+02 0.  0.
         12    1    1    2    0    0  0.12794242942E+00 -0.11457951036E+01  0.24860738869E+00  0.11794156682E+01  0.00000000000E+00 0. -1.
         11    1    3    3    0    0  0.28943936530E+01 -0.13810972266E+01  0.79696164253E+01  0.85906769462E+01  0.51100000000E-03 0. -1.
        -11    1    3    3    0    0  0.36077459414E+02 -0.10879064120E+02  0.50213499071E+01  0.38015142629E+02  0.51100000000E-03 0.  1.
         12    1    3    3    0    0 -0.39099795497E+02  0.13405956450E+02 -0.13239573721E+02  0.43402764757E+02  0.00000000000E+00 0. -1.
</event>
<event>
 7    1  0.2468912E-015  0.9000771E+02  0.7816164E-02  0.1186339E+00
        -11   -1    0    0    0    0  0.00000000000E+00  0.00000000000E+00  0.45593999997E+02  0.45594000000E+02  0.51100000000E-03 0.  1.
         11   -1    0    0    0    0 -0.00000000000E+00 -0.00000000000E+00 -0.45593999997E+02  0.45594000000E+02  0.51100000000E-03 0. -1.
    9900012    2    1    2    0    0 -0.16574248856E+00 -0.57204112730E+00  0.10190054711E+01  0.90007714537E+02  0.89999975569E+02 0.  0.
         12    1    1    2    0    0  0.16574248856E+00  0.57204112730E+00 -0.10190054711E+01  0.11802854630E+01  0.00000000000E+00 0. -1.
         11    1    3    3    0    0 -0.73492691000E+01  0.27389840756E+01  0.44192584546E+01  0.90024238748E+01  0.51100000000E-03 0. -1.
        -11    1    3    3    0    0  0.39206492461E+02  0.16019486000E+02  0.50636517018E+01  0.42654584180E+02  0.51100000000E-03 0.  1.
         12    1    3    3    0    0 -0.32022965849E+02 -0.19330511203E+02 -0.84639046853E+01  0.38350706482E+02  0.00000000000E+00 0. -1.
</event>
<event>
 7    1  0.2468912E-015  0.9000780E+02  0.7816164E-02  0.1186339E+00
        -11   -1    0    0    0    0  0.00000000000E+00  0.00000000000E+00  0.45593999997E+02  0.45594000000E+02  0.51100000000E-03 0.  1.
         11   -1    0    0    0    0 -0.00000000000E+00 -0.00000000000E+00 -0.45593999997E+02  0.45594000000E+02  0.51100000000E-03 0. -1.
    9900012    2    1    2    0    0  0.93311992157E+00 -0.71799872671E+00 -0.81400993717E-01  0.90007804643E+02  0.90000066864E+02 0.  0.
         12    1    1    2    0    0 -0.93311992157E+00  0.71799872671E+00  0.81400993717E-01  0.11801953573E+01  0.00000000000E+00 0. -1.
         11    1    3    3    0    0 -0.34612535777E+02 -0.24168069696E+01 -0.25109522218E+02  0.42829390553E+02  0.51100000000E-03 0. -1.
        -11    1    3    3    0    0  0.70864683442E+01  0.63746610496E+01  0.89695295269E+00  0.95738634809E+01  0.51100000000E-03 0.  1.
        -12    1    3    3    0    0  0.28459187354E+02 -0.46758528066E+01  0.24131168272E+02  0.37604550609E+02  0.00000000000E+00 0.  1.
</event>
<event>
 7    1  0.2468912E-015  0.9000768E+02  0.7816164E-02  0.1186339E+00
        -11   -1    0    0    0    0  0.00000000000E+00  0.00000000000E+00  0.45593999997E+02  0.45594000000E+02  0.51100000000E-03 0. -1.
         11   -1    0    0    0    0 -0.00000000000E+00 -0.00000000000E+00 -0.45593999997E+02  0.45594000000E+02  0.51100000000E-03 0.  1.
    9900012    2    1    2    0    0  0.29537985800E+00 -0.10645348504E+01 -0.41553437117E+00  0.90007681178E+02  0.89999941769E+02 0.  0.
         12    1    1    2    0    0 -0.29537985800E+00  0.10645348504E+01  0.41553437117E+00  0.11803188221E+01  0.00000000000E+00 0. -1.
         11    1    3    3    0    0  0.66158512788E+01 -0.59740131010E+01 -0.25881536076E+01  0.92820719687E+01  0.51100000000E-03 0. -1.
        -11    1    3    3    0    0  0.14744592786E+02 -0.92675790860E+01 -0.33018889696E+02  0.37330123434E+02  0.51100000000E-03 0.  1.
         12    1    3    3    0    0 -0.21065064207E+02  0.14177057337E+02  0.35191508932E+02  0.43395485776E+02  0.00000000000E+00 0. -1.
</event>
<event>
 7    1  0.2468912E-015  0.9000789E+02  0.7816164E-02  0.1186339E+00
        -11   -1    0    0    0    0  0.00000000000E+00  0.00000000000E+00  0.45593999997E+02  0.45594000000E+02  0.51100000000E-03 0. -1.
         11   -1    0    0    0    0 -0.00000000000E+00 -0.00000000000E+00 -0.45593999997E+02  0.45594000000E+02  0.51100000000E-03 0.  1.
    9900012    2    1    2    0    0 -0.63375723838E+00 -0.15831244464E+00 -0.98282490307E+00  0.90007891591E+02  0.90000154960E+02 0.  0.
         12    1    1    2    0    0  0.63375723838E+00  0.15831244464E+00  0.98282490307E+00  0.11801084092E+01  0.00000000000E+00 0. -1.
         11    1    3    3    0    0 -0.67854881483E+01 -0.74167840873E+01 -0.55061610978E+01  0.11461646736E+02  0.51100000000E-03 0. -1.
        -11    1    3    3    0    0 -0.30344081562E+02 -0.50928376276E+01 -0.16226347624E+02  0.34784977194E+02  0.51100000000E-03 0.  1.
         12    1    3    3    0    0  0.36495812472E+02  0.12351309270E+02  0.20749683819E+02  0.43761267660E+02  0.00000000000E+00 0. -1.
</event>
<event>
 7    1  0.2468912E-015  0.9000732E+02  0.7816164E-02  0.1186340E+00
        -11   -1    0    0    0    0  0.00000000000E+00  0.00000000000E+00  0.45593999997E+02  0.45594000000E+02  0.51100000000E-03 0.  1.
         11   -1    0    0    0    0 -0.00000000000E+00 -0.00000000000E+00 -0.45593999997E+02  0.45594000000E+02  0.51100000000E-03 0. -1.
    9900012    2    1    2    0    0 -0.32445897244E+00 -0.75221168754E+00  0.85024573857E+00  0.90007316358E+02  0.89999572132E+02 0.  0.
         12    1    1    2    0    0  0.32445897244E+00  0.75221168754E+00 -0.85024573857E+00  0.11806836425E+01  0.00000000000E+00 0. -1.
         11    1    3    3    0    0  0.35576663971E+02  0.15690460070E+02 -0.11734281069E+02  0.40615057663E+02  0.51100000000E-03 0. -1.
        -11    1    3    3    0    0 -0.50156427316E+01 -0.15053538968E+01 -0.78673786432E+01  0.94508417267E+01  0.51100000000E-03 0.  1.
        -12    1    3    3    0    0 -0.30885480212E+02 -0.14937317861E+02  0.20451905451E+02  0.39941416968E+02  0.00000000000E+00 0.  1.
</event>
<event>
 7    1  0.2468912E-015  0.9000765E+02  0.7816164E-02  0.1186339E+00
        -11   -1    0    0    0    0  0.00000000000E+00  0.00000000000E+00  0.45593999997E+02  0.45594000000E+02  0.51100000000E-03 0. -1.
         11   -1    0    0    0    0 -0.00000000000E+00 -0.00000000000E+00 -0.45593999997E+02  0.45594000000E+02  0.51100000000E-03 0.  1.
    9900012    2    1    2    0    0  0.25449947492E+00  0.38556552241E+00 -0.10861843242E+01  0.90007649569E+02  0.89999909743E+02 0.  0.
         12    1    1    2    0    0 -0.25449947492E+00 -0.38556552241E+00  0.10861843242E+01  0.11803504315E+01  0.00000000000E+00 0. -1.
         11    1    3    3    0    0  0.13276448278E+02 -0.34809897954E+02  0.14102078618E+01  0.37282459159E+02  0.51100000000E-03 0. -1.
        -11    1    3    3    0    0 -0.32570512379E+01 -0.27237664143E+01  0.10614455559E+02  0.11432145614E+02  0.51100000000E-03 0.  1.
        -12    1    3    3    0    0 -0.97648975650E+01  0.37919229891E+02 -0.13110847745E+02  0.41293044796E+02  0.00000000000E+00 0.  1.
</event>
<event>
 7    1  0.2812065E-015  0.9000773E+02  0.7816164E-02  0.1186339E+00
        -11   -1    0    0    0    0  0.00000000000E+00  0.00000000000E+00  0.45593999997E+02  0.45594000000E+02  0.51100000000E-03 0.  1.
         11   -1    0    0    0    0 -0.00000000000E+00 -0.00000000000E+00 -0.45593999997E+02  0.45594000000E+02  0.51100000000E-03 0. -1.
    9900012    2    1    2    0    0  0.10345640526E-01  0.10430277637E+01  0.55229548346E+00  0.90007727045E+02  0.89999988242E+02 0.  0.
         12    1    1    2    0    0 -0.10345640526E-01 -0.10430277637E+01 -0.55229548346E+00  0.11802729554E+01  0.00000000000E+00 0. -1.
         11    1    3    3    0    0  0.58566823542E+01 -0.16615598078E+02 -0.31483611513E+02  0.36077647122E+02  0.51100000000E-03 0. -1.
        -11    1    3    3    0    0 -0.11681086735E+01 -0.84293700227E+01 -0.38313775684E+01  0.93326422403E+01  0.51100000000E-03 0.  1.
        -12    1    3    3    0    0 -0.46782280402E+01  0.26087995865E+02  0.35867284565E+02  0.44597437683E+02  0.00000000000E+00 0.  1.
</event>
<event>
 7    1  0.2468912E-015  0.9000779E+02  0.7816164E-02  0.1186339E+00
        -11   -1    0    0    0    0  0.00000000000E+00  0.00000000000E+00  0.45593999997E+02  0.45594000000E+02  0.51100000000E-03 0.  1.
         11   -1    0    0    0    0 -0.00000000000E+00 -0.00000000000E+00 -0.45593999997E+02  0.45594000000E+02  0.51100000000E-03 0. -1.
    9900012    2    1    2    0    0  0.10799756962E+01  0.37061175469E+00  0.29863998854E+00  0.90007793908E+02  0.90000055987E+02 0.  0.
         12    1    1    2    0    0 -0.10799756962E+01 -0.37061175469E+00 -0.29863998854E+00  0.11802060921E+01  0.00000000000E+00 0. -1.
         11    1    3    3    0    0  0.79102106317E+01  0.66683352051E+01 -0.29922067918E+01  0.10769931680E+02  0.51100000000E-03 0. -1.
        -11    1    3    3    0    0  0.21188136188E+02  0.12983655004E+02  0.27820965128E+02  0.37303063055E+02  0.51100000000E-03 0.  1.
         12    1    3    3    0    0 -0.28018371124E+02 -0.19281378454E+02 -0.24530118348E+02  0.41934799173E+02  0.00000000000E+00 0. -1.
</event>
<event>
 7    1  0.2468912E-015  0.9000780E+02  0.7816164E-02  0.1186339E+00
        -11   -1    0    0    0    0  0.00000000000E+00  0.00000000000E+00  0.45593999997E+02  0.45594000000E+02  0.51100000000E-03 0.  1.
         11   -1    0    0    0    0 -0.00000000000E+00 -0.00000000000E+00 -0.45593999997E+02  0.45594000000E+02  0.51100000000E-03 0. -1.
    9900012    2    1    2    0    0 -0.77525432639E+00 -0.43255545656E+00  0.77765858962E+00  0.90007798163E+02  0.90000060299E+02 0.  0.
         12    1    1    2    0    0  0.77525432639E+00  0.43255545656E+00 -0.77765858962E+00  0.11802018368E+01  0.00000000000E+00 0. -1.
         11    1    3    3    0    0 -0.30281944951E+02  0.41063410151E+01 -0.17139117641E+02  0.35037231345E+02  0.51100000000E-03 0. -1.
        -11    1    3    3    0    0  0.36895592420E+01  0.12868513305E+02 -0.69855000132E+01  0.15099956714E+02  0.51100000000E-03 0.  1.
        -12    1    3    3    0    0  0.25817131383E+02 -0.17407409776E+02  0.24902276244E+02  0.39870610104E+02  0.00000000000E+00 0.  1.
</event>
<event>
 7    1  0.2468912E-015  0.9000771E+02  0.7816164E-02  0.1186339E+00
        -11   -1    0    0    0    0  0.00000000000E+00  0.00000000000E+00  0.45593999997E+02  0.45594000000E+02  0.51100000000E-03 0.  1.
         11   -1    0    0    0    0 -0.00000000000E+00 -0.00000000000E+00 -0.45593999997E+02  0.45594000000E+02  0.51100000000E-03 0. -1.
    9900012    2    1    2    0    0 -0.61843397351E+00  0.97656103443E+00  0.23864094151E+00  0.90007711250E+02  0.89999972239E+02 0.  0.
         12    1    1    2    0    0  0.61843397351E+00 -0.97656103443E+00 -0.23864094151E+00  0.11802887496E+01  0.00000000000E+00 0. -1.
         11    1    3    3    0    0 -0.46256933159E+01  0.69733114463E+01  0.16577267345E+01  0.85306605469E+01  0.51100000000E-03 0. -1.
        -11    1    3    3    0    0 -0.10757255170E+01  0.20288432071E+02  0.32461682549E+02  0.38295410893E+02  0.51100000000E-03 0.  1.
         12    1    3    3    0    0  0.50829848593E+01 -0.26285182483E+02 -0.33880768342E+02  0.43181639810E+02  0.00000000000E+00 0. -1.
</event>
<event>
 7    1  0.2468912E-015  0.9000767E+02  0.7816164E-02  0.1186339E+00
        -11   -1    0    0    0    0  0.00000000000E+00  0.00000000000E+00  0.45593999997E+02  0.45594000000E+02  0.51100000000E-03 0. -1.
         11   -1    0    0    0    0 -0.00000000000E+00 -0.00000000000E+00 -0.45593999997E+02  0.45594000000E+02  0.51100000000E-03 0.  1.
    9900012    2    1    2    0    0  0.53557779280E+00  0.70820112663E+00  0.77767688516E+00  0.90007672187E+02  0.89999932660E+02 0.  0.
         12    1    1    2    0    0 -0.53557779280E+00 -0.70820112663E+00 -0.77767688516E+00  0.11803278128E+01  0.00000000000E+00 0. -1.
         11    1    3    3    0    0 -0.87408247178E+01  0.49206411751E+01 -0.24289366929E+01  0.10320584288E+02  0.51100000000E-03 0. -1.
        -11    1    3    3    0    0 -0.22015945866E+02 -0.31261991863E+02  0.57614377451E+00  0.38240632180E+02  0.51100000000E-03 0.  1.
         12    1    3    3    0    0  0.31292348377E+02  0.27049551814E+02  0.26304698035E+01  0.41446455719E+02  0.00000000000E+00 0. -1.
</event>
<event>
 7    1  0.2468912E-015  0.9000778E+02  0.7816164E-02  0.1186339E+00
        -11   -1    0    0    0    0  0.00000000000E+00  0.00000000000E+00  0.45593999997E+02  0.45594000000E+02  0.51100000000E-03 0. -1.
         11   -1    0    0    0    0 -0.00000000000E+00 -0.00000000000E+00 -0.45593999997E+02  0.45594000000E+02  0.51100000000E-03 0.  1.
    9900012    2    1    2    0    0 -0.14505354719E+00 -0.98660460966E+00  0.63125627492E+00  0.90007782362E+02  0.90000044290E+02 0.  0.
         12    1    1    2    0    0  0.14505354719E+00  0.98660460966E+00 -0.63125627492E+00  0.11802176375E+01  0.00000000000E+00 0. -1.
         11    1    3    3    0    0  0.87276667204E+01 -0.39483286177E+01  0.39738669580E+01  0.10370780304E+02  0.51100000000E-03 0. -1.
        -11    1    3    3    0    0  0.15252370625E+02  0.48256897230E+01 -0.35765568704E+02  0.39180326644E+02  0.51100000000E-03 0.  1.
         12    1    3    3    0    0 -0.24125090892E+02 -0.18639657150E+01  0.32422958021E+02  0.40456675414E+02  0.00000000000E+00 0. -1.
</event>
<event>
 7    1  0.2468912E-015  0.9000765E+02  0.7816164E-02  0.1186339E+00
        -11   -1    0    0    0    0  0.00000000000E+00  0.00000000000E+00  0.45593999997E+02  0.45594000000E+02  0.51100000000E-03 0. -1.
         11   -1    0    0    0    0 -0.00000000000E+00 -0.00000000000E+00 -0.45593999997E+02  0.45594000000E+02  0.51100000000E-03 0.  1.
    9900012    2    1    2    0    0  0.13134471664E+00  0.44873990285E+00 -0.10837880310E+01  0.90007654529E+02  0.89999914769E+02 0.  0.
         12    1    1    2    0    0 -0.13134471664E+00 -0.44873990285E+00  0.10837880310E+01  0.11803454711E+01  0.00000000000E+00 0. -1.
         11    1    3    3    0    0 -0.92893793877E+01  0.74944905378E+00  0.39138783610E+01  0.10108050622E+02  0.51100000000E-03 0. -1.
        -11    1    3    3    0    0 -0.19931027575E+02 -0.29325784799E+02  0.85134147039E+01  0.36465404762E+02  0.51100000000E-03 0.  1.
         12    1    3    3    0    0  0.29351751680E+02  0.29025075648E+02 -0.13511081096E+02  0.43434199145E+02  0.00000000000E+00 0. -1.
</event>
<event>
 7    1  0.2468912E-015  0.9000775E+02  0.7816164E-02  0.1186339E+00
        -11   -1    0    0    0    0  0.00000000000E+00  0.00000000000E+00  0.45593999997E+02  0.45594000000E+02  0.51100000000E-03 0.  1.
         11   -1    0    0    0    0 -0.00000000000E+00 -0.00000000000E+00 -0.45593999997E+02  0.45594000000E+02  0.51100000000E-03 0. -1.
    9900012    2    1    2    0    0  0.54002344402E+00  0.10483665671E+01  0.47988863447E-01  0.90007745489E+02  0.90000006930E+02 0.  0.
         12    1    1    2    0    0 -0.54002344402E+00 -0.10483665671E+01 -0.47988863447E-01  0.11802545107E+01  0.00000000000E+00 0. -1.
         11    1    3    3    0    0 -0.32513231452E+02 -0.53982638887E+01 -0.99317048577E+01  0.34422234589E+02  0.51100000000E-03 0. -1.
        -11    1    3    3    0    0  0.15273627360E+01  0.13648365783E+02 -0.10517894813E+02  0.17298463430E+02  0.51100000000E-03 0.  1.
        -12    1    3    3    0    0  0.31525892160E+02 -0.72017353276E+01  0.20497588535E+02  0.38287047470E+02  0.00000000000E+00 0.  1.
</event>
<event>
 7    1  0.2468912E-015  0.9000775E+02  0.7816164E-02  0.1186339E+00
        -11   -1    0    0    0    0  0.00000000000E+00  0.00000000000E+00  0.45593999997E+02  0.45594000000E+02  0.51100000000E-03 0. -1.
         11   -1    0    0    0    0 -0.00000000000E+00 -0.00000000000E+00 -0.45593999997E+02  0.45594000000E+02  0.51100000000E-03 0.  1.
    9900012    2    1    2    0    0  0.82282626972E-01 -0.11223413184E+01 -0.35576986202E+00  0.90007748899E+02  0.90000010385E+02 0.  0.
         12    1    1    2    0    0 -0.82282626972E-01  0.11223413184E+01  0.35576986202E+00  0.11802511005E+01  0.00000000000E+00 0. -1.
         11    1    3    3    0    0  0.66303811849E+01 -0.11111084945E+01  0.71474649866E+01  0.98123785465E+01  0.51100000000E-03 0. -1.
        -11    1    3    3    0    0  0.34765577595E+02 -0.11977078637E+02 -0.18951062960E+01  0.36819658150E+02  0.51100000000E-03 0.  1.
         12    1    3    3    0    0 -0.41313676152E+02  0.11965845813E+02 -0.56081285526E+01  0.43375712203E+02  0.00000000000E+00 0. -1.
</event>
<event>
 7    1  0.2468912E-015  0.9000775E+02  0.7816164E-02  0.1186339E+00
        -11   -1    0    0    0    0  0.00000000000E+00  0.00000000000E+00  0.45593999997E+02  0.45594000000E+02  0.51100000000E-03 0.  1.
         11   -1    0    0    0    0 -0.00000000000E+00 -0.00000000000E+00 -0.45593999997E+02  0.45594000000E+02  0.51100000000E-03 0. -1.
    9900012    2    1    2    0    0 -0.16510344297E+00 -0.97639379881E+00  0.64216958612E+00  0.90007751817E+02  0.90000013341E+02 0.  0.
         12    1    1    2    0    0  0.16510344297E+00  0.97639379881E+00 -0.64216958612E+00  0.11802481835E+01  0.00000000000E+00 0. -1.
         11    1    3    3    0    0 -0.35129657140E+01  0.76670173818E+01 -0.64643500514E+01  0.10626001388E+02  0.51100000000E-03 0. -1.
        -11    1    3    3    0    0  0.36390637620E+02  0.57033058348E+01  0.18999670372E+02  0.41446274601E+02  0.51100000000E-03 0.  1.
         12    1    3    3    0    0 -0.33042775349E+02 -0.14346717015E+02 -0.11893150734E+02  0.37935475828E+02  0.00000000000E+00 0. -1.
</event>
<event>
 7    1  0.2468912E-015  0.9000772E+02  0.7816164E-02  0.1186339E+00
        -11   -1    0    0    0    0  0.00000000000E+00  0.00000000000E+00  0.45593999997E+02  0.45594000000E+02  0.51100000000E-03 0. -1.
         11   -1    0    0    0    0 -0.00000000000E+00 -0.00000000000E+00 -0.45593999997E+02  0.45594000000E+02  0.51100000000E-03 0.  1.
    9900012    2    1    2    0    0  0.57591988404E+00  0.37770588592E+00 -0.95849513109E+00  0.90007721065E+02  0.89999982183E+02 0.  0.
         12    1    1    2    0    0 -0.57591988404E+00 -0.37770588592E+00  0.95849513109E+00  0.11802789354E+01  0.00000000000E+00 0. -1.
         11    1    3    3    0    0  0.12998096091E+01  0.89352168692E+01 -0.49497925581E+01  0.10296992384E+02  0.51100000000E-03 0. -1.
        -11    1    3    3    0    0 -0.39888136036E+02 -0.23496795956E+01  0.18997215078E+01  0.40002416586E+02  0.51100000000E-03 0.  1.
         12    1    3    3    0    0  0.39164246311E+02 -0.62078313877E+01  0.20915759193E+01  0.39708312095E+02  0.00000000000E+00 0. -1.
</event>
<event>
 7    1  0.2468912E-015  0.9000771E+02  0.7816164E-02  0.1186339E+00
        -11   -1    0    0    0    0  0.00000000000E+00  0.00000000000E+00  0.45593999997E+02  0.45594000000E+02  0.51100000000E-03 0.  1.
         11   -1    0    0    0    0 -0.00000000000E+00 -0.00000000000E+00 -0.45593999997E+02  0.45594000000E+02  0.51100000000E-03 0. -1.
    9900012    2    1    2    0    0 -0.51813641945E+00 -0.52998275721E+00  0.91855708404E+00  0.90007705889E+02  0.89999966807E+02 0.  0.
         12    1    1    2    0    0  0.51813641945E+00  0.52998275721E+00 -0.91855708404E+00  0.11802941111E+01  0.00000000000E+00 0. -1.
         11    1    3    3    0    0 -0.89082822163E+01  0.16073162638E+01  0.40112020504E+01  0.99010453876E+01  0.51100000000E-03 0. -1.
        -11    1    3    3    0    0 -0.31974448318E+01 -0.37333028899E+02  0.13066018143E+02  0.39682483927E+02  0.51100000000E-03 0.  1.
         12    1    3    3    0    0  0.11587590629E+02  0.35195729878E+02 -0.16158663109E+02  0.40424176574E+02  0.00000000000E+00 0. -1.
</event>
<event>
 7    1  0.2468912E-015  0.9000774E+02  0.7816164E-02  0.1186339E+00
        -11   -1    0    0    0    0  0.00000000000E+00  0.00000000000E+00  0.45593999997E+02  0.45594000000E+02  0.51100000000E-03 0. -1.
         11   -1    0    0    0    0 -0.00000000000E+00 -0.00000000000E+00 -0.45593999997E+02  0.45594000000E+02  0.51100000000E-03 0.  1.
    9900012    2    1    2    0    0 -0.70276080760E-01  0.10968678644E+01  0.43007399031E+00  0.90007736692E+02  0.89999998016E+02 0.  0.
         12    1    1    2    0    0  0.70276080760E-01 -0.10968678644E+01 -0.43007399031E+00  0.11802633082E+01  0.00000000000E+00 0. -1.
         11    1    3    3    0    0 -0.13999040982E+02  0.27018462585E+02  0.31052609894E+02  0.43476833491E+02  0.51100000000E-03 0. -1.
        -11    1    3    3    0    0 -0.36936823288E+01 -0.24302777600E+01 -0.91150902937E+01  0.10130864250E+02  0.51100000000E-03 0.  1.
        -12    1    3    3    0    0  0.17622447230E+02 -0.23491316961E+02 -0.21507445610E+02  0.36400038951E+02  0.00000000000E+00 0.  1.
</event>
<event>
 7    1  0.2468912E-015  0.9000773E+02  0.7816164E-02  0.1186339E+00
        -11   -1    0    0    0    0  0.00000000000E+00  0.00000000000E+00  0.45593999997E+02  0.45594000000E+02  0.51100000000E-03 0.  1.
         11   -1    0    0    0    0 -0.00000000000E+00 -0.00000000000E+00 -0.45593999997E+02  0.45594000000E+02  0.51100000000E-03 0. -1.
    9900012    2    1    2    0    0  0.56778983997E+00  0.91243043461E-01  0.10306972409E+01  0.90007725711E+02  0.89999986890E+02 0.  0.
         12    1    1    2    0    0 -0.56778983997E+00 -0.91243043461E-01 -0.10306972409E+01  0.11802742892E+01  0.00000000000E+00 0. -1.
         11    1    3    3    0    0  0.36754600274E+01 -0.23429321370E+02 -0.16969048243E+02  0.29161459237E+02  0.51100000000E-03 0. -1.
        -11    1    3    3    0    0  0.16972925488E+02 -0.60887942888E+01  0.17409919468E+02  0.25065093489E+02  0.51100000000E-03 0.  1.
         12    1    3    3    0    0 -0.20080595675E+02  0.29609358702E+02  0.58982601610E+00  0.35781172985E+02  0.00000000000E+00 0. -1.
</event>
<event>
 7    1  0.2468912E-015  0.9000776E+02  0.7816164E-02  0.1186339E+00
        -11   -1    0    0    0    0  0.00000000000E+00  0.00000000000E+00  0.45593999997E+02  0.45594000000E+02  0.51100000000E-03 0. -1.
         11   -1    0    0    0    0 -0.00000000000E+00 -0.00000000000E+00 -0.45593999997E+02  0.45594000000E+02  0.51100000000E-03 0.  1.
    9900012    2    1    2    0    0  0.95061154273E+00 -0.47847681075E+00  0.51025739750E+00  0.90007760628E+02  0.90000022268E+02 0.  0.
         12    1    1    2    0    0 -0.95061154273E+00  0.47847681075E+00 -0.51025739750E+00  0.11802393720E+01  0.00000000000E+00 0. -1.
         11    1    3    3    0    0 -0.74190236616E+01 -0.21791364032E+01  0.58698620336E+01  0.97080290538E+01  0.51100000000E-03 0. -1.
        -11    1    3    3    0    0  0.57051702339E+01 -0.28305209783E+02 -0.29810321181E+02  0.41501676080E+02  0.51100000000E-03 0.  1.
         12    1    3    3    0    0  0.26644649704E+01  0.30005869376E+02  0.24450716545E+02  0.38798055494E+02  0.00000000000E+00 0. -1.
</event>
<event>
 7    1  0.3147721E-015  0.9000722E+02  0.7816164E-02  0.1186340E+00
        -11   -1    0    0    0    0  0.00000000000E+00  0.00000000000E+00  0.45593999997E+02  0.45594000000E+02  0.51100000000E-03 0.  1.
         11   -1    0    0    0    0 -0.00000000000E+00 -0.00000000000E+00 -0.45593999997E+02  0.45594000000E+02  0.51100000000E-03 0. -1.
    9900012    2    1    2    0    0 -0.76877521542E+00  0.29581772587E-01  0.89573615406E+00  0.90007223276E+02  0.89999477822E+02 0.  0.
         12    1    1    2    0    0  0.76877521542E+00 -0.29581772587E-01 -0.89573615406E+00  0.11807767235E+01  0.00000000000E+00 0. -1.
         11    1    3    3    0    0  0.29664453537E+02 -0.38378401282E+01 -0.25440775463E+02  0.39267567749E+02  0.51100000000E-03 0. -1.
        -11    1    3    3    0    0  0.38847515689E+01  0.78197625080E+01  0.40131310872E+01  0.96096410868E+01  0.51100000000E-03 0.  1.
        -12    1    3    3    0    0 -0.34317980321E+02 -0.39523406072E+01  0.22323380530E+02  0.41130014441E+02  0.00000000000E+00 0.  1.
</event>
<event>
 7    1  0.2468912E-015  0.9000772E+02  0.7816164E-02  0.1186339E+00
        -11   -1    0    0    0    0  0.00000000000E+00  0.00000000000E+00  0.45593999997E+02  0.45594000000E+02  0.51100000000E-03 0.  1.
         11   -1    0    0    0    0 -0.00000000000E+00 -0.00000000000E+00 -0.45593999997E+02  0.45594000000E+02  0.51100000000E-03 0. -1.
    9900012    2    1    2    0    0 -0.64838121500E+00  0.24180366457E+00  0.95613340600E+00  0.90007721091E+02  0.89999982210E+02 0.  0.
         12    1    1    2    0    0  0.64838121500E+00 -0.24180366457E+00 -0.95613340600E+00  0.11802789087E+01  0.00000000000E+00 0. -1.
         11    1    3    3    0    0  0.13163909056E+02  0.45114788326E+01  0.16842607459E+02  0.21847548356E+02  0.51100000000E-03 0. -1.
        -11    1    3    3    0    0  0.17379930733E+02  0.13881433708E+02  0.93441099481E+01  0.24126097593E+02  0.51100000000E-03 0.  1.
         12    1    3    3    0    0 -0.31192221004E+02 -0.18151108876E+02 -0.25230584001E+02  0.44034075142E+02  0.00000000000E+00 0. -1.
</event>
<event>
 7    1  0.2468912E-015  0.9000792E+02  0.7816164E-02  0.1186339E+00
        -11   -1    0    0    0    0  0.00000000000E+00  0.00000000000E+00  0.45593999997E+02  0.45594000000E+02  0.51100000000E-03 0.  1.
         11   -1    0    0    0    0 -0.00000000000E+00 -0.00000000000E+00 -0.45593999997E+02  0.45594000000E+02  0.51100000000E-03 0. -1.
    9900012    2    1    2    0    0  0.84581859666E-01  0.70015835228E+00 -0.94615183111E+00  0.90007924114E+02  0.90000187912E+02 0.  0.
         12    1    1    2    0    0 -0.84581859666E-01 -0.70015835228E+00  0.94615183111E+00  0.11800758860E+01  0.00000000000E+00 0. -1.
         11    1    3    3    0    0  0.18105122040E+02 -0.18398772247E+02 -0.26046846879E+02  0.36670812602E+02  0.51100000000E-03 0. -1.
        -11    1    3    3    0    0 -0.10592312713E+00 -0.12514141725E+01 -0.93856927518E+01  0.94693445302E+01  0.51100000000E-03 0.  1.
        -12    1    3    3    0    0 -0.17914617053E+02  0.20350344772E+02  0.34486387800E+02  0.43867766982E+02  0.00000000000E+00 0.  1.
</event>
<event>
 7    1  0.2468912E-015  0.9000759E+02  0.7816164E-02  0.1186339E+00
        -11   -1    0    0    0    0  0.00000000000E+00  0.00000000000E+00  0.45593999997E+02  0.45594000000E+02  0.51100000000E-03 0. -1.
         11   -1    0    0    0    0 -0.00000000000E+00 -0.00000000000E+00 -0.45593999997E+02  0.45594000000E+02  0.51100000000E-03 0.  1.
    9900012    2    1    2    0    0 -0.22220497223E+00 -0.22962072105E+00 -0.11363374225E+01  0.90007591824E+02  0.89999851235E+02 0.  0.
         12    1    1    2    0    0  0.22220497223E+00  0.22962072105E+00  0.11363374225E+01  0.11804081765E+01  0.00000000000E+00 0. -1.
         11    1    3    3    0    0 -0.71321089347E+01 -0.55659581116E+01 -0.67896580860E+00  0.90723680694E+01  0.51100000000E-03 0. -1.
        -11    1    3    3    0    0 -0.58658877684E+01 -0.33619918593E+02 -0.15210313741E+02  0.37363902498E+02  0.51100000000E-03 0.  1.
         12    1    3    3    0    0  0.12775791731E+02  0.38956255984E+02  0.14752942127E+02  0.43571321256E+02  0.00000000000E+00 0. -1.
</event>
<event>
 7    1  0.2468912E-015  0.9000777E+02  0.7816164E-02  0.1186339E+00
        -11   -1    0    0    0    0  0.00000000000E+00  0.00000000000E+00  0.45593999997E+02  0.45594000000E+02  0.51100000000E-03 0.  1.
         11   -1    0    0    0    0 -0.00000000000E+00 -0.00000000000E+00 -0.45593999997E+02  0.45594000000E+02  0.51100000000E-03 0. -1.
    9900012    2    1    2    0    0 -0.78411812955E+00 -0.79184965778E+00  0.38867856163E+00  0.90007771994E+02  0.90000033784E+02 0.  0.
         12    1    1    2    0    0  0.78411812955E+00  0.79184965778E+00 -0.38867856163E+00  0.11802280059E+01  0.00000000000E+00 0. -1.
         11    1    3    3    0    0  0.24737548926E+01 -0.13975215210E+02 -0.38633729439E+02  0.41158123792E+02  0.51100000000E-03 0. -1.
        -11    1    3    3    0    0 -0.10509043210E+02 -0.13331985326E+01  0.63007630500E+01  0.12325462376E+02  0.51100000000E-03 0.  1.
        -12    1    3    3    0    0  0.72511701877E+01  0.14516564085E+02  0.32721644951E+02  0.36524185826E+02  0.00000000000E+00 0.  1.
</event>
<event>
 7    1  0.2468912E-015  0.9000771E+02  0.7816164E-02  0.1186339E+00
        -11   -1    0    0    0    0  0.00000000000E+00  0.00000000000E+00  0.45593999997E+02  0.45594000000E+02  0.51100000000E-03 0. -1.
         11   -1    0    0    0    0 -0.00000000000E+00 -0.00000000000E+00 -0.45593999997E+02  0.45594000000E+02  0.51100000000E-03 0.  1.
    9900012    2    1    2    0    0 -0.48274053831E+00  0.11476280465E+00 -0.10709272317E+01  0.90007705942E+02  0.89999966860E+02 0.  0.
         12    1    1    2    0    0  0.48274053831E+00 -0.11476280465E+00  0.10709272317E+01  0.11802940584E+01  0.00000000000E+00 0. -1.
         11    1    3    3    0    0 -0.82819165420E+01 -0.23165033314E+02  0.30317943242E+02  0.39043393714E+02  0.51100000000E-03 0. -1.
        -11    1    3    3    0    0  0.44623197285E+01 -0.77209430978E+01 -0.80980773260E+01  0.12045916998E+02  0.51100000000E-03 0.  1.
        -12    1    3    3    0    0  0.33368562752E+01  0.31000739217E+02 -0.23290793148E+02  0.38918395229E+02  0.00000000000E+00 0.  1.
</event>
<event>
 7    1  0.2468912E-015  0.9000773E+02  0.7816164E-02  0.1186339E+00
        -11   -1    0    0    0    0  0.00000000000E+00  0.00000000000E+00  0.45593999997E+02  0.45594000000E+02  0.51100000000E-03 0. -1.
         11   -1    0    0    0    0 -0.00000000000E+00 -0.00000000000E+00 -0.45593999997E+02  0.45594000000E+02  0.51100000000E-03 0.  1.
    9900012    2    1    2    0    0  0.31680916348E+00 -0.81137284662E+00 -0.79645046080E+00  0.90007734234E+02  0.89999995526E+02 0.  0.
         12    1    1    2    0    0 -0.31680916348E+00  0.81137284662E+00  0.79645046080E+00  0.11802657662E+01  0.00000000000E+00 0. -1.
         11    1    3    3    0    0 -0.55879354210E+00 -0.93361780205E+01 -0.39046917062E+01  0.10135239900E+02  0.51100000000E-03 0. -1.
        -11    1    3    3    0    0 -0.17411389478E+01  0.80528868489E+01 -0.37896433606E+02  0.38781699702E+02  0.51100000000E-03 0.  1.
         12    1    3    3    0    0  0.26167416534E+01  0.47191832499E+00  0.41004674852E+02  0.41090794632E+02  0.00000000000E+00 0. -1.
</event>
<event>
 7    1  0.2468912E-015  0.9000803E+02  0.7816164E-02  0.1186338E+00
        -11   -1    0    0    0    0  0.00000000000E+00  0.00000000000E+00  0.45593999997E+02  0.45594000000E+02  0.51100000000E-03 0. -1.
         11   -1    0    0    0    0 -0.00000000000E+00 -0.00000000000E+00 -0.45593999997E+02  0.45594000000E+02  0.51100000000E-03 0.  1.
    9900012    2    1    2    0    0  0.58408525654E-01 -0.11344520900E+01  0.31928049304E+00  0.90008028334E+02  0.90000293507E+02 0.  0.
         12    1    1    2    0    0 -0.58408525654E-01  0.11344520900E+01 -0.31928049304E+00  0.11799716664E+01  0.00000000000E+00 0. -1.
         11    1    3    3    0    0  0.35136680164E+01 -0.10070093961E+02  0.17834734925E+02  0.20780529960E+02  0.51100000000E-03 0. -1.
        -11    1    3    3    0    0 -0.34248182210E+02  0.10613912004E+02 -0.62510617842E+01  0.36396000967E+02  0.51100000000E-03 0.  1.
         12    1    3    3    0    0  0.30792922719E+02 -0.16782701325E+01 -0.11264392648E+02  0.32831497406E+02  0.00000000000E+00 0. -1.
</event>
<event>
 7    1  0.2468912E-015  0.9000778E+02  0.7816164E-02  0.1186339E+00
        -11   -1    0    0    0    0  0.00000000000E+00  0.00000000000E+00  0.45593999997E+02  0.45594000000E+02  0.51100000000E-03 0.  1.
         11   -1    0    0    0    0 -0.00000000000E+00 -0.00000000000E+00 -0.45593999997E+02  0.45594000000E+02  0.51100000000E-03 0. -1.
    9900012    2    1    2    0    0 -0.48513394553E+00 -0.76284697388E+00  0.75869789660E+00  0.90007782669E+02  0.90000044600E+02 0.  0.
         12    1    1    2    0    0  0.48513394553E+00  0.76284697388E+00 -0.75869789660E+00  0.11802173312E+01  0.00000000000E+00 0. -1.
         11    1    3    3    0    0  0.90934706583E+01  0.25400740985E+02 -0.21740532646E+02  0.34648803893E+02  0.51100000000E-03 0. -1.
        -11    1    3    3    0    0 -0.10984233073E+02  0.81858971942E+01 -0.97057664254E+00  0.13733328378E+02  0.51100000000E-03 0.  1.
        -12    1    3    3    0    0  0.14056284687E+01 -0.34349485154E+02  0.23469807185E+02  0.41625650397E+02  0.00000000000E+00 0.  1.
</event>
<event>
 7    1  0.2468912E-015  0.9000772E+02  0.7816164E-02  0.1186339E+00
        -11   -1    0    0    0    0  0.00000000000E+00  0.00000000000E+00  0.45593999997E+02  0.45594000000E+02  0.51100000000E-03 0.  1.
         11   -1    0    0    0    0 -0.00000000000E+00 -0.00000000000E+00 -0.45593999997E+02  0.45594000000E+02  0.51100000000E-03 0. -1.
    9900012    2    1    2    0    0  0.89044027243E+00 -0.17868668741E+00  0.75382852652E+00  0.90007716026E+02  0.89999977078E+02 0.  0.
         12    1    1    2    0    0 -0.89044027243E+00  0.17868668741E+00 -0.75382852652E+00  0.11802839736E+01  0.00000000000E+00 0. -1.
         11    1    3    3    0    0 -0.86360451492E+01  0.39128885452E+01  0.32609443341E+01  0.10026252081E+02  0.51100000000E-03 0. -1.
        -11    1    3    3    0    0  0.16075387403E+01 -0.41530315591E+02  0.82488346174E+00  0.41569600995E+02  0.51100000000E-03 0.  1.
         12    1    3    3    0    0  0.79189466813E+01  0.37438740358E+02 -0.33319992693E+01  0.38411862950E+02  0.00000000000E+00 0. -1.
</event>
<event>
 7    1  0.2468912E-015  0.9000775E+02  0.7816164E-02  0.1186339E+00
        -11   -1    0    0    0    0  0.00000000000E+00  0.00000000000E+00  0.45593999997E+02  0.45594000000E+02  0.51100000000E-03 0.  1.
         11   -1    0    0    0    0 -0.00000000000E+00 -0.00000000000E+00 -0.45593999997E+02  0.45594000000E+02  0.51100000000E-03 0. -1.
    9900012    2    1    2    0    0  0.16298017372E+00  0.74534346106E+00  0.90049865595E+00  0.90007746959E+02  0.90000008419E+02 0.  0.
         12    1    1    2    0    0 -0.16298017372E+00 -0.74534346106E+00 -0.90049865595E+00  0.11802530412E+01  0.00000000000E+00 0. -1.
         11    1    3    3    0    0  0.27673282621E+02  0.26384447135E+02  0.30066487047E+01  0.38353481698E+02  0.51100000000E-03 0. -1.
        -11    1    3    3    0    0 -0.66520689113E+01  0.73423929564E+01 -0.72723286474E+01  0.12290139110E+02  0.51100000000E-03 0.  1.
        -12    1    3    3    0    0 -0.20858233536E+02 -0.32981496631E+02  0.51661785986E+01  0.39364126150E+02  0.00000000000E+00 0.  1.
</event>
<event>
 7    1  0.2468912E-015  0.9000773E+02  0.7816164E-02  0.1186339E+00
        -11   -1    0    0    0    0  0.00000000000E+00  0.00000000000E+00  0.45593999997E+02  0.45594000000E+02  0.51100000000E-03 0.  1.
         11   -1    0    0    0    0 -0.00000000000E+00 -0.00000000000E+00 -0.45593999997E+02  0.45594000000E+02  0.51100000000E-03 0. -1.
    9900012    2    1    2    0    0  0.19750807926E+00 -0.39498366016E+00  0.10945414456E+01  0.90007727782E+02  0.89999988988E+02 0.  0.
         12    1    1    2    0    0 -0.19750807926E+00  0.39498366016E+00 -0.10945414456E+01  0.11802722183E+01  0.00000000000E+00 0. -1.
         11    1    3    3    0    0  0.27041238706E+02 -0.26540560351E+02 -0.67337507359E+01  0.38483416347E+02  0.51100000000E-03 0. -1.
        -11    1    3    3    0    0  0.34986431966E+01 -0.46908444835E+01  0.57637449728E+01  0.82137252546E+01  0.51100000000E-03 0.  1.
        -12    1    3    3    0    0 -0.30342373823E+02  0.30836421175E+02  0.20645472087E+01  0.43310586180E+02  0.00000000000E+00 0.  1.
</event>
<event>
 7    1  0.2468912E-015  0.9000774E+02  0.7816164E-02  0.1186339E+00
        -11   -1    0    0    0    0  0.00000000000E+00  0.00000000000E+00  0.45593999997E+02  0.45594000000E+02  0.51100000000E-03 0. -1.
         11   -1    0    0    0    0 -0.00000000000E+00 -0.00000000000E+00 -0.45593999997E+02  0.45594000000E+02  0.51100000000E-03 0.  1.
    9900012    2    1    2    0    0 -0.34586048201E-01  0.11797565432E+01  0.13485073127E-02  0.90007735828E+02  0.89999997141E+02 0.  0.
         12    1    1    2    0    0  0.34586048201E-01 -0.11797565432E+01 -0.13485073127E-02  0.11802641715E+01  0.00000000000E+00 0. -1.
         11    1    3    3    0    0 -0.27644183749E+02 -0.34304788350E+02 -0.25411379216E+01  0.44130225255E+02  0.51100000000E-03 0. -1.
        -11    1    3    3    0    0  0.40975150876E+01  0.81188349849E+01  0.36052301714E+01  0.97827805993E+01  0.51100000000E-03 0.  1.
        -12    1    3    3    0    0  0.23512082613E+02  0.27365709909E+02 -0.10627437425E+01  0.36094729974E+02  0.00000000000E+00 0.  1.
</event>
<event>
 7    1  0.2468912E-015  0.9000768E+02  0.7816164E-02  0.1186339E+00
        -11   -1    0    0    0    0  0.00000000000E+00  0.00000000000E+00  0.45593999997E+02  0.45594000000E+02  0.51100000000E-03 0.  1.
         11   -1    0    0    0    0 -0.00000000000E+00 -0.00000000000E+00 -0.45593999997E+02  0.45594000000E+02  0.51100000000E-03 0. -1.
    9900012    2    1    2    0    0  0.21985335151E+00 -0.49503001434E+00  0.10486913943E+01  0.90007684851E+02  0.89999945491E+02 0.  0.
         12    1    1    2    0    0 -0.21985335151E+00  0.49503001434E+00 -0.10486913943E+01  0.11803151494E+01  0.00000000000E+00 0. -1.
         11    1    3    3    0    0  0.96626132930E+01  0.33237816974E+01 -0.37340021165E+01  0.10879172417E+02  0.51100000000E-03 0. -1.
        -11    1    3    3    0    0 -0.21359102104E+02 -0.37520874047E+02  0.41856790882E+01  0.43376804189E+02  0.51100000000E-03 0.  1.
         12    1    3    3    0    0  0.11916342163E+02  0.33702062335E+02  0.59701442268E+00  0.35751708244E+02  0.00000000000E+00 0. -1.
</event>
<event>
 7    1  0.2468912E-015  0.9000778E+02  0.7816164E-02  0.1186339E+00
        -11   -1    0    0    0    0  0.00000000000E+00  0.00000000000E+00  0.45593999997E+02  0.45594000000E+02  0.51100000000E-03 0. -1.
         11   -1    0    0    0    0 -0.00000000000E+00 -0.00000000000E+00 -0.45593999997E+02  0.45594000000E+02  0.51100000000E-03 0.  1.
    9900012    2    1    2    0    0 -0.39626944210E+00  0.94155786004E+00 -0.59106260562E+00  0.90007781512E+02  0.90000043428E+02 0.  0.
         12    1    1    2    0    0  0.39626944210E+00 -0.94155786004E+00  0.59106260562E+00  0.11802184875E+01  0.00000000000E+00 0. -1.
         11    1    3    3    0    0 -0.87538155065E+01 -0.31390415164E+01  0.45606878450E-01  0.92997283730E+01  0.51100000000E-03 0. -1.
        -11    1    3    3    0    0 -0.28666035391E+02  0.16981277473E+02 -0.17953247726E+02  0.37847383976E+02  0.51100000000E-03 0.  1.
         12    1    3    3    0    0  0.37023581455E+02 -0.12900678096E+02  0.17316578242E+02  0.42860669164E+02  0.00000000000E+00 0. -1.
</event>
<event>
 7    1  0.2468912E-015  0.9000767E+02  0.7816164E-02  0.1186339E+00
        -11   -1    0    0    0    0  0.00000000000E+00  0.00000000000E+00  0.45593999997E+02  0.45594000000E+02  0.51100000000E-03 0. -1.
         11   -1    0    0    0    0 -0.00000000000E+00 -0.00000000000E+00 -0.45593999997E+02  0.45594000000E+02  0.51100000000E-03 0.  1.
    9900012    2    1    2    0    0 -0.76179044606E+00  0.83951019314E+00 -0.32874962704E+00  0.90007670230E+02  0.89999930677E+02 0.  0.
         12    1    1    2    0    0  0.76179044606E+00 -0.83951019314E+00  0.32874962704E+00  0.11803297698E+01  0.00000000000E+00 0. -1.
         11    1    3    3    0    0 -0.35597025927E+02  0.75015533324E+01  0.15306102163E+02  0.39467687048E+02  0.51100000000E-03 0. -1.
        -11    1    3    3    0    0 -0.33029847887E+01  0.68101043903E+01 -0.32646420463E+01  0.82428828860E+01  0.51100000000E-03 0.  1.
        -12    1    3    3    0    0  0.38138220269E+02 -0.13472147530E+02 -0.12370209743E+02  0.42297100296E+02  0.00000000000E+00 0.  1.
</event>
<event>
 7    1  0.2468912E-015  0.9000769E+02  0.7816164E-02  0.1186339E+00
        -11   -1    0    0    0    0  0.00000000000E+00  0.00000000000E+00  0.45593999997E+02  0.45594000000E+02  0.51100000000E-03 0. -1.
         11   -1    0    0    0    0 -0.00000000000E+00 -0.00000000000E+00 -0.45593999997E+02  0.45594000000E+02  0.51100000000E-03 0.  1.
    9900012    2    1    2    0    0  0.20040394452E+00 -0.63636651705E+00  0.97365630104E+00  0.90007690431E+02  0.89999951145E+02 0.  0.
         12    1    1    2    0    0 -0.20040394452E+00  0.63636651705E+00 -0.97365630104E+00  0.11803095685E+01  0.00000000000E+00 0. -1.
         11    1    3    3    0    0  0.31341563700E+01 -0.11100506515E+01  0.79951115111E+01  0.86589235438E+01  0.51100000000E-03 0. -1.
        -11    1    3    3    0    0  0.28897025575E+02 -0.19168622350E+02 -0.21990002520E+02  0.41061348991E+02  0.51100000000E-03 0.  1.
         12    1    3    3    0    0 -0.31830778001E+02  0.19642306485E+02  0.14968547310E+02  0.40287417896E+02  0.00000000000E+00 0. -1.
</event>
<event>
 7    1  0.2468912E-015  0.9000770E+02  0.7816164E-02  0.1186339E+00
        -11   -1    0    0    0    0  0.00000000000E+00  0.00000000000E+00  0.45593999997E+02  0.45594000000E+02  0.51100000000E-03 0.  1.
         11   -1    0    0    0    0 -0.00000000000E+00 -0.00000000000E+00 -0.45593999997E+02  0.45594000000E+02  0.51100000000E-03 0. -1.
    9900012    2    1    2    0    0  0.59694744713E+00 -0.36691842657E+00  0.94980864459E+00  0.90007698408E+02  0.89999959227E+02 0.  0.
         12    1    1    2    0    0 -0.59694744713E+00  0.36691842657E+00 -0.94980864459E+00  0.11803015919E+01  0.00000000000E+00 0. -1.
         11    1    3    3    0    0 -0.18293489632E+01 -0.15807626346E+01  0.95318336325E+01  0.98336758537E+01  0.51100000000E-03 0. -1.
        -11    1    3    3    0    0  0.10863746257E+02  0.38571386428E+01  0.34406080610E+02  0.36286042557E+02  0.51100000000E-03 0.  1.
         12    1    3    3    0    0 -0.84374498469E+01 -0.26432944348E+01 -0.42988105598E+02  0.43887979998E+02  0.00000000000E+00 0. -1.
</event>
<event>
 7    1  0.2468912E-015  0.9000775E+02  0.7816164E-02  0.1186339E+00
        -11   -1    0    0    0    0  0.00000000000E+00  0.00000000000E+00  0.45593999997E+02  0.45594000000E+02  0.51100000000E-03 0.  1.
         11   -1    0    0    0    0 -0.00000000000E+00 -0.00000000000E+00 -0.45593999997E+02  0.45594000000E+02  0.51100000000E-03 0. -1.
    9900012    2    1    2    0    0 -0.74513828355E+00  0.49153890219E+00 -0.77210634750E+00  0.90007750126E+02  0.90000011627E+02 0.  0.
         12    1    1    2    0    0  0.74513828355E+00 -0.49153890219E+00  0.77210634750E+00  0.11802498743E+01  0.00000000000E+00 0. -1.
         11    1    3    3    0    0  0.36518280239E+02  0.34482460839E+01 -0.66028387211E+01  0.37270265254E+02  0.51100000000E-03 0. -1.
        -11    1    3    3    0    0  0.62268869686E+01  0.51845768439E+01  0.18633792022E+01  0.83142131728E+01  0.51100000000E-03 0.  1.
        -12    1    3    3    0    0 -0.43490305491E+02 -0.81412840257E+01  0.39673531713E+01  0.44423271699E+02  0.00000000000E+00 0.  1.
</event>
<event>
 7    1  0.2468912E-015  0.9000770E+02  0.7816164E-02  0.1186339E+00
        -11   -1    0    0    0    0  0.00000000000E+00  0.00000000000E+00  0.45593999997E+02  0.45594000000E+02  0.51100000000E-03 0.  1.
         11   -1    0    0    0    0 -0.00000000000E+00 -0.00000000000E+00 -0.45593999997E+02  0.45594000000E+02  0.51100000000E-03 0. -1.
    9900012    2    1    2    0    0  0.10219789875E+01  0.54339711375E+00 -0.23104321307E+00  0.90007702393E+02  0.89999963265E+02 0.  0.
         12    1    1    2    0    0 -0.10219789875E+01 -0.54339711375E+00  0.23104321307E+00  0.11802976067E+01  0.00000000000E+00 0. -1.
         11    1    3    3    0    0  0.24305239270E+02 -0.27627945317E+02 -0.94321495842E+00  0.36809478034E+02  0.51100000000E-03 0. -1.
        -11    1    3    3    0    0  0.46941221827E+01 -0.48140746707E+01 -0.64960641815E+01  0.93492752720E+01  0.51100000000E-03 0.  1.
        -12    1    3    3    0    0 -0.27977382465E+02  0.32985417101E+02  0.72082359269E+01  0.43848949088E+02  0.00000000000E+00 0.  1.
</event>
<event>
 7    1  0.2468912E-015  0.9000764E+02  0.7816164E-02  0.1186339E+00
        -11   -1    0    0    0    0  0.00000000000E+00  0.00000000000E+00  0.45593999997E+02  0.45594000000E+02  0.51100000000E-03 0. -1.
         11   -1    0    0    0    0 -0.00000000000E+00 -0.00000000000E+00 -0.45593999997E+02  0.45594000000E+02  0.51100000000E-03 0.  1.
    9900012    2    1    2    0    0 -0.86408796598E+00  0.12655500012E+00 -0.79409087944E+00  0.90007642213E+02  0.89999902290E+02 0.  0.
         12    1    1    2    0    0  0.86408796598E+00 -0.12655500012E+00  0.79409087944E+00  0.11803577872E+01  0.00000000000E+00 0. -1.
         11    1    3    3    0    0 -0.48589421361E+01 -0.29975724654E+02  0.12009645430E+02  0.32655550383E+02  0.51100000000E-03 0. -1.
        -11    1    3    3    0    0 -0.45290358283E+01 -0.60723161988E+01  0.10898045698E+02  0.13272248861E+02  0.51100000000E-03 0.  1.
        -12    1    3    3    0    0  0.85238899984E+01  0.36174595853E+02 -0.23701782007E+02  0.44079842968E+02  0.00000000000E+00 0.  1.
</event>
<event>
 7    1  0.2468912E-015  0.9000772E+02  0.7816164E-02  0.1186339E+00
        -11   -1    0    0    0    0  0.00000000000E+00  0.00000000000E+00  0.45593999997E+02  0.45594000000E+02  0.51100000000E-03 0.  1.
         11   -1    0    0    0    0 -0.00000000000E+00 -0.00000000000E+00 -0.45593999997E+02  0.45594000000E+02  0.51100000000E-03 0. -1.
    9900012    2    1    2    0    0  0.53628728742E+00  0.10390294009E+01  0.16086030631E+00  0.90007719445E+02  0.89999980542E+02 0.  0.
         12    1    1    2    0    0 -0.53628728742E+00 -0.10390294009E+01 -0.16086030631E+00  0.11802805551E+01  0.00000000000E+00 0. -1.
         11    1    3    3    0    0  0.17216247993E+01 -0.11551140681E+00 -0.81671293001E+01  0.83474149352E+01  0.51100000000E-03 0. -1.
        -11    1    3    3    0    0 -0.16281060540E+02 -0.31966433311E+02  0.22782169531E+02  0.42496506206E+02  0.51100000000E-03 0.  1.
         12    1    3    3    0    0  0.15095723028E+02  0.33120974118E+02 -0.14454179924E+02  0.39163798304E+02  0.00000000000E+00 0. -1.
</event>
<event>
 7    1  0.2468912E-015  0.9000782E+02  0.7816164E-02  0.1186339E+00
        -11   -1    0    0    0    0  0.00000000000E+00  0.00000000000E+00  0.45593999997E+02  0.45594000000E+02  0.51100000000E-03 0.  1.
         11   -1    0    0    0    0 -0.00000000000E+00 -0.00000000000E+00 -0.45593999997E+02  0.45594000000E+02  0.51100000000E-03 0. -1.
    9900012    2    1    2    0    0  0.26385149254E+00  0.10369987884E+01 -0.49782995742E+00  0.90007822571E+02  0.90000085029E+02 0.  0.
         12    1    1    2    0    0 -0.26385149254E+00 -0.10369987884E+01  0.49782995742E+00  0.11801774289E+01  0.00000000000E+00 0. -1.
         11    1    3    3    0    0 -0.10158044068E+02 -0.24298063475E+02 -0.18919604253E+02  0.32427352240E+02  0.51100000000E-03 0. -1.
        -11    1    3    3    0    0  0.26171233525E+01 -0.13096035994E+02 -0.17701259458E+01  0.13471779375E+02  0.51100000000E-03 0.  1.
        -12    1    3    3    0    0  0.78047722083E+01  0.38431098258E+02  0.20191900241E+02  0.44108690956E+02  0.00000000000E+00 0.  1.
</event>
<event>
 7    1  0.2468912E-015  0.9000775E+02  0.7816164E-02  0.1186339E+00
        -11   -1    0    0    0    0  0.00000000000E+00  0.00000000000E+00  0.45593999997E+02  0.45594000000E+02  0.51100000000E-03 0.  1.
         11   -1    0    0    0    0 -0.00000000000E+00 -0.00000000000E+00 -0.45593999997E+02  0.45594000000E+02  0.51100000000E-03 0. -1.
    9900012    2    1    2    0    0 -0.47735988236E-01  0.80222419140E+00  0.86437493701E+00  0.90007751548E+02  0.90000013068E+02 0.  0.
         12    1    1    2    0    0  0.47735988236E-01 -0.80222419140E+00 -0.86437493701E+00  0.11802484525E+01  0.00000000000E+00 0. -1.
         11    1    3    3    0    0  0.21972610980E+02  0.10635954454E+02 -0.20164928599E+00  0.24412288363E+02  0.51100000000E-03 0. -1.
        -11    1    3    3    0    0  0.81626274970E+01 -0.18613589367E+02 -0.19390956643E+02  0.28090984258E+02  0.51100000000E-03 0.  1.
        -12    1    3    3    0    0 -0.30182974465E+02  0.87798591046E+01  0.20456980866E+02  0.37504478927E+02  0.00000000000E+00 0.  1.
</event>
<event>
 7    1  0.2468912E-015  0.9000771E+02  0.7816164E-02  0.1186339E+00
        -11   -1    0    0    0    0  0.00000000000E+00  0.00000000000E+00  0.45593999997E+02  0.45594000000E+02  0.51100000000E-03 0. -1.
         11   -1    0    0    0    0 -0.00000000000E+00 -0.00000000000E+00 -0.45593999997E+02  0.45594000000E+02  0.51100000000E-03 0.  1.
    9900012    2    1    2    0    0 -0.35602462908E+00 -0.13312147390E+00 -0.11174088984E+01  0.90007712955E+02  0.89999973966E+02 0.  0.
         12    1    1    2    0    0  0.35602462908E+00  0.13312147390E+00  0.11174088984E+01  0.11802870454E+01  0.00000000000E+00 0. -1.
         11    1    3    3    0    0  0.34736526583E+01  0.21404877852E+01 -0.83885096637E+01  0.93281855357E+01  0.51100000000E-03 0. -1.
        -11    1    3    3    0    0 -0.20846325377E+01 -0.71432924026E+01 -0.36172030989E+02  0.36929502370E+02  0.51100000000E-03 0.  1.
         12    1    3    3    0    0 -0.17450447497E+01  0.48696831435E+01  0.43443131755E+02  0.43750025049E+02  0.00000000000E+00 0. -1.
</event>
<event>
 7    1  0.2468912E-015  0.9000771E+02  0.7816164E-02  0.1186339E+00
        -11   -1    0    0    0    0  0.00000000000E+00  0.00000000000E+00  0.45593999997E+02  0.45594000000E+02  0.51100000000E-03 0. -1.
         11   -1    0    0    0    0 -0.00000000000E+00 -0.00000000000E+00 -0.45593999997E+02  0.45594000000E+02  0.51100000000E-03 0.  1.
    9900012    2    1    2    0    0  0.29867769542E+00  0.86115700642E+00 -0.74985446413E+00  0.90007711276E+02  0.89999972264E+02 0.  0.
         12    1    1    2    0    0 -0.29867769542E+00 -0.86115700642E+00  0.74985446413E+00  0.11802887244E+01  0.00000000000E+00 0. -1.
         11    1    3    3    0    0 -0.16806531413E+02  0.23658554839E+02  0.96262366483E+01  0.30575335607E+02  0.51100000000E-03 0. -1.
        -11    1    3    3    0    0 -0.97514081949E+01  0.11040006017E+02 -0.63654446299E+01  0.16046513024E+02  0.51100000000E-03 0.  1.
        -12    1    3    3    0    0  0.26856617303E+02 -0.33837403849E+02 -0.40106464825E+01  0.43385862645E+02  0.00000000000E+00 0.  1.
</event>
<event>
 7    1  0.2468912E-015  0.9000773E+02  0.7816164E-02  0.1186339E+00
        -11   -1    0    0    0    0  0.00000000000E+00  0.00000000000E+00  0.45593999997E+02  0.45594000000E+02  0.51100000000E-03 0.  1.
         11   -1    0    0    0    0 -0.00000000000E+00 -0.00000000000E+00 -0.45593999997E+02  0.45594000000E+02  0.51100000000E-03 0. -1.
    9900012    2    1    2    0    0 -0.33773131561E+00  0.87911843499E+00 -0.71142547128E+00  0.90007729749E+02  0.89999990982E+02 0.  0.
         12    1    1    2    0    0  0.33773131561E+00 -0.87911843499E+00  0.71142547128E+00  0.11802702510E+01  0.00000000000E+00 0. -1.
         11    1    3    3    0    0 -0.23757665711E+02  0.54817468676E+01 -0.31430463281E+02  0.39778766335E+02  0.51100000000E-03 0. -1.
        -11    1    3    3    0    0 -0.47693193921E+01 -0.79607251234E+01  0.13421086142E+01  0.93766096084E+01  0.51100000000E-03 0.  1.
        -12    1    3    3    0    0  0.28189253788E+02  0.33580966909E+01  0.29376929196E+02  0.40852353806E+02  0.00000000000E+00 0.  1.
</event>
<event>
 7    1  0.2468912E-015  0.9000776E+02  0.7816164E-02  0.1186339E+00
        -11   -1    0    0    0    0  0.00000000000E+00  0.00000000000E+00  0.45593999997E+02  0.45594000000E+02  0.51100000000E-03 0. -1.
         11   -1    0    0    0    0 -0.00000000000E+00 -0.00000000000E+00 -0.45593999997E+02  0.45594000000E+02  0.51100000000E-03 0.  1.
    9900012    2    1    2    0    0  0.11472391516E+01  0.99317500913E-01  0.25874471312E+00  0.90007758303E+02  0.90000019913E+02 0.  0.
         12    1    1    2    0    0 -0.11472391516E+01 -0.99317500913E-01 -0.25874471312E+00  0.11802416971E+01  0.00000000000E+00 0. -1.
         11    1    3    3    0    0 -0.10612350564E+01  0.37088703854E+02  0.10005312591E+01  0.37117371087E+02  0.51100000000E-03 0. -1.
        -11    1    3    3    0    0  0.77229719015E+01  0.49226489968E+01 -0.49459069538E+01  0.10408590875E+02  0.51100000000E-03 0.  1.
        -12    1    3    3    0    0 -0.55144976935E+01 -0.41912035349E+02  0.42041204078E+01  0.42481796341E+02  0.00000000000E+00 0.  1.
</event>
<event>
 7    1  0.2761909E-015  0.9000766E+02  0.7816164E-02  0.1186339E+00
        -11   -1    0    0    0    0  0.00000000000E+00  0.00000000000E+00  0.45593999997E+02  0.45594000000E+02  0.51100000000E-03 0.  1.
         11   -1    0    0    0    0 -0.00000000000E+00 -0.00000000000E+00 -0.45593999997E+02  0.45594000000E+02  0.51100000000E-03 0. -1.
    9900012    2    1    2    0    0  0.10280695173E+01  0.43713550477E+00 -0.38105067265E+00  0.90007655136E+02  0.89999915384E+02 0.  0.
         12    1    1    2    0    0 -0.10280695173E+01 -0.43713550477E+00  0.38105067265E+00  0.11803448636E+01  0.00000000000E+00 0. -1.
         11    1    3    3    0    0  0.38204844320E+02  0.15915244890E+01  0.69927382271E+01  0.38872116844E+02  0.51100000000E-03 0. -1.
        -11    1    3    3    0    0  0.68386527284E+00  0.21016503831E+01  0.93574363053E+01  0.96148957619E+01  0.51100000000E-03 0.  1.
        -12    1    3    3    0    0 -0.37860640076E+02 -0.32560393673E+01 -0.16731225205E+02  0.41520642531E+02  0.00000000000E+00 0.  1.
</event>
<event>
 7    1  0.2468912E-015  0.9000771E+02  0.7816164E-02  0.1186339E+00
        -11   -1    0    0    0    0  0.00000000000E+00  0.00000000000E+00  0.45593999997E+02  0.45594000000E+02  0.51100000000E-03 0.  1.
         11   -1    0    0    0    0 -0.00000000000E+00 -0.00000000000E+00 -0.45593999997E+02  0.45594000000E+02  0.51100000000E-03 0. -1.
    9900012    2    1    2    0    0  0.74147841921E+00 -0.26635173954E+00 -0.87883876692E+00  0.90007707209E+02  0.89999968144E+02 0.  0.
         12    1    1    2    0    0 -0.74147841921E+00  0.26635173954E+00  0.87883876692E+00  0.11802927914E+01  0.00000000000E+00 0. -1.
         11    1    3    3    0    0  0.66134126422E+01 -0.10361357566E+02  0.76662080646E+01  0.14486742344E+02  0.51100000000E-03 0. -1.
        -11    1    3    3    0    0  0.12645286476E+01 -0.31683115856E+02  0.22389225199E+01  0.31787287354E+02  0.51100000000E-03 0.  1.
         12    1    3    3    0    0 -0.71364628706E+01  0.41778121682E+02 -0.10783969351E+02  0.43733677510E+02  0.00000000000E+00 0. -1.
</event>
<event>
 7    1  0.2468912E-015  0.9000677E+02  0.7816164E-02  0.1186341E+00
        -11   -1    0    0    0    0  0.00000000000E+00  0.00000000000E+00  0.45593999997E+02  0.45594000000E+02  0.51100000000E-03 0. -1.
         11   -1    0    0    0    0 -0.00000000000E+00 -0.00000000000E+00 -0.45593999997E+02  0.45594000000E+02  0.51100000000E-03 0.  1.
    9900012    2    1    2    0    0  0.10840142073E+01  0.31281015021E+00  0.34980994244E+00  0.90006770138E+02  0.89999018698E+02 0.  0.
         12    1    1    2    0    0 -0.10840142073E+01 -0.31281015021E+00 -0.34980994244E+00  0.11812298622E+01  0.00000000000E+00 0. -1.
         11    1    3    3    0    0  0.84992785143E+00 -0.37570194277E+01 -0.10948791085E+02  0.11606618750E+02  0.51100000000E-03 0. -1.
        -11    1    3    3    0    0 -0.20823405342E+02  0.77532812940E+01 -0.26739422387E+02  0.34766712394E+02  0.51100000000E-03 0.  1.
         12    1    3    3    0    0  0.21057491698E+02 -0.36834517161E+01  0.38038023414E+02  0.43633438993E+02  0.00000000000E+00 0. -1.
</event>
<event>
 7    1  0.2468912E-015  0.9000775E+02  0.7816164E-02  0.1186339E+00
        -11   -1    0    0    0    0  0.00000000000E+00  0.00000000000E+00  0.45593999997E+02  0.45594000000E+02  0.51100000000E-03 0.  1.
         11   -1    0    0    0    0 -0.00000000000E+00 -0.00000000000E+00 -0.45593999997E+02  0.45594000000E+02  0.51100000000E-03 0. -1.
    9900012    2    1    2    0    0  0.76797818800E+00  0.24106738502E-01 -0.89588552588E+00  0.90007753201E+02  0.90000014743E+02 0.  0.
         12    1    1    2    0    0 -0.76797818800E+00 -0.24106738502E-01  0.89588552588E+00  0.11802467994E+01  0.00000000000E+00 0. -1.
         11    1    3    3    0    0  0.99785341171E+00  0.57177047931E+01 -0.76993373913E+01  0.96419736600E+01  0.51100000000E-03 0. -1.
        -11    1    3    3    0    0 -0.16359141574E+02  0.26400837889E+02 -0.18754467538E+02  0.36281618034E+02  0.51100000000E-03 0.  1.
         12    1    3    3    0    0  0.16129266350E+02 -0.32094435943E+02  0.25557919403E+02  0.44084161507E+02  0.00000000000E+00 0. -1.
</event>
<event>
 7    1  0.2468912E-015  0.9000783E+02  0.7816164E-02  0.1186339E+00
        -11   -1    0    0    0    0  0.00000000000E+00  0.00000000000E+00  0.45593999997E+02  0.45594000000E+02  0.51100000000E-03 0. -1.
         11   -1    0    0    0    0 -0.00000000000E+00 -0.00000000000E+00 -0.45593999997E+02  0.45594000000E+02  0.51100000000E-03 0.  1.
    9900012    2    1    2    0    0  0.55185573368E+00 -0.10037108243E+01 -0.28431106189E+00  0.90007825034E+02  0.90000087525E+02 0.  0.
         12    1    1    2    0    0 -0.55185573368E+00  0.10037108243E+01  0.28431106189E+00  0.11801749657E+01  0.00000000000E+00 0. -1.
         11    1    3    3    0    0 -0.10733133262E+02 -0.50105703124E+01  0.82732879564E+01  0.14448296036E+02  0.51100000000E-03 0. -1.
        -11    1    3    3    0    0 -0.62334587077E+01  0.36143355936E+02 -0.12495481037E+02  0.38747067403E+02  0.51100000000E-03 0.  1.
         12    1    3    3    0    0  0.17518447703E+02 -0.32136496448E+02  0.39378820185E+01  0.36812461595E+02  0.00000000000E+00 0. -1.
</event>
<event>
 7    1  0.2468912E-015  0.9000653E+02  0.7816164E-02  0.1186341E+00
        -11   -1    0    0    0    0  0.00000000000E+00  0.00000000000E+00  0.45593999997E+02  0.45594000000E+02  0.51100000000E-03 0.  1.
         11   -1    0    0    0    0 -0.00000000000E+00 -0.00000000000E+00 -0.45593999997E+02  0.45594000000E+02  0.51100000000E-03 0. -1.
    9900012    2    1    2    0    0  0.10357078500E+01 -0.55518729673E+00 -0.12230770249E+00  0.90006525134E+02  0.89998770457E+02 0.  0.
         12    1    1    2    0    0 -0.10357078500E+01  0.55518729673E+00  0.12230770249E+00  0.11814748660E+01  0.00000000000E+00 0. -1.
         11    1    3    3    0    0 -0.40537759041E+02  0.35231941508E+01 -0.93057089081E+01  0.41741095141E+02  0.51100000000E-03 0. -1.
        -11    1    3    3    0    0  0.39387881472E+01 -0.83671055461E+01 -0.17011188029E+00  0.92494024456E+01  0.51100000000E-03 0.  1.
        -12    1    3    3    0    0  0.37634678743E+02  0.42887240986E+01  0.93535130859E+01  0.39016027547E+02  0.00000000000E+00 0.  1.
</event>
<event>
 7    1  0.2468912E-015  0.9000810E+02  0.7816164E-02  0.1186338E+00
        -11   -1    0    0    0    0  0.00000000000E+00  0.00000000000E+00  0.45593999997E+02  0.45594000000E+02  0.51100000000E-03 0.  1.
         11   -1    0    0    0    0 -0.00000000000E+00 -0.00000000000E+00 -0.45593999997E+02  0.45594000000E+02  0.51100000000E-03 0. -1.
    9900012    2    1    2    0    0  0.12581381342E+00 -0.10575191807E+01  0.50792863354E+00  0.90008098551E+02  0.90000364651E+02 0.  0.
         12    1    1    2    0    0 -0.12581381342E+00  0.10575191807E+01 -0.50792863354E+00  0.11799014493E+01  0.00000000000E+00 0. -1.
         11    1    3    3    0    0 -0.35772666385E+00 -0.11325087795E+02 -0.10688112180E+01  0.11381034206E+02  0.51100000000E-03 0. -1.
        -11    1    3    3    0    0  0.54507290809E+01 -0.21535311926E+02  0.28868284971E+02  0.36426061889E+02  0.51100000000E-03 0.  1.
         12    1    3    3    0    0 -0.49671886036E+01  0.31802880540E+02 -0.27291545120E+02  0.42201002456E+02  0.00000000000E+00 0. -1.
</event>
<event>
 7    1  0.2468912E-015  0.9000702E+02  0.7816164E-02  0.1186340E+00
        -11   -1    0    0    0    0  0.00000000000E+00  0.00000000000E+00  0.45593999997E+02  0.45594000000E+02  0.51100000000E-03 0.  1.
         11   -1    0    0    0    0 -0.00000000000E+00 -0.00000000000E+00 -0.45593999997E+02  0.45594000000E+02  0.51100000000E-03 0. -1.
    9900012    2    1    2    0    0  0.85303148510E+00  0.81565266362E+00  0.41859616916E-01  0.90007024044E+02  0.89999275958E+02 0.  0.
         12    1    1    2    0    0 -0.85303148510E+00 -0.81565266362E+00 -0.41859616916E-01  0.11809759565E+01  0.00000000000E+00 0. -1.
         11    1    3    3    0    0  0.13068985920E+01  0.63366845373E+01  0.74656518467E+01  0.98791453382E+01  0.51100000000E-03 0. -1.
        -11    1    3    3    0    0  0.17113573232E+02  0.68098882051E+01  0.31032853891E+02  0.36087213623E+02  0.51100000000E-03 0.  1.
         12    1    3    3    0    0 -0.17567440339E+02 -0.12330920079E+02 -0.38456646121E+02  0.44040665083E+02  0.00000000000E+00 0. -1.
</event>
<event>
 7    1  0.2468912E-015  0.9000778E+02  0.7816164E-02  0.1186339E+00
        -11   -1    0    0    0    0  0.00000000000E+00  0.00000000000E+00  0.45593999997E+02  0.45594000000E+02  0.51100000000E-03 0. -1.
         11   -1    0    0    0    0 -0.00000000000E+00 -0.00000000000E+00 -0.45593999997E+02  0.45594000000E+02  0.51100000000E-03 0.  1.
    9900012    2    1    2    0    0  0.59873777032E+00  0.10082179714E+01 -0.13386912964E+00  0.90007783351E+02  0.90000045291E+02 0.  0.
         12    1    1    2    0    0 -0.59873777032E+00 -0.10082179714E+01  0.13386912964E+00  0.11802166493E+01  0.00000000000E+00 0. -1.
         11    1    3    3    0    0  0.22281976865E+02 -0.22697251625E+02  0.19854833733E+02  0.37494881613E+02  0.51100000000E-03 0. -1.
        -11    1    3    3    0    0  0.74159307803E+01 -0.26032017749E+01  0.11626915586E+01  0.79450953891E+01  0.51100000000E-03 0.  1.
        -12    1    3    3    0    0 -0.29099169875E+02  0.26308671371E+02 -0.21151394421E+02  0.44567806349E+02  0.00000000000E+00 0.  1.
</event>
<event>
 7    1  0.2468912E-015  0.9000766E+02  0.7816164E-02  0.1186339E+00
        -11   -1    0    0    0    0  0.00000000000E+00  0.00000000000E+00  0.45593999997E+02  0.45594000000E+02  0.51100000000E-03 0.  1.
         11   -1    0    0    0    0 -0.00000000000E+00 -0.00000000000E+00 -0.45593999997E+02  0.45594000000E+02  0.51100000000E-03 0. -1.
    9900012    2    1    2    0    0 -0.89313527012E+00  0.58302359129E+00 -0.50557147576E+00  0.90007656984E+02  0.89999917256E+02 0.  0.
         12    1    1    2    0    0  0.89313527012E+00 -0.58302359129E+00  0.50557147576E+00  0.11803430162E+01  0.00000000000E+00 0. -1.
         11    1    3    3    0    0 -0.27636509280E+02 -0.85246818291E+01 -0.33006747610E+01  0.29109127427E+02  0.51100000000E-03 0. -1.
        -11    1    3    3    0    0 -0.54717028036E+01 -0.90550305657E+01 -0.16180253108E+02  0.19332193384E+02  0.51100000000E-03 0.  1.
        -12    1    3    3    0    0  0.32215076813E+02  0.18162735986E+02  0.18975356393E+02  0.41566336173E+02  0.00000000000E+00 0.  1.
</event>
<event>
 7    1  0.2468912E-015  0.9000774E+02  0.7816164E-02  0.1186339E+00
        -11   -1    0    0    0    0  0.00000000000E+00  0.00000000000E+00  0.45593999997E+02  0.45594000000E+02  0.51100000000E-03 0.  1.
         11   -1    0    0    0    0 -0.00000000000E+00 -0.00000000000E+00 -0.45593999997E+02  0.45594000000E+02  0.51100000000E-03 0. -1.
    9900012    2    1    2    0    0  0.72241960435E+00 -0.93296209528E+00 -0.26614050588E-01  0.90007738731E+02  0.90000000082E+02 0.  0.
         12    1    1    2    0    0 -0.72241960435E+00  0.93296209528E+00  0.26614050588E-01  0.11802612692E+01  0.00000000000E+00 0. -1.
         11    1    3    3    0    0  0.37258476928E+02  0.12397935129E+02 -0.39479244027E+01  0.39465035231E+02  0.51100000000E-03 0. -1.
        -11    1    3    3    0    0 -0.21372203390E+01  0.85661548747E+01  0.41722709499E+01  0.97649662189E+01  0.51100000000E-03 0.  1.
        -12    1    3    3    0    0 -0.34398836985E+02 -0.21897052099E+02 -0.25096059775E+00  0.40777737281E+02  0.00000000000E+00 0.  1.
</event>
<event>
 7    1  0.2468912E-015  0.9000778E+02  0.7816164E-02  0.1186339E+00
        -11   -1    0    0    0    0  0.00000000000E+00  0.00000000000E+00  0.45593999997E+02  0.45594000000E+02  0.51100000000E-03 0.  1.
         11   -1    0    0    0    0 -0.00000000000E+00 -0.00000000000E+00 -0.45593999997E+02  0.45594000000E+02  0.51100000000E-03 0. -1.
    9900012    2    1    2    0    0 -0.28193464272E+00  0.11253522552E+01  0.21680505801E+00  0.90007784226E+02  0.90000046177E+02 0.  0.
         12    1    1    2    0    0  0.28193464272E+00 -0.11253522552E+01 -0.21680505801E+00  0.11802157745E+01  0.00000000000E+00 0. -1.
         11    1    3    3    0    0 -0.40863228729E+02  0.42152075686E+01  0.42436114728E+01  0.41298664331E+02  0.51100000000E-03 0. -1.
        -11    1    3    3    0    0  0.31489371138E+01  0.86632251426E+01  0.39745634580E+00  0.92263344089E+01  0.51100000000E-03 0.  1.
        -12    1    3    3    0    0  0.37432356972E+02 -0.11753080456E+02 -0.44242627606E+01  0.39482785485E+02  0.00000000000E+00 0.  1.
</event>
<event>
 7    1  0.2468912E-015  0.9000773E+02  0.7816164E-02  0.1186339E+00
        -11   -1    0    0    0    0  0.00000000000E+00  0.00000000000E+00  0.45593999997E+02  0.45594000000E+02  0.51100000000E-03 0. -1.
         11   -1    0    0    0    0 -0.00000000000E+00 -0.00000000000E+00 -0.45593999997E+02  0.45594000000E+02  0.51100000000E-03 0.  1.
    9900012    2    1    2    0    0  0.15189285764E+00  0.10519716776E+01  0.51315956973E+00  0.90007725204E+02  0.89999986376E+02 0.  0.
         12    1    1    2    0    0 -0.15189285764E+00 -0.10519716776E+01 -0.51315956973E+00  0.11802747963E+01  0.00000000000E+00 0. -1.
         11    1    3    3    0    0  0.99766096443E+01 -0.17246099845E+00 -0.32844544277E+00  0.99835043677E+01  0.51100000000E-03 0. -1.
        -11    1    3    3    0    0  0.24318008573E+02 -0.22973017579E+02 -0.13082864685E+02  0.35920557154E+02  0.51100000000E-03 0.  1.
         12    1    3    3    0    0 -0.34142725360E+02  0.24197450255E+02  0.13924469698E+02  0.44103663682E+02  0.00000000000E+00 0. -1.
</event>
<event>
 7    1  0.2468912E-015  0.9000775E+02  0.7816164E-02  0.1186339E+00
        -11   -1    0    0    0    0  0.00000000000E+00  0.00000000000E+00  0.45593999997E+02  0.45594000000E+02  0.51100000000E-03 0.  1.
         11   -1    0    0    0    0 -0.00000000000E+00 -0.00000000000E+00 -0.45593999997E+02  0.45594000000E+02  0.51100000000E-03 0. -1.
    9900012    2    1    2    0    0 -0.36059555517E+00 -0.11225641194E+01  0.53019018715E-01  0.90007749868E+02  0.90000011367E+02 0.  0.
         12    1    1    2    0    0  0.36059555517E+00  0.11225641194E+01 -0.53019018715E-01  0.11802501315E+01  0.00000000000E+00 0. -1.
         11    1    3    3    0    0  0.12363095156E+02 -0.31830817590E+02 -0.18407335075E+02  0.38792744877E+02  0.51100000000E-03 0. -1.
        -11    1    3    3    0    0 -0.46934114385E+01  0.10241612733E+01 -0.88613997369E+01  0.10079753112E+02  0.51100000000E-03 0.  1.
        -12    1    3    3    0    0 -0.80302792729E+01  0.29684092197E+02  0.27321753831E+02  0.41135251879E+02  0.00000000000E+00 0.  1.
</event>
<event>
 7    1  0.2468912E-015  0.9000773E+02  0.7816164E-02  0.1186339E+00
        -11   -1    0    0    0    0  0.00000000000E+00  0.00000000000E+00  0.45593999997E+02  0.45594000000E+02  0.51100000000E-03 0. -1.
         11   -1    0    0    0    0 -0.00000000000E+00 -0.00000000000E+00 -0.45593999997E+02  0.45594000000E+02  0.51100000000E-03 0.  1.
    9900012    2    1    2    0    0 -0.11003740841E+01 -0.25188603758E+00 -0.34461790637E+00  0.90007732572E+02  0.89999993842E+02 0.  0.
         12    1    1    2    0    0  0.11003740841E+01  0.25188603758E+00  0.34461790637E+00  0.11802674283E+01  0.00000000000E+00 0. -1.
         11    1    3    3    0    0 -0.59205778940E+01  0.25084784627E+01 -0.72695823961E+01  0.97052838841E+01  0.51100000000E-03 0. -1.
        -11    1    3    3    0    0  0.10449071103E+02  0.37643899805E+02  0.57753578651E+01  0.39491784439E+02  0.51100000000E-03 0.  1.
         12    1    3    3    0    0 -0.56288672934E+01 -0.40404264305E+02  0.11496066246E+01  0.40810664249E+02  0.00000000000E+00 0. -1.
</event>
<event>
 7    1  0.2468912E-015  0.9000774E+02  0.7816164E-02  0.1186339E+00
        -11   -1    0    0    0    0  0.00000000000E+00  0.00000000000E+00  0.45593999997E+02  0.45594000000E+02  0.51100000000E-03 0. -1.
         11   -1    0    0    0    0 -0.00000000000E+00 -0.00000000000E+00 -0.45593999997E+02  0.45594000000E+02  0.51100000000E-03 0.  1.
    9900012    2    1    2    0    0 -0.50673042290E+00  0.10482467661E+01 -0.19340810589E+00  0.90007744223E+02  0.90000005647E+02 0.  0.
         12    1    1    2    0    0  0.50673042290E+00 -0.10482467661E+01  0.19340810589E+00  0.11802557772E+01  0.00000000000E+00 0. -1.
         11    1    3    3    0    0 -0.41301984149E+02 -0.75143752821E+01  0.25072973788E+01  0.42054800807E+02  0.51100000000E-03 0. -1.
        -11    1    3    3    0    0  0.60001962868E+01 -0.64232418904E+01  0.36896526853E+01  0.95327818113E+01  0.51100000000E-03 0.  1.
        -12    1    3    3    0    0  0.34795057439E+02  0.14985863939E+02 -0.63903581700E+01  0.38420161605E+02  0.00000000000E+00 0.  1.
</event>
<event>
 7    1  0.2468912E-015  0.9000773E+02  0.7816164E-02  0.1186339E+00
        -11   -1    0    0    0    0  0.00000000000E+00  0.00000000000E+00  0.45593999997E+02  0.45594000000E+02  0.51100000000E-03 0.  1.
         11   -1    0    0    0    0 -0.00000000000E+00 -0.00000000000E+00 -0.45593999997E+02  0.45594000000E+02  0.51100000000E-03 0. -1.
    9900012    2    1    2    0    0  0.76309156675E-01 -0.10577890329E+01 -0.51797189440E+00  0.90007730705E+02  0.89999991950E+02 0.  0.
         12    1    1    2    0    0 -0.76309156675E-01  0.10577890329E+01  0.51797189440E+00  0.11802692951E+01  0.00000000000E+00 0. -1.
         11    1    3    3    0    0  0.25629798426E+02 -0.17137288155E+02 -0.25283780830E+02  0.39872832681E+02  0.51100000000E-03 0. -1.
        -11    1    3    3    0    0 -0.71763889197E+01 -0.21091052086E+01 -0.62555182509E+01  0.97509174725E+01  0.51100000000E-03 0.  1.
        -12    1    3    3    0    0 -0.18377100350E+02  0.18188604331E+02  0.31021327186E+02  0.40383980551E+02  0.00000000000E+00 0.  1.
</event>
<event>
 7    1  0.2468912E-015  0.9000775E+02  0.7816164E-02  0.1186339E+00
        -11   -1    0    0    0    0  0.00000000000E+00  0.00000000000E+00  0.45593999997E+02  0.45594000000E+02  0.51100000000E-03 0. -1.
         11   -1    0    0    0    0 -0.00000000000E+00 -0.00000000000E+00 -0.45593999997E+02  0.45594000000E+02  0.51100000000E-03 0.  1.
    9900012    2    1    2    0    0  0.80633802581E+00  0.84615317723E-01 -0.85769313284E+00  0.90007754994E+02  0.90000016560E+02 0.  0.
         12    1    1    2    0    0 -0.80633802581E+00 -0.84615317723E-01  0.85769313284E+00  0.11802450059E+01  0.00000000000E+00 0. -1.
         11    1    3    3    0    0  0.12987324294E+02 -0.32326729345E+02 -0.43752214110E+01  0.35111687301E+02  0.51100000000E-03 0. -1.
        -11    1    3    3    0    0  0.77891945674E+01 -0.69859188862E+01  0.22832317653E+01  0.10709237239E+02  0.51100000000E-03 0.  1.
        -12    1    3    3    0    0 -0.19970180836E+02  0.39397263548E+02  0.12342965129E+01  0.44186830454E+02  0.00000000000E+00 0.  1.
</event>
<event>
 7    1  0.2468912E-015  0.9000772E+02  0.7816164E-02  0.1186339E+00
        -11   -1    0    0    0    0  0.00000000000E+00  0.00000000000E+00  0.45593999997E+02  0.45594000000E+02  0.51100000000E-03 0.  1.
         11   -1    0    0    0    0 -0.00000000000E+00 -0.00000000000E+00 -0.45593999997E+02  0.45594000000E+02  0.51100000000E-03 0. -1.
    9900012    2    1    2    0    0  0.74064528882E+00  0.39443295000E+00  0.83002010671E+00  0.90007717757E+02  0.89999978831E+02 0.  0.
         12    1    1    2    0    0 -0.74064528882E+00 -0.39443295000E+00 -0.83002010671E+00  0.11802822431E+01  0.00000000000E+00 0. -1.
         11    1    3    3    0    0 -0.95636595708E+01 -0.56189785116E+00  0.45554146491E+01  0.10608068461E+02  0.51100000000E-03 0. -1.
        -11    1    3    3    0    0  0.32140092620E+01 -0.16307363978E+02  0.33701711412E+02  0.37577457708E+02  0.51100000000E-03 0.  1.
         12    1    3    3    0    0  0.70902955976E+01  0.17263694780E+02 -0.37427105954E+02  0.41822191588E+02  0.00000000000E+00 0. -1.
</event>
<event>
 7    1  0.2468912E-015  0.9000730E+02  0.7816164E-02  0.1186340E+00
        -11   -1    0    0    0    0  0.00000000000E+00  0.00000000000E+00  0.45593999997E+02  0.45594000000E+02  0.51100000000E-03 0.  1.
         11   -1    0    0    0    0 -0.00000000000E+00 -0.00000000000E+00 -0.45593999997E+02  0.45594000000E+02  0.51100000000E-03 0. -1.
    9900012    2    1    2    0    0 -0.10075842623E+00 -0.20968425442E+00  0.11575497938E+01  0.90007304751E+02  0.89999560372E+02 0.  0.
         12    1    1    2    0    0  0.10075842623E+00  0.20968425442E+00 -0.11575497938E+01  0.11806952495E+01  0.00000000000E+00 0. -1.
         11    1    3    3    0    0 -0.31520164557E+02 -0.13738102888E+02 -0.33854129122E+01  0.34550213683E+02  0.51100000000E-03 0. -1.
        -11    1    3    3    0    0  0.21107574677E+01  0.21338095334E+02  0.11509619398E+02  0.24336001079E+02  0.51100000000E-03 0.  1.
        -12    1    3    3    0    0  0.29308648663E+02 -0.78096767004E+01 -0.69666566921E+01  0.31121089989E+02  0.00000000000E+00 0.  1.
</event>
<event>
 7    1  0.2468912E-015  0.9000785E+02  0.7816164E-02  0.1186339E+00
        -11   -1    0    0    0    0  0.00000000000E+00  0.00000000000E+00  0.45593999997E+02  0.45594000000E+02  0.51100000000E-03 0.  1.
         11   -1    0    0    0    0 -0.00000000000E+00 -0.00000000000E+00 -0.45593999997E+02  0.45594000000E+02  0.51100000000E-03 0. -1.
    9900012    2    1    2    0    0  0.44618679134E+00  0.51395682750E-01  0.10913387385E+01  0.90007854072E+02  0.90000116946E+02 0.  0.
         12    1    1    2    0    0 -0.44618679134E+00 -0.51395682750E-01 -0.10913387385E+01  0.11801459279E+01  0.00000000000E+00 0. -1.
         11    1    3    3    0    0 -0.63552561740E+01  0.34801085381E+01  0.61138381870E+01  0.94804775255E+01  0.51100000000E-03 0. -1.
        -11    1    3    3    0    0  0.83279874402E+01  0.33314808929E+02 -0.21193915600E+02  0.40353611084E+02  0.51100000000E-03 0.  1.
         12    1    3    3    0    0 -0.15265444748E+01 -0.36743521784E+02  0.16171416151E+02  0.40173765463E+02  0.00000000000E+00 0. -1.
</event>
<event>
 7    1  0.2468912E-015  0.9000772E+02  0.7816164E-02  0.1186339E+00
        -11   -1    0    0    0    0  0.00000000000E+00  0.00000000000E+00  0.45593999997E+02  0.45594000000E+02  0.51100000000E-03 0.  1.
         11   -1    0    0    0    0 -0.00000000000E+00 -0.00000000000E+00 -0.45593999997E+02  0.45594000000E+02  0.51100000000E-03 0. -1.
    9900012    2    1    2    0    0 -0.77767800859E+00  0.88429643506E+00 -0.79307484353E-01  0.90007723360E+02  0.89999984508E+02 0.  0.
         12    1    1    2    0    0  0.77767800859E+00 -0.88429643506E+00  0.79307484353E-01  0.11802766401E+01  0.00000000000E+00 0. -1.
         11    1    3    3    0    0 -0.45813104935E+01  0.12332599388E+01  0.82237729092E+01  0.94941970191E+01  0.51100000000E-03 0. -1.
        -11    1    3    3    0    0 -0.35397195989E+02 -0.12690525704E+02  0.34691815791E+01  0.37763026197E+02  0.51100000000E-03 0.  1.
         12    1    3    3    0    0  0.39200828473E+02  0.12341562201E+02 -0.11772261973E+02  0.42750500143E+02  0.00000000000E+00 0. -1.
</event>
<event>
 7    1  0.2611485E-015  0.9000777E+02  0.7816164E-02  0.1186339E+00
        -11   -1    0    0    0    0  0.00000000000E+00  0.00000000000E+00  0.45593999997E+02  0.45594000000E+02  0.51100000000E-03 0. -1.
         11   -1    0    0    0    0 -0.00000000000E+00 -0.00000000000E+00 -0.45593999997E+02  0.45594000000E+02  0.51100000000E-03 0.  1.
    9900012    2    1    2    0    0 -0.87509643227E+00 -0.75250692490E+00 -0.24676089662E+00  0.90007766388E+02  0.90000028105E+02 0.  0.
         12    1    1    2    0    0  0.87509643227E+00  0.75250692490E+00  0.24676089662E+00  0.11802336116E+01  0.00000000000E+00 0. -1.
         11    1    3    3    0    0 -0.38850174209E-01 -0.36010708844E+02  0.99489793935E+01  0.37359802623E+02  0.51100000000E-03 0. -1.
        -11    1    3    3    0    0  0.26753625640E+01 -0.75700967620E+01 -0.47590097117E+01  0.93333864986E+01  0.51100000000E-03 0.  1.
        -12    1    3    3    0    0 -0.35116088221E+01  0.42828298681E+02 -0.54367305784E+01  0.43314577267E+02  0.00000000000E+00 0.  1.
</event>
<event>
 7    1  0.2468912E-015  0.9000777E+02  0.7816164E-02  0.1186339E+00
        -11   -1    0    0    0    0  0.00000000000E+00  0.00000000000E+00  0.45593999997E+02  0.45594000000E+02  0.51100000000E-03 0.  1.
         11   -1    0    0    0    0 -0.00000000000E+00 -0.00000000000E+00 -0.45593999997E+02  0.45594000000E+02  0.51100000000E-03 0. -1.
    9900012    2    1    2    0    0 -0.82538138595E+00  0.81753734408E+00  0.20812483041E+00  0.90007772189E+02  0.90000033982E+02 0.  0.
         12    1    1    2    0    0  0.82538138595E+00 -0.81753734408E+00 -0.20812483041E+00  0.11802278112E+01  0.00000000000E+00 0. -1.
         11    1    3    3    0    0  0.45086155301E+01 -0.52446078584E+01 -0.54209969199E+01  0.87875328422E+01  0.51100000000E-03 0. -1.
        -11    1    3    3    0    0  0.66064980907E+01 -0.35111649798E+02  0.12400364429E+02  0.37818551094E+02  0.51100000000E-03 0.  1.
         12    1    3    3    0    0 -0.11940495007E+02  0.41173795001E+02 -0.67712426789E+01  0.43401688253E+02  0.00000000000E+00 0. -1.
</event>
<event>
 7    1  0.2468912E-015  0.9000768E+02  0.7816164E-02  0.1186339E+00
        -11   -1    0    0    0    0  0.00000000000E+00  0.00000000000E+00  0.45593999997E+02  0.45594000000E+02  0.51100000000E-03 0. -1.
         11   -1    0    0    0    0 -0.00000000000E+00 -0.00000000000E+00 -0.45593999997E+02  0.45594000000E+02  0.51100000000E-03 0.  1.
    9900012    2    1    2    0    0  0.11675914360E+01  0.14475459422E+00  0.94484898551E-01  0.90007681801E+02  0.89999942401E+02 0.  0.
         12    1    1    2    0    0 -0.11675914360E+01 -0.14475459422E+00 -0.94484898551E-01  0.11803181986E+01  0.00000000000E+00 0. -1.
         11    1    3    3    0    0  0.72436558945E+01  0.10792615430E+02  0.88097108243E+00  0.13027939547E+02  0.51100000000E-03 0. -1.
        -11    1    3    3    0    0  0.68952323281E+01 -0.38935263045E+02 -0.15608860716E+02  0.42510416022E+02  0.51100000000E-03 0.  1.
         12    1    3    3    0    0 -0.12971296787E+02  0.28287402210E+02  0.14822374532E+02  0.34469326232E+02  0.00000000000E+00 0. -1.
</event>
<event>
 7    1  0.2468912E-015  0.9000793E+02  0.7816164E-02  0.1186339E+00
        -11   -1    0    0    0    0  0.00000000000E+00  0.00000000000E+00  0.45593999997E+02  0.45594000000E+02  0.51100000000E-03 0.  1.
         11   -1    0    0    0    0 -0.00000000000E+00 -0.00000000000E+00 -0.45593999997E+02  0.45594000000E+02  0.51100000000E-03 0. -1.
    9900012    2    1    2    0    0  0.22687889848E+00 -0.73866936072E+00  0.89188422530E+00  0.90007930540E+02  0.90000194423E+02 0.  0.
         12    1    1    2    0    0 -0.22687889848E+00  0.73866936072E+00 -0.89188422530E+00  0.11800694600E+01  0.00000000000E+00 0. -1.
         11    1    3    3    0    0  0.30731404745E+02  0.33390877724E+01 -0.32589685052E+01  0.31083590860E+02  0.51100000000E-03 0. -1.
        -11    1    3    3    0    0  0.13620997824E+02 -0.50949824725E+01  0.25015130322E+01  0.14756286654E+02  0.51100000000E-03 0.  1.
        -12    1    3    3    0    0 -0.44125523671E+02  0.10172253394E+01  0.16493396983E+01  0.44168053026E+02  0.00000000000E+00 0.  1.
</event>
<event>
 7    1  0.2468912E-015  0.9000783E+02  0.7816164E-02  0.1186339E+00
        -11   -1    0    0    0    0  0.00000000000E+00  0.00000000000E+00  0.45593999997E+02  0.45594000000E+02  0.51100000000E-03 0. -1.
         11   -1    0    0    0    0 -0.00000000000E+00 -0.00000000000E+00 -0.45593999997E+02  0.45594000000E+02  0.51100000000E-03 0.  1.
    9900012    2    1    2    0    0 -0.53663264790E+00 -0.38796931421E+00 -0.97688546946E+00  0.90007830517E+02  0.90000093080E+02 0.  0.
         12    1    1    2    0    0  0.53663264790E+00  0.38796931421E+00  0.97688546946E+00  0.11801694827E+01  0.00000000000E+00 0. -1.
         11    1    3    3    0    0  0.10389654793E+02  0.39904651821E+01 -0.48571140277E+01  0.12143323105E+02  0.51100000000E-03 0. -1.
        -11    1    3    3    0    0  0.21039567885E+02  0.83881656187E+00 -0.26233870862E+02  0.33639010251E+02  0.51100000000E-03 0.  1.
         12    1    3    3    0    0 -0.31965855326E+02 -0.52172510582E+01  0.30114099420E+02  0.44225497162E+02  0.00000000000E+00 0. -1.
</event>
<event>
 7    1  0.2468912E-015  0.9000768E+02  0.7816164E-02  0.1186339E+00
        -11   -1    0    0    0    0  0.00000000000E+00  0.00000000000E+00  0.45593999997E+02  0.45594000000E+02  0.51100000000E-03 0. -1.
         11   -1    0    0    0    0 -0.00000000000E+00 -0.00000000000E+00 -0.45593999997E+02  0.45594000000E+02  0.51100000000E-03 0.  1.
    9900012    2    1    2    0    0  0.11667979676E+01 -0.45175112661E-01 -0.17235272399E+00  0.90007676422E+02  0.89999936951E+02 0.  0.
         12    1    1    2    0    0 -0.11667979676E+01  0.45175112661E-01  0.17235272399E+00  0.11803235782E+01  0.00000000000E+00 0. -1.
         11    1    3    3    0    0  0.10321845921E+02 -0.11813410717E+01 -0.21821959741E+01  0.10615933754E+02  0.51100000000E-03 0. -1.
        -11    1    3    3    0    0 -0.13215963747E+01  0.39402018900E+02 -0.48943328610E+01  0.39726819717E+02  0.51100000000E-03 0.  1.
         12    1    3    3    0    0 -0.78334515784E+01 -0.38265852941E+02  0.69041761111E+01  0.39664922951E+02  0.00000000000E+00 0. -1.
</event>
<event>
 7    1  0.2468912E-015  0.9000774E+02  0.7816164E-02  0.1186339E+00
        -11   -1    0    0    0    0  0.00000000000E+00  0.00000000000E+00  0.45593999997E+02  0.45594000000E+02  0.51100000000E-03 0.  1.
         11   -1    0    0    0    0 -0.00000000000E+00 -0.00000000000E+00 -0.45593999997E+02  0.45594000000E+02  0.51100000000E-03 0. -1.
    9900012    2    1    2    0    0 -0.76997616674E-01 -0.10282826156E+01  0.57420596669E+00  0.90007743137E+02  0.90000004546E+02 0.  0.
         12    1    1    2    0    0  0.76997616674E-01  0.10282826156E+01 -0.57420596669E+00  0.11802568630E+01  0.00000000000E+00 0. -1.
         11    1    3    3    0    0 -0.58683170851E+01 -0.38149368717E+02 -0.11673271531E+02  0.40324641938E+02  0.51100000000E-03 0. -1.
        -11    1    3    3    0    0 -0.61390504331E+01 -0.15960427726E+01 -0.21343039407E+01  0.66925739685E+01  0.51100000000E-03 0.  1.
        -12    1    3    3    0    0  0.11930369901E+02  0.38717128874E+02  0.14381781438E+02  0.42990527231E+02  0.00000000000E+00 0.  1.
</event>
<event>
 7    1  0.2468912E-015  0.9000774E+02  0.7816164E-02  0.1186339E+00
        -11   -1    0    0    0    0  0.00000000000E+00  0.00000000000E+00  0.45593999997E+02  0.45594000000E+02  0.51100000000E-03 0.  1.
         11   -1    0    0    0    0 -0.00000000000E+00 -0.00000000000E+00 -0.45593999997E+02  0.45594000000E+02  0.51100000000E-03 0. -1.
    9900012    2    1    2    0    0 -0.75833850956E-01  0.96982066315E+00  0.66836505279E+00  0.90007739548E+02  0.90000000910E+02 0.  0.
         12    1    1    2    0    0  0.75833850956E-01 -0.96982066315E+00 -0.66836505279E+00  0.11802604524E+01  0.00000000000E+00 0. -1.
         11    1    3    3    0    0  0.51350860550E+01 -0.56114969901E+01  0.21778964290E+01  0.79120945633E+01  0.51100000000E-03 0. -1.
        -11    1    3    3    0    0  0.36864252750E+02 -0.63116909339E+01  0.45412072949E+01  0.37675365124E+02  0.51100000000E-03 0.  1.
         12    1    3    3    0    0 -0.42075172656E+02  0.12893008587E+02 -0.60507386711E+01  0.44420279861E+02  0.00000000000E+00 0. -1.
</event>
<event>
 7    1  0.2468912E-015  0.9000775E+02  0.7816164E-02  0.1186339E+00
        -11   -1    0    0    0    0  0.00000000000E+00  0.00000000000E+00  0.45593999997E+02  0.45594000000E+02  0.51100000000E-03 0. -1.
         11   -1    0    0    0    0 -0.00000000000E+00 -0.00000000000E+00 -0.45593999997E+02  0.45594000000E+02  0.51100000000E-03 0.  1.
    9900012    2    1    2    0    0  0.12212141267E+00  0.12546616063E+00 -0.11671931133E+01  0.90007747840E+02  0.90000009312E+02 0.  0.
         12    1    1    2    0    0 -0.12212141267E+00 -0.12546616063E+00  0.11671931133E+01  0.11802521597E+01  0.00000000000E+00 0. -1.
         11    1    3    3    0    0 -0.63979933067E+01 -0.73023040488E+01 -0.14103396781E+01  0.98105566122E+01  0.51100000000E-03 0. -1.
        -11    1    3    3    0    0 -0.54186030384E+01 -0.35270811234E+02  0.27479316363E+01  0.35790257229E+02  0.51100000000E-03 0.  1.
         12    1    3    3    0    0  0.11938717758E+02  0.42698581443E+02 -0.25047850714E+01  0.44406933999E+02  0.00000000000E+00 0. -1.
</event>
<event>
 7    1  0.2468912E-015  0.9000777E+02  0.7816164E-02  0.1186339E+00
        -11   -1    0    0    0    0  0.00000000000E+00  0.00000000000E+00  0.45593999997E+02  0.45594000000E+02  0.51100000000E-03 0. -1.
         11   -1    0    0    0    0 -0.00000000000E+00 -0.00000000000E+00 -0.45593999997E+02  0.45594000000E+02  0.51100000000E-03 0.  1.
    9900012    2    1    2    0    0  0.85217481373E+00 -0.76473736811E+00 -0.28621071183E+00  0.90007770477E+02  0.90000032247E+02 0.  0.
         12    1    1    2    0    0 -0.85217481373E+00  0.76473736811E+00  0.28621071183E+00  0.11802295230E+01  0.00000000000E+00 0. -1.
         11    1    3    3    0    0 -0.28697395248E+02  0.23590605558E+02  0.11775645387E+02  0.38970796620E+02  0.51100000000E-03 0. -1.
        -11    1    3    3    0    0  0.32503950370E+01 -0.11324557400E+01  0.93301416865E+01  0.99448010563E+01  0.51100000000E-03 0.  1.
        -12    1    3    3    0    0  0.26299175025E+02 -0.23222887186E+02 -0.21391997785E+02  0.41092172801E+02  0.00000000000E+00 0.  1.
</event>
<event>
 7    1  0.2468912E-015  0.9000772E+02  0.7816164E-02  0.1186339E+00
        -11   -1    0    0    0    0  0.00000000000E+00  0.00000000000E+00  0.45593999997E+02  0.45594000000E+02  0.51100000000E-03 0. -1.
         11   -1    0    0    0    0 -0.00000000000E+00 -0.00000000000E+00 -0.45593999997E+02  0.45594000000E+02  0.51100000000E-03 0.  1.
    9900012    2    1    2    0    0  0.57732014843E+00 -0.89260970382E+00 -0.51283601576E+00  0.90007724008E+02  0.89999985165E+02 0.  0.
         12    1    1    2    0    0 -0.57732014843E+00  0.89260970382E+00  0.51283601576E+00  0.11802759915E+01  0.00000000000E+00 0. -1.
         11    1    3    3    0    0  0.66516209209E+01 -0.18528720517E+01  0.50852704687E+01  0.85753817242E+01  0.51100000000E-03 0. -1.
        -11    1    3    3    0    0 -0.38347145237E+02  0.15644012655E+02 -0.16128868635E+02  0.44445236904E+02  0.51100000000E-03 0.  1.
         12    1    3    3    0    0  0.32272844465E+02 -0.14683750307E+02  0.10530762150E+02  0.36987105380E+02  0.00000000000E+00 0. -1.
</event>
<event>
 7    1  0.2468912E-015  0.9000786E+02  0.7816164E-02  0.1186339E+00
        -11   -1    0    0    0    0  0.00000000000E+00  0.00000000000E+00  0.45593999997E+02  0.45594000000E+02  0.51100000000E-03 0.  1.
         11   -1    0    0    0    0 -0.00000000000E+00 -0.00000000000E+00 -0.45593999997E+02  0.45594000000E+02  0.51100000000E-03 0. -1.
    9900012    2    1    2    0    0  0.20796579197E+00  0.11612803140E+01  0.30297978865E-01  0.90007856066E+02  0.90000118966E+02 0.  0.
         12    1    1    2    0    0 -0.20796579197E+00 -0.11612803140E+01 -0.30297978865E-01  0.11801439344E+01  0.00000000000E+00 0. -1.
         11    1    3    3    0    0 -0.46972463117E+01  0.42478037404E+01 -0.60096114867E+01  0.87306007819E+01  0.51100000000E-03 0. -1.
        -11    1    3    3    0    0  0.17673400372E+02  0.15679570422E+02 -0.30305337203E+02  0.38426702599E+02  0.51100000000E-03 0.  1.
         12    1    3    3    0    0 -0.12768188268E+02 -0.18766093849E+02  0.36345246669E+02  0.42850552685E+02  0.00000000000E+00 0. -1.
</event>
<event>
 7    1  0.2468912E-015  0.9000823E+02  0.7816164E-02  0.1186338E+00
        -11   -1    0    0    0    0  0.00000000000E+00  0.00000000000E+00  0.45593999997E+02  0.45594000000E+02  0.51100000000E-03 0. -1.
         11   -1    0    0    0    0 -0.00000000000E+00 -0.00000000000E+00 -0.45593999997E+02  0.45594000000E+02  0.51100000000E-03 0.  1.
    9900012    2    1    2    0    0 -0.38701308546E+00  0.38833238258E-01 -0.11138135061E+01  0.90008225583E+02  0.90000493359E+02 0.  0.
         12    1    1    2    0    0  0.38701308546E+00 -0.38833238258E-01  0.11138135061E+01  0.11797744171E+01  0.00000000000E+00 0. -1.
         11    1    3    3    0    0  0.24225259420E+01 -0.14995322384E+01  0.87171966602E+01  0.91709730534E+01  0.51100000000E-03 0. -1.
        -11    1    3    3    0    0  0.89557799047E+01 -0.37970825722E+02 -0.46023912297E+01  0.39283222945E+02  0.51100000000E-03 0.  1.
         12    1    3    3    0    0 -0.11765318932E+02  0.39509191198E+02 -0.52286189366E+01  0.41554029584E+02  0.00000000000E+00 0. -1.
</event>
<event>
 7    1  0.2468912E-015  0.9000776E+02  0.7816164E-02  0.1186339E+00
        -11   -1    0    0    0    0  0.00000000000E+00  0.00000000000E+00  0.45593999997E+02  0.45594000000E+02  0.51100000000E-03 0.  1.
         11   -1    0    0    0    0 -0.00000000000E+00 -0.00000000000E+00 -0.45593999997E+02  0.45594000000E+02  0.51100000000E-03 0. -1.
    9900012    2    1    2    0    0 -0.21836762022E+00  0.19807331711E+00  0.11428209552E+01  0.90007763925E+02  0.90000025609E+02 0.  0.
         12    1    1    2    0    0  0.21836762022E+00 -0.19807331711E+00 -0.11428209552E+01  0.11802360748E+01  0.00000000000E+00 0. -1.
         11    1    3    3    0    0 -0.71043017778E+01  0.16243923016E+01  0.60087691009E+01  0.94453724367E+01  0.51100000000E-03 0. -1.
        -11    1    3    3    0    0 -0.44299849823E+01  0.24704784226E+02  0.27648251992E+02  0.37341357355E+02  0.51100000000E-03 0.  1.
         12    1    3    3    0    0  0.11315919140E+02 -0.26131103211E+02 -0.32514200138E+02  0.43221034134E+02  0.00000000000E+00 0. -1.
</event>
<event>
 7    1  0.2468912E-015  0.9000802E+02  0.7816164E-02  0.1186338E+00
        -11   -1    0    0    0    0  0.00000000000E+00  0.00000000000E+00  0.45593999997E+02  0.45594000000E+02  0.51100000000E-03 0.  1.
         11   -1    0    0    0    0 -0.00000000000E+00 -0.00000000000E+00 -0.45593999997E+02  0.45594000000E+02  0.51100000000E-03 0. -1.
    9900012    2    1    2    0    0 -0.29705583838E+00 -0.97057170263E-01  0.11378495946E+01  0.90008015269E+02  0.90000280270E+02 0.  0.
         12    1    1    2    0    0  0.29705583838E+00  0.97057170263E-01 -0.11378495946E+01  0.11799847310E+01  0.00000000000E+00 0. -1.
         11    1    3    3    0    0  0.30053823862E+01 -0.89608371198E+01  0.28335258259E+00  0.94556445640E+01  0.51100000000E-03 0. -1.
        -11    1    3    3    0    0  0.30725680109E+02  0.27066507187E+02  0.67948104686E+01  0.41507019635E+02  0.51100000000E-03 0.  1.
         12    1    3    3    0    0 -0.34028118333E+02 -0.18202727238E+02 -0.59403134566E+01  0.39045351070E+02  0.00000000000E+00 0. -1.
</event>
<event>
 7    1  0.2468912E-015  0.9000770E+02  0.7816164E-02  0.1186339E+00
        -11   -1    0    0    0    0  0.00000000000E+00  0.00000000000E+00  0.45593999997E+02  0.45594000000E+02  0.51100000000E-03 0.  1.
         11   -1    0    0    0    0 -0.00000000000E+00 -0.00000000000E+00 -0.45593999997E+02  0.45594000000E+02  0.51100000000E-03 0. -1.
    9900012    2    1    2    0    0 -0.64004391877E+00 -0.58624173241E+00 -0.79985652498E+00  0.90007700865E+02  0.89999961717E+02 0.  0.
         12    1    1    2    0    0  0.64004391877E+00  0.58624173241E+00  0.79985652498E+00  0.11802991347E+01  0.00000000000E+00 0. -1.
         11    1    3    3    0    0 -0.32056135686E+02 -0.11589168939E+02 -0.30359198339E+01  0.34221652229E+02  0.51100000000E-03 0. -1.
        -11    1    3    3    0    0 -0.10268937759E+02  0.18724794617E+01  0.74089822663E+01  0.12800401576E+02  0.51100000000E-03 0.  1.
        -12    1    3    3    0    0  0.41685029526E+02  0.91304477453E+01 -0.51729189573E+01  0.42985647060E+02  0.00000000000E+00 0.  1.
</event>
<event>
 7    1  0.2468912E-015  0.9000772E+02  0.7816164E-02  0.1186339E+00
        -11   -1    0    0    0    0  0.00000000000E+00  0.00000000000E+00  0.45593999997E+02  0.45594000000E+02  0.51100000000E-03 0.  1.
         11   -1    0    0    0    0 -0.00000000000E+00 -0.00000000000E+00 -0.45593999997E+02  0.45594000000E+02  0.51100000000E-03 0. -1.
    9900012    2    1    2    0    0 -0.27434670685E+00 -0.10954803011E+01  0.34311126947E+00  0.90007716751E+02  0.89999977812E+02 0.  0.
         12    1    1    2    0    0  0.27434670685E+00  0.10954803011E+01 -0.34311126947E+00  0.11802832495E+01  0.00000000000E+00 0. -1.
         11    1    3    3    0    0 -0.28896574970E+02  0.10970762828E+02 -0.22384578849E+02  0.38163320774E+02  0.51100000000E-03 0. -1.
        -11    1    3    3    0    0  0.16682230834E+01  0.55479890400E+01 -0.62527814439E+01  0.85241085569E+01  0.51100000000E-03 0.  1.
        -12    1    3    3    0    0  0.26954005180E+02 -0.17614232169E+02  0.28980471562E+02  0.43320287419E+02  0.00000000000E+00 0.  1.
</event>
<event>
 7    1  0.2468912E-015  0.9000781E+02  0.7816164E-02  0.1186339E+00
        -11   -1    0    0    0    0  0.00000000000E+00  0.00000000000E+00  0.45593999997E+02  0.45594000000E+02  0.51100000000E-03 0.  1.
         11   -1    0    0    0    0 -0.00000000000E+00 -0.00000000000E+00 -0.45593999997E+02  0.45594000000E+02  0.51100000000E-03 0. -1.
    9900012    2    1    2    0    0  0.30924486024E+00 -0.11361193974E+01  0.80282928209E-01  0.90007811448E+02  0.90000073759E+02 0.  0.
         12    1    1    2    0    0 -0.30924486024E+00  0.11361193974E+01 -0.80282928209E-01  0.11801885516E+01  0.00000000000E+00 0. -1.
         11    1    3    3    0    0 -0.80533763319E+01  0.11820736134E+01  0.18054430104E+01  0.83374932142E+01  0.51100000000E-03 0. -1.
        -11    1    3    3    0    0  0.16169347183E+02 -0.87243116818E+01  0.37182152028E+02  0.41473772825E+02  0.51100000000E-03 0.  1.
         12    1    3    3    0    0 -0.78067259909E+01  0.64061186709E+01 -0.38907312111E+02  0.40196545409E+02  0.00000000000E+00 0. -1.
</event>
<event>
 7    1  0.2468912E-015  0.9000777E+02  0.7816164E-02  0.1186339E+00
        -11   -1    0    0    0    0  0.00000000000E+00  0.00000000000E+00  0.45593999997E+02  0.45594000000E+02  0.51100000000E-03 0.  1.
         11   -1    0    0    0    0 -0.00000000000E+00 -0.00000000000E+00 -0.45593999997E+02  0.45594000000E+02  0.51100000000E-03 0. -1.
    9900012    2    1    2    0    0  0.10415517382E+00  0.94253615909E+00  0.70265621135E+00  0.90007767623E+02  0.90000029356E+02 0.  0.
         12    1    1    2    0    0 -0.10415517382E+00 -0.94253615909E+00 -0.70265621135E+00  0.11802323766E+01  0.00000000000E+00 0. -1.
         11    1    3    3    0    0  0.75708474921E+01 -0.12893840783E+01 -0.29763817749E+01  0.82364489788E+01  0.51100000000E-03 0. -1.
        -11    1    3    3    0    0  0.55991926890E+01 -0.37857180362E+02 -0.53777246368E+01  0.38645012437E+02  0.51100000000E-03 0.  1.
         12    1    3    3    0    0 -0.13065885007E+02  0.40089100599E+02  0.90567626231E+01  0.43126306207E+02  0.00000000000E+00 0. -1.
</event>
<event>
 7    1  0.2468912E-015  0.9000776E+02  0.7816164E-02  0.1186339E+00
        -11   -1    0    0    0    0  0.00000000000E+00  0.00000000000E+00  0.45593999997E+02  0.45594000000E+02  0.51100000000E-03 0.  1.
         11   -1    0    0    0    0 -0.00000000000E+00 -0.00000000000E+00 -0.45593999997E+02  0.45594000000E+02  0.51100000000E-03 0. -1.
    9900012    2    1    2    0    0 -0.54478127651E+00  0.36917273572E+00  0.97973583657E+00  0.90007763813E+02  0.90000025495E+02 0.  0.
         12    1    1    2    0    0  0.54478127651E+00 -0.36917273572E+00 -0.97973583657E+00  0.11802361872E+01  0.00000000000E+00 0. -1.
         11    1    3    3    0    0 -0.86081405602E+01  0.35638798467E+02  0.76520773810E+01  0.37453682444E+02  0.51100000000E-03 0. -1.
        -11    1    3    3    0    0 -0.81584631816E+01  0.37371673789E+01  0.25185608002E+01  0.93204125590E+01  0.51100000000E-03 0.  1.
        -12    1    3    3    0    0  0.16221822465E+02 -0.39006793111E+02 -0.91909023446E+01  0.43233668810E+02  0.00000000000E+00 0.  1.
</event>
<event>
 7    1  0.2468912E-015  0.9000802E+02  0.7816164E-02  0.1186338E+00
        -11   -1    0    0    0    0  0.00000000000E+00  0.00000000000E+00  0.45593999997E+02  0.45594000000E+02  0.51100000000E-03 0.  1.
         11   -1    0    0    0    0 -0.00000000000E+00 -0.00000000000E+00 -0.45593999997E+02  0.45594000000E+02  0.51100000000E-03 0. -1.
    9900012    2    1    2    0    0 -0.24120840466E+00 -0.29921827720E+00  0.11156323447E+01  0.90008021780E+02  0.90000286867E+02 0.  0.
         12    1    1    2    0    0  0.24120840466E+00  0.29921827720E+00 -0.11156323447E+01  0.11799782203E+01  0.00000000000E+00 0. -1.
         11    1    3    3    0    0  0.18662263826E+02 -0.13793193015E+02 -0.29813215381E+02  0.37780419217E+02  0.51100000000E-03 0. -1.
        -11    1    3    3    0    0 -0.36160594340E+00 -0.92366157727E+01 -0.47330506143E+00  0.92558007613E+01  0.51100000000E-03 0.  1.
        -12    1    3    3    0    0 -0.18541866287E+02  0.22730590510E+02  0.31402152787E+02  0.42971801801E+02  0.00000000000E+00 0.  1.
</event>
<event>
 7    1  0.2468912E-015  0.9000737E+02  0.7816164E-02  0.1186340E+00
        -11   -1    0    0    0    0  0.00000000000E+00  0.00000000000E+00  0.45593999997E+02  0.45594000000E+02  0.51100000000E-03 0.  1.
         11   -1    0    0    0    0 -0.00000000000E+00 -0.00000000000E+00 -0.45593999997E+02  0.45594000000E+02  0.51100000000E-03 0. -1.
    9900012    2    1    2    0    0  0.43180103139E+00  0.27023993696E+00  0.10650796790E+01  0.90007374540E+02  0.89999631083E+02 0.  0.
         12    1    1    2    0    0 -0.43180103139E+00 -0.27023993696E+00 -0.10650796790E+01  0.11806254600E+01  0.00000000000E+00 0. -1.
         11    1    3    3    0    0  0.28179013359E+01  0.36472913845E+00 -0.35173903030E+02  0.35288483247E+02  0.51100000000E-03 0. -1.
        -11    1    3    3    0    0  0.71370802832E+01  0.57227130566E+00 -0.72528652575E+01  0.10191636970E+02  0.51100000000E-03 0.  1.
        -12    1    3    3    0    0 -0.95231805877E+01 -0.66676050714E+00  0.43491847966E+02  0.44527254323E+02  0.00000000000E+00 0.  1.
</event>
<event>
 7    1  0.2468912E-015  0.9000781E+02  0.7816164E-02  0.1186339E+00
        -11   -1    0    0    0    0  0.00000000000E+00  0.00000000000E+00  0.45593999997E+02  0.45594000000E+02  0.51100000000E-03 0.  1.
         11   -1    0    0    0    0 -0.00000000000E+00 -0.00000000000E+00 -0.45593999997E+02  0.45594000000E+02  0.51100000000E-03 0. -1.
    9900012    2    1    2    0    0 -0.53613764090E+00 -0.10366511533E+01 -0.17540536610E+00  0.90007806700E+02  0.90000068948E+02 0.  0.
         12    1    1    2    0    0  0.53613764090E+00  0.10366511533E+01  0.17540536610E+00  0.11801933003E+01  0.00000000000E+00 0. -1.
         11    1    3    3    0    0 -0.28470890003E+02 -0.66144114706E+01 -0.25503702395E+02  0.38791504905E+02  0.51100000000E-03 0. -1.
        -11    1    3    3    0    0 -0.78524327963E+01  0.36737806129E+01  0.45544847802E+01  0.97928901090E+01  0.51100000000E-03 0.  1.
        -12    1    3    3    0    0  0.35787185159E+02  0.19039797044E+01  0.20773812249E+02  0.41423411685E+02  0.00000000000E+00 0.  1.
</event>
<event>
 7    1  0.2468912E-015  0.9000774E+02  0.7816164E-02  0.1186339E+00
        -11   -1    0    0    0    0  0.00000000000E+00  0.00000000000E+00  0.45593999997E+02  0.45594000000E+02  0.51100000000E-03 0.  1.
         11   -1    0    0    0    0 -0.00000000000E+00 -0.00000000000E+00 -0.45593999997E+02  0.45594000000E+02  0.51100000000E-03 0. -1.
    9900012    2    1    2    0    0  0.83138172500E+00 -0.36545802819E+00 -0.75383407363E+00  0.90007736913E+02  0.89999998241E+02 0.  0.
         12    1    1    2    0    0 -0.83138172500E+00  0.36545802819E+00  0.75383407363E+00  0.11802630866E+01  0.00000000000E+00 0. -1.
         11    1    3    3    0    0  0.10747010062E+02  0.59033078048E+00 -0.37046628828E+02  0.38578483945E+02  0.51100000000E-03 0. -1.
        -11    1    3    3    0    0  0.35063816893E+01 -0.72167855847E+01 -0.36606009241E+01  0.88191102789E+01  0.51100000000E-03 0.  1.
        -12    1    3    3    0    0 -0.13422010026E+02  0.62609967760E+01  0.39953395679E+02  0.42610142690E+02  0.00000000000E+00 0.  1.
</event>
<event>
 7    1  0.2468912E-015  0.9000786E+02  0.7816164E-02  0.1186339E+00
        -11   -1    0    0    0    0  0.00000000000E+00  0.00000000000E+00  0.45593999997E+02  0.45594000000E+02  0.51100000000E-03 0.  1.
         11   -1    0    0    0    0 -0.00000000000E+00 -0.00000000000E+00 -0.45593999997E+02  0.45594000000E+02  0.51100000000E-03 0. -1.
    9900012    2    1    2    0    0  0.36683604942E+00 -0.11182315710E+01 -0.87827278721E-01  0.90007862650E+02  0.90000125637E+02 0.  0.
         12    1    1    2    0    0 -0.36683604942E+00  0.11182315710E+01  0.87827278721E-01  0.11801373498E+01  0.00000000000E+00 0. -1.
         11    1    3    3    0    0  0.25061487562E+02 -0.23376537378E+02 -0.19507239102E+02  0.39434414364E+02  0.51100000000E-03 0. -1.
        -11    1    3    3    0    0 -0.24227590017E+01  0.33671084518E+01 -0.89459799266E+01  0.98609197145E+01  0.51100000000E-03 0.  1.
        -12    1    3    3    0    0 -0.22271892511E+02  0.18891197355E+02  0.28365391750E+02  0.40712528571E+02  0.00000000000E+00 0.  1.
</event>
<event>
 7    1  0.2468912E-015  0.9000775E+02  0.7816164E-02  0.1186339E+00
        -11   -1    0    0    0    0  0.00000000000E+00  0.00000000000E+00  0.45593999997E+02  0.45594000000E+02  0.51100000000E-03 0.  1.
         11   -1    0    0    0    0 -0.00000000000E+00 -0.00000000000E+00 -0.45593999997E+02  0.45594000000E+02  0.51100000000E-03 0. -1.
    9900012    2    1    2    0    0  0.11292718016E+00 -0.94915742709E+00 -0.69234203325E+00  0.90007750086E+02  0.90000011587E+02 0.  0.
         12    1    1    2    0    0 -0.11292718016E+00  0.94915742709E+00  0.69234203325E+00  0.11802499144E+01  0.00000000000E+00 0. -1.
         11    1    3    3    0    0  0.15187616196E+02 -0.14961916317E+02 -0.34963570120E+02  0.40950871314E+02  0.51100000000E-03 0. -1.
        -11    1    3    3    0    0 -0.85104991465E+01 -0.22520193243E+01 -0.17653006664E+01  0.89786676886E+01  0.51100000000E-03 0.  1.
        -12    1    3    3    0    0 -0.65641898691E+01  0.16264778214E+02  0.36036528753E+02  0.40078211083E+02  0.00000000000E+00 0.  1.
</event>
<event>
 7    1  0.2468912E-015  0.9000781E+02  0.7816164E-02  0.1186339E+00
        -11   -1    0    0    0    0  0.00000000000E+00  0.00000000000E+00  0.45593999997E+02  0.45594000000E+02  0.51100000000E-03 0.  1.
         11   -1    0    0    0    0 -0.00000000000E+00 -0.00000000000E+00 -0.45593999997E+02  0.45594000000E+02  0.51100000000E-03 0. -1.
    9900012    2    1    2    0    0  0.18515454756E+00 -0.20361145589E-01  0.11653942293E+01  0.90007813365E+02  0.90000075702E+02 0.  0.
         12    1    1    2    0    0 -0.18515454756E+00  0.20361145589E-01 -0.11653942293E+01  0.11801866346E+01  0.00000000000E+00 0. -1.
         11    1    3    3    0    0  0.15575502982E+01 -0.73622252886E+00 -0.62392784864E+01  0.64727569733E+01  0.51100000000E-03 0. -1.
        -11    1    3    3    0    0  0.36507408777E+02  0.18014095982E+02 -0.23060176591E+01  0.40775191813E+02  0.51100000000E-03 0.  1.
         12    1    3    3    0    0 -0.37879804528E+02 -0.17298234598E+02  0.97106903749E+01  0.42759864579E+02  0.00000000000E+00 0. -1.
</event>
<event>
 7    1  0.2468912E-015  0.9000773E+02  0.7816164E-02  0.1186339E+00
        -11   -1    0    0    0    0  0.00000000000E+00  0.00000000000E+00  0.45593999997E+02  0.45594000000E+02  0.51100000000E-03 0.  1.
         11   -1    0    0    0    0 -0.00000000000E+00 -0.00000000000E+00 -0.45593999997E+02  0.45594000000E+02  0.51100000000E-03 0. -1.
    9900012    2    1    2    0    0  0.44890879475E+00 -0.10239709981E+01  0.37814184407E+00  0.90007734367E+02  0.89999995660E+02 0.  0.
         12    1    1    2    0    0 -0.44890879475E+00  0.10239709981E+01 -0.37814184407E+00  0.11802656333E+01  0.00000000000E+00 0. -1.
         11    1    3    3    0    0  0.24220560052E+02  0.28073501987E+02 -0.10571543307E+02  0.38555344263E+02  0.51100000000E-03 0. -1.
        -11    1    3    3    0    0  0.82899435850E+01 -0.33191628630E+01  0.20185635365E+00  0.89320072213E+01  0.51100000000E-03 0.  1.
        -12    1    3    3    0    0 -0.32061594842E+02 -0.25778310123E+02  0.10747828797E+02  0.42520382882E+02  0.00000000000E+00 0.  1.
</event>
<event>
 7    1  0.2468912E-015  0.9000775E+02  0.7816164E-02  0.1186339E+00
        -11   -1    0    0    0    0  0.00000000000E+00  0.00000000000E+00  0.45593999997E+02  0.45594000000E+02  0.51100000000E-03 0.  1.
         11   -1    0    0    0    0 -0.00000000000E+00 -0.00000000000E+00 -0.45593999997E+02  0.45594000000E+02  0.51100000000E-03 0. -1.
    9900012    2    1    2    0    0  0.44809625438E-01 -0.62079946072E+00  0.10027897247E+01  0.90007751253E+02  0.90000012769E+02 0.  0.
         12    1    1    2    0    0 -0.44809625438E-01  0.62079946072E+00 -0.10027897247E+01  0.11802487471E+01  0.00000000000E+00 0. -1.
         11    1    3    3    0    0 -0.73785170514E+01  0.92236282302E+00 -0.69480938284E+01  0.10176899094E+02  0.51100000000E-03 0. -1.
        -11    1    3    3    0    0 -0.31813368241E+02  0.15171008451E+02  0.11399761381E+02  0.37043278149E+02  0.51100000000E-03 0.  1.
         12    1    3    3    0    0  0.39236694918E+02 -0.16714170734E+02 -0.34488778278E+01  0.42787574010E+02  0.00000000000E+00 0. -1.
</event>
<event>
 7    1  0.2468912E-015  0.9000776E+02  0.7816164E-02  0.1186339E+00
        -11   -1    0    0    0    0  0.00000000000E+00  0.00000000000E+00  0.45593999997E+02  0.45594000000E+02  0.51100000000E-03 0. -1.
         11   -1    0    0    0    0 -0.00000000000E+00 -0.00000000000E+00 -0.45593999997E+02  0.45594000000E+02  0.51100000000E-03 0.  1.
    9900012    2    1    2    0    0  0.72731770048E+00 -0.57235296303E+00 -0.73238094516E+00  0.90007762397E+02  0.90000024060E+02 0.  0.
         12    1    1    2    0    0 -0.72731770048E+00  0.57235296303E+00  0.73238094516E+00  0.11802376034E+01  0.00000000000E+00 0. -1.
         11    1    3    3    0    0  0.24016312453E+02  0.13184176969E+02  0.22620522288E+02  0.35528774465E+02  0.51100000000E-03 0. -1.
        -11    1    3    3    0    0  0.82179612649E+01  0.62896888335E+01 -0.11102041243E+02  0.15177298607E+02  0.51100000000E-03 0.  1.
        -12    1    3    3    0    0 -0.31506956017E+02 -0.20046218765E+02 -0.12250861990E+02  0.39301689324E+02  0.00000000000E+00 0.  1.
</event>
<event>
 7    1  0.2468912E-015  0.9000772E+02  0.7816164E-02  0.1186339E+00
        -11   -1    0    0    0    0  0.00000000000E+00  0.00000000000E+00  0.45593999997E+02  0.45594000000E+02  0.51100000000E-03 0. -1.
         11   -1    0    0    0    0 -0.00000000000E+00 -0.00000000000E+00 -0.45593999997E+02  0.45594000000E+02  0.51100000000E-03 0.  1.
    9900012    2    1    2    0    0  0.22494762096E+00  0.11545178037E+01 -0.97665097946E-01  0.90007724074E+02  0.89999985231E+02 0.  0.
         12    1    1    2    0    0 -0.22494762096E+00 -0.11545178037E+01  0.97665097946E-01  0.11802759264E+01  0.00000000000E+00 0. -1.
         11    1    3    3    0    0 -0.97424805557E+00 -0.31618491930E+02  0.19967152732E+02  0.37408092436E+02  0.51100000000E-03 0. -1.
        -11    1    3    3    0    0 -0.69994513976E+01 -0.55619185289E+01 -0.96409078076E+00  0.89920369708E+01  0.51100000000E-03 0.  1.
        -12    1    3    3    0    0  0.81986470742E+01  0.38334928263E+02 -0.19100727050E+02  0.43607594666E+02  0.00000000000E+00 0.  1.
</event>
<event>
 7    1  0.2468912E-015  0.9000775E+02  0.7816164E-02  0.1186339E+00
        -11   -1    0    0    0    0  0.00000000000E+00  0.00000000000E+00  0.45593999997E+02  0.45594000000E+02  0.51100000000E-03 0. -1.
         11   -1    0    0    0    0 -0.00000000000E+00 -0.00000000000E+00 -0.45593999997E+02  0.45594000000E+02  0.51100000000E-03 0.  1.
    9900012    2    1    2    0    0  0.78579546161E+00  0.74653373490E+00 -0.46713090328E+00  0.90007746466E+02  0.90000007919E+02 0.  0.
         12    1    1    2    0    0 -0.78579546161E+00 -0.74653373490E+00  0.46713090328E+00  0.11802535345E+01  0.00000000000E+00 0. -1.
         11    1    3    3    0    0 -0.37710552373E+01  0.29403688014E+02  0.26953250667E+02  0.40065888836E+02  0.51100000000E-03 0. -1.
        -11    1    3    3    0    0 -0.12687415555E+01 -0.87885993417E+01  0.59365814726E+01  0.10681394261E+02  0.51100000000E-03 0.  1.
        -12    1    3    3    0    0  0.58255922544E+01 -0.19868554938E+02 -0.33356963043E+02  0.39260463368E+02  0.00000000000E+00 0.  1.
</event>
<event>
 7    1  0.2468912E-015  0.9000768E+02  0.7816164E-02  0.1186339E+00
        -11   -1    0    0    0    0  0.00000000000E+00  0.00000000000E+00  0.45593999997E+02  0.45594000000E+02  0.51100000000E-03 0. -1.
         11   -1    0    0    0    0 -0.00000000000E+00 -0.00000000000E+00 -0.45593999997E+02  0.45594000000E+02  0.51100000000E-03 0.  1.
    9900012    2    1    2    0    0  0.10450407281E+01 -0.14805633397E+00  0.52832851526E+00  0.90007677238E+02  0.89999937778E+02 0.  0.
         12    1    1    2    0    0 -0.10450407281E+01  0.14805633397E+00 -0.52832851526E+00  0.11803227615E+01  0.00000000000E+00 0. -1.
         11    1    3    3    0    0 -0.61400202622E+01 -0.47971073599E+00 -0.78361456144E+01  0.99667020404E+01  0.51100000000E-03 0. -1.
        -11    1    3    3    0    0 -0.26989097853E+02 -0.21159299280E+02  0.17718526938E+02  0.38601470776E+02  0.51100000000E-03 0.  1.
         12    1    3    3    0    0  0.34174158844E+02  0.21490953682E+02 -0.93540528083E+01  0.41439504422E+02  0.00000000000E+00 0. -1.
</event>
<event>
 7    1  0.2468912E-015  0.9000778E+02  0.7816164E-02  0.1186339E+00
        -11   -1    0    0    0    0  0.00000000000E+00  0.00000000000E+00  0.45593999997E+02  0.45594000000E+02  0.51100000000E-03 0. -1.
         11   -1    0    0    0    0 -0.00000000000E+00 -0.00000000000E+00 -0.45593999997E+02  0.45594000000E+02  0.51100000000E-03 0.  1.
    9900012    2    1    2    0    0 -0.99336724420E+00  0.59386582881E+00  0.23122369989E+00  0.90007779892E+02  0.90000041786E+02 0.  0.
         12    1    1    2    0    0  0.99336724420E+00 -0.59386582881E+00 -0.23122369989E+00  0.11802201082E+01  0.00000000000E+00 0. -1.
         11    1    3    3    0    0 -0.35265229007E+02 -0.14757706436E+02 -0.67418002950E-01  0.38228664921E+02  0.51100000000E-03 0. -1.
        -11    1    3    3    0    0 -0.49442288687E+01 -0.22334475157E+01  0.63776081189E+01  0.83730264833E+01  0.51100000000E-03 0.  1.
        -12    1    3    3    0    0  0.39216090632E+02  0.17585019780E+02 -0.60789664161E+01  0.43406088488E+02  0.00000000000E+00 0.  1.
</event>
<event>
 7    1  0.2468912E-015  0.9000770E+02  0.7816164E-02  0.1186339E+00
        -11   -1    0    0    0    0  0.00000000000E+00  0.00000000000E+00  0.45593999997E+02  0.45594000000E+02  0.51100000000E-03 0. -1.
         11   -1    0    0    0    0 -0.00000000000E+00 -0.00000000000E+00 -0.45593999997E+02  0.45594000000E+02  0.51100000000E-03 0.  1.
    9900012    2    1    2    0    0 -0.55011313687E+00  0.53319387022E+00 -0.89788388096E+00  0.90007696806E+02  0.89999957604E+02 0.  0.
         12    1    1    2    0    0  0.55011313687E+00 -0.53319387022E+00  0.89788388096E+00  0.11803031942E+01  0.00000000000E+00 0. -1.
         11    1    3    3    0    0 -0.70202584384E+01 -0.11676828883E+02  0.11800087057E+02  0.18024272971E+02  0.51100000000E-03 0. -1.
        -11    1    3    3    0    0 -0.29508913100E+02 -0.54492541939E+01 -0.10686025342E+02  0.31853751137E+02  0.51100000000E-03 0.  1.
         12    1    3    3    0    0  0.35979058402E+02  0.17659276947E+02 -0.20119455956E+01  0.40129672698E+02  0.00000000000E+00 0. -1.
</event>
<event>
 7    1  0.2468912E-015  0.9000777E+02  0.7816164E-02  0.1186339E+00
        -11   -1    0    0    0    0  0.00000000000E+00  0.00000000000E+00  0.45593999997E+02  0.45594000000E+02  0.51100000000E-03 0.  1.
         11   -1    0    0    0    0 -0.00000000000E+00 -0.00000000000E+00 -0.45593999997E+02  0.45594000000E+02  0.51100000000E-03 0. -1.
    9900012    2    1    2    0    0 -0.93257297339E+00  0.61282825081E+00 -0.38430439113E+00  0.90007770920E+02  0.90000032696E+02 0.  0.
         12    1    1    2    0    0  0.93257297339E+00 -0.61282825081E+00  0.38430439113E+00  0.11802290798E+01  0.00000000000E+00 0. -1.
         11    1    3    3    0    0 -0.88639108113E+01 -0.40082027342E+01  0.14361200038E+01  0.98334655618E+01  0.51100000000E-03 0. -1.
        -11    1    3    3    0    0 -0.18728993263E+02 -0.30661566486E+02 -0.10892663139E+01  0.35945700012E+02  0.51100000000E-03 0.  1.
         12    1    3    3    0    0  0.26660331101E+02  0.35282597471E+02 -0.73115808101E+00  0.44228605346E+02  0.00000000000E+00 0. -1.
</event>
<event>
 7    1  0.2468912E-015  0.9000775E+02  0.7816164E-02  0.1186339E+00
        -11   -1    0    0    0    0  0.00000000000E+00  0.00000000000E+00  0.45593999997E+02  0.45594000000E+02  0.51100000000E-03 0.  1.
         11   -1    0    0    0    0 -0.00000000000E+00 -0.00000000000E+00 -0.45593999997E+02  0.45594000000E+02  0.51100000000E-03 0. -1.
    9900012    2    1    2    0    0 -0.10561768406E+01  0.41626511550E+00  0.32282391045E+00  0.90007745179E+02  0.90000006616E+02 0.  0.
         12    1    1    2    0    0  0.10561768406E+01 -0.41626511550E+00 -0.32282391045E+00  0.11802548208E+01  0.00000000000E+00 0. -1.
         11    1    3    3    0    0 -0.15655547470E+01  0.14020460774E+01  0.95534350904E+01  0.97818616406E+01  0.51100000000E-03 0. -1.
        -11    1    3    3    0    0 -0.69046587979E+01 -0.36235098642E+02  0.11534684024E+02  0.38648487972E+02  0.51100000000E-03 0.  1.
         12    1    3    3    0    0  0.74140367043E+01  0.35249317680E+02 -0.20765295204E+02  0.41577395567E+02  0.00000000000E+00 0. -1.
</event>
<event>
 7    1  0.2468912E-015  0.9000779E+02  0.7816164E-02  0.1186339E+00
        -11   -1    0    0    0    0  0.00000000000E+00  0.00000000000E+00  0.45593999997E+02  0.45594000000E+02  0.51100000000E-03 0. -1.
         11   -1    0    0    0    0 -0.00000000000E+00 -0.00000000000E+00 -0.45593999997E+02  0.45594000000E+02  0.51100000000E-03 0.  1.
    9900012    2    1    2    0    0 -0.86876731042E+00 -0.35415799198E+00  0.71603481405E+00  0.90007792231E+02  0.90000054288E+02 0.  0.
         12    1    1    2    0    0  0.86876731042E+00  0.35415799198E+00 -0.71603481405E+00  0.11802077689E+01  0.00000000000E+00 0. -1.
         11    1    3    3    0    0 -0.58492273875E+00 -0.93044175598E+01  0.27852425885E+02  0.29371277614E+02  0.51100000000E-03 0. -1.
        -11    1    3    3    0    0 -0.20845689040E+02  0.89944388416E+00  0.51779929417E+01  0.21497985069E+02  0.51100000000E-03 0.  1.
        -12    1    3    3    0    0  0.20561844468E+02  0.80508156837E+01 -0.32314384012E+02  0.39138529548E+02  0.00000000000E+00 0.  1.
</event>
<event>
 7    1  0.2468912E-015  0.9000778E+02  0.7816164E-02  0.1186339E+00
        -11   -1    0    0    0    0  0.00000000000E+00  0.00000000000E+00  0.45593999997E+02  0.45594000000E+02  0.51100000000E-03 0. -1.
         11   -1    0    0    0    0 -0.00000000000E+00 -0.00000000000E+00 -0.45593999997E+02  0.45594000000E+02  0.51100000000E-03 0.  1.
    9900012    2    1    2    0    0 -0.48428778913E+00 -0.96125844631E+00 -0.48410456516E+00  0.90007784048E+02  0.90000045997E+02 0.  0.
         12    1    1    2    0    0  0.48428778913E+00  0.96125844631E+00  0.48410456516E+00  0.11802159520E+01  0.00000000000E+00 0. -1.
         11    1    3    3    0    0 -0.25822628566E+02 -0.33477403540E+02  0.13119827710E+01  0.42299716227E+02  0.51100000000E-03 0. -1.
        -11    1    3    3    0    0 -0.43958682235E+01  0.64373331584E+01 -0.23902273413E+01  0.81532878420E+01  0.51100000000E-03 0.  1.
        -12    1    3    3    0    0  0.29734209000E+02  0.26078811936E+02  0.59414000506E+00  0.39554779979E+02  0.00000000000E+00 0.  1.
</event>
<event>
 7    1  0.2468912E-015  0.9000774E+02  0.7816164E-02  0.1186339E+00
        -11   -1    0    0    0    0  0.00000000000E+00  0.00000000000E+00  0.45593999997E+02  0.45594000000E+02  0.51100000000E-03 0. -1.
         11   -1    0    0    0    0 -0.00000000000E+00 -0.00000000000E+00 -0.45593999997E+02  0.45594000000E+02  0.51100000000E-03 0.  1.
    9900012    2    1    2    0    0  0.10662248329E+01 -0.44563032760E+00 -0.23998554939E+00  0.90007739500E+02  0.90000000862E+02 0.  0.
         12    1    1    2    0    0 -0.10662248329E+01  0.44563032760E+00  0.23998554939E+00  0.11802604997E+01  0.00000000000E+00 0. -1.
         11    1    3    3    0    0  0.60743016029E+01  0.93054115270E+01 -0.11589149451E+01  0.11172775294E+02  0.51100000000E-03 0. -1.
        -11    1    3    3    0    0 -0.38993994149E+01  0.30432371460E+02 -0.16714667666E+02  0.34938727279E+02  0.51100000000E-03 0.  1.
         12    1    3    3    0    0 -0.11086773550E+01 -0.40183413314E+02  0.17633597061E+02  0.43896236927E+02  0.00000000000E+00 0. -1.
</event>
<event>
 7    1  0.2468912E-015  0.9000781E+02  0.7816164E-02  0.1186339E+00
        -11   -1    0    0    0    0  0.00000000000E+00  0.00000000000E+00  0.45593999997E+02  0.45594000000E+02  0.51100000000E-03 0.  1.
         11   -1    0    0    0    0 -0.00000000000E+00 -0.00000000000E+00 -0.45593999997E+02  0.45594000000E+02  0.51100000000E-03 0. -1.
    9900012    2    1    2    0    0 -0.10101884549E+01  0.28743725806E+00  0.53828505004E+00  0.90007808623E+02  0.90000070897E+02 0.  0.
         12    1    1    2    0    0  0.10101884549E+01 -0.28743725806E+00 -0.53828505004E+00  0.11801913772E+01  0.00000000000E+00 0. -1.
         11    1    3    3    0    0 -0.23276296283E+02  0.16957816518E+02 -0.28971066573E+02  0.40849433391E+02  0.51100000000E-03 0. -1.
        -11    1    3    3    0    0  0.50025177550E+01  0.78338923889E+01  0.80162691883E+01  0.12274185342E+02  0.51100000000E-03 0.  1.
        -12    1    3    3    0    0  0.17263590073E+02 -0.24504271649E+02  0.21493082435E+02  0.36884189890E+02  0.00000000000E+00 0.  1.
</event>
<event>
 7    1  0.2468912E-015  0.9000769E+02  0.7816164E-02  0.1186339E+00
        -11   -1    0    0    0    0  0.00000000000E+00  0.00000000000E+00  0.45593999997E+02  0.45594000000E+02  0.51100000000E-03 0.  1.
         11   -1    0    0    0    0 -0.00000000000E+00 -0.00000000000E+00 -0.45593999997E+02  0.45594000000E+02  0.51100000000E-03 0. -1.
    9900012    2    1    2    0    0 -0.57466761414E+00 -0.10207252525E+01 -0.14490530568E+00  0.90007694762E+02  0.89999955533E+02 0.  0.
         12    1    1    2    0    0  0.57466761414E+00  0.10207252525E+01  0.14490530568E+00  0.11803052383E+01  0.00000000000E+00 0. -1.
         11    1    3    3    0    0  0.27179409832E+02  0.12271046101E+02 -0.25109887394E+02  0.38984680792E+02  0.51100000000E-03 0. -1.
        -11    1    3    3    0    0  0.66582834940E+01 -0.54286782245E+01  0.84547015899E+01  0.12053433768E+02  0.51100000000E-03 0.  1.
        -12    1    3    3    0    0 -0.34412360940E+02 -0.78630931288E+01  0.16510280499E+02  0.38969580202E+02  0.00000000000E+00 0.  1.
</event>
<event>
 7    1  0.2468912E-015  0.9000803E+02  0.7816164E-02  0.1186338E+00
        -11   -1    0    0    0    0  0.00000000000E+00  0.00000000000E+00  0.45593999997E+02  0.45594000000E+02  0.51100000000E-03 0. -1.
         11   -1    0    0    0    0 -0.00000000000E+00 -0.00000000000E+00 -0.45593999997E+02  0.45594000000E+02  0.51100000000E-03 0.  1.
    9900012    2    1    2    0    0  0.50365478072E+00  0.86859056723E+00 -0.61984769424E+00  0.90008030138E+02  0.90000295335E+02 0.  0.
         12    1    1    2    0    0 -0.50365478072E+00 -0.86859056723E+00  0.61984769424E+00  0.11799698622E+01  0.00000000000E+00 0. -1.
         11    1    3    3    0    0 -0.31702602754E+02 -0.11319302618E+02 -0.16195285345E+02  0.37355975436E+02  0.51100000000E-03 0. -1.
        -11    1    3    3    0    0 -0.28112194077E+01  0.12138250140E+02 -0.32755361580E+01  0.12882903725E+02  0.51100000000E-03 0.  1.
        -12    1    3    3    0    0  0.35017476942E+02  0.49643045245E-01  0.18850973809E+02  0.39769150976E+02  0.00000000000E+00 0.  1.
</event>
<event>
 7    1  0.2468912E-015  0.9000784E+02  0.7816164E-02  0.1186339E+00
        -11   -1    0    0    0    0  0.00000000000E+00  0.00000000000E+00  0.45593999997E+02  0.45594000000E+02  0.51100000000E-03 0. -1.
         11   -1    0    0    0    0 -0.00000000000E+00 -0.00000000000E+00 -0.45593999997E+02  0.45594000000E+02  0.51100000000E-03 0.  1.
    9900012    2    1    2    0    0 -0.43504938625E+00 -0.11301811009E+00 -0.10912125883E+01  0.90007836463E+02  0.90000099104E+02 0.  0.
         12    1    1    2    0    0  0.43504938625E+00  0.11301811009E+00  0.10912125883E+01  0.11801635372E+01  0.00000000000E+00 0. -1.
         11    1    3    3    0    0 -0.45196541775E+01  0.74093248392E+01 -0.39621594904E+01  0.95406538845E+01  0.51100000000E-03 0. -1.
        -11    1    3    3    0    0 -0.21069607503E+01  0.13988002525E+01 -0.38047932267E+02  0.38131890536E+02  0.51100000000E-03 0.  1.
         12    1    3    3    0    0  0.61915655415E+01 -0.89211432018E+01  0.40918879169E+02  0.42335292043E+02  0.00000000000E+00 0. -1.
</event>
<event>
 7    1  0.2468912E-015  0.9000661E+02  0.7816164E-02  0.1186341E+00
        -11   -1    0    0    0    0  0.00000000000E+00  0.00000000000E+00  0.45593999997E+02  0.45594000000E+02  0.51100000000E-03 0. -1.
         11   -1    0    0    0    0 -0.00000000000E+00 -0.00000000000E+00 -0.45593999997E+02  0.45594000000E+02  0.51100000000E-03 0.  1.
    9900012    2    1    2    0    0  0.59949002046E+00  0.10176213524E+01  0.27348163321E-01  0.90006606999E+02  0.89998853404E+02 0.  0.
         12    1    1    2    0    0 -0.59949002046E+00 -0.10176213524E+01 -0.27348163321E-01  0.11813930013E+01  0.00000000000E+00 0. -1.
         11    1    3    3    0    0  0.75432488632E+01  0.57080052539E+01 -0.38561527247E+01  0.10215274910E+02  0.51100000000E-03 0. -1.
        -11    1    3    3    0    0  0.87805644350E+01  0.35454163667E+02  0.27478411838E+00  0.36526312977E+02  0.51100000000E-03 0.  1.
         12    1    3    3    0    0 -0.15724323278E+02 -0.40144547568E+02  0.36087167697E+01  0.43265019112E+02  0.00000000000E+00 0. -1.
</event>
<event>
 7    1  0.2468912E-015  0.9000780E+02  0.7816164E-02  0.1186339E+00
        -11   -1    0    0    0    0  0.00000000000E+00  0.00000000000E+00  0.45593999997E+02  0.45594000000E+02  0.51100000000E-03 0. -1.
         11   -1    0    0    0    0 -0.00000000000E+00 -0.00000000000E+00 -0.45593999997E+02  0.45594000000E+02  0.51100000000E-03 0.  1.
    9900012    2    1    2    0    0  0.78280974492E+00  0.77822291006E+00  0.41767122124E+00  0.90007800337E+02  0.90000062502E+02 0.  0.
         12    1    1    2    0    0 -0.78280974492E+00 -0.77822291006E+00 -0.41767122124E+00  0.11801996626E+01  0.00000000000E+00 0. -1.
         11    1    3    3    0    0 -0.19733501221E+02 -0.19898725705E+02  0.21511320231E+02  0.35328561441E+02  0.51100000000E-03 0. -1.
        -11    1    3    3    0    0 -0.64575351918E+01 -0.29799336615E+01  0.63298018786E+01  0.95208275619E+01  0.51100000000E-03 0.  1.
        -12    1    3    3    0    0  0.26973846158E+02  0.23656882277E+02 -0.27423450889E+02  0.45158411334E+02  0.00000000000E+00 0.  1.
</event>
<event>
 7    1  0.2468912E-015  0.9000774E+02  0.7816164E-02  0.1186339E+00
        -11   -1    0    0    0    0  0.00000000000E+00  0.00000000000E+00  0.45593999997E+02  0.45594000000E+02  0.51100000000E-03 0.  1.
         11   -1    0    0    0    0 -0.00000000000E+00 -0.00000000000E+00 -0.45593999997E+02  0.45594000000E+02  0.51100000000E-03 0. -1.
    9900012    2    1    2    0    0  0.58113741523E+00 -0.78476760443E+00 -0.66289088709E+00  0.90007743580E+02  0.90000004995E+02 0.  0.
         12    1    1    2    0    0 -0.58113741523E+00  0.78476760443E+00  0.66289088709E+00  0.11802564198E+01  0.00000000000E+00 0. -1.
         11    1    3    3    0    0  0.82728640858E+01  0.38602161653E+00  0.66062247634E+01  0.10593936887E+02  0.51100000000E-03 0. -1.
        -11    1    3    3    0    0 -0.43223098665E+02 -0.30125090989E+00 -0.46657045105E+00  0.43226666521E+02  0.51100000000E-03 0.  1.
         12    1    3    3    0    0  0.35531371994E+02 -0.86953831108E+00 -0.68025451995E+01  0.36187140172E+02  0.00000000000E+00 0. -1.
</event>
<event>
 7    1  0.2468912E-015  0.9000768E+02  0.7816164E-02  0.1186339E+00
        -11   -1    0    0    0    0  0.00000000000E+00  0.00000000000E+00  0.45593999997E+02  0.45594000000E+02  0.51100000000E-03 0.  1.
         11   -1    0    0    0    0 -0.00000000000E+00 -0.00000000000E+00 -0.45593999997E+02  0.45594000000E+02  0.51100000000E-03 0. -1.
    9900012    2    1    2    0    0  0.37160797229E+00  0.11122785441E+01  0.13374959850E+00  0.90007684364E+02  0.89999944998E+02 0.  0.
         12    1    1    2    0    0 -0.37160797229E+00 -0.11122785441E+01 -0.13374959850E+00  0.11803156357E+01  0.00000000000E+00 0. -1.
         11    1    3    3    0    0  0.12523386058E+02 -0.11090007953E+01  0.12389551700E+01  0.12633292971E+02  0.51100000000E-03 0. -1.
        -11    1    3    3    0    0 -0.63569125782E+01 -0.32426076234E+02  0.17746193749E+02  0.37507174651E+02  0.51100000000E-03 0.  1.
         12    1    3    3    0    0 -0.57948655071E+01  0.34647355573E+02 -0.18851399321E+02  0.39867216743E+02  0.00000000000E+00 0. -1.
</event>
<event>
 7    1  0.2468912E-015  0.9000774E+02  0.7816164E-02  0.1186339E+00
        -11   -1    0    0    0    0  0.00000000000E+00  0.00000000000E+00  0.45593999997E+02  0.45594000000E+02  0.51100000000E-03 0.  1.
         11   -1    0    0    0    0 -0.00000000000E+00 -0.00000000000E+00 -0.45593999997E+02  0.45594000000E+02  0.51100000000E-03 0. -1.
    9900012    2    1    2    0    0  0.57544117699E-01 -0.61995176421E+00 -0.10026796422E+01  0.90007738173E+02  0.89999999517E+02 0.  0.
         12    1    1    2    0    0 -0.57544117699E-01  0.61995176421E+00  0.10026796422E+01  0.11802618270E+01  0.00000000000E+00 0. -1.
         11    1    3    3    0    0  0.94369663273E+01 -0.72057834973E+01 -0.12246155880E+02  0.17057197406E+02  0.51100000000E-03 0. -1.
        -11    1    3    3    0    0  0.25552607087E+02  0.22084921717E+02  0.34685013527E+01  0.33951583145E+02  0.51100000000E-03 0.  1.
         12    1    3    3    0    0 -0.34932029297E+02 -0.15499089984E+02  0.77749748847E+01  0.38998957621E+02  0.00000000000E+00 0. -1.
</event>
<event>
 7    1  0.2468912E-015  0.9000786E+02  0.7816164E-02  0.1186339E+00
        -11   -1    0    0    0    0  0.00000000000E+00  0.00000000000E+00  0.45593999997E+02  0.45594000000E+02  0.51100000000E-03 0.  1.
         11   -1    0    0    0    0 -0.00000000000E+00 -0.00000000000E+00 -0.45593999997E+02  0.45594000000E+02  0.51100000000E-03 0. -1.
    9900012    2    1    2    0    0  0.53267705084E+00 -0.10159330070E+01 -0.27726386649E+00  0.90007855955E+02  0.90000118854E+02 0.  0.
         12    1    1    2    0    0 -0.53267705084E+00  0.10159330070E+01  0.27726386649E+00  0.11801440449E+01  0.00000000000E+00 0. -1.
         11    1    3    3    0    0 -0.29743049858E+02  0.29751999233E+02 -0.19596938177E+01  0.42114972080E+02  0.51100000000E-03 0. -1.
        -11    1    3    3    0    0  0.64993738159E+01 -0.94451871186E+01 -0.86100766075E+01  0.14338299730E+02  0.51100000000E-03 0.  1.
        -12    1    3    3    0    0  0.23776353093E+02 -0.21322745121E+02  0.10292506559E+02  0.33554584145E+02  0.00000000000E+00 0.  1.
</event>
<event>
 7    1  0.2468912E-015  0.9000766E+02  0.7816164E-02  0.1186339E+00
        -11   -1    0    0    0    0  0.00000000000E+00  0.00000000000E+00  0.45593999997E+02  0.45594000000E+02  0.51100000000E-03 0. -1.
         11   -1    0    0    0    0 -0.00000000000E+00 -0.00000000000E+00 -0.45593999997E+02  0.45594000000E+02  0.51100000000E-03 0.  1.
    9900012    2    1    2    0    0 -0.11330214060E+01  0.22532735742E+00  0.24227478858E+00  0.90007658101E+02  0.89999918388E+02 0.  0.
         12    1    1    2    0    0  0.11330214060E+01 -0.22532735742E+00 -0.24227478858E+00  0.11803418986E+01  0.00000000000E+00 0. -1.
         11    1    3    3    0    0 -0.23561263822E+02  0.19284033076E+02  0.28101023344E+02  0.41432772026E+02  0.51100000000E-03 0. -1.
        -11    1    3    3    0    0 -0.39918973870E+01 -0.79181873049E+01 -0.40309818431E+00  0.88766786216E+01  0.51100000000E-03 0.  1.
        -12    1    3    3    0    0  0.26420139803E+02 -0.11140518413E+02 -0.27455650371E+02  0.39698207453E+02  0.00000000000E+00 0.  1.
</event>
<event>
 7    1  0.2468912E-015  0.9000776E+02  0.7816164E-02  0.1186339E+00
        -11   -1    0    0    0    0  0.00000000000E+00  0.00000000000E+00  0.45593999997E+02  0.45594000000E+02  0.51100000000E-03 0. -1.
         11   -1    0    0    0    0 -0.00000000000E+00 -0.00000000000E+00 -0.45593999997E+02  0.45594000000E+02  0.51100000000E-03 0.  1.
    9900012    2    1    2    0    0 -0.97874599508E+00 -0.54022322189E+00 -0.37838596045E+00  0.90007762402E+02  0.90000024066E+02 0.  0.
         12    1    1    2    0    0  0.97874599508E+00  0.54022322189E+00  0.37838596045E+00  0.11802375979E+01  0.00000000000E+00 0. -1.
         11    1    3    3    0    0  0.10630696221E+02  0.27756763664E+02  0.22639229327E+02  0.37362873765E+02  0.51100000000E-03 0. -1.
        -11    1    3    3    0    0  0.27361944948E+01 -0.50334161435E+01  0.89248842322E+01  0.10605451297E+02  0.51100000000E-03 0.  1.
        -12    1    3    3    0    0 -0.14345636711E+02 -0.23263570742E+02 -0.31942499520E+02  0.42039437340E+02  0.00000000000E+00 0.  1.
</event>
<event>
 7    1  0.2468912E-015  0.9000777E+02  0.7816164E-02  0.1186339E+00
        -11   -1    0    0    0    0  0.00000000000E+00  0.00000000000E+00  0.45593999997E+02  0.45594000000E+02  0.51100000000E-03 0.  1.
         11   -1    0    0    0    0 -0.00000000000E+00 -0.00000000000E+00 -0.45593999997E+02  0.45594000000E+02  0.51100000000E-03 0. -1.
    9900012    2    1    2    0    0 -0.45745769585E+00 -0.29476242620E+00 -0.10472771831E+01  0.90007770391E+02  0.90000032160E+02 0.  0.
         12    1    1    2    0    0  0.45745769585E+00  0.29476242620E+00  0.10472771831E+01  0.11802296089E+01  0.00000000000E+00 0. -1.
         11    1    3    3    0    0 -0.25449572053E+02 -0.15543852107E+02 -0.27899632867E+02  0.40837257136E+02  0.51100000000E-03 0. -1.
        -11    1    3    3    0    0  0.48827126230E+01  0.49636983058E+01 -0.60752253422E+01  0.92405382229E+01  0.51100000000E-03 0.  1.
        -12    1    3    3    0    0  0.20109401734E+02  0.10285391375E+02  0.32927581026E+02  0.39929975032E+02  0.00000000000E+00 0.  1.
</event>
<event>
 7    1  0.2468912E-015  0.9000770E+02  0.7816164E-02  0.1186339E+00
        -11   -1    0    0    0    0  0.00000000000E+00  0.00000000000E+00  0.45593999997E+02  0.45594000000E+02  0.51100000000E-03 0.  1.
         11   -1    0    0    0    0 -0.00000000000E+00 -0.00000000000E+00 -0.45593999997E+02  0.45594000000E+02  0.51100000000E-03 0. -1.
    9900012    2    1    2    0    0  0.52892433967E+00  0.61031012868E+00  0.86073393533E+00  0.90007702445E+02  0.89999963318E+02 0.  0.
         12    1    1    2    0    0 -0.52892433967E+00 -0.61031012868E+00 -0.86073393533E+00  0.11802975547E+01  0.00000000000E+00 0. -1.
         11    1    3    3    0    0  0.62124723609E+01 -0.48592135722E+01 -0.61872375368E+01  0.10024404121E+02  0.51100000000E-03 0. -1.
        -11    1    3    3    0    0 -0.32442733917E+02 -0.22572122993E+02 -0.38774813246E+01  0.39712297618E+02  0.51100000000E-03 0.  1.
         12    1    3    3    0    0  0.26759185896E+02  0.28041646694E+02  0.10925452797E+02  0.40271000707E+02  0.00000000000E+00 0. -1.
</event>
<event>
 7    1  0.2468912E-015  0.9000779E+02  0.7816164E-02  0.1186339E+00
        -11   -1    0    0    0    0  0.00000000000E+00  0.00000000000E+00  0.45593999997E+02  0.45594000000E+02  0.51100000000E-03 0.  1.
         11   -1    0    0    0    0 -0.00000000000E+00 -0.00000000000E+00 -0.45593999997E+02  0.45594000000E+02  0.51100000000E-03 0. -1.
    9900012    2    1    2    0    0 -0.87494385480E+00  0.57546337466E+00  0.54424482882E+00  0.90007793544E+02  0.90000055619E+02 0.  0.
         12    1    1    2    0    0  0.87494385480E+00 -0.57546337466E+00 -0.54424482882E+00  0.11802064558E+01  0.00000000000E+00 0. -1.
         11    1    3    3    0    0 -0.32815395675E+02  0.17754915142E+02  0.41168523280E+01  0.37537124002E+02  0.51100000000E-03 0. -1.
        -11    1    3    3    0    0 -0.65051294390E+01 -0.11138122094E+01  0.68577549638E+01  0.95176725128E+01  0.51100000000E-03 0.  1.
        -12    1    3    3    0    0  0.38445581259E+02 -0.16065639557E+02 -0.10430362463E+02  0.42952997030E+02  0.00000000000E+00 0.  1.
</event>
<event>
 7    1  0.2468912E-015  0.9000764E+02  0.7816164E-02  0.1186339E+00
        -11   -1    0    0    0    0  0.00000000000E+00  0.00000000000E+00  0.45593999997E+02  0.45594000000E+02  0.51100000000E-03 0. -1.
         11   -1    0    0    0    0 -0.00000000000E+00 -0.00000000000E+00 -0.45593999997E+02  0.45594000000E+02  0.51100000000E-03 0.  1.
    9900012    2    1    2    0    0 -0.19259511640E+00  0.71119076014E-01 -0.11623672190E+01  0.90007640583E+02  0.89999900639E+02 0.  0.
         12    1    1    2    0    0  0.19259511640E+00 -0.71119076014E-01  0.11623672190E+01  0.11803594171E+01  0.00000000000E+00 0. -1.
         11    1    3    3    0    0 -0.15276328184E+02 -0.16813194599E+02 -0.25019883001E+02  0.33794145366E+02  0.51100000000E-03 0. -1.
        -11    1    3    3    0    0 -0.11620316329E+02 -0.39535368494E+01 -0.33992511670E+01  0.12736448247E+02  0.51100000000E-03 0.  1.
        -12    1    3    3    0    0  0.26704049397E+02  0.20837850524E+02  0.27256766949E+02  0.43477046969E+02  0.00000000000E+00 0.  1.
</event>
<event>
 7    1  0.2468912E-015  0.9000772E+02  0.7816164E-02  0.1186339E+00
        -11   -1    0    0    0    0  0.00000000000E+00  0.00000000000E+00  0.45593999997E+02  0.45594000000E+02  0.51100000000E-03 0.  1.
         11   -1    0    0    0    0 -0.00000000000E+00 -0.00000000000E+00 -0.45593999997E+02  0.45594000000E+02  0.51100000000E-03 0. -1.
    9900012    2    1    2    0    0  0.85225612486E+00  0.79549339463E+00  0.18412937218E+00  0.90007722969E+02  0.89999984113E+02 0.  0.
         12    1    1    2    0    0 -0.85225612486E+00 -0.79549339463E+00 -0.18412937218E+00  0.11802770306E+01  0.00000000000E+00 0. -1.
         11    1    3    3    0    0  0.76203569838E+01  0.71657691325E+01  0.27447781765E+01  0.10814429958E+02  0.51100000000E-03 0. -1.
        -11    1    3    3    0    0  0.10644895264E+01  0.36006231845E+02 -0.23491827197E+01  0.36098483754E+02  0.51100000000E-03 0.  1.
         12    1    3    3    0    0 -0.78325903854E+01 -0.42376507583E+02 -0.21146608466E+00  0.43094809258E+02  0.00000000000E+00 0. -1.
</event>
<event>
 7    1  0.2468912E-015  0.9000773E+02  0.7816164E-02  0.1186339E+00
        -11   -1    0    0    0    0  0.00000000000E+00  0.00000000000E+00  0.45593999997E+02  0.45594000000E+02  0.51100000000E-03 0.  1.
         11   -1    0    0    0    0 -0.00000000000E+00 -0.00000000000E+00 -0.45593999997E+02  0.45594000000E+02  0.51100000000E-03 0. -1.
    9900012    2    1    2    0    0  0.59253106107E-01 -0.10737150324E+01  0.48647019163E+00  0.90007733865E+02  0.89999995152E+02 0.  0.
         12    1    1    2    0    0 -0.59253106107E-01  0.10737150324E+01 -0.48647019163E+00  0.11802661347E+01  0.00000000000E+00 0. -1.
         11    1    3    3    0    0 -0.21828207163E+02  0.19942274567E+02 -0.24323312070E+02  0.38285616793E+02  0.51100000000E-03 0. -1.
        -11    1    3    3    0    0 -0.12212975290E+01  0.65722722117E+01  0.11596425720E+02  0.13385194037E+02  0.51100000000E-03 0.  1.
        -12    1    3    3    0    0  0.23108757798E+02 -0.27588261811E+02  0.13213356543E+02  0.38336923036E+02  0.00000000000E+00 0.  1.
</event>
<event>
 7    1  0.2468912E-015  0.9000775E+02  0.7816164E-02  0.1186339E+00
        -11   -1    0    0    0    0  0.00000000000E+00  0.00000000000E+00  0.45593999997E+02  0.45594000000E+02  0.51100000000E-03 0. -1.
         11   -1    0    0    0    0 -0.00000000000E+00 -0.00000000000E+00 -0.45593999997E+02  0.45594000000E+02  0.51100000000E-03 0.  1.
    9900012    2    1    2    0    0  0.75932885395E+00  0.84920722396E+00 -0.30864701978E+00  0.90007747400E+02  0.90000008865E+02 0.  0.
         12    1    1    2    0    0 -0.75932885395E+00 -0.84920722396E+00  0.30864701978E+00  0.11802526003E+01  0.00000000000E+00 0. -1.
         11    1    3    3    0    0  0.83265581907E+01 -0.37577627553E+01 -0.64718307799E+01  0.11195398436E+02  0.51100000000E-03 0. -1.
        -11    1    3    3    0    0 -0.13045662418E+02  0.25330324045E+02 -0.27046838648E+02  0.39285443936E+02  0.51100000000E-03 0.  1.
         12    1    3    3    0    0  0.54784330814E+01 -0.20723354066E+02  0.33210022408E+02  0.39526905028E+02  0.00000000000E+00 0. -1.
</event>
<event>
 7    1  0.2468912E-015  0.9000813E+02  0.7816164E-02  0.1186338E+00
        -11   -1    0    0    0    0  0.00000000000E+00  0.00000000000E+00  0.45593999997E+02  0.45594000000E+02  0.51100000000E-03 0. -1.
         11   -1    0    0    0    0 -0.00000000000E+00 -0.00000000000E+00 -0.45593999997E+02  0.45594000000E+02  0.51100000000E-03 0.  1.
    9900012    2    1    2    0    0  0.56857647705E+00 -0.97829310079E+00 -0.33429545239E+00  0.90008131342E+02  0.90000397875E+02 0.  0.
         12    1    1    2    0    0 -0.56857647705E+00  0.97829310079E+00  0.33429545239E+00  0.11798686583E+01  0.00000000000E+00 0. -1.
         11    1    3    3    0    0  0.20406829042E+02 -0.92789149135E+01  0.94120230438E+01  0.24313023497E+02  0.51100000000E-03 0. -1.
        -11    1    3    3    0    0  0.11870049998E+02 -0.19124431952E+02  0.59034110312E+00  0.22516449261E+02  0.51100000000E-03 0.  1.
        -12    1    3    3    0    0 -0.31708302563E+02  0.27425053764E+02 -0.10336659599E+02  0.43178658584E+02  0.00000000000E+00 0.  1.
</event>
<event>
 7    1  0.2468912E-015  0.9000776E+02  0.7816164E-02  0.1186339E+00
        -11   -1    0    0    0    0  0.00000000000E+00  0.00000000000E+00  0.45593999997E+02  0.45594000000E+02  0.51100000000E-03 0. -1.
         11   -1    0    0    0    0 -0.00000000000E+00 -0.00000000000E+00 -0.45593999997E+02  0.45594000000E+02  0.51100000000E-03 0.  1.
    9900012    2    1    2    0    0 -0.63348268834E+00 -0.10558523493E+00  0.99020939048E+00  0.90007761382E+02  0.90000023032E+02 0.  0.
         12    1    1    2    0    0  0.63348268834E+00  0.10558523493E+00 -0.99020939048E+00  0.11802386179E+01  0.00000000000E+00 0. -1.
         11    1    3    3    0    0  0.14857845340E+02 -0.36307824242E+02 -0.88898951134E+01  0.40224916466E+02  0.51100000000E-03 0. -1.
        -11    1    3    3    0    0 -0.10662817722E+02  0.56506736991E+00 -0.37596379791E+01  0.11320329540E+02  0.51100000000E-03 0.  1.
        -12    1    3    3    0    0 -0.48285103067E+01  0.35637171637E+02  0.13639742483E+02  0.38462515376E+02  0.00000000000E+00 0.  1.
</event>
<event>
 7    1  0.2468912E-015  0.9000775E+02  0.7816164E-02  0.1186339E+00
        -11   -1    0    0    0    0  0.00000000000E+00  0.00000000000E+00  0.45593999997E+02  0.45594000000E+02  0.51100000000E-03 0. -1.
         11   -1    0    0    0    0 -0.00000000000E+00 -0.00000000000E+00 -0.45593999997E+02  0.45594000000E+02  0.51100000000E-03 0.  1.
    9900012    2    1    2    0    0  0.10972039466E-01 -0.10105710089E+01  0.60959602300E+00  0.90007753644E+02  0.90000015192E+02 0.  0.
         12    1    1    2    0    0 -0.10972039466E-01  0.10105710089E+01 -0.60959602300E+00  0.11802463561E+01  0.00000000000E+00 0. -1.
         11    1    3    3    0    0  0.10328371556E+02 -0.10760208101E+02  0.42980888037E+01  0.15521949136E+02  0.51100000000E-03 0. -1.
        -11    1    3    3    0    0 -0.24684087407E+01 -0.53301415239E+01 -0.36799619625E+02  0.37265472695E+02  0.51100000000E-03 0.  1.
         12    1    3    3    0    0 -0.78489907756E+01  0.15079778616E+02  0.33111126845E+02  0.37220331812E+02  0.00000000000E+00 0. -1.
</event>
<event>
 7    1  0.2468912E-015  0.9000786E+02  0.7816164E-02  0.1186339E+00
        -11   -1    0    0    0    0  0.00000000000E+00  0.00000000000E+00  0.45593999997E+02  0.45594000000E+02  0.51100000000E-03 0.  1.
         11   -1    0    0    0    0 -0.00000000000E+00 -0.00000000000E+00 -0.45593999997E+02  0.45594000000E+02  0.51100000000E-03 0. -1.
    9900012    2    1    2    0    0 -0.73007061696E+00  0.12490264256E-01  0.92713368169E+00  0.90007857646E+02  0.90000120567E+02 0.  0.
         12    1    1    2    0    0  0.73007061696E+00 -0.12490264256E-01 -0.92713368169E+00  0.11801423542E+01  0.00000000000E+00 0. -1.
         11    1    3    3    0    0 -0.87148897848E+00 -0.13378462050E+01 -0.92487815685E+01  0.93855892873E+01  0.51100000000E-03 0. -1.
        -11    1    3    3    0    0 -0.11861853529E+02  0.14704265948E+02  0.40890732851E+02  0.45044101052E+02  0.51100000000E-03 0.  1.
         12    1    3    3    0    0  0.12003271891E+02 -0.13353929479E+02 -0.30714817601E+02  0.35578167306E+02  0.00000000000E+00 0. -1.
</event>
<event>
 7    1  0.2468912E-015  0.9000785E+02  0.7816164E-02  0.1186339E+00
        -11   -1    0    0    0    0  0.00000000000E+00  0.00000000000E+00  0.45593999997E+02  0.45594000000E+02  0.51100000000E-03 0. -1.
         11   -1    0    0    0    0 -0.00000000000E+00 -0.00000000000E+00 -0.45593999997E+02  0.45594000000E+02  0.51100000000E-03 0.  1.
    9900012    2    1    2    0    0 -0.42267108248E-01  0.11793520212E+01  0.10306975604E-01  0.90007845802E+02  0.90000108566E+02 0.  0.
         12    1    1    2    0    0  0.42267108248E-01 -0.11793520212E+01 -0.10306975604E-01  0.11801541984E+01  0.00000000000E+00 0. -1.
         11    1    3    3    0    0  0.29502711235E+02  0.10402626567E+02  0.46104032202E+01  0.31620885943E+02  0.51100000000E-03 0. -1.
        -11    1    3    3    0    0  0.89505280941E+01  0.85625567611E+01  0.72555202057E+01  0.14355204811E+02  0.51100000000E-03 0.  1.
        -12    1    3    3    0    0 -0.38495506437E+02 -0.17785831307E+02 -0.11855616450E+02  0.44031755048E+02  0.00000000000E+00 0.  1.
</event>
<event>
 7    1  0.2468912E-015  0.9000777E+02  0.7816164E-02  0.1186339E+00
        -11   -1    0    0    0    0  0.00000000000E+00  0.00000000000E+00  0.45593999997E+02  0.45594000000E+02  0.51100000000E-03 0. -1.
         11   -1    0    0    0    0 -0.00000000000E+00 -0.00000000000E+00 -0.45593999997E+02  0.45594000000E+02  0.51100000000E-03 0.  1.
    9900012    2    1    2    0    0 -0.32091671068E+00  0.10937476148E+01  0.30606705298E+00  0.90007767641E+02  0.90000029374E+02 0.  0.
         12    1    1    2    0    0  0.32091671068E+00 -0.10937476148E+01 -0.30606705298E+00  0.11802323589E+01  0.00000000000E+00 0. -1.
         11    1    3    3    0    0  0.21964474684E+02 -0.17880334649E+02  0.25462811238E+02  0.38085420723E+02  0.51100000000E-03 0. -1.
        -11    1    3    3    0    0 -0.34694370611E+01 -0.45214842401E+01  0.62236602198E+01  0.84388838152E+01  0.51100000000E-03 0.  1.
        -12    1    3    3    0    0 -0.18815954334E+02  0.23495566503E+02 -0.31380404404E+02  0.43483463103E+02  0.00000000000E+00 0.  1.
</event>
<event>
 7    1  0.2468912E-015  0.9000774E+02  0.7816164E-02  0.1186339E+00
        -11   -1    0    0    0    0  0.00000000000E+00  0.00000000000E+00  0.45593999997E+02  0.45594000000E+02  0.51100000000E-03 0. -1.
         11   -1    0    0    0    0 -0.00000000000E+00 -0.00000000000E+00 -0.45593999997E+02  0.45594000000E+02  0.51100000000E-03 0.  1.
    9900012    2    1    2    0    0  0.34280832964E-01 -0.11708611813E+01 -0.14461461664E+00  0.90007743897E+02  0.90000005316E+02 0.  0.
         12    1    1    2    0    0 -0.34280832964E-01  0.11708611813E+01  0.14461461664E+00  0.11802561030E+01  0.00000000000E+00 0. -1.
         11    1    3    3    0    0  0.17885831511E+02 -0.12362842766E+02  0.33926537969E+02  0.40295816519E+02  0.51100000000E-03 0. -1.
        -11    1    3    3    0    0 -0.88456797322E+01 -0.63442474271E+00  0.33237579386E+01  0.94707925632E+01  0.51100000000E-03 0.  1.
        -12    1    3    3    0    0 -0.90058709455E+01  0.11826406327E+02 -0.37394910524E+02  0.40241134815E+02  0.00000000000E+00 0.  1.
</event>
<event>
 7    1  0.2468912E-015  0.9000780E+02  0.7816164E-02  0.1186339E+00
        -11   -1    0    0    0    0  0.00000000000E+00  0.00000000000E+00  0.45593999997E+02  0.45594000000E+02  0.51100000000E-03 0. -1.
         11   -1    0    0    0    0 -0.00000000000E+00 -0.00000000000E+00 -0.45593999997E+02  0.45594000000E+02  0.51100000000E-03 0.  1.
    9900012    2    1    2    0    0  0.25485188211E+00  0.43355575533E+00 -0.10676852306E+01  0.90007800090E+02  0.90000062252E+02 0.  0.
         12    1    1    2    0    0 -0.25485188211E+00 -0.43355575533E+00  0.10676852306E+01  0.11801999095E+01  0.00000000000E+00 0. -1.
         11    1    3    3    0    0  0.32990284567E+00 -0.13250665371E+02 -0.10919553284E+02  0.17173398407E+02  0.51100000000E-03 0. -1.
        -11    1    3    3    0    0  0.23351071992E+02  0.26522830182E+02 -0.13027473403E+02  0.37662290790E+02  0.51100000000E-03 0.  1.
         12    1    3    3    0    0 -0.23426122956E+02 -0.12838609056E+02  0.22879341456E+02  0.35172110893E+02  0.00000000000E+00 0. -1.
</event>
<event>
 7    1  0.2468912E-015  0.9000774E+02  0.7816164E-02  0.1186339E+00
        -11   -1    0    0    0    0  0.00000000000E+00  0.00000000000E+00  0.45593999997E+02  0.45594000000E+02  0.51100000000E-03 0.  1.
         11   -1    0    0    0    0 -0.00000000000E+00 -0.00000000000E+00 -0.45593999997E+02  0.45594000000E+02  0.51100000000E-03 0. -1.
    9900012    2    1    2    0    0 -0.30175816911E+00 -0.49956738408E+00  0.10258563841E+01  0.90007742874E+02  0.90000004279E+02 0.  0.
         12    1    1    2    0    0  0.30175816911E+00  0.49956738408E+00 -0.10258563841E+01  0.11802571265E+01  0.00000000000E+00 0. -1.
         11    1    3    3    0    0 -0.95610937849E+01 -0.37263361486E+01  0.62624167423E+01  0.12021562260E+02  0.51100000000E-03 0. -1.
        -11    1    3    3    0    0  0.37943351085E+02 -0.97394884272E+00  0.16863135315E+02  0.41533261379E+02  0.51100000000E-03 0.  1.
         12    1    3    3    0    0 -0.28684015469E+02  0.42007176073E+01 -0.22099695673E+02  0.36452919234E+02  0.00000000000E+00 0. -1.
</event>
<event>
 7    1  0.2468912E-015  0.9000776E+02  0.7816164E-02  0.1186339E+00
        -11   -1    0    0    0    0  0.00000000000E+00  0.00000000000E+00  0.45593999997E+02  0.45594000000E+02  0.51100000000E-03 0.  1.
         11   -1    0    0    0    0 -0.00000000000E+00 -0.00000000000E+00 -0.45593999997E+02  0.45594000000E+02  0.51100000000E-03 0. -1.
    9900012    2    1    2    0    0  0.71834834661E+00  0.93523882127E+00 -0.47611464836E-01  0.90007761528E+02  0.90000023180E+02 0.  0.
         12    1    1    2    0    0 -0.71834834661E+00 -0.93523882127E+00  0.47611464836E-01  0.11802384723E+01  0.00000000000E+00 0. -1.
         11    1    3    3    0    0 -0.45687277491E+01 -0.11075161821E+02  0.10219441909E+01  0.12024011510E+02  0.51100000000E-03 0. -1.
        -11    1    3    3    0    0 -0.38317537468E+01 -0.19492037232E+02  0.27883652316E+02  0.34236236928E+02  0.51100000000E-03 0.  1.
         12    1    3    3    0    0  0.91188298425E+01  0.31502437874E+02 -0.28953207972E+02  0.43747513090E+02  0.00000000000E+00 0. -1.
</event>
<event>
 7    1  0.2468912E-015  0.9000764E+02  0.7816164E-02  0.1186339E+00
        -11   -1    0    0    0    0  0.00000000000E+00  0.00000000000E+00  0.45593999997E+02  0.45594000000E+02  0.51100000000E-03 0.  1.
         11   -1    0    0    0    0 -0.00000000000E+00 -0.00000000000E+00 -0.45593999997E+02  0.45594000000E+02  0.51100000000E-03 0. -1.
    9900012    2    1    2    0    0  0.90971442609E+00  0.70314800583E+00 -0.26692606973E+00  0.90007641164E+02  0.89999901227E+02 0.  0.
         12    1    1    2    0    0 -0.90971442609E+00 -0.70314800583E+00  0.26692606973E+00  0.11803588361E+01  0.00000000000E+00 0. -1.
         11    1    3    3    0    0  0.58565598217E+01 -0.69178317237E+01  0.28771496477E+01  0.95096624051E+01  0.51100000000E-03 0. -1.
        -11    1    3    3    0    0  0.21657416896E+01 -0.36080535263E+02 -0.65165446188E+00  0.36151350123E+02  0.51100000000E-03 0.  1.
         12    1    3    3    0    0 -0.71125870852E+01  0.43701514992E+02 -0.24924212555E+01  0.44346628636E+02  0.00000000000E+00 0. -1.
</event>
<event>
 7    1  0.2468912E-015  0.9000774E+02  0.7816164E-02  0.1186339E+00
        -11   -1    0    0    0    0  0.00000000000E+00  0.00000000000E+00  0.45593999997E+02  0.45594000000E+02  0.51100000000E-03 0. -1.
         11   -1    0    0    0    0 -0.00000000000E+00 -0.00000000000E+00 -0.45593999997E+02  0.45594000000E+02  0.51100000000E-03 0.  1.
    9900012    2    1    2    0    0  0.11371190610E+01  0.91607407366E-02 -0.31606308340E+00  0.90007737508E+02  0.89999998843E+02 0.  0.
         12    1    1    2    0    0 -0.11371190610E+01 -0.91607407366E-02  0.31606308340E+00  0.11802624923E+01  0.00000000000E+00 0. -1.
         11    1    3    3    0    0 -0.70282461323E+01 -0.36820177932E+02 -0.85858356240E+01  0.38455666946E+02  0.51100000000E-03 0. -1.
        -11    1    3    3    0    0 -0.89954070571E+01 -0.12502626877E+01  0.22109101748E+01  0.93471187525E+01  0.51100000000E-03 0.  1.
        -12    1    3    3    0    0  0.17160772250E+02  0.38079601361E+02  0.60588623658E+01  0.42204951809E+02  0.00000000000E+00 0.  1.
</event>
<event>
 7    1  0.2468912E-015  0.9000779E+02  0.7816164E-02  0.1186339E+00
        -11   -1    0    0    0    0  0.00000000000E+00  0.00000000000E+00  0.45593999997E+02  0.45594000000E+02  0.51100000000E-03 0. -1.
         11   -1    0    0    0    0 -0.00000000000E+00 -0.00000000000E+00 -0.45593999997E+02  0.45594000000E+02  0.51100000000E-03 0.  1.
    9900012    2    1    2    0    0 -0.10939495907E+01  0.37696725584E+00  0.23250163643E+00  0.90007793649E+02  0.90000055726E+02 0.  0.
         12    1    1    2    0    0  0.10939495907E+01 -0.37696725584E+00 -0.23250163643E+00  0.11802063505E+01  0.00000000000E+00 0. -1.
         11    1    3    3    0    0  0.53675579797E+01 -0.11805680926E+02  0.38948339501E+02  0.41050675158E+02  0.51100000000E-03 0. -1.
        -11    1    3    3    0    0 -0.62665102754E+01 -0.49689532562E+01 -0.17228548628E+01  0.81809459498E+01  0.51100000000E-03 0.  1.
        -12    1    3    3    0    0 -0.19499729495E+00  0.17151601438E+02 -0.36992983001E+02  0.40776172542E+02  0.00000000000E+00 0.  1.
</event>
<event>
 7    1  0.2468912E-015  0.9000775E+02  0.7816164E-02  0.1186339E+00
        -11   -1    0    0    0    0  0.00000000000E+00  0.00000000000E+00  0.45593999997E+02  0.45594000000E+02  0.51100000000E-03 0.  1.
         11   -1    0    0    0    0 -0.00000000000E+00 -0.00000000000E+00 -0.45593999997E+02  0.45594000000E+02  0.51100000000E-03 0. -1.
    9900012    2    1    2    0    0 -0.91615667257E-01  0.28466932755E+00  0.11417388759E+01  0.90007746757E+02  0.90000008214E+02 0.  0.
         12    1    1    2    0    0  0.91615667257E-01 -0.28466932755E+00 -0.11417388759E+01  0.11802532428E+01  0.00000000000E+00 0. -1.
         11    1    3    3    0    0 -0.19287620147E+01  0.10393641252E+02 -0.13406175394E+01  0.10655756990E+02  0.51100000000E-03 0. -1.
        -11    1    3    3    0    0 -0.67686089373E+01  0.88397617296E+01  0.37224310831E+02  0.38853632668E+02  0.51100000000E-03 0.  1.
         12    1    3    3    0    0  0.86057552848E+01 -0.18948733654E+02 -0.34741954415E+02  0.40498357099E+02  0.00000000000E+00 0. -1.
</event>
<event>
 7    1  0.2468912E-015  0.9000779E+02  0.7816164E-02  0.1186339E+00
        -11   -1    0    0    0    0  0.00000000000E+00  0.00000000000E+00  0.45593999997E+02  0.45594000000E+02  0.51100000000E-03 0.  1.
         11   -1    0    0    0    0 -0.00000000000E+00 -0.00000000000E+00 -0.45593999997E+02  0.45594000000E+02  0.51100000000E-03 0. -1.
    9900012    2    1    2    0    0  0.89359077782E+00 -0.60658843676E+00 -0.47585534258E+00  0.90007791410E+02  0.90000053456E+02 0.  0.
         12    1    1    2    0    0 -0.89359077782E+00  0.60658843676E+00  0.47585534258E+00  0.11802085904E+01  0.00000000000E+00 0. -1.
         11    1    3    3    0    0 -0.57761019265E+01 -0.65806358342E+01 -0.34905110349E+01  0.94261226914E+01  0.51100000000E-03 0. -1.
        -11    1    3    3    0    0 -0.71557232989E+01  0.37585089438E+01  0.40118073803E+02  0.40924205690E+02  0.51100000000E-03 0.  1.
         12    1    3    3    0    0  0.13825416003E+02  0.22155384537E+01 -0.37103418111E+02  0.39657463028E+02  0.00000000000E+00 0. -1.
</event>
<event>
 7    1  0.2520749E-015  0.9000774E+02  0.7816164E-02  0.1186339E+00
        -11   -1    0    0    0    0  0.00000000000E+00  0.00000000000E+00  0.45593999997E+02  0.45594000000E+02  0.51100000000E-03 0. -1.
         11   -1    0    0    0    0 -0.00000000000E+00 -0.00000000000E+00 -0.45593999997E+02  0.45594000000E+02  0.51100000000E-03 0.  1.
    9900012    2    1    2    0    0  0.41990469957E+00 -0.88378724892E+00 -0.66000446617E+00  0.90007743353E+02  0.90000004765E+02 0.  0.
         12    1    1    2    0    0 -0.41990469957E+00  0.88378724892E+00  0.66000446617E+00  0.11802566473E+01  0.00000000000E+00 0. -1.
         11    1    3    3    0    0 -0.25511114659E+02 -0.14320642626E+02  0.21548028050E+02  0.36334766952E+02  0.51100000000E-03 0. -1.
        -11    1    3    3    0    0 -0.93679450766E+01 -0.21347381682E+01 -0.10341078075E+01  0.96635853193E+01  0.51100000000E-03 0.  1.
        -12    1    3    3    0    0  0.35298964436E+02  0.15571593545E+02 -0.21173924709E+02  0.44009391081E+02  0.00000000000E+00 0.  1.
</event>
<event>
 7    1  0.2468912E-015  0.9000777E+02  0.7816164E-02  0.1186339E+00
        -11   -1    0    0    0    0  0.00000000000E+00  0.00000000000E+00  0.45593999997E+02  0.45594000000E+02  0.51100000000E-03 0. -1.
         11   -1    0    0    0    0 -0.00000000000E+00 -0.00000000000E+00 -0.45593999997E+02  0.45594000000E+02  0.51100000000E-03 0.  1.
    9900012    2    1    2    0    0 -0.54251524096E+00  0.10463187670E+01  0.61880553407E-01  0.90007773347E+02  0.90000035156E+02 0.  0.
         12    1    1    2    0    0  0.54251524096E+00 -0.10463187670E+01 -0.61880553407E-01  0.11802266527E+01  0.00000000000E+00 0. -1.
         11    1    3    3    0    0  0.23794371955E+01 -0.83861653357E+01  0.49140349394E+00  0.87310347646E+01  0.51100000000E-03 0. -1.
        -11    1    3    3    0    0  0.36779358023E+02 -0.57448263800E+01  0.76729471035E+01  0.38007871872E+02  0.51100000000E-03 0.  1.
         12    1    3    3    0    0 -0.39701310459E+02  0.15177310483E+02 -0.81024700440E+01  0.43268866711E+02  0.00000000000E+00 0. -1.
</event>
<event>
 7    1  0.2468912E-015  0.9000750E+02  0.7816164E-02  0.1186340E+00
        -11   -1    0    0    0    0  0.00000000000E+00  0.00000000000E+00  0.45593999997E+02  0.45594000000E+02  0.51100000000E-03 0.  1.
         11   -1    0    0    0    0 -0.00000000000E+00 -0.00000000000E+00 -0.45593999997E+02  0.45594000000E+02  0.51100000000E-03 0. -1.
    9900012    2    1    2    0    0 -0.77317789809E+00  0.49130033071E-01  0.89070985760E+00  0.90007499313E+02  0.89999757503E+02 0.  0.
         12    1    1    2    0    0  0.77317789809E+00 -0.49130033071E-01 -0.89070985760E+00  0.11805006873E+01  0.00000000000E+00 0. -1.
         11    1    3    3    0    0  0.21338568978E+02 -0.17457474180E+01 -0.34445175686E+02  0.40556778575E+02  0.51100000000E-03 0. -1.
        -11    1    3    3    0    0  0.42495977354E+01  0.65199209110E+01  0.71124805528E+01  0.10543046499E+02  0.51100000000E-03 0.  1.
        -12    1    3    3    0    0 -0.26361344612E+02 -0.47250434598E+01  0.28223404990E+02  0.38907674239E+02  0.00000000000E+00 0.  1.
</event>
<event>
 7    1  0.2468912E-015  0.9000743E+02  0.7816164E-02  0.1186340E+00
        -11   -1    0    0    0    0  0.00000000000E+00  0.00000000000E+00  0.45593999997E+02  0.45594000000E+02  0.51100000000E-03 0. -1.
         11   -1    0    0    0    0 -0.00000000000E+00 -0.00000000000E+00 -0.45593999997E+02  0.45594000000E+02  0.51100000000E-03 0.  1.
    9900012    2    1    2    0    0 -0.71280041321E+00  0.76187973419E+00 -0.55244109401E+00  0.90007433898E+02  0.89999691225E+02 0.  0.
         12    1    1    2    0    0  0.71280041321E+00 -0.76187973419E+00  0.55244109401E+00  0.11805661018E+01  0.00000000000E+00 0. -1.
         11    1    3    3    0    0 -0.11458764354E+02  0.26643471012E+02  0.24606427443E+02  0.38034906334E+02  0.51100000000E-03 0. -1.
        -11    1    3    3    0    0  0.29508652683E+01  0.60447768356E+01  0.41784667455E+01  0.79187446877E+01  0.51100000000E-03 0.  1.
        -12    1    3    3    0    0  0.77950986728E+01 -0.31926368113E+02 -0.29337335283E+02  0.44053782876E+02  0.00000000000E+00 0.  1.
</event>
<event>
 7    1  0.2468912E-015  0.9000773E+02  0.7816164E-02  0.1186339E+00
        -11   -1    0    0    0    0  0.00000000000E+00  0.00000000000E+00  0.45593999997E+02  0.45594000000E+02  0.51100000000E-03 0.  1.
         11   -1    0    0    0    0 -0.00000000000E+00 -0.00000000000E+00 -0.45593999997E+02  0.45594000000E+02  0.51100000000E-03 0. -1.
    9900012    2    1    2    0    0 -0.10000166894E+01  0.17663219681E+00  0.60149386652E+00  0.90007734274E+02  0.89999995567E+02 0.  0.
         12    1    1    2    0    0  0.10000166894E+01 -0.17663219681E+00 -0.60149386652E+00  0.11802657258E+01  0.00000000000E+00 0. -1.
         11    1    3    3    0    0  0.96733011744E+01  0.23200017367E+02 -0.21300281112E+02  0.32947162809E+02  0.51100000000E-03 0. -1.
        -11    1    3    3    0    0  0.24749159349E+01  0.12137912273E+02  0.14009273835E+02  0.18700638408E+02  0.51100000000E-03 0.  1.
        -12    1    3    3    0    0 -0.13148233799E+02 -0.35161297443E+02  0.78925011435E+01  0.38359933058E+02  0.00000000000E+00 0.  1.
</event>
<event>
 7    1  0.2468912E-015  0.9000767E+02  0.7816164E-02  0.1186339E+00
        -11   -1    0    0    0    0  0.00000000000E+00  0.00000000000E+00  0.45593999997E+02  0.45594000000E+02  0.51100000000E-03 0. -1.
         11   -1    0    0    0    0 -0.00000000000E+00 -0.00000000000E+00 -0.45593999997E+02  0.45594000000E+02  0.51100000000E-03 0.  1.
    9900012    2    1    2    0    0 -0.15902990618E+00  0.11185231580E+01 -0.34176076505E+00  0.90007667425E+02  0.89999927835E+02 0.  0.
         12    1    1    2    0    0  0.15902990618E+00 -0.11185231580E+01  0.34176076505E+00  0.11803325746E+01  0.00000000000E+00 0. -1.
         11    1    3    3    0    0  0.36363439318E+02 -0.68019818568E+01  0.99010513638E+01  0.38296181201E+02  0.51100000000E-03 0. -1.
        -11    1    3    3    0    0  0.46305654590E+01  0.67748764416E+00 -0.87220604772E+01  0.98982556649E+01  0.51100000000E-03 0.  1.
        -12    1    3    3    0    0 -0.41153034683E+02  0.72430173706E+01 -0.15207516516E+01  0.41813230560E+02  0.00000000000E+00 0.  1.
</event>
<event>
 7    1  0.2468912E-015  0.9000765E+02  0.7816164E-02  0.1186339E+00
        -11   -1    0    0    0    0  0.00000000000E+00  0.00000000000E+00  0.45593999997E+02  0.45594000000E+02  0.51100000000E-03 0.  1.
         11   -1    0    0    0    0 -0.00000000000E+00 -0.00000000000E+00 -0.45593999997E+02  0.45594000000E+02  0.51100000000E-03 0. -1.
    9900012    2    1    2    0    0  0.28657731039E+00  0.10702930031E+01 -0.40691608313E+00  0.90007646508E+02  0.89999906642E+02 0.  0.
         12    1    1    2    0    0 -0.28657731039E+00 -0.10702930031E+01  0.40691608313E+00  0.11803534920E+01  0.00000000000E+00 0. -1.
         11    1    3    3    0    0  0.33878930006E+02 -0.21328358329E+02 -0.30581540870E+00  0.40034663614E+02  0.51100000000E-03 0. -1.
        -11    1    3    3    0    0 -0.11950063678E+01 -0.62647703928E+01  0.19443175568E+01  0.66675152281E+01  0.51100000000E-03 0.  1.
        -12    1    3    3    0    0 -0.32397346328E+02  0.28663421724E+02 -0.20454182313E+01  0.43305467666E+02  0.00000000000E+00 0.  1.
</event>
<event>
 7    1  0.2468912E-015  0.9000776E+02  0.7816164E-02  0.1186339E+00
        -11   -1    0    0    0    0  0.00000000000E+00  0.00000000000E+00  0.45593999997E+02  0.45594000000E+02  0.51100000000E-03 0.  1.
         11   -1    0    0    0    0 -0.00000000000E+00 -0.00000000000E+00 -0.45593999997E+02  0.45594000000E+02  0.51100000000E-03 0. -1.
    9900012    2    1    2    0    0 -0.48893846869E+00  0.59192904471E+00  0.89639780004E+00  0.90007758569E+02  0.90000020182E+02 0.  0.
         12    1    1    2    0    0  0.48893846869E+00 -0.59192904471E+00 -0.89639780004E+00  0.11802414313E+01  0.00000000000E+00 0. -1.
         11    1    3    3    0    0  0.49299635472E+01  0.81443603297E+01  0.10702800115E+01  0.95802215695E+01  0.51100000000E-03 0. -1.
        -11    1    3    3    0    0  0.11588358142E+02 -0.26171420968E+02  0.29758025506E+02  0.41288901683E+02  0.51100000000E-03 0.  1.
         12    1    3    3    0    0 -0.17007260158E+02  0.18618989683E+02 -0.29931907717E+02  0.39138635317E+02  0.00000000000E+00 0. -1.
</event>
<event>
 7    1  0.2468912E-015  0.9000761E+02  0.7816164E-02  0.1186339E+00
        -11   -1    0    0    0    0  0.00000000000E+00  0.00000000000E+00  0.45593999997E+02  0.45594000000E+02  0.51100000000E-03 0. -1.
         11   -1    0    0    0    0 -0.00000000000E+00 -0.00000000000E+00 -0.45593999997E+02  0.45594000000E+02  0.51100000000E-03 0.  1.
    9900012    2    1    2    0    0 -0.88066123489E+00 -0.77735835495E+00  0.11609139670E+00  0.90007607084E+02  0.89999866698E+02 0.  0.
         12    1    1    2    0    0  0.88066123489E+00  0.77735835495E+00 -0.11609139670E+00  0.11803929155E+01  0.00000000000E+00 0. -1.
         11    1    3    3    0    0  0.11065421874E+02 -0.37327275941E+00 -0.72839512383E+01  0.13252880431E+02  0.51100000000E-03 0. -1.
        -11    1    3    3    0    0  0.16110514176E+02 -0.13365246026E+02 -0.24577135164E+02  0.32283339999E+02  0.51100000000E-03 0.  1.
         12    1    3    3    0    0 -0.28056597286E+02  0.12961160431E+02  0.31977177799E+02  0.44471386654E+02  0.00000000000E+00 0. -1.
</event>
<event>
 7    1  0.2468912E-015  0.9000755E+02  0.7816164E-02  0.1186339E+00
        -11   -1    0    0    0    0  0.00000000000E+00  0.00000000000E+00  0.45593999997E+02  0.45594000000E+02  0.51100000000E-03 0. -1.
         11   -1    0    0    0    0 -0.00000000000E+00 -0.00000000000E+00 -0.45593999997E+02  0.45594000000E+02  0.51100000000E-03 0.  1.
    9900012    2    1    2    0    0  0.69079198679E-02 -0.38172283707E+00 -0.11170105580E+01  0.90007545583E+02  0.89999804385E+02 0.  0.
         12    1    1    2    0    0 -0.69079198679E-02  0.38172283707E+00  0.11170105580E+01  0.11804544169E+01  0.00000000000E+00 0. -1.
         11    1    3    3    0    0 -0.11546721806E+01  0.61007618866E+01 -0.73431885525E+01  0.96163913097E+01  0.51100000000E-03 0. -1.
        -11    1    3    3    0    0  0.15075171523E+02  0.15383803156E+02 -0.29331485274E+02  0.36390358951E+02  0.51100000000E-03 0.  1.
         12    1    3    3    0    0 -0.13913591422E+02 -0.21866287880E+02  0.35557663268E+02  0.44000795322E+02  0.00000000000E+00 0. -1.
</event>
<event>
 7    1  0.2468912E-015  0.9000754E+02  0.7816164E-02  0.1186339E+00
        -11   -1    0    0    0    0  0.00000000000E+00  0.00000000000E+00  0.45593999997E+02  0.45594000000E+02  0.51100000000E-03 0.  1.
         11   -1    0    0    0    0 -0.00000000000E+00 -0.00000000000E+00 -0.45593999997E+02  0.45594000000E+02  0.51100000000E-03 0. -1.
    9900012    2    1    2    0    0 -0.78920688429E+00 -0.53727633226E+00  0.69423437364E+00  0.90007544694E+02  0.89999803484E+02 0.  0.
         12    1    1    2    0    0  0.78920688429E+00  0.53727633226E+00 -0.69423437364E+00  0.11804553058E+01  0.00000000000E+00 0. -1.
         11    1    3    3    0    0 -0.84303913211E+01  0.11173837099E+01  0.11566366293E+02  0.14356213765E+02  0.51100000000E-03 0. -1.
        -11    1    3    3    0    0 -0.29416209391E+02 -0.17867205155E+02 -0.49683893258E+01  0.34774060559E+02  0.51100000000E-03 0.  1.
         12    1    3    3    0    0  0.37057393828E+02  0.16212545112E+02 -0.59037425936E+01  0.40877270371E+02  0.00000000000E+00 0. -1.
</event>
<event>
 7    1  0.2468912E-015  0.9000775E+02  0.7816164E-02  0.1186339E+00
        -11   -1    0    0    0    0  0.00000000000E+00  0.00000000000E+00  0.45593999997E+02  0.45594000000E+02  0.51100000000E-03 0. -1.
         11   -1    0    0    0    0 -0.00000000000E+00 -0.00000000000E+00 -0.45593999997E+02  0.45594000000E+02  0.51100000000E-03 0.  1.
    9900012    2    1    2    0    0 -0.11210123397E+01  0.83037844277E-01 -0.35974929975E+00  0.90007752777E+02  0.90000014313E+02 0.  0.
         12    1    1    2    0    0  0.11210123397E+01 -0.83037844277E-01  0.35974929975E+00  0.11802472233E+01  0.00000000000E+00 0. -1.
         11    1    3    3    0    0 -0.66855811760E+01 -0.88209493510E+01  0.96175736311E+01  0.14663010125E+02  0.51100000000E-03 0. -1.
        -11    1    3    3    0    0 -0.24433051301E+02  0.14259431647E+02 -0.28114172051E+02  0.39883731736E+02  0.51100000000E-03 0.  1.
         12    1    3    3    0    0  0.29997620137E+02 -0.53554444519E+01  0.18136849120E+02  0.35461010916E+02  0.00000000000E+00 0. -1.
</event>
<event>
 7    1  0.2468912E-015  0.9000771E+02  0.7816164E-02  0.1186339E+00
        -11   -1    0    0    0    0  0.00000000000E+00  0.00000000000E+00  0.45593999997E+02  0.45594000000E+02  0.51100000000E-03 0.  1.
         11   -1    0    0    0    0 -0.00000000000E+00 -0.00000000000E+00 -0.45593999997E+02  0.45594000000E+02  0.51100000000E-03 0. -1.
    9900012    2    1    2    0    0 -0.72036976349E+00  0.75231744489E+00  0.55513611420E+00  0.90007707562E+02  0.89999968502E+02 0.  0.
         12    1    1    2    0    0  0.72036976349E+00 -0.75231744489E+00 -0.55513611420E+00  0.11802924380E+01  0.00000000000E+00 0. -1.
         11    1    3    3    0    0  0.91456886122E+00  0.10441868031E+02  0.37644429039E+01  0.11137327993E+02  0.51100000000E-03 0. -1.
        -11    1    3    3    0    0  0.26690026368E+02  0.12104023977E+02  0.20692584230E+02  0.35875450468E+02  0.51100000000E-03 0.  1.
         12    1    3    3    0    0 -0.28324964992E+02 -0.21793574563E+02 -0.23901891020E+02  0.42994929101E+02  0.00000000000E+00 0. -1.
</event>
<event>
 7    1  0.2468912E-015  0.9000782E+02  0.7816164E-02  0.1186339E+00
        -11   -1    0    0    0    0  0.00000000000E+00  0.00000000000E+00  0.45593999997E+02  0.45594000000E+02  0.51100000000E-03 0.  1.
         11   -1    0    0    0    0 -0.00000000000E+00 -0.00000000000E+00 -0.45593999997E+02  0.45594000000E+02  0.51100000000E-03 0. -1.
    9900012    2    1    2    0    0 -0.70861537881E+00 -0.16461202636E+00  0.92929672137E+00  0.90007819814E+02  0.90000082236E+02 0.  0.
         12    1    1    2    0    0  0.70861537881E+00  0.16461202636E+00 -0.92929672137E+00  0.11801801857E+01  0.00000000000E+00 0. -1.
         11    1    3    3    0    0  0.18531333575E+02 -0.27576897441E+01 -0.15183104563E+02  0.24115178648E+02  0.51100000000E-03 0. -1.
        -11    1    3    3    0    0  0.17860549209E+02  0.62577967963E+01 -0.89862651372E+01  0.20950231506E+02  0.51100000000E-03 0.  1.
        -12    1    3    3    0    0 -0.37100498163E+02 -0.36647190786E+01  0.25098666422E+02  0.44942409660E+02  0.00000000000E+00 0.  1.
</event>
<event>
 7    1  0.2468912E-015  0.9000777E+02  0.7816164E-02  0.1186339E+00
        -11   -1    0    0    0    0  0.00000000000E+00  0.00000000000E+00  0.45593999997E+02  0.45594000000E+02  0.51100000000E-03 0.  1.
         11   -1    0    0    0    0 -0.00000000000E+00 -0.00000000000E+00 -0.45593999997E+02  0.45594000000E+02  0.51100000000E-03 0. -1.
    9900012    2    1    2    0    0 -0.63517536032E+00 -0.21977967002E+00  0.97015249306E+00  0.90007768370E+02  0.90000030112E+02 0.  0.
         12    1    1    2    0    0  0.63517536032E+00  0.21977967002E+00 -0.97015249306E+00  0.11802316304E+01  0.00000000000E+00 0. -1.
         11    1    3    3    0    0  0.33331477175E+02 -0.17978533845E+02  0.53239869350E+01  0.38243429332E+02  0.51100000000E-03 0. -1.
        -11    1    3    3    0    0  0.34158225924E+01  0.13032318635E+02 -0.41028721385E+01  0.14083420502E+02  0.51100000000E-03 0.  1.
        -12    1    3    3    0    0 -0.37382475128E+02  0.47264355407E+01 -0.25096230348E+00  0.37680918536E+02  0.00000000000E+00 0.  1.
</event>
<event>
 7    1  0.2468912E-015  0.9000747E+02  0.7816164E-02  0.1186340E+00
        -11   -1    0    0    0    0  0.00000000000E+00  0.00000000000E+00  0.45593999997E+02  0.45594000000E+02  0.51100000000E-03 0.  1.
         11   -1    0    0    0    0 -0.00000000000E+00 -0.00000000000E+00 -0.45593999997E+02  0.45594000000E+02  0.51100000000E-03 0. -1.
    9900012    2    1    2    0    0  0.13043681909E+00  0.63487662919E+00  0.98670147730E+00  0.90007465416E+02  0.89999723159E+02 0.  0.
         12    1    1    2    0    0 -0.13043681909E+00 -0.63487662919E+00 -0.98670147730E+00  0.11805345837E+01  0.00000000000E+00 0. -1.
         11    1    3    3    0    0  0.43698408301E+01 -0.70548472709E+01 -0.28278444503E+01  0.87671593685E+01  0.51100000000E-03 0. -1.
        -11    1    3    3    0    0  0.73636277634E+01  0.43170240312E+02  0.31107617521E+01  0.43904094358E+02  0.51100000000E-03 0.  1.
         12    1    3    3    0    0 -0.11603031774E+02 -0.35480516412E+02  0.70378417554E+00  0.37336211690E+02  0.00000000000E+00 0. -1.
</event>
<event>
 7    1  0.2684932E-015  0.9000794E+02  0.7816164E-02  0.1186339E+00
        -11   -1    0    0    0    0  0.00000000000E+00  0.00000000000E+00  0.45593999997E+02  0.45594000000E+02  0.51100000000E-03 0.  1.
         11   -1    0    0    0    0 -0.00000000000E+00 -0.00000000000E+00 -0.45593999997E+02  0.45594000000E+02  0.51100000000E-03 0. -1.
    9900012    2    1    2    0    0 -0.28853839663E+00  0.82264899702E+00  0.79532808839E+00  0.90007935363E+02  0.90000199310E+02 0.  0.
         12    1    1    2    0    0  0.28853839663E+00 -0.82264899702E+00 -0.79532808839E+00  0.11800646367E+01  0.00000000000E+00 0. -1.
         11    1    3    3    0    0 -0.24407169425E+02 -0.23451602860E+02 -0.11812156429E+02  0.35849890318E+02  0.51100000000E-03 0. -1.
        -11    1    3    3    0    0 -0.15024069731E+01 -0.76222335938E+01 -0.53966518170E+01  0.94593616469E+01  0.51100000000E-03 0.  1.
        -12    1    3    3    0    0  0.25621038001E+02  0.31896485451E+02  0.18004136334E+02  0.44698683398E+02  0.00000000000E+00 0.  1.
</event>
<event>
 7    1  0.2468912E-015  0.9000773E+02  0.7816164E-02  0.1186339E+00
        -11   -1    0    0    0    0  0.00000000000E+00  0.00000000000E+00  0.45593999997E+02  0.45594000000E+02  0.51100000000E-03 0.  1.
         11   -1    0    0    0    0 -0.00000000000E+00 -0.00000000000E+00 -0.45593999997E+02  0.45594000000E+02  0.51100000000E-03 0. -1.
    9900012    2    1    2    0    0  0.81080104147E+00 -0.62583446056E+00  0.58649449045E+00  0.90007727621E+02  0.89999988826E+02 0.  0.
         12    1    1    2    0    0 -0.81080104147E+00  0.62583446056E+00 -0.58649449045E+00  0.11802723788E+01  0.00000000000E+00 0. -1.
         11    1    3    3    0    0  0.62541135571E+01  0.29346999685E+02 -0.12294776904E+02  0.32427177895E+02  0.51100000000E-03 0. -1.
        -11    1    3    3    0    0  0.13683553140E+02  0.51531724939E+01 -0.22977450318E+01  0.14801163663E+02  0.51100000000E-03 0.  1.
        -12    1    3    3    0    0 -0.19126865656E+02 -0.35126006639E+02  0.15179016427E+02  0.42779386063E+02  0.00000000000E+00 0.  1.
</event>
<event>
 7    1  0.2468912E-015  0.9000767E+02  0.7816164E-02  0.1186339E+00
        -11   -1    0    0    0    0  0.00000000000E+00  0.00000000000E+00  0.45593999997E+02  0.45594000000E+02  0.51100000000E-03 0.  1.
         11   -1    0    0    0    0 -0.00000000000E+00 -0.00000000000E+00 -0.45593999997E+02  0.45594000000E+02  0.51100000000E-03 0. -1.
    9900012    2    1    2    0    0 -0.82198775531E+00  0.20734529948E+00  0.82129071748E+00  0.90007671916E+02  0.89999932385E+02 0.  0.
         12    1    1    2    0    0  0.82198775531E+00 -0.20734529948E+00 -0.82129071748E+00  0.11803280839E+01  0.00000000000E+00 0. -1.
         11    1    3    3    0    0 -0.22537603226E+01  0.83713759794E+01 -0.75986701587E+01  0.11528189789E+02  0.51100000000E-03 0. -1.
        -11    1    3    3    0    0  0.16389575214E+01  0.29032413501E+02  0.24434308329E+02  0.37981609224E+02  0.51100000000E-03 0.  1.
         12    1    3    3    0    0 -0.20718495406E+00 -0.37196444181E+02 -0.16014347453E+02  0.40497872903E+02  0.00000000000E+00 0. -1.
</event>
<event>
 7    1  0.2468912E-015  0.9000780E+02  0.7816164E-02  0.1186339E+00
        -11   -1    0    0    0    0  0.00000000000E+00  0.00000000000E+00  0.45593999997E+02  0.45594000000E+02  0.51100000000E-03 0. -1.
         11   -1    0    0    0    0 -0.00000000000E+00 -0.00000000000E+00 -0.45593999997E+02  0.45594000000E+02  0.51100000000E-03 0.  1.
    9900012    2    1    2    0    0 -0.11703695170E+01 -0.15139783553E+00 -0.13678409400E-01  0.90007799504E+02  0.90000061658E+02 0.  0.
         12    1    1    2    0    0  0.11703695170E+01  0.15139783553E+00  0.13678409400E-01  0.11802004956E+01  0.00000000000E+00 0. -1.
         11    1    3    3    0    0  0.12406157229E+02  0.85981498076E+00 -0.19294805473E+01  0.12584709549E+02  0.51100000000E-03 0. -1.
        -11    1    3    3    0    0  0.18643000973E+02 -0.23977294722E+02  0.17319706427E+02  0.34963472059E+02  0.51100000000E-03 0.  1.
         12    1    3    3    0    0 -0.32219527719E+02  0.22966081906E+02 -0.15403904289E+02  0.42459617896E+02  0.00000000000E+00 0. -1.
</event>
<event>
 7    1  0.2468912E-015  0.9000774E+02  0.7816164E-02  0.1186339E+00
        -11   -1    0    0    0    0  0.00000000000E+00  0.00000000000E+00  0.45593999997E+02  0.45594000000E+02  0.51100000000E-03 0.  1.
         11   -1    0    0    0    0 -0.00000000000E+00 -0.00000000000E+00 -0.45593999997E+02  0.45594000000E+02  0.51100000000E-03 0. -1.
    9900012    2    1    2    0    0 -0.53105140904E+00 -0.10529695878E+01  0.47508446032E-01  0.90007738332E+02  0.89999999678E+02 0.  0.
         12    1    1    2    0    0  0.53105140904E+00  0.10529695878E+01 -0.47508446032E-01  0.11802616677E+01  0.00000000000E+00 0. -1.
         11    1    3    3    0    0 -0.32574014269E+01 -0.94919149570E+01 -0.83495492499E+01  0.13054581056E+02  0.51100000000E-03 0. -1.
        -11    1    3    3    0    0 -0.27731407349E+02  0.28542635765E+02  0.15774033561E+01  0.39827141645E+02  0.51100000000E-03 0.  1.
         12    1    3    3    0    0  0.30457757367E+02 -0.20103690396E+02  0.68196543399E+01  0.37126015632E+02  0.00000000000E+00 0. -1.
</event>
<event>
 7    1  0.2468912E-015  0.9000764E+02  0.7816164E-02  0.1186339E+00
        -11   -1    0    0    0    0  0.00000000000E+00  0.00000000000E+00  0.45593999997E+02  0.45594000000E+02  0.51100000000E-03 0.  1.
         11   -1    0    0    0    0 -0.00000000000E+00 -0.00000000000E+00 -0.45593999997E+02  0.45594000000E+02  0.51100000000E-03 0. -1.
    9900012    2    1    2    0    0  0.10311643337E+01 -0.57440741042E+00 -0.52084955060E-03  0.90007642415E+02  0.89999902495E+02 0.  0.
         12    1    1    2    0    0 -0.10311643337E+01  0.57440741042E+00  0.52084955060E-03  0.11803575846E+01  0.00000000000E+00 0. -1.
         11    1    3    3    0    0  0.26885553965E+02 -0.29945463275E-01 -0.21021395796E+02  0.34128184689E+02  0.51100000000E-03 0. -1.
        -11    1    3    3    0    0  0.48785029698E+01  0.49403210483E+01 -0.97998937745E+01  0.12010182411E+02  0.51100000000E-03 0.  1.
        -12    1    3    3    0    0 -0.30732892601E+02 -0.54847829955E+01  0.30820768721E+02  0.43869275315E+02  0.00000000000E+00 0.  1.
</event>
<event>
 7    1  0.2468912E-015  0.9000779E+02  0.7816164E-02  0.1186339E+00
        -11   -1    0    0    0    0  0.00000000000E+00  0.00000000000E+00  0.45593999997E+02  0.45594000000E+02  0.51100000000E-03 0. -1.
         11   -1    0    0    0    0 -0.00000000000E+00 -0.00000000000E+00 -0.45593999997E+02  0.45594000000E+02  0.51100000000E-03 0.  1.
    9900012    2    1    2    0    0  0.22506242387E+00 -0.11428302079E+01 -0.19023925336E+00  0.90007786057E+02  0.90000048033E+02 0.  0.
         12    1    1    2    0    0 -0.22506242387E+00  0.11428302079E+01  0.19023925336E+00  0.11802139434E+01  0.00000000000E+00 0. -1.
         11    1    3    3    0    0  0.14523771583E+02 -0.10508927819E+02  0.11904291939E+02  0.21519518390E+02  0.51100000000E-03 0.  1.
        -11    1    3    3    0    0 -0.38970380131E+02  0.10267918773E+02  0.14544156081E+01  0.40326616626E+02  0.51100000000E-03 0. -1.
         12    1    3    3    0    0  0.24671670971E+02 -0.90182116197E+00 -0.13548946800E+02  0.28161651041E+02  0.00000000000E+00 0. -1.
</event>
<event>
 7    1  0.2468912E-015  0.9000773E+02  0.7816164E-02  0.1186339E+00
        -11   -1    0    0    0    0  0.00000000000E+00  0.00000000000E+00  0.45593999997E+02  0.45594000000E+02  0.51100000000E-03 0.  1.
         11   -1    0    0    0    0 -0.00000000000E+00 -0.00000000000E+00 -0.45593999997E+02  0.45594000000E+02  0.51100000000E-03 0. -1.
    9900012    2    1    2    0    0  0.64747065717E+00 -0.95192075891E+00  0.26013500457E+00  0.90007728165E+02  0.89999989377E+02 0.  0.
         12    1    1    2    0    0 -0.64747065717E+00  0.95192075891E+00 -0.26013500457E+00  0.11802718347E+01  0.00000000000E+00 0. -1.
         11    1    3    3    0    0 -0.51123053918E+01 -0.64141333098E+01  0.50664524087E+01  0.96408356902E+01  0.51100000000E-03 0. -1.
        -11    1    3    3    0    0  0.17569903979E+02 -0.17717640940E+02  0.28645944359E+02  0.37989557181E+02  0.51100000000E-03 0.  1.
         12    1    3    3    0    0 -0.11810127930E+02  0.23179853491E+02 -0.33452261764E+02  0.42377335294E+02  0.00000000000E+00 0. -1.
</event>
<event>
 7    1  0.2468912E-015  0.9000774E+02  0.7816164E-02  0.1186339E+00
        -11   -1    0    0    0    0  0.00000000000E+00  0.00000000000E+00  0.45593999997E+02  0.45594000000E+02  0.51100000000E-03 0. -1.
         11   -1    0    0    0    0 -0.00000000000E+00 -0.00000000000E+00 -0.45593999997E+02  0.45594000000E+02  0.51100000000E-03 0.  1.
    9900012    2    1    2    0    0 -0.16111849010E+00 -0.89938434470E+00 -0.74709905967E+00  0.90007742243E+02  0.90000003641E+02 0.  0.
         12    1    1    2    0    0  0.16111849010E+00  0.89938434470E+00  0.74709905967E+00  0.11802577567E+01  0.00000000000E+00 0. -1.
         11    1    3    3    0    0 -0.21535219261E+01 -0.31332576072E+02  0.20883249103E+02  0.37715753650E+02  0.51100000000E-03 0. -1.
        -11    1    3    3    0    0  0.59500604655E+01  0.51743406754E+01  0.92803014772E+01  0.12177890488E+02  0.51100000000E-03 0.  1.
        -12    1    3    3    0    0 -0.39576570294E+01  0.25258851052E+02 -0.30910649640E+02  0.40114098105E+02  0.00000000000E+00 0.  1.
</event>
<event>
 7    1  0.2468912E-015  0.9000782E+02  0.7816164E-02  0.1186339E+00
        -11   -1    0    0    0    0  0.00000000000E+00  0.00000000000E+00  0.45593999997E+02  0.45594000000E+02  0.51100000000E-03 0. -1.
         11   -1    0    0    0    0 -0.00000000000E+00 -0.00000000000E+00 -0.45593999997E+02  0.45594000000E+02  0.51100000000E-03 0.  1.
    9900012    2    1    2    0    0  0.90991924131E+00  0.66524550091E-01 -0.74862514657E+00  0.90007822830E+02  0.90000085292E+02 0.  0.
         12    1    1    2    0    0 -0.90991924131E+00 -0.66524550091E-01  0.74862514657E+00  0.11801771696E+01  0.00000000000E+00 0. -1.
         11    1    3    3    0    0  0.61283342127E+01 -0.33272150382E+01 -0.41909361646E+01  0.81357720180E+01  0.51100000000E-03 0. -1.
        -11    1    3    3    0    0  0.30028658501E+02  0.12509209917E+01 -0.22926523870E+02  0.37800934270E+02  0.51100000000E-03 0.  1.
         12    1    3    3    0    0 -0.35247073472E+02  0.21428185966E+01  0.26368834888E+02  0.44071116542E+02  0.00000000000E+00 0. -1.
</event>
<event>
 7    1  0.2468912E-015  0.9000765E+02  0.7816164E-02  0.1186339E+00
        -11   -1    0    0    0    0  0.00000000000E+00  0.00000000000E+00  0.45593999997E+02  0.45594000000E+02  0.51100000000E-03 0.  1.
         11   -1    0    0    0    0 -0.00000000000E+00 -0.00000000000E+00 -0.45593999997E+02  0.45594000000E+02  0.51100000000E-03 0. -1.
    9900012    2    1    2    0    0 -0.10984865123E+01 -0.43176315311E+00 -0.11816835272E-01  0.90007647648E+02  0.89999907797E+02 0.  0.
         12    1    1    2    0    0  0.10984865123E+01  0.43176315311E+00  0.11816835272E-01  0.11803523524E+01  0.00000000000E+00 0. -1.
         11    1    3    3    0    0  0.65514133651E+01  0.91930239825E+00 -0.55537348768E+01  0.86377141261E+01  0.51100000000E-03 0. -1.
        -11    1    3    3    0    0  0.32514772051E+02  0.11178875372E+01 -0.15412995803E+02  0.36000284915E+02  0.51100000000E-03 0.  1.
         12    1    3    3    0    0 -0.40164671928E+02 -0.24689530885E+01  0.20954913845E+02  0.45369648607E+02  0.00000000000E+00 0. -1.
</event>
<event>
 7    1  0.2468912E-015  0.9000781E+02  0.7816164E-02  0.1186339E+00
        -11   -1    0    0    0    0  0.00000000000E+00  0.00000000000E+00  0.45593999997E+02  0.45594000000E+02  0.51100000000E-03 0.  1.
         11   -1    0    0    0    0 -0.00000000000E+00 -0.00000000000E+00 -0.45593999997E+02  0.45594000000E+02  0.51100000000E-03 0. -1.
    9900012    2    1    2    0    0 -0.30669285301E+00 -0.63980588371E+00  0.94309672571E+00  0.90007812087E+02  0.90000074407E+02 0.  0.
         12    1    1    2    0    0  0.30669285301E+00  0.63980588371E+00 -0.94309672571E+00  0.11801879126E+01  0.00000000000E+00 0. -1.
         11    1    3    3    0    0  0.21478785295E+02  0.76050622669E+01  0.14986403863E+00  0.22785909008E+02  0.51100000000E-03 0. -1.
        -11    1    3    3    0    0  0.20009476334E+02 -0.12658521267E+02 -0.65299321673E+01  0.24561297160E+02  0.51100000000E-03 0.  1.
         12    1    3    3    0    0 -0.41794954482E+02  0.44136531159E+01  0.73231648544E+01  0.42660605920E+02  0.00000000000E+00 0. -1.
</event>
<event>
 7    1  0.2468912E-015  0.9000779E+02  0.7816164E-02  0.1186339E+00
        -11   -1    0    0    0    0  0.00000000000E+00  0.00000000000E+00  0.45593999997E+02  0.45594000000E+02  0.51100000000E-03 0.  1.
         11   -1    0    0    0    0 -0.00000000000E+00 -0.00000000000E+00 -0.45593999997E+02  0.45594000000E+02  0.51100000000E-03 0. -1.
    9900012    2    1    2    0    0  0.38747721325E+00 -0.10971219842E+01  0.19770136065E+00  0.90007787703E+02  0.90000049700E+02 0.  0.
         12    1    1    2    0    0 -0.38747721325E+00  0.10971219842E+01 -0.19770136065E+00  0.11802122974E+01  0.00000000000E+00 0. -1.
         11    1    3    3    0    0 -0.58034603549E+01 -0.59687977498E+01  0.50189009725E+01  0.97209086974E+01  0.51100000000E-03 0. -1.
        -11    1    3    3    0    0  0.38768062674E+01  0.42186804022E+02  0.13913851410E+01  0.42387403946E+02  0.51100000000E-03 0.  1.
         12    1    3    3    0    0  0.23141313008E+01 -0.37315128256E+02 -0.62125847529E+01  0.37899475059E+02  0.00000000000E+00 0. -1.
</event>
