<event>
 7    1  0.1385632E-008  0.4614232E+02  0.7816164E-02  0.1320468E+00
        -11   -1    0    0    0    0  0.00000000000E+00  0.00000000000E+00  0.45593999997E+02  0.45594000000E+02  0.51100000000E-03 0.  1.
         11   -1    0    0    0    0 -0.00000000000E+00 -0.00000000000E+00 -0.45593999997E+02  0.45594000000E+02  0.51100000000E-03 0. -1.
    9900012    2    1    2    0    0  0.43798525098E+02 -0.17755972939E+01  0.10375448895E+02  0.46142317784E+02  0.10000000208E+02 0.  0.
         12    1    1    2    0    0 -0.43798525098E+02  0.17755972939E+01 -0.10375448895E+02  0.45045682216E+02  0.00000000000E+00 0. -1.
         11    1    3    3    0    0  0.16522024368E+01  0.74786338109E+00  0.17689227177E+01  0.25334088441E+01  0.51100000000E-03 0. -1.
        -11    1    3    3    0    0  0.35514136978E+02 -0.12019151709E+01  0.95131193653E+01  0.36785839201E+02  0.51100000000E-03 0.  1.
        -12    1    3    3    0    0  0.66321856830E+01 -0.13215455041E+01 -0.90659318787E+00  0.68230697388E+01  0.00000000000E+00 0.  1.
</event>
<event>
 7    1  0.1385632E-008  0.4614232E+02  0.7816164E-02  0.1320468E+00
        -11   -1    0    0    0    0  0.00000000000E+00  0.00000000000E+00  0.45593999997E+02  0.45594000000E+02  0.51100000000E-03 0.  1.
         11   -1    0    0    0    0 -0.00000000000E+00 -0.00000000000E+00 -0.45593999997E+02  0.45594000000E+02  0.51100000000E-03 0. -1.
    9900012    2    1    2    0    0  0.10691452633E+02 -0.32091007953E+02  0.29748506835E+02  0.46142316414E+02  0.99999877168E+01 0.  0.
         12    1    1    2    0    0 -0.10691452633E+02  0.32091007953E+02 -0.29748506835E+02  0.45045683586E+02  0.00000000000E+00 0. -1.
         11    1    3    3    0    0 -0.51661161164E+00 -0.26720707059E+01  0.53814550900E+01  0.60304982018E+01  0.51100000000E-03 0. -1.
        -11    1    3    3    0    0  0.73827986150E+01 -0.12617481548E+02  0.10632683888E+02  0.18076518551E+02  0.51100000000E-03 0.  1.
         12    1    3    3    0    0  0.38252656296E+01 -0.16801455699E+02  0.13734367857E+02  0.22035299662E+02  0.00000000000E+00 0. -1.
</event>
<event>
 7    1  0.1385632E-008  0.4614232E+02  0.7816164E-02  0.1320468E+00
        -11   -1    0    0    0    0  0.00000000000E+00  0.00000000000E+00  0.45593999997E+02  0.45594000000E+02  0.51100000000E-03 0.  1.
         11   -1    0    0    0    0 -0.00000000000E+00 -0.00000000000E+00 -0.45593999997E+02  0.45594000000E+02  0.51100000000E-03 0. -1.
    9900012    2    1    2    0    0  0.98951308768E+01 -0.25037795480E+02  0.36115214639E+02  0.46142317121E+02  0.99999941670E+01 0.  0.
         12    1    1    2    0    0 -0.98951308768E+01  0.25037795480E+02 -0.36115214639E+02  0.45045682879E+02  0.00000000000E+00 0. -1.
         11    1    3    3    0    0  0.18516748930E+01 -0.97165716234E+00  0.36476488949E+01  0.42045404353E+01  0.51100000000E-03 0. -1.
        -11    1    3    3    0    0  0.14335870175E+01 -0.16055246450E+02  0.18610788158E+02  0.24620876232E+02  0.51100000000E-03 0.  1.
        -12    1    3    3    0    0  0.66098689663E+01 -0.80108918678E+01  0.13856777586E+02  0.17316900454E+02  0.00000000000E+00 0.  1.
</event>
<event>
 7    1  0.1883499E-008  0.4614232E+02  0.7816164E-02  0.1320468E+00
        -11   -1    0    0    0    0  0.00000000000E+00  0.00000000000E+00  0.45593999997E+02  0.45594000000E+02  0.51100000000E-03 0. -1.
         11   -1    0    0    0    0 -0.00000000000E+00 -0.00000000000E+00 -0.45593999997E+02  0.45594000000E+02  0.51100000000E-03 0.  1.
    9900012    2    1    2    0    0  0.18907693585E+02 -0.40697886998E+02  0.39108427688E+01  0.46142316810E+02  0.99999913309E+01 0.  0.
         12    1    1    2    0    0 -0.18907693585E+02  0.40697886998E+02 -0.39108427688E+01  0.45045683190E+02  0.00000000000E+00 0. -1.
         11    1    3    3    0    0  0.18118086854E+01 -0.52746158177E+01  0.28200731769E+01  0.62495628424E+01  0.51100000000E-03 0. -1.
        -11    1    3    3    0    0  0.15761627573E+02 -0.29499090304E+02 -0.10266510167E+01  0.33461608525E+02  0.51100000000E-03 0.  1.
        -12    1    3    3    0    0  0.13342573268E+01 -0.59241808772E+01  0.21174206085E+01  0.64311454434E+01  0.00000000000E+00 0.  1.
</event>
<event>
 7    1  0.1385632E-008  0.4614232E+02  0.7816164E-02  0.1320468E+00
        -11   -1    0    0    0    0  0.00000000000E+00  0.00000000000E+00  0.45593999997E+02  0.45594000000E+02  0.51100000000E-03 0.  1.
         11   -1    0    0    0    0 -0.00000000000E+00 -0.00000000000E+00 -0.45593999997E+02  0.45594000000E+02  0.51100000000E-03 0. -1.
    9900012    2    1    2    0    0 -0.41272225982E+02  0.13406348256E+02  0.12082494010E+02  0.46142317937E+02  0.10000001600E+02 0.  0.
         12    1    1    2    0    0  0.41272225982E+02 -0.13406348256E+02 -0.12082494010E+02  0.45045682063E+02  0.00000000000E+00 0. -1.
         11    1    3    3    0    0 -0.74159633352E+00 -0.45674388902E+00  0.53625773280E+00  0.10228160730E+01  0.51100000000E-03 0. -1.
        -11    1    3    3    0    0 -0.20988713663E+02  0.11283026041E+02  0.49885825808E+01  0.24345815540E+02  0.51100000000E-03 0.  1.
        -12    1    3    3    0    0 -0.19541915986E+02  0.25800661038E+01  0.65576536959E+01  0.20773686324E+02  0.00000000000E+00 0.  1.
</event>
<event>
 7    1  0.1385632E-008  0.4614232E+02  0.7816164E-02  0.1320468E+00
        -11   -1    0    0    0    0  0.00000000000E+00  0.00000000000E+00  0.45593999997E+02  0.45594000000E+02  0.51100000000E-03 0.  1.
         11   -1    0    0    0    0 -0.00000000000E+00 -0.00000000000E+00 -0.45593999997E+02  0.45594000000E+02  0.51100000000E-03 0. -1.
    9900012    2    1    2    0    0  0.32034354869E+02  0.25345570825E+02 -0.18987246179E+02  0.46142319078E+02  0.10000012010E+02 0.  0.
         12    1    1    2    0    0 -0.32034354869E+02 -0.25345570825E+02  0.18987246179E+02  0.45045680922E+02  0.00000000000E+00 0. -1.
         11    1    3    3    0    0  0.41660286117E+00  0.12538742228E+01 -0.22070280606E+01  0.25723008440E+01  0.51100000000E-03 0. -1.
        -11    1    3    3    0    0  0.16229597839E+02  0.13654076189E+02 -0.58498298884E+01  0.22001230706E+02  0.51100000000E-03 0.  1.
        -12    1    3    3    0    0  0.15388154169E+02  0.10437620413E+02 -0.10930388230E+02  0.21568787529E+02  0.00000000000E+00 0.  1.
</event>
<event>
 7    1  0.1385632E-008  0.4614232E+02  0.7816164E-02  0.1320468E+00
        -11   -1    0    0    0    0  0.00000000000E+00  0.00000000000E+00  0.45593999997E+02  0.45594000000E+02  0.51100000000E-03 0.  1.
         11   -1    0    0    0    0 -0.00000000000E+00 -0.00000000000E+00 -0.45593999997E+02  0.45594000000E+02  0.51100000000E-03 0. -1.
    9900012    2    1    2    0    0 -0.19507443749E+02  0.61314981088E+00  0.40597995172E+02  0.46142317340E+02  0.99999961608E+01 0.  0.
         12    1    1    2    0    0  0.19507443749E+02 -0.61314981088E+00 -0.40597995172E+02  0.45045682660E+02  0.00000000000E+00 0. -1.
         11    1    3    3    0    0 -0.28175171851E+00  0.89952484401E+00  0.44176328082E+01  0.45170796833E+01  0.51100000000E-03 0. -1.
        -11    1    3    3    0    0 -0.16308471468E+02  0.56423843300E+00  0.23661399686E+02  0.28742763298E+02  0.51100000000E-03 0.  1.
        -12    1    3    3    0    0 -0.29172205624E+01 -0.85061346613E+00  0.12518962678E+02  0.12882474359E+02  0.00000000000E+00 0.  1.
</event>
<event>
 7    1  0.1385632E-008  0.4614232E+02  0.7816164E-02  0.1320468E+00
        -11   -1    0    0    0    0  0.00000000000E+00  0.00000000000E+00  0.45593999997E+02  0.45594000000E+02  0.51100000000E-03 0.  1.
         11   -1    0    0    0    0 -0.00000000000E+00 -0.00000000000E+00 -0.45593999997E+02  0.45594000000E+02  0.51100000000E-03 0. -1.
    9900012    2    1    2    0    0  0.16427352786E+02 -0.30789427868E+02  0.28482744789E+02  0.46142317203E+02  0.99999949064E+01 0.  0.
         12    1    1    2    0    0 -0.16427352786E+02  0.30789427868E+02 -0.28482744789E+02  0.45045682797E+02  0.00000000000E+00 0. -1.
         11    1    3    3    0    0 -0.86802339667E+00 -0.15840139791E+01  0.17503859064E+01  0.25152367654E+01  0.51100000000E-03 0. -1.
        -11    1    3    3    0    0  0.97719965428E+01 -0.21648116559E+02  0.19644620919E+02  0.30822783753E+02  0.51100000000E-03 0.  1.
        -12    1    3    3    0    0  0.75233796396E+01 -0.75572973293E+01  0.70877379641E+01  0.12804296684E+02  0.00000000000E+00 0.  1.
</event>
<event>
 7    1  0.1385632E-008  0.4614231E+02  0.7816164E-02  0.1320468E+00
        -11   -1    0    0    0    0  0.00000000000E+00  0.00000000000E+00  0.45593999997E+02  0.45594000000E+02  0.51100000000E-03 0.  1.
         11   -1    0    0    0    0 -0.00000000000E+00 -0.00000000000E+00 -0.45593999997E+02  0.45594000000E+02  0.51100000000E-03 0. -1.
    9900012    2    1    2    0    0 -0.12929321600E+02  0.27186307403E+02  0.33508971527E+02  0.46142313858E+02  0.99999644055E+01 0.  0.
         12    1    1    2    0    0  0.12929321600E+02 -0.27186307403E+02 -0.33508971527E+02  0.45045686142E+02  0.00000000000E+00 0. -1.
         11    1    3    3    0    0  0.31485342924E+00 -0.51944987304E+00  0.40109866545E+00  0.72790195292E+00  0.51100000000E-03 0. -1.
        -11    1    3    3    0    0 -0.39682106289E+01  0.95413103619E+01  0.80124673687E+01  0.13076044226E+02  0.51100000000E-03 0.  1.
        -12    1    3    3    0    0 -0.92759644005E+01  0.18164446914E+02  0.25095405493E+02  0.32338367678E+02  0.00000000000E+00 0.  1.
</event>
<event>
 7    1  0.1385632E-008  0.4614232E+02  0.7816164E-02  0.1320468E+00
        -11   -1    0    0    0    0  0.00000000000E+00  0.00000000000E+00  0.45593999997E+02  0.45594000000E+02  0.51100000000E-03 0. -1.
         11   -1    0    0    0    0 -0.00000000000E+00 -0.00000000000E+00 -0.45593999997E+02  0.45594000000E+02  0.51100000000E-03 0.  1.
    9900012    2    1    2    0    0  0.38989231886E+02 -0.13949712839E+02 -0.17730165507E+02  0.46142318073E+02  0.10000002845E+02 0.  0.
         12    1    1    2    0    0 -0.38989231886E+02  0.13949712839E+02  0.17730165507E+02  0.45045681927E+02  0.00000000000E+00 0. -1.
         11    1    3    3    0    0  0.22054464562E-01 -0.96372386922E+00  0.36360168336E+00  0.10302701300E+01  0.51100000000E-03 0. -1.
        -11    1    3    3    0    0  0.33745093511E+02 -0.11948578385E+02 -0.14180034420E+02  0.38504197667E+02  0.51100000000E-03 0.  1.
         12    1    3    3    0    0  0.52220839101E+01 -0.10374105848E+01 -0.39137327698E+01  0.66078502767E+01  0.00000000000E+00 0. -1.
</event>
<event>
 7    1  0.1385632E-008  0.4614232E+02  0.7816164E-02  0.1320468E+00
        -11   -1    0    0    0    0  0.00000000000E+00  0.00000000000E+00  0.45593999997E+02  0.45594000000E+02  0.51100000000E-03 0. -1.
         11   -1    0    0    0    0 -0.00000000000E+00 -0.00000000000E+00 -0.45593999997E+02  0.45594000000E+02  0.51100000000E-03 0.  1.
    9900012    2    1    2    0    0  0.22379885065E+02  0.10626607729E+02 -0.37620864715E+02  0.46142317529E+02  0.99999978850E+01 0.  0.
         12    1    1    2    0    0 -0.22379885065E+02 -0.10626607729E+02  0.37620864715E+02  0.45045682471E+02  0.00000000000E+00 0. -1.
         11    1    3    3    0    0  0.98466772113E+00  0.10863385381E+01 -0.94858496880E+00  0.17462862436E+01  0.51100000000E-03 0. -1.
        -11    1    3    3    0    0  0.19396128293E+02  0.56960413441E+01 -0.33079276272E+02  0.38767166503E+02  0.51100000000E-03 0.  1.
        -12    1    3    3    0    0  0.19990890516E+01  0.38442278469E+01 -0.35930034743E+01  0.56288647827E+01  0.00000000000E+00 0.  1.
</event>
<event>
 7    1  0.1385632E-008  0.4614232E+02  0.7816164E-02  0.1320468E+00
        -11   -1    0    0    0    0  0.00000000000E+00  0.00000000000E+00  0.45593999997E+02  0.45594000000E+02  0.51100000000E-03 0.  1.
         11   -1    0    0    0    0 -0.00000000000E+00 -0.00000000000E+00 -0.45593999997E+02  0.45594000000E+02  0.51100000000E-03 0. -1.
    9900012    2    1    2    0    0 -0.18333291290E+02  0.38704660867E+02  0.13962562744E+02  0.46142317624E+02  0.99999987475E+01 0.  0.
         12    1    1    2    0    0  0.18333291290E+02 -0.38704660867E+02 -0.13962562744E+02  0.45045682376E+02  0.00000000000E+00 0. -1.
         11    1    3    3    0    0 -0.16623481879E+00  0.78845632563E+01  0.13856761811E+01  0.80071262322E+01  0.51100000000E-03 0. -1.
        -11    1    3    3    0    0 -0.15914044620E+02  0.28660741538E+02  0.12253511406E+02  0.34997763696E+02  0.51100000000E-03 0.  1.
         12    1    3    3    0    0 -0.22530118520E+01  0.21593560727E+01  0.32337515597E+00  0.31374276956E+01  0.00000000000E+00 0. -1.
</event>
<event>
 7    1  0.1385632E-008  0.4614232E+02  0.7816164E-02  0.1320468E+00
        -11   -1    0    0    0    0  0.00000000000E+00  0.00000000000E+00  0.45593999997E+02  0.45594000000E+02  0.51100000000E-03 0.  1.
         11   -1    0    0    0    0 -0.00000000000E+00 -0.00000000000E+00 -0.45593999997E+02  0.45594000000E+02  0.51100000000E-03 0. -1.
    9900012    2    1    2    0    0  0.30762637466E+02  0.32788483541E+02 -0.27728995157E+01  0.46142317759E+02  0.99999999835E+01 0.  0.
         12    1    1    2    0    0 -0.30762637466E+02 -0.32788483541E+02  0.27728995157E+01  0.45045682241E+02  0.00000000000E+00 0. -1.
         11    1    3    3    0    0  0.26029083294E+01  0.43957117954E+00 -0.21744485091E+00  0.26487048000E+01  0.51100000000E-03 0. -1.
        -11    1    3    3    0    0  0.14077274470E+02  0.17771097894E+02  0.18668377589E+01  0.22747893536E+02  0.51100000000E-03 0.  1.
         12    1    3    3    0    0  0.14082454667E+02  0.14577814468E+02 -0.44222924236E+01  0.20745719423E+02  0.00000000000E+00 0. -1.
</event>
<event>
 7    1  0.1385632E-008  0.4614232E+02  0.7816164E-02  0.1320468E+00
        -11   -1    0    0    0    0  0.00000000000E+00  0.00000000000E+00  0.45593999997E+02  0.45594000000E+02  0.51100000000E-03 0.  1.
         11   -1    0    0    0    0 -0.00000000000E+00 -0.00000000000E+00 -0.45593999997E+02  0.45594000000E+02  0.51100000000E-03 0. -1.
    9900012    2    1    2    0    0 -0.39530687387E+01  0.11438519579E+01  0.44857310401E+02  0.46142318229E+02  0.10000004268E+02 0.  0.
         12    1    1    2    0    0  0.39530687387E+01 -0.11438519579E+01 -0.44857310401E+02  0.45045681771E+02  0.00000000000E+00 0. -1.
         11    1    3    3    0    0  0.15230987146E+01 -0.23755143983E+01  0.18125523071E+02  0.18343867783E+02  0.51100000000E-03 0. -1.
        -11    1    3    3    0    0 -0.39206898549E+01  0.18796955272E+00  0.12680988585E+02  0.13274585238E+02  0.51100000000E-03 0.  1.
         12    1    3    3    0    0 -0.15554775985E+01  0.33313968035E+01  0.14050798745E+02  0.14523865209E+02  0.00000000000E+00 0. -1.
</event>
<event>
 7    1  0.1385632E-008  0.4614232E+02  0.7816164E-02  0.1320468E+00
        -11   -1    0    0    0    0  0.00000000000E+00  0.00000000000E+00  0.45593999997E+02  0.45594000000E+02  0.51100000000E-03 0.  1.
         11   -1    0    0    0    0 -0.00000000000E+00 -0.00000000000E+00 -0.45593999997E+02  0.45594000000E+02  0.51100000000E-03 0. -1.
    9900012    2    1    2    0    0 -0.96209230743E+01 -0.31284262200E+02  0.30949092953E+02  0.46142316779E+02  0.99999910472E+01 0.  0.
         12    1    1    2    0    0  0.96209230743E+01  0.31284262200E+02 -0.30949092953E+02  0.45045683221E+02  0.00000000000E+00 0. -1.
         11    1    3    3    0    0 -0.93737598851E+01 -0.20467678017E+02  0.23395856289E+02  0.32467819599E+02  0.51100000000E-03 0.  1.
        -11    1    3    3    0    0  0.20497052266E+00 -0.25213664680E+01  0.12905472504E+00  0.25329739762E+01  0.51100000000E-03 0. -1.
        -12    1    3    3    0    0 -0.45213371184E+00 -0.82952177147E+01  0.74241819394E+01  0.11141523204E+02  0.00000000000E+00 0.  1.
</event>
<event>
 7    1  0.1385632E-008  0.4614232E+02  0.7816164E-02  0.1320468E+00
        -11   -1    0    0    0    0  0.00000000000E+00  0.00000000000E+00  0.45593999997E+02  0.45594000000E+02  0.51100000000E-03 0. -1.
         11   -1    0    0    0    0 -0.00000000000E+00 -0.00000000000E+00 -0.45593999997E+02  0.45594000000E+02  0.51100000000E-03 0.  1.
    9900012    2    1    2    0    0 -0.94756217594E+00  0.45035229039E+02  0.20900086768E+00  0.46142318631E+02  0.10000007932E+02 0.  0.
         12    1    1    2    0    0  0.94756217594E+00 -0.45035229039E+02 -0.20900086768E+00  0.45045681369E+02  0.00000000000E+00 0. -1.
         11    1    3    3    0    0 -0.34711497674E+01  0.67413743843E+01  0.53117294277E+00  0.76011284855E+01  0.51100000000E-03 0. -1.
        -11    1    3    3    0    0  0.30095315440E+01  0.37372216405E+02 -0.41161502559E+00  0.37495456609E+02  0.51100000000E-03 0.  1.
        -12    1    3    3    0    0 -0.48594395255E+00  0.92163824975E+00  0.89442950498E-01  0.10457335367E+01  0.00000000000E+00 0.  1.
</event>
<event>
 7    1  0.1385632E-008  0.4614232E+02  0.7816164E-02  0.1320468E+00
        -11   -1    0    0    0    0  0.00000000000E+00  0.00000000000E+00  0.45593999997E+02  0.45594000000E+02  0.51100000000E-03 0. -1.
         11   -1    0    0    0    0 -0.00000000000E+00 -0.00000000000E+00 -0.45593999997E+02  0.45594000000E+02  0.51100000000E-03 0.  1.
    9900012    2    1    2    0    0  0.11366648752E+02 -0.43231889595E+02  0.55602655159E+01  0.46142317250E+02  0.99999953395E+01 0.  0.
         12    1    1    2    0    0 -0.11366648752E+02  0.43231889595E+02 -0.55602655159E+01  0.45045682750E+02  0.00000000000E+00 0. -1.
         11    1    3    3    0    0  0.22641492640E+01 -0.90028092091E+01  0.53434195644E+01  0.10711166064E+02  0.51100000000E-03 0. -1.
        -11    1    3    3    0    0  0.73455850091E+01 -0.26302941583E+02 -0.12630543784E-01  0.27309385105E+02  0.51100000000E-03 0.  1.
         12    1    3    3    0    0  0.17569144791E+01 -0.79261388032E+01  0.22947649529E+00  0.81217660811E+01  0.00000000000E+00 0. -1.
</event>
<event>
 7    1  0.1385632E-008  0.4614232E+02  0.7816164E-02  0.1320468E+00
        -11   -1    0    0    0    0  0.00000000000E+00  0.00000000000E+00  0.45593999997E+02  0.45594000000E+02  0.51100000000E-03 0.  1.
         11   -1    0    0    0    0 -0.00000000000E+00 -0.00000000000E+00 -0.45593999997E+02  0.45594000000E+02  0.51100000000E-03 0. -1.
    9900012    2    1    2    0    0 -0.30378881109E+02  0.17178733980E+02  0.28480311586E+02  0.46142318003E+02  0.10000002203E+02 0.  0.
         12    1    1    2    0    0  0.30378881109E+02 -0.17178733980E+02 -0.28480311586E+02  0.45045681997E+02  0.00000000000E+00 0. -1.
         11    1    3    3    0    0 -0.28856379636E+02  0.13563090145E+02  0.22965698926E+02  0.39294673779E+02  0.51100000000E-03 0. -1.
        -11    1    3    3    0    0 -0.16530049170E+01  0.34148899926E+01  0.49688782299E+01  0.62516917743E+01  0.51100000000E-03 0.  1.
         12    1    3    3    0    0  0.13050344404E+00  0.20075384243E+00  0.54573442988E+00  0.59595244954E+00  0.00000000000E+00 0. -1.
</event>
<event>
 7    1  0.1385632E-008  0.4614233E+02  0.7816164E-02  0.1320468E+00
        -11   -1    0    0    0    0  0.00000000000E+00  0.00000000000E+00  0.45593999997E+02  0.45594000000E+02  0.51100000000E-03 0.  1.
         11   -1    0    0    0    0 -0.00000000000E+00 -0.00000000000E+00 -0.45593999997E+02  0.45594000000E+02  0.51100000000E-03 0. -1.
    9900012    2    1    2    0    0  0.42346034365E+02 -0.68354195632E+01 -0.13755112932E+02  0.46142326303E+02  0.10000077892E+02 0.  0.
         12    1    1    2    0    0 -0.42346034365E+02  0.68354195632E+01  0.13755112932E+02  0.45045673697E+02  0.00000000000E+00 0. -1.
         11    1    3    3    0    0  0.20272185141E+02 -0.50424533634E+01 -0.91561472482E+01  0.22808394486E+02  0.51100000000E-03 0. -1.
        -11    1    3    3    0    0  0.17271539039E+01 -0.14814499832E+01  0.55527017094E+00  0.23422382211E+01  0.51100000000E-03 0.  1.
         12    1    3    3    0    0  0.20346695320E+02 -0.31151621653E+00 -0.51542358544E+01  0.20991693596E+02  0.00000000000E+00 0. -1.
</event>
<event>
 7    1  0.1385632E-008  0.4614232E+02  0.7816164E-02  0.1320468E+00
        -11   -1    0    0    0    0  0.00000000000E+00  0.00000000000E+00  0.45593999997E+02  0.45594000000E+02  0.51100000000E-03 0.  1.
         11   -1    0    0    0    0 -0.00000000000E+00 -0.00000000000E+00 -0.45593999997E+02  0.45594000000E+02  0.51100000000E-03 0. -1.
    9900012    2    1    2    0    0 -0.32098920910E+01  0.52440377351E+00  0.44928110352E+02  0.46142317562E+02  0.99999981824E+01 0.  0.
         12    1    1    2    0    0  0.32098920910E+01 -0.52440377351E+00 -0.44928110352E+02  0.45045682438E+02  0.00000000000E+00 0. -1.
         11    1    3    3    0    0 -0.12927993098E+00 -0.38651321267E+01  0.27987180270E+02  0.28253109906E+02  0.51100000000E-03 0. -1.
        -11    1    3    3    0    0 -0.89087819321E+00  0.18562769287E+00  0.41410207596E+01  0.42398319293E+01  0.51100000000E-03 0.  1.
         12    1    3    3    0    0 -0.21897339668E+01  0.42039082073E+01  0.12799909322E+02  0.13649375726E+02  0.00000000000E+00 0. -1.
</event>
<event>
 7    1  0.1385632E-008  0.4614232E+02  0.7816164E-02  0.1320468E+00
        -11   -1    0    0    0    0  0.00000000000E+00  0.00000000000E+00  0.45593999997E+02  0.45594000000E+02  0.51100000000E-03 0. -1.
         11   -1    0    0    0    0 -0.00000000000E+00 -0.00000000000E+00 -0.45593999997E+02  0.45594000000E+02  0.51100000000E-03 0.  1.
    9900012    2    1    2    0    0 -0.19113297540E+02 -0.27833678002E+02 -0.29817470677E+02  0.46142319502E+02  0.10000015872E+02 0.  0.
         12    1    1    2    0    0  0.19113297540E+02  0.27833678002E+02  0.29817470677E+02  0.45045680498E+02  0.00000000000E+00 0. -1.
         11    1    3    3    0    0 -0.11737528669E+02 -0.15964694917E+02 -0.12527430452E+02  0.23443070981E+02  0.51100000000E-03 0. -1.
        -11    1    3    3    0    0 -0.38954451868E+01 -0.23211965045E+01 -0.49416845097E+01  0.67069137814E+01  0.51100000000E-03 0.  1.
        -12    1    3    3    0    0 -0.34803236848E+01 -0.95477865812E+01 -0.12348355715E+02  0.15992334740E+02  0.00000000000E+00 0.  1.
</event>
<event>
 7    1  0.1385632E-008  0.4614232E+02  0.7816164E-02  0.1320468E+00
        -11   -1    0    0    0    0  0.00000000000E+00  0.00000000000E+00  0.45593999997E+02  0.45594000000E+02  0.51100000000E-03 0.  1.
         11   -1    0    0    0    0 -0.00000000000E+00 -0.00000000000E+00 -0.45593999997E+02  0.45594000000E+02  0.51100000000E-03 0. -1.
    9900012    2    1    2    0    0 -0.13962407834E+02  0.50194736599E+01  0.42531982021E+02  0.46142318264E+02  0.10000004590E+02 0.  0.
         12    1    1    2    0    0  0.13962407834E+02 -0.50194736599E+01 -0.42531982021E+02  0.45045681736E+02  0.00000000000E+00 0. -1.
         11    1    3    3    0    0  0.19658444792E-01 -0.88449369931E+00  0.95472219928E+01  0.95881261777E+01  0.51100000000E-03 0. -1.
        -11    1    3    3    0    0 -0.73717827779E+01  0.82619727431E+00  0.15284646572E+02  0.16989591059E+02  0.51100000000E-03 0.  1.
         12    1    3    3    0    0 -0.66102835013E+01  0.50777700850E+01  0.17700113456E+02  0.19564601027E+02  0.00000000000E+00 0. -1.
</event>
<event>
 7    1  0.1385632E-008  0.4614232E+02  0.7816164E-02  0.1320468E+00
        -11   -1    0    0    0    0  0.00000000000E+00  0.00000000000E+00  0.45593999997E+02  0.45594000000E+02  0.51100000000E-03 0.  1.
         11   -1    0    0    0    0 -0.00000000000E+00 -0.00000000000E+00 -0.45593999997E+02  0.45594000000E+02  0.51100000000E-03 0. -1.
    9900012    2    1    2    0    0 -0.22863162719E+02 -0.37957125502E+02  0.81022222583E+01  0.46142316617E+02  0.99999895646E+01 0.  0.
         12    1    1    2    0    0  0.22863162719E+02  0.37957125502E+02 -0.81022222583E+01  0.45045683383E+02  0.00000000000E+00 0. -1.
         11    1    3    3    0    0 -0.16640575600E+02 -0.25115780095E+02  0.91296622213E+01  0.31481135599E+02  0.51100000000E-03 0.  1.
        -11    1    3    3    0    0 -0.95481690415E+00 -0.42137803081E+01 -0.14113324127E+01  0.45452699860E+01  0.51100000000E-03 0. -1.
        -12    1    3    3    0    0 -0.52677702154E+01 -0.86275650996E+01  0.38389244969E+00  0.10115911032E+02  0.00000000000E+00 0.  1.
</event>
<event>
 7    1  0.1385632E-008  0.4614232E+02  0.7816164E-02  0.1320468E+00
        -11   -1    0    0    0    0  0.00000000000E+00  0.00000000000E+00  0.45593999997E+02  0.45594000000E+02  0.51100000000E-03 0. -1.
         11   -1    0    0    0    0 -0.00000000000E+00 -0.00000000000E+00 -0.45593999997E+02  0.45594000000E+02  0.51100000000E-03 0.  1.
    9900012    2    1    2    0    0  0.16272939582E+02 -0.34743734635E+02 -0.23604614754E+02  0.46142317668E+02  0.99999991515E+01 0.  0.
         12    1    1    2    0    0 -0.16272939582E+02  0.34743734635E+02  0.23604614754E+02  0.45045682332E+02  0.00000000000E+00 0. -1.
         11    1    3    3    0    0  0.78796981373E+01 -0.75485105678E+01 -0.67741786448E+01  0.12843642439E+02  0.51100000000E-03 0. -1.
        -11    1    3    3    0    0  0.85873253383E+01 -0.23384642972E+02 -0.14378954841E+02  0.28763484246E+02  0.51100000000E-03 0.  1.
        -12    1    3    3    0    0 -0.19408389337E+00 -0.38105810959E+01 -0.24514812680E+01  0.45351909832E+01  0.00000000000E+00 0.  1.
</event>
<event>
 7    1  0.1385632E-008  0.4614232E+02  0.7816164E-02  0.1320468E+00
        -11   -1    0    0    0    0  0.00000000000E+00  0.00000000000E+00  0.45593999997E+02  0.45594000000E+02  0.51100000000E-03 0.  1.
         11   -1    0    0    0    0 -0.00000000000E+00 -0.00000000000E+00 -0.45593999997E+02  0.45594000000E+02  0.51100000000E-03 0. -1.
    9900012    2    1    2    0    0  0.27017668232E+01  0.43800851115E+02 -0.10163634772E+02  0.46142316808E+02  0.99999913133E+01 0.  0.
         12    1    1    2    0    0 -0.27017668232E+01 -0.43800851115E+02  0.10163634772E+02  0.45045683192E+02  0.00000000000E+00 0. -1.
         11    1    3    3    0    0  0.39886905213E+01  0.30357415491E+02 -0.91627951630E+01  0.31959961558E+02  0.51100000000E-03 0. -1.
        -11    1    3    3    0    0 -0.24480913550E+01  0.10759736724E+02 -0.17279082674E+01  0.11169187656E+02  0.51100000000E-03 0.  1.
         12    1    3    3    0    0  0.11611676569E+01  0.26836989010E+01  0.72706865816E+00  0.30131675944E+01  0.00000000000E+00 0. -1.
</event>
<event>
 7    1  0.1385632E-008  0.4614232E+02  0.7816164E-02  0.1320468E+00
        -11   -1    0    0    0    0  0.00000000000E+00  0.00000000000E+00  0.45593999997E+02  0.45594000000E+02  0.51100000000E-03 0. -1.
         11   -1    0    0    0    0 -0.00000000000E+00 -0.00000000000E+00 -0.45593999997E+02  0.45594000000E+02  0.51100000000E-03 0.  1.
    9900012    2    1    2    0    0 -0.41794986958E+02  0.14782440846E+02  0.79857303576E+01  0.46142318946E+02  0.10000010809E+02 0.  0.
         12    1    1    2    0    0  0.41794986958E+02 -0.14782440846E+02 -0.79857303576E+01  0.45045681054E+02  0.00000000000E+00 0. -1.
         11    1    3    3    0    0 -0.98955671148E+01  0.64828167994E+01 -0.26229058128E+00  0.11832918439E+02  0.51100000000E-03 0. -1.
        -11    1    3    3    0    0 -0.23880051308E+02  0.54651395017E+01  0.40705139220E+01  0.24833318025E+02  0.51100000000E-03 0.  1.
         12    1    3    3    0    0 -0.80193685351E+01  0.28344845454E+01  0.41775070169E+01  0.94760824825E+01  0.00000000000E+00 0. -1.
</event>
<event>
 7    1  0.1385632E-008  0.4614232E+02  0.7816164E-02  0.1320468E+00
        -11   -1    0    0    0    0  0.00000000000E+00  0.00000000000E+00  0.45593999997E+02  0.45594000000E+02  0.51100000000E-03 0. -1.
         11   -1    0    0    0    0 -0.00000000000E+00 -0.00000000000E+00 -0.45593999997E+02  0.45594000000E+02  0.51100000000E-03 0.  1.
    9900012    2    1    2    0    0 -0.13398555344E+02 -0.34568862650E+02 -0.25584879461E+02  0.46142316442E+02  0.99999879694E+01 0.  0.
         12    1    1    2    0    0  0.13398555344E+02  0.34568862650E+02  0.25584879461E+02  0.45045683558E+02  0.00000000000E+00 0. -1.
         11    1    3    3    0    0 -0.43659923616E+01 -0.59791948797E+01 -0.96133951433E+01  0.12133838105E+02  0.51100000000E-03 0. -1.
        -11    1    3    3    0    0 -0.18370113672E+01 -0.72518951270E+01 -0.33833175280E+01  0.82104464832E+01  0.51100000000E-03 0.  1.
         12    1    3    3    0    0 -0.71955516147E+01 -0.21337772643E+02 -0.12588166790E+02  0.25798031854E+02  0.00000000000E+00 0. -1.
</event>
<event>
 7    1  0.1385632E-008  0.4614232E+02  0.7816164E-02  0.1320468E+00
        -11   -1    0    0    0    0  0.00000000000E+00  0.00000000000E+00  0.45593999997E+02  0.45594000000E+02  0.51100000000E-03 0.  1.
         11   -1    0    0    0    0 -0.00000000000E+00 -0.00000000000E+00 -0.45593999997E+02  0.45594000000E+02  0.51100000000E-03 0. -1.
    9900012    2    1    2    0    0 -0.94184836052E+01  0.69739077409E+01  0.43494484073E+02  0.46142319104E+02  0.10000012248E+02 0.  0.
         12    1    1    2    0    0  0.94184836052E+01 -0.69739077409E+01 -0.43494484073E+02  0.45045680896E+02  0.00000000000E+00 0. -1.
         11    1    3    3    0    0 -0.25547254543E+01 -0.97357740911E+00  0.17490966540E+02  0.17703343919E+02  0.51100000000E-03 0. -1.
        -11    1    3    3    0    0 -0.56349144091E+01  0.32555412716E+01  0.17163063696E+02  0.18355423314E+02  0.51100000000E-03 0.  1.
         12    1    3    3    0    0 -0.12288437418E+01  0.46919438785E+01  0.88404538368E+01  0.10083551871E+02  0.00000000000E+00 0. -1.
</event>
<event>
 7    1  0.1385632E-008  0.4614232E+02  0.7816164E-02  0.1320468E+00
        -11   -1    0    0    0    0  0.00000000000E+00  0.00000000000E+00  0.45593999997E+02  0.45594000000E+02  0.51100000000E-03 0. -1.
         11   -1    0    0    0    0 -0.00000000000E+00 -0.00000000000E+00 -0.45593999997E+02  0.45594000000E+02  0.51100000000E-03 0.  1.
    9900012    2    1    2    0    0 -0.30072672817E+02  0.33414503956E+02 -0.28668431035E+01  0.46142317473E+02  0.99999973704E+01 0.  0.
         12    1    1    2    0    0  0.30072672817E+02 -0.33414503956E+02  0.28668431035E+01  0.45045682527E+02  0.00000000000E+00 0. -1.
         11    1    3    3    0    0 -0.42606431696E+00  0.10138292648E+00 -0.79345284835E+00  0.90629850692E+00  0.51100000000E-03 0. -1.
        -11    1    3    3    0    0 -0.25449909885E+02  0.31554238564E+02 -0.27682965232E+01  0.40632885086E+02  0.51100000000E-03 0.  1.
        -12    1    3    3    0    0 -0.41966986155E+01  0.17588824650E+01  0.69490626807E+00  0.46031338799E+01  0.00000000000E+00 0.  1.
</event>
<event>
 7    1  0.1385632E-008  0.4614232E+02  0.7816164E-02  0.1320468E+00
        -11   -1    0    0    0    0  0.00000000000E+00  0.00000000000E+00  0.45593999997E+02  0.45594000000E+02  0.51100000000E-03 0.  1.
         11   -1    0    0    0    0 -0.00000000000E+00 -0.00000000000E+00 -0.45593999997E+02  0.45594000000E+02  0.51100000000E-03 0. -1.
    9900012    2    1    2    0    0  0.14892602556E+02 -0.23152675213E+02  0.35654978724E+02  0.46142317763E+02  0.10000000015E+02 0.  0.
         12    1    1    2    0    0 -0.14892602556E+02  0.23152675213E+02 -0.35654978724E+02  0.45045682237E+02  0.00000000000E+00 0. -1.
         11    1    3    3    0    0  0.66569407323E+01 -0.94180232147E+01  0.85096702164E+01  0.14332777422E+02  0.51100000000E-03 0. -1.
        -11    1    3    3    0    0  0.20788129658E+01 -0.23567717078E+01  0.26621431476E+01  0.41185971676E+01  0.51100000000E-03 0.  1.
         12    1    3    3    0    0  0.61568488578E+01 -0.11377880291E+02  0.24483165360E+02  0.27690943173E+02  0.00000000000E+00 0. -1.
</event>
<event>
 7    1  0.1385632E-008  0.4614232E+02  0.7816164E-02  0.1320468E+00
        -11   -1    0    0    0    0  0.00000000000E+00  0.00000000000E+00  0.45593999997E+02  0.45594000000E+02  0.51100000000E-03 0.  1.
         11   -1    0    0    0    0 -0.00000000000E+00 -0.00000000000E+00 -0.45593999997E+02  0.45594000000E+02  0.51100000000E-03 0. -1.
    9900012    2    1    2    0    0  0.40758544807E+02 -0.92848407192E+01  0.16782311361E+02  0.46142320778E+02  0.10000027508E+02 0.  0.
         12    1    1    2    0    0 -0.40758544807E+02  0.92848407192E+01 -0.16782311361E+02  0.45045679222E+02  0.00000000000E+00 0. -1.
         11    1    3    3    0    0  0.25649231943E+02 -0.42101325655E+01  0.11228015399E+02  0.28313894920E+02  0.51100000000E-03 0. -1.
        -11    1    3    3    0    0  0.26008401391E+01  0.11109636731E+01  0.18879928121E+01  0.34004597971E+01  0.51100000000E-03 0.  1.
         12    1    3    3    0    0  0.12508472725E+02 -0.61856718268E+01  0.36663031506E+01  0.14427966061E+02  0.00000000000E+00 0. -1.
</event>
<event>
 7    1  0.1385632E-008  0.4614232E+02  0.7816164E-02  0.1320468E+00
        -11   -1    0    0    0    0  0.00000000000E+00  0.00000000000E+00  0.45593999997E+02  0.45594000000E+02  0.51100000000E-03 0.  1.
         11   -1    0    0    0    0 -0.00000000000E+00 -0.00000000000E+00 -0.45593999997E+02  0.45594000000E+02  0.51100000000E-03 0. -1.
    9900012    2    1    2    0    0  0.32073000154E+02 -0.32213340061E+01  0.31465205801E+02  0.46142317546E+02  0.99999980349E+01 0.  0.
         12    1    1    2    0    0 -0.32073000154E+02  0.32213340061E+01 -0.31465205801E+02  0.45045682454E+02  0.00000000000E+00 0. -1.
         11    1    3    3    0    0  0.27032972278E+01  0.11767952003E+01  0.29869987004E+01  0.41970018278E+01  0.51100000000E-03 0. -1.
        -11    1    3    3    0    0  0.25997245822E+02 -0.14599726504E+01  0.22085431045E+02  0.34143148290E+02  0.51100000000E-03 0.  1.
        -12    1    3    3    0    0  0.33724571044E+01 -0.29381565560E+01  0.63927760555E+01  0.78021674273E+01  0.00000000000E+00 0.  1.
</event>
<event>
 7    1  0.1385632E-008  0.4614232E+02  0.7816164E-02  0.1320468E+00
        -11   -1    0    0    0    0  0.00000000000E+00  0.00000000000E+00  0.45593999997E+02  0.45594000000E+02  0.51100000000E-03 0.  1.
         11   -1    0    0    0    0 -0.00000000000E+00 -0.00000000000E+00 -0.45593999997E+02  0.45594000000E+02  0.51100000000E-03 0. -1.
    9900012    2    1    2    0    0  0.39580586980E+02 -0.22434587250E+01  0.21388255063E+02  0.46142318438E+02  0.10000006172E+02 0.  0.
         12    1    1    2    0    0 -0.39580586980E+02  0.22434587250E+01 -0.21388255063E+02  0.45045681562E+02  0.00000000000E+00 0. -1.
         11    1    3    3    0    0  0.67305365088E+01 -0.17182083784E+01  0.23579639469E+01  0.73356905580E+01  0.51100000000E-03 0. -1.
        -11    1    3    3    0    0  0.15253014811E+02 -0.24140870290E+01  0.12753760689E+02  0.20028496923E+02  0.51100000000E-03 0.  1.
        -12    1    3    3    0    0  0.17597035660E+02  0.18888366824E+01  0.62765304275E+01  0.18778130957E+02  0.00000000000E+00 0.  1.
</event>
<event>
 7    1  0.1385632E-008  0.4614232E+02  0.7816164E-02  0.1320468E+00
        -11   -1    0    0    0    0  0.00000000000E+00  0.00000000000E+00  0.45593999997E+02  0.45594000000E+02  0.51100000000E-03 0. -1.
         11   -1    0    0    0    0 -0.00000000000E+00 -0.00000000000E+00 -0.45593999997E+02  0.45594000000E+02  0.51100000000E-03 0.  1.
    9900012    2    1    2    0    0  0.67793249732E+01 -0.11171350803E+02 -0.43108643429E+02  0.46142318030E+02  0.10000002451E+02 0.  0.
         12    1    1    2    0    0 -0.67793249732E+01  0.11171350803E+02  0.43108643429E+02  0.45045681970E+02  0.00000000000E+00 0. -1.
         11    1    3    3    0    0  0.16188929190E+01 -0.36966068092E+01 -0.90476925536E+01  0.99068893700E+01  0.51100000000E-03 0. -1.
        -11    1    3    3    0    0  0.21811169249E+01 -0.87186847085E+01 -0.27338492861E+02  0.28777872163E+02  0.51100000000E-03 0.  1.
         12    1    3    3    0    0  0.29793151293E+01  0.12439407144E+01 -0.67224580147E+01  0.74575564966E+01  0.00000000000E+00 0. -1.
</event>
<event>
 7    1  0.1385632E-008  0.4614232E+02  0.7816164E-02  0.1320468E+00
        -11   -1    0    0    0    0  0.00000000000E+00  0.00000000000E+00  0.45593999997E+02  0.45594000000E+02  0.51100000000E-03 0. -1.
         11   -1    0    0    0    0 -0.00000000000E+00 -0.00000000000E+00 -0.45593999997E+02  0.45594000000E+02  0.51100000000E-03 0.  1.
    9900012    2    1    2    0    0  0.32997016407E+02 -0.10220244837E+01 -0.30647444703E+02  0.46142317713E+02  0.99999995654E+01 0.  0.
         12    1    1    2    0    0 -0.32997016407E+02  0.10220244837E+01  0.30647444703E+02  0.45045682287E+02  0.00000000000E+00 0. -1.
         11    1    3    3    0    0  0.85013050805E+01 -0.20884653011E+00 -0.26556421638E+01  0.89088854807E+01  0.51100000000E-03 0. -1.
        -11    1    3    3    0    0  0.18954577435E+02 -0.21298567716E+00 -0.20950821435E+02  0.28253465056E+02  0.51100000000E-03 0.  1.
         12    1    3    3    0    0  0.55411338923E+01 -0.60019227646E+00 -0.70409811045E+01  0.89799671767E+01  0.00000000000E+00 0. -1.
</event>
<event>
 7    1  0.1385632E-008  0.4614232E+02  0.7816164E-02  0.1320468E+00
        -11   -1    0    0    0    0  0.00000000000E+00  0.00000000000E+00  0.45593999997E+02  0.45594000000E+02  0.51100000000E-03 0.  1.
         11   -1    0    0    0    0 -0.00000000000E+00 -0.00000000000E+00 -0.45593999997E+02  0.45594000000E+02  0.51100000000E-03 0. -1.
    9900012    2    1    2    0    0 -0.86398886687E+01  0.40839553046E+02  0.16929173857E+02  0.46142315449E+02  0.99999789130E+01 0.  0.
         12    1    1    2    0    0  0.86398886687E+01 -0.40839553046E+02 -0.16929173857E+02  0.45045684551E+02  0.00000000000E+00 0. -1.
         11    1    3    3    0    0 -0.20032888643E+01  0.15026744993E+02  0.37405445142E+01  0.15614349326E+02  0.51100000000E-03 0.  1.
        -11    1    3    3    0    0  0.12953338628E+01  0.21233785659E+01  0.18125212277E+01  0.30776386748E+01  0.51100000000E-03 0. -1.
        -12    1    3    3    0    0 -0.79319336672E+01  0.23689429487E+02  0.11376108115E+02  0.27450327448E+02  0.00000000000E+00 0.  1.
</event>
<event>
 7    1  0.1385632E-008  0.4614232E+02  0.7816164E-02  0.1320468E+00
        -11   -1    0    0    0    0  0.00000000000E+00  0.00000000000E+00  0.45593999997E+02  0.45594000000E+02  0.51100000000E-03 0.  1.
         11   -1    0    0    0    0 -0.00000000000E+00 -0.00000000000E+00 -0.45593999997E+02  0.45594000000E+02  0.51100000000E-03 0. -1.
    9900012    2    1    2    0    0 -0.30775072065E+02 -0.24451037458E+02 -0.22003528164E+02  0.46142317132E+02  0.99999942638E+01 0.  0.
         12    1    1    2    0    0  0.30775072065E+02  0.24451037458E+02  0.22003528164E+02  0.45045682868E+02  0.00000000000E+00 0. -1.
         11    1    3    3    0    0 -0.34810591620E+01 -0.45889916212E+01 -0.37094679901E+01  0.68510415281E+01  0.51100000000E-03 0. -1.
        -11    1    3    3    0    0 -0.21572518623E+02 -0.15550390269E+02 -0.10200084251E+02  0.28482098171E+02  0.51100000000E-03 0.  1.
        -12    1    3    3    0    0 -0.57214942797E+01 -0.43116555683E+01 -0.80939759225E+01  0.10809177432E+02  0.00000000000E+00 0.  1.
</event>
<event>
 7    1  0.1385632E-008  0.4614232E+02  0.7816164E-02  0.1320468E+00
        -11   -1    0    0    0    0  0.00000000000E+00  0.00000000000E+00  0.45593999997E+02  0.45594000000E+02  0.51100000000E-03 0.  1.
         11   -1    0    0    0    0 -0.00000000000E+00 -0.00000000000E+00 -0.45593999997E+02  0.45594000000E+02  0.51100000000E-03 0. -1.
    9900012    2    1    2    0    0  0.17526301173E+02 -0.90037075569E+00  0.41486523045E+02  0.46142317691E+02  0.99999993597E+01 0.  0.
         12    1    1    2    0    0 -0.17526301173E+02  0.90037075569E+00 -0.41486523045E+02  0.45045682309E+02  0.00000000000E+00 0. -1.
         11    1    3    3    0    0  0.48814306598E+01 -0.16949895093E+01  0.79806879714E+01  0.95075094258E+01  0.51100000000E-03 0. -1.
        -11    1    3    3    0    0  0.11707704956E+02  0.64273332154E+00  0.33686120977E+02  0.35668448357E+02  0.51100000000E-03 0.  1.
        -12    1    3    3    0    0  0.93716555644E+00  0.15188543211E+00 -0.18028590307E+00  0.96635990785E+00  0.00000000000E+00 0.  1.
</event>
<event>
 7    1  0.1385632E-008  0.4614232E+02  0.7816164E-02  0.1320468E+00
        -11   -1    0    0    0    0  0.00000000000E+00  0.00000000000E+00  0.45593999997E+02  0.45594000000E+02  0.51100000000E-03 0. -1.
         11   -1    0    0    0    0 -0.00000000000E+00 -0.00000000000E+00 -0.45593999997E+02  0.45594000000E+02  0.51100000000E-03 0.  1.
    9900012    2    1    2    0    0 -0.26359767396E+02  0.36089772949E+02  0.56395449030E+01  0.46142317461E+02  0.99999972646E+01 0.  0.
         12    1    1    2    0    0  0.26359767396E+02 -0.36089772949E+02 -0.56395449030E+01  0.45045682539E+02  0.00000000000E+00 0. -1.
         11    1    3    3    0    0 -0.67388496809E+01  0.10096300403E+02  0.30838172549E+01  0.12524268680E+02  0.51100000000E-03 0. -1.
        -11    1    3    3    0    0 -0.11188109792E+02  0.14592475293E+02 -0.25125627870E+01  0.18558747477E+02  0.51100000000E-03 0.  1.
        -12    1    3    3    0    0 -0.84328079229E+01  0.11400997253E+02  0.50682904351E+01  0.15059301304E+02  0.00000000000E+00 0.  1.
</event>
<event>
 7    1  0.1385632E-008  0.4614232E+02  0.7816164E-02  0.1320468E+00
        -11   -1    0    0    0    0  0.00000000000E+00  0.00000000000E+00  0.45593999997E+02  0.45594000000E+02  0.51100000000E-03 0.  1.
         11   -1    0    0    0    0 -0.00000000000E+00 -0.00000000000E+00 -0.45593999997E+02  0.45594000000E+02  0.51100000000E-03 0. -1.
    9900012    2    1    2    0    0 -0.40447533662E+02  0.15809618940E+02  0.11965209818E+02  0.46142320114E+02  0.10000021458E+02 0.  0.
         12    1    1    2    0    0  0.40447533662E+02 -0.15809618940E+02 -0.11965209818E+02  0.45045679886E+02  0.00000000000E+00 0. -1.
         11    1    3    3    0    0 -0.85778841956E+01  0.18083239549E+01  0.20042166142E+01  0.89926090372E+01  0.51100000000E-03 0. -1.
        -11    1    3    3    0    0 -0.42095779457E+00  0.21253336839E+01  0.43688064398E+00  0.22102293300E+01  0.51100000000E-03 0.  1.
        -12    1    3    3    0    0 -0.31448691672E+02  0.11875961301E+02  0.95241125601E+01  0.34939481747E+02  0.00000000000E+00 0.  1.
</event>
<event>
 7    1  0.1385632E-008  0.4614232E+02  0.7816164E-02  0.1320468E+00
        -11   -1    0    0    0    0  0.00000000000E+00  0.00000000000E+00  0.45593999997E+02  0.45594000000E+02  0.51100000000E-03 0. -1.
         11   -1    0    0    0    0 -0.00000000000E+00 -0.00000000000E+00 -0.45593999997E+02  0.45594000000E+02  0.51100000000E-03 0.  1.
    9900012    2    1    2    0    0 -0.18254204538E+02 -0.36797871486E+02 -0.18488219197E+02  0.46142316763E+02  0.99999909013E+01 0.  0.
         12    1    1    2    0    0  0.18254204538E+02  0.36797871486E+02  0.18488219197E+02  0.45045683237E+02  0.00000000000E+00 0. -1.
         11    1    3    3    0    0 -0.36257346070E+00  0.42083315543E+00 -0.75157977635E+00  0.93457609666E+00  0.51100000000E-03 0. -1.
        -11    1    3    3    0    0 -0.14613946436E+02 -0.26358072655E+02 -0.14266699661E+02  0.33344476964E+02  0.51100000000E-03 0.  1.
         12    1    3    3    0    0 -0.32776846408E+01 -0.10860631986E+02 -0.34699397597E+01  0.11863263702E+02  0.00000000000E+00 0. -1.
</event>
<event>
 7    1  0.1385632E-008  0.4614232E+02  0.7816164E-02  0.1320468E+00
        -11   -1    0    0    0    0  0.00000000000E+00  0.00000000000E+00  0.45593999997E+02  0.45594000000E+02  0.51100000000E-03 0. -1.
         11   -1    0    0    0    0 -0.00000000000E+00 -0.00000000000E+00 -0.45593999997E+02  0.45594000000E+02  0.51100000000E-03 0.  1.
    9900012    2    1    2    0    0  0.21914851939E+02 -0.38768804653E+02 -0.67699731954E+01  0.46142317778E+02  0.10000000156E+02 0.  0.
         12    1    1    2    0    0 -0.21914851939E+02  0.38768804653E+02  0.67699731954E+01  0.45045682222E+02  0.00000000000E+00 0. -1.
         11    1    3    3    0    0  0.22723918976E+01 -0.41173483991E+01  0.97141082468E+00  0.48020789276E+01  0.51100000000E-03 0. -1.
        -11    1    3    3    0    0  0.82523963520E+01 -0.78171795092E+01 -0.34181068903E+01  0.11869869250E+02  0.51100000000E-03 0.  1.
        -12    1    3    3    0    0  0.11390063690E+02 -0.26834276745E+02 -0.43232771297E+01  0.29470369601E+02  0.00000000000E+00 0.  1.
</event>
<event>
 7    1  0.1385632E-008  0.4614232E+02  0.7816164E-02  0.1320468E+00
        -11   -1    0    0    0    0  0.00000000000E+00  0.00000000000E+00  0.45593999997E+02  0.45594000000E+02  0.51100000000E-03 0.  1.
         11   -1    0    0    0    0 -0.00000000000E+00 -0.00000000000E+00 -0.45593999997E+02  0.45594000000E+02  0.51100000000E-03 0. -1.
    9900012    2    1    2    0    0 -0.34365537269E+02  0.14546566449E+02  0.25229362335E+02  0.46142317953E+02  0.10000001751E+02 0.  0.
         12    1    1    2    0    0  0.34365537269E+02 -0.14546566449E+02 -0.25229362335E+02  0.45045682047E+02  0.00000000000E+00 0. -1.
         11    1    3    3    0    0 -0.41706360528E+01 -0.22656871460E+00  0.53324121318E+00  0.42106869890E+01  0.51100000000E-03 0. -1.
        -11    1    3    3    0    0 -0.12872511755E+02  0.86755395338E+01  0.11249128905E+02  0.19170535894E+02  0.51100000000E-03 0.  1.
        -12    1    3    3    0    0 -0.17322389461E+02  0.60975956302E+01  0.13446992217E+02  0.22761095070E+02  0.00000000000E+00 0.  1.
</event>
<event>
 7    1  0.1385632E-008  0.4614232E+02  0.7816164E-02  0.1320468E+00
        -11   -1    0    0    0    0  0.00000000000E+00  0.00000000000E+00  0.45593999997E+02  0.45594000000E+02  0.51100000000E-03 0.  1.
         11   -1    0    0    0    0 -0.00000000000E+00 -0.00000000000E+00 -0.45593999997E+02  0.45594000000E+02  0.51100000000E-03 0. -1.
    9900012    2    1    2    0    0  0.40547401223E+01 -0.43085806378E+02  0.12501436051E+02  0.46142317276E+02  0.99999955778E+01 0.  0.
         12    1    1    2    0    0 -0.40547401223E+01  0.43085806378E+02 -0.12501436051E+02  0.45045682724E+02  0.00000000000E+00 0. -1.
         11    1    3    3    0    0  0.36029288244E+00 -0.38284739907E+01  0.34499289280E+01  0.51661430417E+01  0.51100000000E-03 0. -1.
        -11    1    3    3    0    0 -0.17915005157E+01 -0.13927634052E+02  0.28844163892E+01  0.14335561467E+02  0.51100000000E-03 0.  1.
         12    1    3    3    0    0  0.54859477556E+01 -0.25329698335E+02  0.61670907338E+01  0.26640612768E+02  0.00000000000E+00 0. -1.
</event>
<event>
 7    1  0.1385632E-008  0.4614232E+02  0.7816164E-02  0.1320468E+00
        -11   -1    0    0    0    0  0.00000000000E+00  0.00000000000E+00  0.45593999997E+02  0.45594000000E+02  0.51100000000E-03 0. -1.
         11   -1    0    0    0    0 -0.00000000000E+00 -0.00000000000E+00 -0.45593999997E+02  0.45594000000E+02  0.51100000000E-03 0.  1.
    9900012    2    1    2    0    0 -0.33914697058E+02  0.12418013720E+02 -0.26920248599E+02  0.46142317344E+02  0.99999961970E+01 0.  0.
         12    1    1    2    0    0  0.33914697058E+02 -0.12418013720E+02  0.26920248599E+02  0.45045682656E+02  0.00000000000E+00 0. -1.
         11    1    3    3    0    0 -0.42575607258E+00  0.10890079896E+01 -0.29436370066E+01  0.31673657387E+01  0.51100000000E-03 0. -1.
        -11    1    3    3    0    0 -0.22090521000E+02  0.84755512870E+01 -0.18375699987E+02  0.29958178148E+02  0.51100000000E-03 0.  1.
        -12    1    3    3    0    0 -0.11398419985E+02  0.28534544435E+01 -0.56009116052E+01  0.13016773457E+02  0.00000000000E+00 0.  1.
</event>
<event>
 7    1  0.1385632E-008  0.4614232E+02  0.7816164E-02  0.1320468E+00
        -11   -1    0    0    0    0  0.00000000000E+00  0.00000000000E+00  0.45593999997E+02  0.45594000000E+02  0.51100000000E-03 0.  1.
         11   -1    0    0    0    0 -0.00000000000E+00 -0.00000000000E+00 -0.45593999997E+02  0.45594000000E+02  0.51100000000E-03 0. -1.
    9900012    2    1    2    0    0  0.34042077007E+02  0.28217900847E+02 -0.86023303586E+01  0.46142322929E+02  0.10000047125E+02 0.  0.
         12    1    1    2    0    0 -0.34042077007E+02 -0.28217900847E+02  0.86023303586E+01  0.45045677071E+02  0.00000000000E+00 0. -1.
         11    1    3    3    0    0  0.18411586588E+02  0.16625284474E+02 -0.92189743174E+00  0.24824111256E+02  0.51100000000E-03 0. -1.
        -11    1    3    3    0    0  0.19692326346E+01  0.31188300412E+01 -0.23858178842E+01  0.43928470532E+01  0.51100000000E-03 0.  1.
        -12    1    3    3    0    0  0.13661257785E+02  0.84737863322E+01 -0.52946150427E+01  0.16925364620E+02  0.00000000000E+00 0.  1.
</event>
<event>
 7    1  0.1385632E-008  0.4614232E+02  0.7816164E-02  0.1320468E+00
        -11   -1    0    0    0    0  0.00000000000E+00  0.00000000000E+00  0.45593999997E+02  0.45594000000E+02  0.51100000000E-03 0. -1.
         11   -1    0    0    0    0 -0.00000000000E+00 -0.00000000000E+00 -0.45593999997E+02  0.45594000000E+02  0.51100000000E-03 0.  1.
    9900012    2    1    2    0    0  0.28712649277E+02 -0.34535878349E+02 -0.34597555157E+01  0.46142322848E+02  0.10000046384E+02 0.  0.
         12    1    1    2    0    0 -0.28712649277E+02  0.34535878349E+02  0.34597555157E+01  0.45045677152E+02  0.00000000000E+00 0. -1.
         11    1    3    3    0    0  0.59232101562E+00  0.46375225271E+00 -0.55053913755E+00  0.93220380848E+00  0.51100000000E-03 0. -1.
        -11    1    3    3    0    0  0.13688209114E+02 -0.20242476739E+02 -0.63967318423E+00  0.24444510945E+02  0.51100000000E-03 0.  1.
         12    1    3    3    0    0  0.14432119148E+02 -0.14757153863E+02 -0.22695431940E+01  0.20765608094E+02  0.00000000000E+00 0. -1.
</event>
<event>
 7    1  0.1385632E-008  0.4614232E+02  0.7816164E-02  0.1320468E+00
        -11   -1    0    0    0    0  0.00000000000E+00  0.00000000000E+00  0.45593999997E+02  0.45594000000E+02  0.51100000000E-03 0.  1.
         11   -1    0    0    0    0 -0.00000000000E+00 -0.00000000000E+00 -0.45593999997E+02  0.45594000000E+02  0.51100000000E-03 0. -1.
    9900012    2    1    2    0    0  0.18170620223E+02 -0.27173209744E+02  0.30992881645E+02  0.46142317857E+02  0.10000000876E+02 0.  0.
         12    1    1    2    0    0 -0.18170620223E+02  0.27173209744E+02 -0.30992881645E+02  0.45045682143E+02  0.00000000000E+00 0. -1.
         11    1    3    3    0    0  0.11593315507E+02 -0.13713113124E+02  0.11790340505E+02  0.21481772867E+02  0.51100000000E-03 0. -1.
        -11    1    3    3    0    0  0.52092112324E+00 -0.24449696401E+01  0.13933919623E+01  0.28619533154E+01  0.51100000000E-03 0.  1.
         12    1    3    3    0    0  0.60563835924E+01 -0.11015126979E+02  0.17809149177E+02  0.21798591675E+02  0.00000000000E+00 0. -1.
</event>
<event>
 7    1  0.1385632E-008  0.4614231E+02  0.7816164E-02  0.1320468E+00
        -11   -1    0    0    0    0  0.00000000000E+00  0.00000000000E+00  0.45593999997E+02  0.45594000000E+02  0.51100000000E-03 0.  1.
         11   -1    0    0    0    0 -0.00000000000E+00 -0.00000000000E+00 -0.45593999997E+02  0.45594000000E+02  0.51100000000E-03 0. -1.
    9900012    2    1    2    0    0 -0.22397340874E+02  0.48415265081E+01  0.38781867867E+02  0.46142306172E+02  0.99998943213E+01 0.  0.
         12    1    1    2    0    0  0.22397340874E+02 -0.48415265081E+01 -0.38781867867E+02  0.45045693828E+02  0.00000000000E+00 0. -1.
         11    1    3    3    0    0 -0.10412118401E+01  0.21204444849E+01  0.16169077801E+01  0.28626557495E+01  0.51100000000E-03 0. -1.
        -11    1    3    3    0    0 -0.10773444812E+02  0.32498429939E+01  0.15408144123E+02  0.19079819134E+02  0.51100000000E-03 0.  1.
        -12    1    3    3    0    0 -0.10582684222E+02 -0.52876097074E+00  0.21756815964E+02  0.24199831289E+02  0.00000000000E+00 0.  1.
</event>
<event>
 7    1  0.1385632E-008  0.4614232E+02  0.7816164E-02  0.1320468E+00
        -11   -1    0    0    0    0  0.00000000000E+00  0.00000000000E+00  0.45593999997E+02  0.45594000000E+02  0.51100000000E-03 0. -1.
         11   -1    0    0    0    0 -0.00000000000E+00 -0.00000000000E+00 -0.45593999997E+02  0.45594000000E+02  0.51100000000E-03 0.  1.
    9900012    2    1    2    0    0 -0.11733998814E+02 -0.23191118765E+02 -0.36791286205E+02  0.46142318094E+02  0.10000003037E+02 0.  0.
         12    1    1    2    0    0  0.11733998814E+02  0.23191118765E+02  0.36791286205E+02  0.45045681906E+02  0.00000000000E+00 0. -1.
         11    1    3    3    0    0  0.11455363768E+01 -0.45546031668E+01 -0.71394741895E+01  0.85456863716E+01  0.51100000000E-03 0. -1.
        -11    1    3    3    0    0 -0.12444954876E+02 -0.16032088910E+02 -0.27567790495E+02  0.34232847526E+02  0.51100000000E-03 0.  1.
        -12    1    3    3    0    0 -0.43458031516E+00 -0.26044266885E+01 -0.20840215202E+01  0.33637841969E+01  0.00000000000E+00 0.  1.
</event>
<event>
 7    1  0.1385632E-008  0.4614232E+02  0.7816164E-02  0.1320468E+00
        -11   -1    0    0    0    0  0.00000000000E+00  0.00000000000E+00  0.45593999997E+02  0.45594000000E+02  0.51100000000E-03 0.  1.
         11   -1    0    0    0    0 -0.00000000000E+00 -0.00000000000E+00 -0.45593999997E+02  0.45594000000E+02  0.51100000000E-03 0. -1.
    9900012    2    1    2    0    0 -0.12309079278E+02  0.31603227190E+01  0.43215881791E+02  0.46142317507E+02  0.99999976791E+01 0.  0.
         12    1    1    2    0    0  0.12309079278E+02 -0.31603227190E+01 -0.43215881791E+02  0.45045682493E+02  0.00000000000E+00 0. -1.
         11    1    3    3    0    0 -0.47847474416E+01 -0.28193500326E-01  0.56391447746E+01  0.73955768540E+01  0.51100000000E-03 0. -1.
        -11    1    3    3    0    0 -0.35493202781E+00  0.16594871759E+01  0.12684847085E+02  0.12797859987E+02  0.51100000000E-03 0.  1.
         12    1    3    3    0    0 -0.71693998084E+01  0.15290290434E+01  0.24891889931E+02  0.25948880665E+02  0.00000000000E+00 0. -1.
</event>
<event>
 7    1  0.1385632E-008  0.4614232E+02  0.7816164E-02  0.1320468E+00
        -11   -1    0    0    0    0  0.00000000000E+00  0.00000000000E+00  0.45593999997E+02  0.45594000000E+02  0.51100000000E-03 0.  1.
         11   -1    0    0    0    0 -0.00000000000E+00 -0.00000000000E+00 -0.45593999997E+02  0.45594000000E+02  0.51100000000E-03 0. -1.
    9900012    2    1    2    0    0  0.35712889559E+02  0.18863683265E+02  0.19946541173E+02  0.46142317280E+02  0.99999956102E+01 0.  0.
         12    1    1    2    0    0 -0.35712889559E+02 -0.18863683265E+02 -0.19946541173E+02  0.45045682720E+02  0.00000000000E+00 0. -1.
         11    1    3    3    0    0  0.19973022682E+01  0.20583940544E+01  0.29794506203E+01  0.41356170874E+01  0.51100000000E-03 0. -1.
        -11    1    3    3    0    0  0.33828744535E+02  0.15662181585E+02  0.16491999781E+02  0.40763635091E+02  0.51100000000E-03 0.  1.
        -12    1    3    3    0    0 -0.11315724355E+00  0.11431076256E+01  0.47509077115E+00  0.12430651014E+01  0.00000000000E+00 0.  1.
</event>
<event>
 7    1  0.1385632E-008  0.4614232E+02  0.7816164E-02  0.1320468E+00
        -11   -1    0    0    0    0  0.00000000000E+00  0.00000000000E+00  0.45593999997E+02  0.45594000000E+02  0.51100000000E-03 0.  1.
         11   -1    0    0    0    0 -0.00000000000E+00 -0.00000000000E+00 -0.45593999997E+02  0.45594000000E+02  0.51100000000E-03 0. -1.
    9900012    2    1    2    0    0 -0.30330590906E+01  0.32392377570E+02  0.31155222917E+02  0.46142317775E+02  0.10000000125E+02 0.  0.
         12    1    1    2    0    0  0.30330590906E+01 -0.32392377570E+02 -0.31155222917E+02  0.45045682225E+02  0.00000000000E+00 0. -1.
         11    1    3    3    0    0 -0.17060757102E+01  0.89170593969E+01  0.13571454062E+02  0.16328166102E+02  0.51100000000E-03 0. -1.
        -11    1    3    3    0    0  0.17514353199E+01  0.10988225352E+02  0.68840543988E+01  0.13084296973E+02  0.51100000000E-03 0.  1.
         12    1    3    3    0    0 -0.30784187003E+01  0.12487092822E+02  0.10699714456E+02  0.16729854700E+02  0.00000000000E+00 0. -1.
</event>
<event>
 7    1  0.1385632E-008  0.4614231E+02  0.7816164E-02  0.1320468E+00
        -11   -1    0    0    0    0  0.00000000000E+00  0.00000000000E+00  0.45593999997E+02  0.45594000000E+02  0.51100000000E-03 0.  1.
         11   -1    0    0    0    0 -0.00000000000E+00 -0.00000000000E+00 -0.45593999997E+02  0.45594000000E+02  0.51100000000E-03 0. -1.
    9900012    2    1    2    0    0  0.10435583383E+02 -0.13330603198E+02  0.41743353432E+02  0.46142312771E+02  0.99999544956E+01 0.  0.
         12    1    1    2    0    0 -0.10435583383E+02  0.13330603198E+02 -0.41743353432E+02  0.45045687229E+02  0.00000000000E+00 0. -1.
         11    1    3    3    0    0  0.39559362982E+01 -0.14322832546E+01  0.58781248536E+01  0.72286388326E+01  0.51100000000E-03 0. -1.
        -11    1    3    3    0    0  0.43958063302E+01 -0.11937052731E+02  0.33029471346E+02  0.35394382589E+02  0.51100000000E-03 0.  1.
        -12    1    3    3    0    0  0.20838407547E+01  0.38732787446E-01  0.28357572326E+01  0.35192913494E+01  0.00000000000E+00 0.  1.
</event>
<event>
 7    1  0.1385632E-008  0.4614232E+02  0.7816164E-02  0.1320468E+00
        -11   -1    0    0    0    0  0.00000000000E+00  0.00000000000E+00  0.45593999997E+02  0.45594000000E+02  0.51100000000E-03 0.  1.
         11   -1    0    0    0    0 -0.00000000000E+00 -0.00000000000E+00 -0.45593999997E+02  0.45594000000E+02  0.51100000000E-03 0. -1.
    9900012    2    1    2    0    0 -0.35999286278E+01  0.39501171170E+02 -0.21349742416E+02  0.46142317508E+02  0.99999976944E+01 0.  0.
         12    1    1    2    0    0  0.35999286278E+01 -0.39501171170E+02  0.21349742416E+02  0.45045682492E+02  0.00000000000E+00 0. -1.
         11    1    3    3    0    0 -0.15081959420E+01  0.17910844255E+01  0.11573994301E+00  0.23443622618E+01  0.51100000000E-03 0. -1.
        -11    1    3    3    0    0 -0.40096955723E+01  0.26752482326E+02 -0.15025480335E+02  0.30944111374E+02  0.51100000000E-03 0.  1.
         12    1    3    3    0    0  0.19179628864E+01  0.10957604418E+02 -0.64400020244E+01  0.12853843872E+02  0.00000000000E+00 0. -1.
</event>
<event>
 7    1  0.1385632E-008  0.4614232E+02  0.7816164E-02  0.1320468E+00
        -11   -1    0    0    0    0  0.00000000000E+00  0.00000000000E+00  0.45593999997E+02  0.45594000000E+02  0.51100000000E-03 0.  1.
         11   -1    0    0    0    0 -0.00000000000E+00 -0.00000000000E+00 -0.45593999997E+02  0.45594000000E+02  0.51100000000E-03 0. -1.
    9900012    2    1    2    0    0  0.20208681811E+02  0.33902723649E+02  0.21710090993E+02  0.46142317163E+02  0.99999945456E+01 0.  0.
         12    1    1    2    0    0 -0.20208681811E+02 -0.33902723649E+02 -0.21710090993E+02  0.45045682837E+02  0.00000000000E+00 0. -1.
         11    1    3    3    0    0  0.69152403725E+00  0.21523604869E+01 -0.73428889648E-01  0.22619136196E+01  0.51100000000E-03 0. -1.
        -11    1    3    3    0    0  0.52495358053E+01  0.12160967561E+02  0.40511206935E+01  0.13851293706E+02  0.51100000000E-03 0.  1.
        -12    1    3    3    0    0  0.14267621968E+02  0.19589395601E+02  0.17732399189E+02  0.30029109838E+02  0.00000000000E+00 0.  1.
</event>
<event>
 7    1  0.1385632E-008  0.4614232E+02  0.7816164E-02  0.1320468E+00
        -11   -1    0    0    0    0  0.00000000000E+00  0.00000000000E+00  0.45593999997E+02  0.45594000000E+02  0.51100000000E-03 0.  1.
         11   -1    0    0    0    0 -0.00000000000E+00 -0.00000000000E+00 -0.45593999997E+02  0.45594000000E+02  0.51100000000E-03 0. -1.
    9900012    2    1    2    0    0  0.18614922155E+01 -0.16145163223E+02  0.42011689831E+02  0.46142317285E+02  0.99999956602E+01 0.  0.
         12    1    1    2    0    0 -0.18614922155E+01  0.16145163223E+02 -0.42011689831E+02  0.45045682715E+02  0.00000000000E+00 0. -1.
         11    1    3    3    0    0 -0.10654300573E+01 -0.10352190865E+00  0.35024083194E+01  0.36623383636E+01  0.51100000000E-03 0. -1.
        -11    1    3    3    0    0 -0.23166920148E+01 -0.77513186585E+01  0.16125908610E+02  0.18041478088E+02  0.51100000000E-03 0.  1.
        -12    1    3    3    0    0  0.52436142876E+01 -0.82903226560E+01  0.22383372902E+02  0.24438500833E+02  0.00000000000E+00 0.  1.
</event>
<event>
 7    1  0.1385632E-008  0.4614232E+02  0.7816164E-02  0.1320468E+00
        -11   -1    0    0    0    0  0.00000000000E+00  0.00000000000E+00  0.45593999997E+02  0.45594000000E+02  0.51100000000E-03 0.  1.
         11   -1    0    0    0    0 -0.00000000000E+00 -0.00000000000E+00 -0.45593999997E+02  0.45594000000E+02  0.51100000000E-03 0. -1.
    9900012    2    1    2    0    0  0.15568932388E+01  0.33670295902E+02  0.29883117592E+02  0.46142318079E+02  0.10000002899E+02 0.  0.
         12    1    1    2    0    0 -0.15568932388E+01 -0.33670295902E+02 -0.29883117592E+02  0.45045681921E+02  0.00000000000E+00 0. -1.
         11    1    3    3    0    0  0.10835050333E+01  0.11120865178E+00  0.49999836413E+00  0.11984778458E+01  0.51100000000E-03 0. -1.
        -11    1    3    3    0    0  0.24603281031E+01  0.22911303275E+02  0.18086545737E+02  0.29293415115E+02  0.51100000000E-03 0.  1.
        -12    1    3    3    0    0 -0.19869398977E+01  0.10647783975E+02  0.11296573491E+02  0.15650425118E+02  0.00000000000E+00 0.  1.
</event>
<event>
 7    1  0.1385632E-008  0.4614232E+02  0.7816164E-02  0.1320468E+00
        -11   -1    0    0    0    0  0.00000000000E+00  0.00000000000E+00  0.45593999997E+02  0.45594000000E+02  0.51100000000E-03 0.  1.
         11   -1    0    0    0    0 -0.00000000000E+00 -0.00000000000E+00 -0.45593999997E+02  0.45594000000E+02  0.51100000000E-03 0. -1.
    9900012    2    1    2    0    0  0.19507453725E+02  0.62158655414E+01  0.40124004011E+02  0.46142318374E+02  0.10000005586E+02 0.  0.
         12    1    1    2    0    0 -0.19507453725E+02 -0.62158655414E+01 -0.40124004011E+02  0.45045681626E+02  0.00000000000E+00 0. -1.
         11    1    3    3    0    0  0.52852547409E+01 -0.47884497957E+00  0.57105033066E+01  0.77957076950E+01  0.51100000000E-03 0. -1.
        -11    1    3    3    0    0  0.89184329423E+01  0.46019402969E+01  0.28106126306E+02  0.29844105563E+02  0.51100000000E-03 0.  1.
        -12    1    3    3    0    0  0.53037660423E+01  0.20927702240E+01  0.63073743983E+01  0.85025051157E+01  0.00000000000E+00 0.  1.
</event>
<event>
 7    1  0.1385632E-008  0.4614232E+02  0.7816164E-02  0.1320468E+00
        -11   -1    0    0    0    0  0.00000000000E+00  0.00000000000E+00  0.45593999997E+02  0.45594000000E+02  0.51100000000E-03 0. -1.
         11   -1    0    0    0    0 -0.00000000000E+00 -0.00000000000E+00 -0.45593999997E+02  0.45594000000E+02  0.51100000000E-03 0.  1.
    9900012    2    1    2    0    0  0.23256553237E+02 -0.10680403940E+02 -0.37069867267E+02  0.46142319231E+02  0.10000013404E+02 0.  0.
         12    1    1    2    0    0 -0.23256553237E+02  0.10680403940E+02  0.37069867267E+02  0.45045680769E+02  0.00000000000E+00 0. -1.
         11    1    3    3    0    0  0.46026527542E+01 -0.41101390742E-01 -0.65175948214E+01  0.79790440666E+01  0.51100000000E-03 0. -1.
        -11    1    3    3    0    0  0.19049102459E+02 -0.10185190684E+02 -0.30705171907E+02  0.37542162909E+02  0.51100000000E-03 0.  1.
        -12    1    3    3    0    0 -0.39520197625E+00 -0.45411186589E+00  0.15289946201E+00  0.62111225576E+00  0.00000000000E+00 0.  1.
</event>
<event>
 7    1  0.1385632E-008  0.4614232E+02  0.7816164E-02  0.1320468E+00
        -11   -1    0    0    0    0  0.00000000000E+00  0.00000000000E+00  0.45593999997E+02  0.45594000000E+02  0.51100000000E-03 0. -1.
         11   -1    0    0    0    0 -0.00000000000E+00 -0.00000000000E+00 -0.45593999997E+02  0.45594000000E+02  0.51100000000E-03 0.  1.
    9900012    2    1    2    0    0 -0.13490024808E+02  0.19958002482E+02 -0.38063248283E+02  0.46142317607E+02  0.99999985963E+01 0.  0.
         12    1    1    2    0    0  0.13490024808E+02 -0.19958002482E+02  0.38063248283E+02  0.45045682393E+02  0.00000000000E+00 0. -1.
         11    1    3    3    0    0 -0.35727931119E+01  0.69105811464E+01 -0.50981911052E+01  0.93012114914E+01  0.51100000000E-03 0. -1.
        -11    1    3    3    0    0 -0.57069577749E+01  0.70689555146E+01 -0.16802108827E+02  0.19101056526E+02  0.51100000000E-03 0.  1.
         12    1    3    3    0    0 -0.42102739207E+01  0.59784658214E+01 -0.16162948350E+02  0.17740049590E+02  0.00000000000E+00 0. -1.
</event>
<event>
 7    1  0.1385632E-008  0.4614232E+02  0.7816164E-02  0.1320468E+00
        -11   -1    0    0    0    0  0.00000000000E+00  0.00000000000E+00  0.45593999997E+02  0.45594000000E+02  0.51100000000E-03 0.  1.
         11   -1    0    0    0    0 -0.00000000000E+00 -0.00000000000E+00 -0.45593999997E+02  0.45594000000E+02  0.51100000000E-03 0. -1.
    9900012    2    1    2    0    0 -0.76903140717E+01 -0.29213950428E+02  0.33414332432E+02  0.46142318276E+02  0.10000004698E+02 0.  0.
         12    1    1    2    0    0  0.76903140717E+01  0.29213950428E+02 -0.33414332432E+02  0.45045681724E+02  0.00000000000E+00 0. -1.
         11    1    3    3    0    0 -0.55633129746E+01 -0.20853171312E+02  0.22222597885E+02  0.30978203016E+02  0.51100000000E-03 0. -1.
        -11    1    3    3    0    0  0.25495930964E+00 -0.76393220377E+01  0.92995156218E+01  0.12037659096E+02  0.51100000000E-03 0.  1.
         12    1    3    3    0    0 -0.23819604067E+01 -0.72145707744E+00  0.18922189244E+01  0.31264561649E+01  0.00000000000E+00 0. -1.
</event>
<event>
 7    1  0.1385632E-008  0.4614232E+02  0.7816164E-02  0.1320468E+00
        -11   -1    0    0    0    0  0.00000000000E+00  0.00000000000E+00  0.45593999997E+02  0.45594000000E+02  0.51100000000E-03 0. -1.
         11   -1    0    0    0    0 -0.00000000000E+00 -0.00000000000E+00 -0.45593999997E+02  0.45594000000E+02  0.51100000000E-03 0.  1.
    9900012    2    1    2    0    0  0.42681217354E+02  0.10472908606E+02  0.98866213305E+01  0.46142318622E+02  0.10000007849E+02 0.  0.
         12    1    1    2    0    0 -0.42681217354E+02 -0.10472908606E+02 -0.98866213305E+01  0.45045681378E+02  0.00000000000E+00 0. -1.
         11    1    3    3    0    0  0.11087690326E+02  0.54846835105E+01  0.48537368080E+01  0.13288242594E+02  0.51100000000E-03 0. -1.
        -11    1    3    3    0    0  0.25041974878E+02  0.60191974672E+01  0.30700996705E+01  0.25937554939E+02  0.51100000000E-03 0.  1.
         12    1    3    3    0    0  0.65515521499E+01 -0.10309723717E+01  0.19627848520E+01  0.69165210894E+01  0.00000000000E+00 0. -1.
</event>
<event>
 7    1  0.1385632E-008  0.4614232E+02  0.7816164E-02  0.1320468E+00
        -11   -1    0    0    0    0  0.00000000000E+00  0.00000000000E+00  0.45593999997E+02  0.45594000000E+02  0.51100000000E-03 0.  1.
         11   -1    0    0    0    0 -0.00000000000E+00 -0.00000000000E+00 -0.45593999997E+02  0.45594000000E+02  0.51100000000E-03 0. -1.
    9900012    2    1    2    0    0  0.24457460530E+02  0.23420002184E+02  0.29706052851E+02  0.46142318144E+02  0.10000003495E+02 0.  0.
         12    1    1    2    0    0 -0.24457460530E+02 -0.23420002184E+02 -0.29706052851E+02  0.45045681856E+02  0.00000000000E+00 0. -1.
         11    1    3    3    0    0  0.15469436865E+01  0.50101006396E+01  0.62415883868E+01  0.81517831816E+01  0.51100000000E-03 0. -1.
        -11    1    3    3    0    0  0.72903710002E+01  0.70328430513E+01  0.51384902995E+01  0.11358453835E+02  0.51100000000E-03 0.  1.
         12    1    3    3    0    0  0.15620145843E+02  0.11377058493E+02  0.18325974165E+02  0.26632081128E+02  0.00000000000E+00 0. -1.
</event>
<event>
 7    1  0.1385632E-008  0.4614232E+02  0.7816164E-02  0.1320468E+00
        -11   -1    0    0    0    0  0.00000000000E+00  0.00000000000E+00  0.45593999997E+02  0.45594000000E+02  0.51100000000E-03 0.  1.
         11   -1    0    0    0    0 -0.00000000000E+00 -0.00000000000E+00 -0.45593999997E+02  0.45594000000E+02  0.51100000000E-03 0. -1.
    9900012    2    1    2    0    0 -0.36389028333E+01  0.68496937584E+01  0.44372892173E+02  0.46142317873E+02  0.10000001024E+02 0.  0.
         12    1    1    2    0    0  0.36389028333E+01 -0.68496937584E+01 -0.44372892173E+02  0.45045682127E+02  0.00000000000E+00 0. -1.
         11    1    3    3    0    0  0.29621270673E+01  0.11668412363E+01  0.14475909586E+02  0.14821864722E+02  0.51100000000E-03 0. -1.
        -11    1    3    3    0    0 -0.52959776181E+01  0.59679687352E+01  0.26285788880E+02  0.27470106062E+02  0.51100000000E-03 0.  1.
         12    1    3    3    0    0 -0.13050522825E+01 -0.28511621316E+00  0.36111937078E+01  0.38503470896E+01  0.00000000000E+00 0. -1.
</event>
<event>
 7    1  0.1385632E-008  0.4614232E+02  0.7816164E-02  0.1320468E+00
        -11   -1    0    0    0    0  0.00000000000E+00  0.00000000000E+00  0.45593999997E+02  0.45594000000E+02  0.51100000000E-03 0.  1.
         11   -1    0    0    0    0 -0.00000000000E+00 -0.00000000000E+00 -0.45593999997E+02  0.45594000000E+02  0.51100000000E-03 0. -1.
    9900012    2    1    2    0    0  0.42085068194E+02  0.23873559315E+01  0.15882730896E+02  0.46142316811E+02  0.99999913378E+01 0.  0.
         12    1    1    2    0    0 -0.42085068194E+02 -0.23873559315E+01 -0.15882730896E+02  0.45045683189E+02  0.00000000000E+00 0. -1.
         11    1    3    3    0    0  0.45343973512E+01  0.13451863546E+01  0.13335691004E+01  0.49141319146E+01  0.51100000000E-03 0. -1.
        -11    1    3    3    0    0  0.17702636989E+01 -0.16983980540E+01 -0.13010002104E+00  0.24566879717E+01  0.51100000000E-03 0.  1.
        -12    1    3    3    0    0  0.35780407144E+02  0.27405676310E+01  0.14679261817E+02  0.38771496925E+02  0.00000000000E+00 0.  1.
</event>
<event>
 7    1  0.1385632E-008  0.4614232E+02  0.7816164E-02  0.1320468E+00
        -11   -1    0    0    0    0  0.00000000000E+00  0.00000000000E+00  0.45593999997E+02  0.45594000000E+02  0.51100000000E-03 0.  1.
         11   -1    0    0    0    0 -0.00000000000E+00 -0.00000000000E+00 -0.45593999997E+02  0.45594000000E+02  0.51100000000E-03 0. -1.
    9900012    2    1    2    0    0  0.14186110572E+02  0.17024973238E+02  0.39217573203E+02  0.46142317689E+02  0.99999993427E+01 0.  0.
         12    1    1    2    0    0 -0.14186110572E+02 -0.17024973238E+02 -0.39217573203E+02  0.45045682311E+02  0.00000000000E+00 0. -1.
         11    1    3    3    0    0  0.26507615622E+01  0.77810471138E+01  0.18673646689E+02  0.20402850584E+02  0.51100000000E-03 0. -1.
        -11    1    3    3    0    0  0.99256596996E+01  0.53632223787E+01  0.14321882890E+02  0.18231818464E+02  0.51100000000E-03 0.  1.
        -12    1    3    3    0    0  0.16096893097E+01  0.38807037459E+01  0.62220436248E+01  0.75076486403E+01  0.00000000000E+00 0.  1.
</event>
<event>
 7    1  0.1385632E-008  0.4614232E+02  0.7816164E-02  0.1320468E+00
        -11   -1    0    0    0    0  0.00000000000E+00  0.00000000000E+00  0.45593999997E+02  0.45594000000E+02  0.51100000000E-03 0. -1.
         11   -1    0    0    0    0 -0.00000000000E+00 -0.00000000000E+00 -0.45593999997E+02  0.45594000000E+02  0.51100000000E-03 0.  1.
    9900012    2    1    2    0    0 -0.31898677084E+02 -0.17162000000E+02 -0.26777858178E+02  0.46142317273E+02  0.99999955528E+01 0.  0.
         12    1    1    2    0    0  0.31898677084E+02  0.17162000000E+02  0.26777858178E+02  0.45045682727E+02  0.00000000000E+00 0. -1.
         11    1    3    3    0    0 -0.28965645785E+02 -0.14716297361E+02 -0.24627578028E+02  0.40768807237E+02  0.51100000000E-03 0.  1.
        -11    1    3    3    0    0 -0.23569438625E+01 -0.22893279717E+01 -0.15342195171E+00  0.32893381537E+01  0.51100000000E-03 0. -1.
         12    1    3    3    0    0 -0.57608743690E+00 -0.15637466676E+00 -0.19968581989E+01  0.20841718830E+01  0.00000000000E+00 0. -1.
</event>
<event>
 7    1  0.1385632E-008  0.4614232E+02  0.7816164E-02  0.1320468E+00
        -11   -1    0    0    0    0  0.00000000000E+00  0.00000000000E+00  0.45593999997E+02  0.45594000000E+02  0.51100000000E-03 0. -1.
         11   -1    0    0    0    0 -0.00000000000E+00 -0.00000000000E+00 -0.45593999997E+02  0.45594000000E+02  0.51100000000E-03 0.  1.
    9900012    2    1    2    0    0  0.44665075887E+02 -0.28837124245E+00  0.58361833655E+01  0.46142320981E+02  0.10000029361E+02 0.  0.
         12    1    1    2    0    0 -0.44665075887E+02  0.28837124245E+00 -0.58361833655E+01  0.45045679019E+02  0.00000000000E+00 0. -1.
         11    1    3    3    0    0  0.17230042920E+02  0.21073688308E+01 -0.92042861936E+00  0.17382824037E+02  0.51100000000E-03 0. -1.
        -11    1    3    3    0    0  0.14673065699E+02 -0.36445718079E+01  0.32236285093E+01  0.15458769088E+02  0.51100000000E-03 0.  1.
        -12    1    3    3    0    0  0.12761967268E+02  0.12488317346E+01  0.35329834756E+01  0.13300727856E+02  0.00000000000E+00 0.  1.
</event>
<event>
 7    1  0.1385632E-008  0.4614232E+02  0.7816164E-02  0.1320468E+00
        -11   -1    0    0    0    0  0.00000000000E+00  0.00000000000E+00  0.45593999997E+02  0.45594000000E+02  0.51100000000E-03 0.  1.
         11   -1    0    0    0    0 -0.00000000000E+00 -0.00000000000E+00 -0.45593999997E+02  0.45594000000E+02  0.51100000000E-03 0. -1.
    9900012    2    1    2    0    0 -0.16777010941E+02  0.15617416607E+02  0.38778105898E+02  0.46142319911E+02  0.10000019607E+02 0.  0.
         12    1    1    2    0    0  0.16777010941E+02 -0.15617416607E+02 -0.38778105898E+02  0.45045680089E+02  0.00000000000E+00 0. -1.
         11    1    3    3    0    0 -0.11455394110E+02  0.10846121275E+02  0.19406378071E+02  0.25009436440E+02  0.51100000000E-03 0. -1.
        -11    1    3    3    0    0 -0.43632865172E+01  0.44420477983E+01  0.10529332482E+02  0.12232616263E+02  0.51100000000E-03 0.  1.
         12    1    3    3    0    0 -0.95833031307E+00  0.32924753374E+00  0.88423953455E+01  0.89002672080E+01  0.00000000000E+00 0. -1.
</event>
<event>
 7    1  0.1385632E-008  0.4614232E+02  0.7816164E-02  0.1320468E+00
        -11   -1    0    0    0    0  0.00000000000E+00  0.00000000000E+00  0.45593999997E+02  0.45594000000E+02  0.51100000000E-03 0.  1.
         11   -1    0    0    0    0 -0.00000000000E+00 -0.00000000000E+00 -0.45593999997E+02  0.45594000000E+02  0.51100000000E-03 0. -1.
    9900012    2    1    2    0    0 -0.42756508468E+02 -0.13308892256E+02 -0.48854786474E+01  0.46142317287E+02  0.99999956757E+01 0.  0.
         12    1    1    2    0    0  0.42756508468E+02  0.13308892256E+02  0.48854786474E+01  0.45045682713E+02  0.00000000000E+00 0. -1.
         11    1    3    3    0    0 -0.24534332204E+01  0.97912517932E+00 -0.16166293719E+01  0.30970165435E+01  0.51100000000E-03 0. -1.
        -11    1    3    3    0    0 -0.95058830097E+01 -0.30967850779E+01  0.78300926970E+00  0.10028209880E+02  0.51100000000E-03 0.  1.
         12    1    3    3    0    0 -0.30797192238E+02 -0.11191232357E+02 -0.40518585452E+01  0.33017090864E+02  0.00000000000E+00 0. -1.
</event>
<event>
 7    1  0.1385632E-008  0.4614232E+02  0.7816164E-02  0.1320468E+00
        -11   -1    0    0    0    0  0.00000000000E+00  0.00000000000E+00  0.45593999997E+02  0.45594000000E+02  0.51100000000E-03 0.  1.
         11   -1    0    0    0    0 -0.00000000000E+00 -0.00000000000E+00 -0.45593999997E+02  0.45594000000E+02  0.51100000000E-03 0. -1.
    9900012    2    1    2    0    0 -0.33353638237E+02 -0.11222672010E+02  0.28119387771E+02  0.46142317418E+02  0.99999968722E+01 0.  0.
         12    1    1    2    0    0  0.33353638237E+02  0.11222672010E+02 -0.28119387771E+02  0.45045682582E+02  0.00000000000E+00 0. -1.
         11    1    3    3    0    0 -0.42697824505E+01 -0.15229469493E+01  0.15023302031E+01  0.47757099876E+01  0.51100000000E-03 0. -1.
        -11    1    3    3    0    0 -0.19252288770E+02 -0.61051776815E+01  0.22177317125E+02  0.29995953269E+02  0.51100000000E-03 0.  1.
        -12    1    3    3    0    0 -0.98315670165E+01 -0.35945473789E+01  0.44397404424E+01  0.11370654161E+02  0.00000000000E+00 0.  1.
</event>
<event>
 7    1  0.1385632E-008  0.4614232E+02  0.7816164E-02  0.1320468E+00
        -11   -1    0    0    0    0  0.00000000000E+00  0.00000000000E+00  0.45593999997E+02  0.45594000000E+02  0.51100000000E-03 0. -1.
         11   -1    0    0    0    0 -0.00000000000E+00 -0.00000000000E+00 -0.45593999997E+02  0.45594000000E+02  0.51100000000E-03 0.  1.
    9900012    2    1    2    0    0  0.20435519702E+02  0.42876596985E+01 -0.39913893307E+02  0.46142319074E+02  0.10000011969E+02 0.  0.
         12    1    1    2    0    0 -0.20435519702E+02 -0.42876596985E+01  0.39913893307E+02  0.45045680926E+02  0.00000000000E+00 0. -1.
         11    1    3    3    0    0  0.35501105615E+01 -0.17451738627E+01 -0.44450409857E+01  0.59504038884E+01  0.51100000000E-03 0. -1.
        -11    1    3    3    0    0  0.83835803035E+01  0.51068271566E+01 -0.14150162641E+02  0.17221823520E+02  0.51100000000E-03 0.  1.
        -12    1    3    3    0    0  0.85018288375E+01  0.92600640456E+00 -0.21318689680E+02  0.22970091665E+02  0.00000000000E+00 0.  1.
</event>
<event>
 7    1  0.1385632E-008  0.4614232E+02  0.7816164E-02  0.1320468E+00
        -11   -1    0    0    0    0  0.00000000000E+00  0.00000000000E+00  0.45593999997E+02  0.45594000000E+02  0.51100000000E-03 0.  1.
         11   -1    0    0    0    0 -0.00000000000E+00 -0.00000000000E+00 -0.45593999997E+02  0.45594000000E+02  0.51100000000E-03 0. -1.
    9900012    2    1    2    0    0  0.25125939558E+01  0.31859552631E+02  0.31745385024E+02  0.46142315495E+02  0.99999793320E+01 0.  0.
         12    1    1    2    0    0 -0.25125939558E+01 -0.31859552631E+02 -0.31745385024E+02  0.45045684505E+02  0.00000000000E+00 0. -1.
         11    1    3    3    0    0  0.19099145595E+01  0.41671953931E+01  0.29182953531E+01  0.54341272618E+01  0.51100000000E-03 0. -1.
        -11    1    3    3    0    0  0.20145597666E+01  0.18983044221E+02  0.23949595083E+02  0.30626745238E+02  0.51100000000E-03 0.  1.
         12    1    3    3    0    0 -0.14118803704E+01  0.87093130171E+01  0.48774945879E+01  0.10081442995E+02  0.00000000000E+00 0. -1.
</event>
<event>
 7    1  0.1385632E-008  0.4614232E+02  0.7816164E-02  0.1320468E+00
        -11   -1    0    0    0    0  0.00000000000E+00  0.00000000000E+00  0.45593999997E+02  0.45594000000E+02  0.51100000000E-03 0.  1.
         11   -1    0    0    0    0 -0.00000000000E+00 -0.00000000000E+00 -0.45593999997E+02  0.45594000000E+02  0.51100000000E-03 0. -1.
    9900012    2    1    2    0    0  0.42782506517E+02 -0.10076271407E+02  0.98610014655E+01  0.46142318084E+02  0.10000002947E+02 0.  0.
         12    1    1    2    0    0 -0.42782506517E+02  0.10076271407E+02 -0.98610014655E+01  0.45045681916E+02  0.00000000000E+00 0. -1.
         11    1    3    3    0    0  0.31923881376E+02 -0.91421045755E+01  0.10826395084E+02  0.34927397684E+02  0.51100000000E-03 0. -1.
        -11    1    3    3    0    0  0.53854480663E+01  0.28878043466E+00  0.50627845913E+00  0.54168960811E+01  0.51100000000E-03 0.  1.
         12    1    3    3    0    0  0.54731770744E+01 -0.12229472657E+01 -0.14716720775E+01  0.57980243192E+01  0.00000000000E+00 0. -1.
</event>
<event>
 7    1  0.1385632E-008  0.4614232E+02  0.7816164E-02  0.1320468E+00
        -11   -1    0    0    0    0  0.00000000000E+00  0.00000000000E+00  0.45593999997E+02  0.45594000000E+02  0.51100000000E-03 0.  1.
         11   -1    0    0    0    0 -0.00000000000E+00 -0.00000000000E+00 -0.45593999997E+02  0.45594000000E+02  0.51100000000E-03 0. -1.
    9900012    2    1    2    0    0 -0.16932720011E+02  0.19762086752E+02  0.36767599731E+02  0.46142317967E+02  0.10000001882E+02 0.  0.
         12    1    1    2    0    0  0.16932720011E+02 -0.19762086752E+02 -0.36767599731E+02  0.45045682033E+02  0.00000000000E+00 0. -1.
         11    1    3    3    0    0 -0.28189216704E+01  0.13291064651E+00  0.31008792765E+01  0.41927839406E+01  0.51100000000E-03 0. -1.
        -11    1    3    3    0    0 -0.88851290408E+01  0.68912893098E+01  0.15799978691E+02  0.19392645856E+02  0.51100000000E-03 0.  1.
        -12    1    3    3    0    0 -0.52286693002E+01  0.12737886796E+02  0.17866741764E+02  0.22556888170E+02  0.00000000000E+00 0.  1.
</event>
<event>
 7    1  0.1385632E-008  0.4614232E+02  0.7816164E-02  0.1320468E+00
        -11   -1    0    0    0    0  0.00000000000E+00  0.00000000000E+00  0.45593999997E+02  0.45594000000E+02  0.51100000000E-03 0.  1.
         11   -1    0    0    0    0 -0.00000000000E+00 -0.00000000000E+00 -0.45593999997E+02  0.45594000000E+02  0.51100000000E-03 0. -1.
    9900012    2    1    2    0    0 -0.40008381692E+02 -0.12125950115E+02  0.16775105646E+02  0.46142318285E+02  0.10000004773E+02 0.  0.
         12    1    1    2    0    0  0.40008381692E+02  0.12125950115E+02 -0.16775105646E+02  0.45045681715E+02  0.00000000000E+00 0. -1.
         11    1    3    3    0    0 -0.29585000454E+01  0.37765186355E+00  0.25749107222E+01  0.39402422434E+01  0.51100000000E-03 0. -1.
        -11    1    3    3    0    0 -0.28377251614E+02 -0.12631088611E+02  0.11409196919E+02  0.33090521048E+02  0.51100000000E-03 0.  1.
        -12    1    3    3    0    0 -0.86726300328E+01  0.12748663249E+00  0.27909980041E+01  0.91115549928E+01  0.00000000000E+00 0.  1.
</event>
<event>
 7    1  0.1385632E-008  0.4614232E+02  0.7816164E-02  0.1320468E+00
        -11   -1    0    0    0    0  0.00000000000E+00  0.00000000000E+00  0.45593999997E+02  0.45594000000E+02  0.51100000000E-03 0.  1.
         11   -1    0    0    0    0 -0.00000000000E+00 -0.00000000000E+00 -0.45593999997E+02  0.45594000000E+02  0.51100000000E-03 0. -1.
    9900012    2    1    2    0    0  0.10270909203E+02  0.30455498190E+02  0.31560807910E+02  0.46142317168E+02  0.99999945902E+01 0.  0.
         12    1    1    2    0    0 -0.10270909203E+02 -0.30455498190E+02 -0.31560807910E+02  0.45045682832E+02  0.00000000000E+00 0. -1.
         11    1    3    3    0    0  0.13463651167E+01  0.12292538714E+02  0.12870557997E+02  0.17848542531E+02  0.51100000000E-03 0.  1.
        -11    1    3    3    0    0 -0.50721583806E+00  0.49020914662E+01  0.36249853791E+01  0.61178662872E+01  0.51100000000E-03 0. -1.
         12    1    3    3    0    0  0.94317599244E+01  0.13260868011E+02  0.15065264534E+02  0.22175908350E+02  0.00000000000E+00 0. -1.
</event>
<event>
 7    1  0.1385632E-008  0.4614232E+02  0.7816164E-02  0.1320468E+00
        -11   -1    0    0    0    0  0.00000000000E+00  0.00000000000E+00  0.45593999997E+02  0.45594000000E+02  0.51100000000E-03 0.  1.
         11   -1    0    0    0    0 -0.00000000000E+00 -0.00000000000E+00 -0.45593999997E+02  0.45594000000E+02  0.51100000000E-03 0. -1.
    9900012    2    1    2    0    0  0.17756832026E+02  0.25178588809E+02  0.32861027859E+02  0.46142316855E+02  0.99999917372E+01 0.  0.
         12    1    1    2    0    0 -0.17756832026E+02 -0.25178588809E+02 -0.32861027859E+02  0.45045683145E+02  0.00000000000E+00 0. -1.
         11    1    3    3    0    0  0.17292578635E+01  0.31740175588E+00  0.75147278197E+00  0.19120115680E+01  0.51100000000E-03 0.  1.
        -11    1    3    3    0    0 -0.68853809798E+00  0.18248314322E+01  0.22797816614E+01  0.30002498484E+01  0.51100000000E-03 0. -1.
        -12    1    3    3    0    0  0.16716112261E+02  0.23036355621E+02  0.29829773416E+02  0.41230055439E+02  0.00000000000E+00 0.  1.
</event>
<event>
 7    1  0.1385632E-008  0.4614232E+02  0.7816164E-02  0.1320468E+00
        -11   -1    0    0    0    0  0.00000000000E+00  0.00000000000E+00  0.45593999997E+02  0.45594000000E+02  0.51100000000E-03 0.  1.
         11   -1    0    0    0    0 -0.00000000000E+00 -0.00000000000E+00 -0.45593999997E+02  0.45594000000E+02  0.51100000000E-03 0. -1.
    9900012    2    1    2    0    0 -0.29553737602E+02 -0.16239435103E+01  0.33956636144E+02  0.46142315001E+02  0.99999748349E+01 0.  0.
         12    1    1    2    0    0  0.29553737602E+02  0.16239435103E+01 -0.33956636144E+02  0.45045684999E+02  0.00000000000E+00 0. -1.
         11    1    3    3    0    0 -0.50943408783E+01 -0.30052373689E+00  0.35400572005E+01  0.62108476672E+01  0.51100000000E-03 0. -1.
        -11    1    3    3    0    0 -0.86836392937E+01 -0.98651476830E+00  0.17418161794E+02  0.19487718269E+02  0.51100000000E-03 0.  1.
        -12    1    3    3    0    0 -0.15775757430E+02 -0.33690500515E+00  0.12998417150E+02  0.20443749066E+02  0.00000000000E+00 0.  1.
</event>
<event>
 7    1  0.1385632E-008  0.4614232E+02  0.7816164E-02  0.1320468E+00
        -11   -1    0    0    0    0  0.00000000000E+00  0.00000000000E+00  0.45593999997E+02  0.45594000000E+02  0.51100000000E-03 0.  1.
         11   -1    0    0    0    0 -0.00000000000E+00 -0.00000000000E+00 -0.45593999997E+02  0.45594000000E+02  0.51100000000E-03 0. -1.
    9900012    2    1    2    0    0 -0.15658662205E+01 -0.41231822572E+02  0.18072032201E+02  0.46142317881E+02  0.10000001096E+02 0.  0.
         12    1    1    2    0    0  0.15658662205E+01  0.41231822572E+02 -0.18072032201E+02  0.45045682119E+02  0.00000000000E+00 0. -1.
         11    1    3    3    0    0 -0.18922179847E+01 -0.47741170661E+01  0.48968894927E+01  0.70959290883E+01  0.51100000000E-03 0. -1.
        -11    1    3    3    0    0  0.73206286533E+00 -0.27877807716E+02  0.12065242096E+02  0.30385492364E+02  0.51100000000E-03 0.  1.
         12    1    3    3    0    0 -0.40571110110E+00 -0.85798977902E+01  0.11099006128E+01  0.86608964293E+01  0.00000000000E+00 0. -1.
</event>
<event>
 7    1  0.1385632E-008  0.4614232E+02  0.7816164E-02  0.1320468E+00
        -11   -1    0    0    0    0  0.00000000000E+00  0.00000000000E+00  0.45593999997E+02  0.45594000000E+02  0.51100000000E-03 0. -1.
         11   -1    0    0    0    0 -0.00000000000E+00 -0.00000000000E+00 -0.45593999997E+02  0.45594000000E+02  0.51100000000E-03 0.  1.
    9900012    2    1    2    0    0 -0.13344608195E+02 -0.13864185092E+02 -0.40728604895E+02  0.46142318155E+02  0.10000003593E+02 0.  0.
         12    1    1    2    0    0  0.13344608195E+02  0.13864185092E+02  0.40728604895E+02  0.45045681845E+02  0.00000000000E+00 0. -1.
         11    1    3    3    0    0 -0.23923633745E+01 -0.22777387600E+01 -0.13238241571E+02  0.13644139274E+02  0.51100000000E-03 0. -1.
        -11    1    3    3    0    0 -0.11756455788E+01 -0.48994156006E+01 -0.51075509914E+01  0.71745029895E+01  0.51100000000E-03 0.  1.
         12    1    3    3    0    0 -0.97765992416E+01 -0.66870307319E+01 -0.22382812333E+02  0.25323675892E+02  0.00000000000E+00 0. -1.
</event>
<event>
 7    1  0.1385632E-008  0.4614232E+02  0.7816164E-02  0.1320468E+00
        -11   -1    0    0    0    0  0.00000000000E+00  0.00000000000E+00  0.45593999997E+02  0.45594000000E+02  0.51100000000E-03 0.  1.
         11   -1    0    0    0    0 -0.00000000000E+00 -0.00000000000E+00 -0.45593999997E+02  0.45594000000E+02  0.51100000000E-03 0. -1.
    9900012    2    1    2    0    0 -0.28968063140E+02 -0.19704362395E+02  0.28314358263E+02  0.46142318039E+02  0.10000002534E+02 0.  0.
         12    1    1    2    0    0  0.28968063140E+02  0.19704362395E+02 -0.28314358263E+02  0.45045681961E+02  0.00000000000E+00 0. -1.
         11    1    3    3    0    0 -0.79453087409E+01 -0.77234697068E+01  0.12303291172E+02  0.16557502506E+02  0.51100000000E-03 0. -1.
        -11    1    3    3    0    0 -0.74102270950E+01 -0.50995491837E+01  0.92430263095E+01  0.12897689836E+02  0.51100000000E-03 0.  1.
         12    1    3    3    0    0 -0.13612527304E+02 -0.68813435048E+01  0.67680407815E+01  0.16687125698E+02  0.00000000000E+00 0. -1.
</event>
<event>
 7    1  0.1385632E-008  0.4614232E+02  0.7816164E-02  0.1320468E+00
        -11   -1    0    0    0    0  0.00000000000E+00  0.00000000000E+00  0.45593999997E+02  0.45594000000E+02  0.51100000000E-03 0. -1.
         11   -1    0    0    0    0 -0.00000000000E+00 -0.00000000000E+00 -0.45593999997E+02  0.45594000000E+02  0.51100000000E-03 0.  1.
    9900012    2    1    2    0    0  0.15165792193E+02  0.41736254502E+02  0.75628989801E+01  0.46142316149E+02  0.99999852951E+01 0.  0.
         12    1    1    2    0    0 -0.15165792193E+02 -0.41736254502E+02 -0.75628989801E+01  0.45045683851E+02  0.00000000000E+00 0. -1.
         11    1    3    3    0    0  0.70822103582E+01  0.24269692610E+02  0.37027305729E+01  0.25551631981E+02  0.51100000000E-03 0. -1.
        -11    1    3    3    0    0  0.90463087387E+01  0.14403106203E+02  0.34305608014E+01  0.17350905387E+02  0.51100000000E-03 0.  1.
         12    1    3    3    0    0 -0.96272690405E+00  0.30634556884E+01  0.42960760587E+00  0.32397787798E+01  0.00000000000E+00 0. -1.
</event>
<event>
 7    1  0.1385632E-008  0.4614232E+02  0.7816164E-02  0.1320468E+00
        -11   -1    0    0    0    0  0.00000000000E+00  0.00000000000E+00  0.45593999997E+02  0.45594000000E+02  0.51100000000E-03 0.  1.
         11   -1    0    0    0    0 -0.00000000000E+00 -0.00000000000E+00 -0.45593999997E+02  0.45594000000E+02  0.51100000000E-03 0. -1.
    9900012    2    1    2    0    0  0.31886350092E+02 -0.19451726521E+02  0.25179446872E+02  0.46142317281E+02  0.99999956211E+01 0.  0.
         12    1    1    2    0    0 -0.31886350092E+02  0.19451726521E+02 -0.25179446872E+02  0.45045682719E+02  0.00000000000E+00 0. -1.
         11    1    3    3    0    0 -0.37249061306E+00 -0.48830314138E+00  0.14771049596E+00  0.63167069462E+00  0.51100000000E-03 0. -1.
        -11    1    3    3    0    0  0.31405820735E+02 -0.18776239431E+02  0.25421044944E+02  0.44554486525E+02  0.51100000000E-03 0.  1.
         12    1    3    3    0    0  0.85301997034E+00 -0.18718394907E+00 -0.38930856873E+00  0.95616006101E+00  0.00000000000E+00 0. -1.
</event>
<event>
 7    1  0.1385632E-008  0.4614232E+02  0.7816164E-02  0.1320468E+00
        -11   -1    0    0    0    0  0.00000000000E+00  0.00000000000E+00  0.45593999997E+02  0.45594000000E+02  0.51100000000E-03 0.  1.
         11   -1    0    0    0    0 -0.00000000000E+00 -0.00000000000E+00 -0.45593999997E+02  0.45594000000E+02  0.51100000000E-03 0. -1.
    9900012    2    1    2    0    0 -0.96311477653E+01 -0.14814092697E+02  0.41435457328E+02  0.46142317924E+02  0.10000001488E+02 0.  0.
         12    1    1    2    0    0  0.96311477653E+01  0.14814092697E+02 -0.41435457328E+02  0.45045682076E+02  0.00000000000E+00 0. -1.
         11    1    3    3    0    0 -0.49630647092E+01 -0.66898383864E+01  0.18397962774E+02  0.20195815989E+02  0.51100000000E-03 0. -1.
        -11    1    3    3    0    0 -0.54240473436E+01 -0.78232064864E+01  0.14346974172E+02  0.17217970771E+02  0.51100000000E-03 0.  1.
        -12    1    3    3    0    0  0.75596428752E+00 -0.30104782432E+00  0.86905203809E+01  0.87285311644E+01  0.00000000000E+00 0.  1.
</event>
<event>
 7    1  0.1385632E-008  0.4614232E+02  0.7816164E-02  0.1320468E+00
        -11   -1    0    0    0    0  0.00000000000E+00  0.00000000000E+00  0.45593999997E+02  0.45594000000E+02  0.51100000000E-03 0. -1.
         11   -1    0    0    0    0 -0.00000000000E+00 -0.00000000000E+00 -0.45593999997E+02  0.45594000000E+02  0.51100000000E-03 0.  1.
    9900012    2    1    2    0    0 -0.10775700769E+02  0.36203556744E+02 -0.24541805491E+02  0.46142318023E+02  0.10000002390E+02 0.  0.
         12    1    1    2    0    0  0.10775700769E+02 -0.36203556744E+02  0.24541805491E+02  0.45045681977E+02  0.00000000000E+00 0. -1.
         11    1    3    3    0    0 -0.53180778594E+01  0.18096239504E+02 -0.10323056252E+02  0.21501658702E+02  0.51100000000E-03 0. -1.
        -11    1    3    3    0    0 -0.66371629473E+01  0.17628017872E+02 -0.13076753186E+02  0.22930338424E+02  0.51100000000E-03 0.  1.
        -12    1    3    3    0    0  0.11795400380E+01  0.47929936843E+00 -0.11419960539E+01  0.17103208977E+01  0.00000000000E+00 0.  1.
</event>
<event>
 7    1  0.1385632E-008  0.4614233E+02  0.7816164E-02  0.1320468E+00
        -11   -1    0    0    0    0  0.00000000000E+00  0.00000000000E+00  0.45593999997E+02  0.45594000000E+02  0.51100000000E-03 0.  1.
         11   -1    0    0    0    0 -0.00000000000E+00 -0.00000000000E+00 -0.45593999997E+02  0.45594000000E+02  0.51100000000E-03 0. -1.
    9900012    2    1    2    0    0 -0.39613404611E+02 -0.36792023601E+01  0.21127102824E+02  0.46142325084E+02  0.10000066779E+02 0.  0.
         12    1    1    2    0    0  0.39613404611E+02  0.36792023601E+01 -0.21127102824E+02  0.45045674916E+02  0.00000000000E+00 0. -1.
         11    1    3    3    0    0 -0.17214206761E+02 -0.22760298435E+01  0.13898467134E+02  0.22241326740E+02  0.51100000000E-03 0. -1.
        -11    1    3    3    0    0 -0.15981011568E+02 -0.69692337220E+00  0.69423260026E+01  0.17437727017E+02  0.51100000000E-03 0.  1.
         12    1    3    3    0    0 -0.64181862827E+01 -0.70624914439E+00  0.28630968737E+00  0.64632713273E+01  0.00000000000E+00 0. -1.
</event>
<event>
 7    1  0.1385632E-008  0.4614232E+02  0.7816164E-02  0.1320468E+00
        -11   -1    0    0    0    0  0.00000000000E+00  0.00000000000E+00  0.45593999997E+02  0.45594000000E+02  0.51100000000E-03 0. -1.
         11   -1    0    0    0    0 -0.00000000000E+00 -0.00000000000E+00 -0.45593999997E+02  0.45594000000E+02  0.51100000000E-03 0.  1.
    9900012    2    1    2    0    0 -0.11954410164E+02 -0.39553827440E+02 -0.17935996429E+02  0.46142321457E+02  0.10000033704E+02 0.  0.
         12    1    1    2    0    0  0.11954410164E+02  0.39553827440E+02  0.17935996429E+02  0.45045678543E+02  0.00000000000E+00 0. -1.
         11    1    3    3    0    0 -0.14504260506E+01 -0.21520905874E+01 -0.28236516330E+01  0.38351321268E+01  0.51100000000E-03 0. -1.
        -11    1    3    3    0    0 -0.31506181648E+01 -0.33858488646E+01 -0.88064306506E+00  0.47080675253E+01  0.51100000000E-03 0.  1.
        -12    1    3    3    0    0 -0.73533659485E+01 -0.34015887988E+02 -0.14231701731E+02  0.37599121805E+02  0.00000000000E+00 0.  1.
</event>
<event>
 7    1  0.1385632E-008  0.4614232E+02  0.7816164E-02  0.1320468E+00
        -11   -1    0    0    0    0  0.00000000000E+00  0.00000000000E+00  0.45593999997E+02  0.45594000000E+02  0.51100000000E-03 0.  1.
         11   -1    0    0    0    0 -0.00000000000E+00 -0.00000000000E+00 -0.45593999997E+02  0.45594000000E+02  0.51100000000E-03 0. -1.
    9900012    2    1    2    0    0 -0.43429036070E+01  0.43304271507E+02  0.11618640633E+02  0.46142317048E+02  0.99999934930E+01 0.  0.
         12    1    1    2    0    0  0.43429036070E+01 -0.43304271507E+02 -0.11618640633E+02  0.45045682952E+02  0.00000000000E+00 0. -1.
         11    1    3    3    0    0 -0.12184580502E+01  0.77380932291E+01 -0.57330018287E+00  0.78543873219E+01  0.51100000000E-03 0. -1.
        -11    1    3    3    0    0 -0.51330504364E+01  0.25093519815E+02  0.91587761244E+01  0.27201399299E+02  0.51100000000E-03 0.  1.
        -12    1    3    3    0    0  0.20086048796E+01  0.10472658463E+02  0.30331646916E+01  0.11086530427E+02  0.00000000000E+00 0.  1.
</event>
<event>
 7    1  0.1385632E-008  0.4614232E+02  0.7816164E-02  0.1320468E+00
        -11   -1    0    0    0    0  0.00000000000E+00  0.00000000000E+00  0.45593999997E+02  0.45594000000E+02  0.51100000000E-03 0. -1.
         11   -1    0    0    0    0 -0.00000000000E+00 -0.00000000000E+00 -0.45593999997E+02  0.45594000000E+02  0.51100000000E-03 0.  1.
    9900012    2    1    2    0    0  0.30883742827E+02 -0.45738545255E+01 -0.32471337358E+02  0.46142318009E+02  0.10000002259E+02 0.  0.
         12    1    1    2    0    0 -0.30883742827E+02  0.45738545255E+01  0.32471337358E+02  0.45045681991E+02  0.00000000000E+00 0. -1.
         11    1    3    3    0    0  0.32964965853E+01 -0.16102786745E+01 -0.15555113434E+01  0.39849094026E+01  0.51100000000E-03 0. -1.
        -11    1    3    3    0    0  0.19622778272E+02 -0.10377159361E+01 -0.26040673202E+02  0.32622797895E+02  0.51100000000E-03 0.  1.
        -12    1    3    3    0    0  0.79644679705E+01 -0.19258599149E+01 -0.48751528128E+01  0.95346107111E+01  0.00000000000E+00 0.  1.
</event>
<event>
 7    1  0.1385632E-008  0.4614232E+02  0.7816164E-02  0.1320468E+00
        -11   -1    0    0    0    0  0.00000000000E+00  0.00000000000E+00  0.45593999997E+02  0.45594000000E+02  0.51100000000E-03 0.  1.
         11   -1    0    0    0    0 -0.00000000000E+00 -0.00000000000E+00 -0.45593999997E+02  0.45594000000E+02  0.51100000000E-03 0. -1.
    9900012    2    1    2    0    0  0.15035338553E+02  0.33491813320E+02  0.26102689663E+02  0.46142319047E+02  0.10000011725E+02 0.  0.
         12    1    1    2    0    0 -0.15035338553E+02 -0.33491813320E+02 -0.26102689663E+02  0.45045680953E+02  0.00000000000E+00 0. -1.
         11    1    3    3    0    0  0.87004277259E+01  0.16515309842E+02  0.13541969269E+02  0.23061609522E+02  0.51100000000E-03 0. -1.
        -11    1    3    3    0    0  0.69385836138E+01  0.10225910015E+02  0.63769156483E+01  0.13906050181E+02  0.51100000000E-03 0.  1.
         12    1    3    3    0    0 -0.60367278659E+00  0.67505934631E+01  0.61838047461E+01  0.91746593439E+01  0.00000000000E+00 0. -1.
</event>
<event>
 7    1  0.1385632E-008  0.4614232E+02  0.7816164E-02  0.1320468E+00
        -11   -1    0    0    0    0  0.00000000000E+00  0.00000000000E+00  0.45593999997E+02  0.45594000000E+02  0.51100000000E-03 0.  1.
         11   -1    0    0    0    0 -0.00000000000E+00 -0.00000000000E+00 -0.45593999997E+02  0.45594000000E+02  0.51100000000E-03 0. -1.
    9900012    2    1    2    0    0  0.25968030955E+02 -0.35234429007E+02  0.10644709583E+02  0.46142318062E+02  0.10000002746E+02 0.  0.
         12    1    1    2    0    0 -0.25968030955E+02  0.35234429007E+02 -0.10644709583E+02  0.45045681938E+02  0.00000000000E+00 0. -1.
         11    1    3    3    0    0  0.60379455356E+01 -0.11303355380E+02  0.28389162177E-02  0.12814938060E+02  0.51100000000E-03 0. -1.
        -11    1    3    3    0    0  0.22518810613E+01 -0.59121582900E+01  0.25231764559E+01  0.68110941594E+01  0.51100000000E-03 0.  1.
        -12    1    3    3    0    0  0.17678204358E+02 -0.18018915337E+02  0.81186942112E+01  0.26516285843E+02  0.00000000000E+00 0.  1.
</event>
<event>
 7    1  0.1385632E-008  0.4614232E+02  0.7816164E-02  0.1320468E+00
        -11   -1    0    0    0    0  0.00000000000E+00  0.00000000000E+00  0.45593999997E+02  0.45594000000E+02  0.51100000000E-03 0. -1.
         11   -1    0    0    0    0 -0.00000000000E+00 -0.00000000000E+00 -0.45593999997E+02  0.45594000000E+02  0.51100000000E-03 0.  1.
    9900012    2    1    2    0    0  0.30262641264E+02 -0.31228571597E+02 -0.11749995394E+02  0.46142317277E+02  0.99999955848E+01 0.  0.
         12    1    1    2    0    0 -0.30262641264E+02  0.31228571597E+02  0.11749995394E+02  0.45045682723E+02  0.00000000000E+00 0. -1.
         11    1    3    3    0    0  0.12338342899E-01  0.23501495867E+00 -0.93982482864E+00  0.96884221376E+00  0.51100000000E-03 0. -1.
        -11    1    3    3    0    0  0.27697956917E+02 -0.29335911479E+02 -0.88142979112E+01  0.41297268283E+02  0.51100000000E-03 0.  1.
         12    1    3    3    0    0  0.25523460036E+01 -0.21276750762E+01 -0.19958726539E+01  0.38762067801E+01  0.00000000000E+00 0. -1.
</event>
<event>
 7    1  0.1385632E-008  0.4614232E+02  0.7816164E-02  0.1320468E+00
        -11   -1    0    0    0    0  0.00000000000E+00  0.00000000000E+00  0.45593999997E+02  0.45594000000E+02  0.51100000000E-03 0.  1.
         11   -1    0    0    0    0 -0.00000000000E+00 -0.00000000000E+00 -0.45593999997E+02  0.45594000000E+02  0.51100000000E-03 0. -1.
    9900012    2    1    2    0    0 -0.39023855947E+01  0.11875054002E+02  0.43276644872E+02  0.46142317496E+02  0.99999975801E+01 0.  0.
         12    1    1    2    0    0  0.39023855947E+01 -0.11875054002E+02 -0.43276644872E+02  0.45045682504E+02  0.00000000000E+00 0. -1.
         11    1    3    3    0    0 -0.13800258745E+01  0.35000389415E+01  0.35553395135E+01  0.51764064102E+01  0.51100000000E-03 0. -1.
        -11    1    3    3    0    0  0.12013973714E+01  0.41469077302E+01  0.19658638331E+02  0.20127152323E+02  0.51100000000E-03 0.  1.
        -12    1    3    3    0    0 -0.37237570916E+01  0.42281073300E+01  0.20062667028E+02  0.20838758762E+02  0.00000000000E+00 0.  1.
</event>
<event>
 7    1  0.1385632E-008  0.4614232E+02  0.7816164E-02  0.1320468E+00
        -11   -1    0    0    0    0  0.00000000000E+00  0.00000000000E+00  0.45593999997E+02  0.45594000000E+02  0.51100000000E-03 0.  1.
         11   -1    0    0    0    0 -0.00000000000E+00 -0.00000000000E+00 -0.45593999997E+02  0.45594000000E+02  0.51100000000E-03 0. -1.
    9900012    2    1    2    0    0  0.23896127321E+02 -0.35091699085E+01  0.38023333933E+02  0.46142322097E+02  0.10000039537E+02 0.  0.
         12    1    1    2    0    0 -0.23896127321E+02  0.35091699085E+01 -0.38023333933E+02  0.45045677903E+02  0.00000000000E+00 0. -1.
         11    1    3    3    0    0 -0.49160508048E+00 -0.82041369614E+00  0.62273769562E+00  0.11412960556E+01  0.51100000000E-03 0. -1.
        -11    1    3    3    0    0  0.20494414823E+02 -0.12715359621E+01  0.27948974868E+02  0.34681162597E+02  0.51100000000E-03 0.  1.
        -12    1    3    3    0    0  0.38933175783E+01 -0.14172202502E+01  0.94516213691E+01  0.10319863444E+02  0.00000000000E+00 0.  1.
</event>
<event>
 7    1  0.1385632E-008  0.4614232E+02  0.7816164E-02  0.1320468E+00
        -11   -1    0    0    0    0  0.00000000000E+00  0.00000000000E+00  0.45593999997E+02  0.45594000000E+02  0.51100000000E-03 0.  1.
         11   -1    0    0    0    0 -0.00000000000E+00 -0.00000000000E+00 -0.45593999997E+02  0.45594000000E+02  0.51100000000E-03 0. -1.
    9900012    2    1    2    0    0 -0.34370204050E+02  0.14822219999E+02  0.25062010780E+02  0.46142317450E+02  0.99999971585E+01 0.  0.
         12    1    1    2    0    0  0.34370204050E+02 -0.14822219999E+02 -0.25062010780E+02  0.45045682550E+02  0.00000000000E+00 0. -1.
         11    1    3    3    0    0 -0.23862178497E+02  0.11609856262E+02  0.12991156916E+02  0.29545938526E+02  0.51100000000E-03 0. -1.
        -11    1    3    3    0    0 -0.90975331272E+01  0.15865906524E+01  0.99339110754E+01  0.13563368623E+02  0.51100000000E-03 0.  1.
        -12    1    3    3    0    0 -0.14104924249E+01  0.16257730841E+01  0.21369427886E+01  0.30330103006E+01  0.00000000000E+00 0.  1.
</event>
<event>
 7    1  0.1385632E-008  0.4614232E+02  0.7816164E-02  0.1320468E+00
        -11   -1    0    0    0    0  0.00000000000E+00  0.00000000000E+00  0.45593999997E+02  0.45594000000E+02  0.51100000000E-03 0.  1.
         11   -1    0    0    0    0 -0.00000000000E+00 -0.00000000000E+00 -0.45593999997E+02  0.45594000000E+02  0.51100000000E-03 0. -1.
    9900012    2    1    2    0    0 -0.61799820977E+01 -0.20726210989E+02  0.39513864226E+02  0.46142318001E+02  0.10000002187E+02 0.  0.
         12    1    1    2    0    0  0.61799820977E+01  0.20726210989E+02 -0.39513864226E+02  0.45045681999E+02  0.00000000000E+00 0. -1.
         11    1    3    3    0    0 -0.45620666996E-01 -0.12011331718E+02  0.25856292515E+02  0.28510033914E+02  0.51100000000E-03 0. -1.
        -11    1    3    3    0    0 -0.58541755457E+01 -0.84641356730E+01  0.13813081592E+02  0.17225393677E+02  0.51100000000E-03 0.  1.
         12    1    3    3    0    0 -0.28018588499E+00 -0.25074359797E+00 -0.15550988130E+00  0.40689040939E+00  0.00000000000E+00 0. -1.
</event>
<event>
 7    1  0.1385632E-008  0.4614232E+02  0.7816164E-02  0.1320468E+00
        -11   -1    0    0    0    0  0.00000000000E+00  0.00000000000E+00  0.45593999997E+02  0.45594000000E+02  0.51100000000E-03 0.  1.
         11   -1    0    0    0    0 -0.00000000000E+00 -0.00000000000E+00 -0.45593999997E+02  0.45594000000E+02  0.51100000000E-03 0. -1.
    9900012    2    1    2    0    0  0.38369383407E+02 -0.80155869907E+01  0.22195820516E+02  0.46142315787E+02  0.99999819985E+01 0.  0.
         12    1    1    2    0    0 -0.38369383407E+02  0.80155869907E+01 -0.22195820516E+02  0.45045684213E+02  0.00000000000E+00 0. -1.
         11    1    3    3    0    0  0.19743267401E+02 -0.47009769581E+01  0.83318591501E+01  0.21938907657E+02  0.51100000000E-03 0. -1.
        -11    1    3    3    0    0  0.30281282786E+01 -0.75272689372E-02 -0.68908456638E-01  0.30289216180E+01  0.51100000000E-03 0.  1.
        -12    1    3    3    0    0  0.15597987727E+02 -0.33070827637E+01  0.13932869823E+02  0.21174486512E+02  0.00000000000E+00 0.  1.
</event>
<event>
 7    1  0.1385632E-008  0.4614232E+02  0.7816164E-02  0.1320468E+00
        -11   -1    0    0    0    0  0.00000000000E+00  0.00000000000E+00  0.45593999997E+02  0.45594000000E+02  0.51100000000E-03 0.  1.
         11   -1    0    0    0    0 -0.00000000000E+00 -0.00000000000E+00 -0.45593999997E+02  0.45594000000E+02  0.51100000000E-03 0. -1.
    9900012    2    1    2    0    0  0.20510076658E+02  0.19615173898E+02  0.34981353946E+02  0.46142318571E+02  0.10000007382E+02 0.  0.
         12    1    1    2    0    0 -0.20510076658E+02 -0.19615173898E+02 -0.34981353946E+02  0.45045681429E+02  0.00000000000E+00 0. -1.
         11    1    3    3    0    0  0.41021231430E+01  0.20398253271E+01  0.99506031215E+01  0.10954579152E+02  0.51100000000E-03 0. -1.
        -11    1    3    3    0    0  0.15136665618E+02  0.16598420095E+02  0.24963872077E+02  0.33583047882E+02  0.51100000000E-03 0.  1.
         12    1    3    3    0    0  0.12712878967E+01  0.97692847571E+00  0.66878747345E-01  0.16046915373E+01  0.00000000000E+00 0. -1.
</event>
<event>
 7    1  0.1385632E-008  0.4614232E+02  0.7816164E-02  0.1320468E+00
        -11   -1    0    0    0    0  0.00000000000E+00  0.00000000000E+00  0.45593999997E+02  0.45594000000E+02  0.51100000000E-03 0.  1.
         11   -1    0    0    0    0 -0.00000000000E+00 -0.00000000000E+00 -0.45593999997E+02  0.45594000000E+02  0.51100000000E-03 0. -1.
    9900012    2    1    2    0    0 -0.18976483406E+02  0.29288786890E+02  0.28481108947E+02  0.46142317335E+02  0.99999961103E+01 0.  0.
         12    1    1    2    0    0  0.18976483406E+02 -0.29288786890E+02 -0.28481108947E+02  0.45045682665E+02  0.00000000000E+00 0. -1.
         11    1    3    3    0    0 -0.81642496876E+00  0.42182518771E+00 -0.44872061626E+00  0.10226615624E+01  0.51100000000E-03 0.  1.
        -11    1    3    3    0    0 -0.66434282891E+01  0.57117758260E+01  0.71076909732E+01  0.11281790361E+02  0.51100000000E-03 0. -1.
        -12    1    3    3    0    0 -0.11516630148E+02  0.23155185876E+02  0.21822138590E+02  0.33837865411E+02  0.00000000000E+00 0.  1.
</event>
<event>
 7    1  0.1385632E-008  0.4614232E+02  0.7816164E-02  0.1320468E+00
        -11   -1    0    0    0    0  0.00000000000E+00  0.00000000000E+00  0.45593999997E+02  0.45594000000E+02  0.51100000000E-03 0.  1.
         11   -1    0    0    0    0 -0.00000000000E+00 -0.00000000000E+00 -0.45593999997E+02  0.45594000000E+02  0.51100000000E-03 0. -1.
    9900012    2    1    2    0    0 -0.26921651048E+02  0.25517379660E+02  0.25557806847E+02  0.46142318180E+02  0.10000003816E+02 0.  0.
         12    1    1    2    0    0  0.26921651048E+02 -0.25517379660E+02 -0.25557806847E+02  0.45045681820E+02  0.00000000000E+00 0. -1.
         11    1    3    3    0    0 -0.52279038424E+01  0.79450668791E+01  0.63707463957E+01  0.11447334895E+02  0.51100000000E-03 0. -1.
        -11    1    3    3    0    0 -0.12450905621E+02  0.12048129223E+02  0.77297606936E+01  0.18971865201E+02  0.51100000000E-03 0.  1.
         12    1    3    3    0    0 -0.92428415840E+01  0.55241835574E+01  0.11457299758E+02  0.15723118083E+02  0.00000000000E+00 0. -1.
</event>
<event>
 7    1  0.1385632E-008  0.4614232E+02  0.7816164E-02  0.1320468E+00
        -11   -1    0    0    0    0  0.00000000000E+00  0.00000000000E+00  0.45593999997E+02  0.45594000000E+02  0.51100000000E-03 0.  1.
         11   -1    0    0    0    0 -0.00000000000E+00 -0.00000000000E+00 -0.45593999997E+02  0.45594000000E+02  0.51100000000E-03 0. -1.
    9900012    2    1    2    0    0  0.40543802030E+02 -0.10590064656E+02  0.16527676656E+02  0.46142318208E+02  0.10000004077E+02 0.  0.
         12    1    1    2    0    0 -0.40543802030E+02  0.10590064656E+02 -0.16527676656E+02  0.45045681792E+02  0.00000000000E+00 0. -1.
         11    1    3    3    0    0  0.41919589883E+01  0.85915697440E+00 -0.62140754866E+00  0.43239817840E+01  0.51100000000E-03 0. -1.
        -11    1    3    3    0    0  0.27710054604E+02 -0.90516689950E+01  0.12519320078E+02  0.31725592401E+02  0.51100000000E-03 0.  1.
         12    1    3    3    0    0  0.86417884374E+01 -0.23975526355E+01  0.46297641270E+01  0.10092744023E+02  0.00000000000E+00 0. -1.
</event>
<event>
 7    1  0.1385632E-008  0.4614232E+02  0.7816164E-02  0.1320468E+00
        -11   -1    0    0    0    0  0.00000000000E+00  0.00000000000E+00  0.45593999997E+02  0.45594000000E+02  0.51100000000E-03 0. -1.
         11   -1    0    0    0    0 -0.00000000000E+00 -0.00000000000E+00 -0.45593999997E+02  0.45594000000E+02  0.51100000000E-03 0.  1.
    9900012    2    1    2    0    0 -0.27814446779E+02  0.25409718211E+01 -0.35341384237E+02  0.46142318440E+02  0.10000006194E+02 0.  0.
         12    1    1    2    0    0  0.27814446779E+02 -0.25409718211E+01  0.35341384237E+02  0.45045681560E+02  0.00000000000E+00 0. -1.
         11    1    3    3    0    0 -0.32272233599E+01 -0.14725127995E+01 -0.29500692872E+01  0.46136941403E+01  0.51100000000E-03 0. -1.
        -11    1    3    3    0    0  0.41929095654E+00  0.53872215115E+00 -0.46414148646E+00  0.82550229736E+00  0.51100000000E-03 0.  1.
        -12    1    3    3    0    0 -0.25006514375E+02  0.34747624695E+01 -0.31927173463E+02  0.40703122003E+02  0.00000000000E+00 0.  1.
</event>
<event>
 7    1  0.1385632E-008  0.4614232E+02  0.7816164E-02  0.1320468E+00
        -11   -1    0    0    0    0  0.00000000000E+00  0.00000000000E+00  0.45593999997E+02  0.45594000000E+02  0.51100000000E-03 0.  1.
         11   -1    0    0    0    0 -0.00000000000E+00 -0.00000000000E+00 -0.45593999997E+02  0.45594000000E+02  0.51100000000E-03 0. -1.
    9900012    2    1    2    0    0 -0.11206555965E+02 -0.28958547644E+02  0.32633252595E+02  0.46142317042E+02  0.99999934390E+01 0.  0.
         12    1    1    2    0    0  0.11206555965E+02  0.28958547644E+02 -0.32633252595E+02  0.45045682958E+02  0.00000000000E+00 0. -1.
         11    1    3    3    0    0 -0.16728957893E+01 -0.24455861518E+01  0.93177588771E+00  0.31060712345E+01  0.51100000000E-03 0. -1.
        -11    1    3    3    0    0 -0.36350156126E+01 -0.16499023965E+02  0.14429062796E+02  0.22217762798E+02  0.51100000000E-03 0.  1.
         12    1    3    3    0    0 -0.58986445635E+01 -0.10013937527E+02  0.17272413911E+02  0.20818483009E+02  0.00000000000E+00 0. -1.
</event>
<event>
 7    1  0.1385632E-008  0.4614232E+02  0.7816164E-02  0.1320468E+00
        -11   -1    0    0    0    0  0.00000000000E+00  0.00000000000E+00  0.45593999997E+02  0.45594000000E+02  0.51100000000E-03 0. -1.
         11   -1    0    0    0    0 -0.00000000000E+00 -0.00000000000E+00 -0.45593999997E+02  0.45594000000E+02  0.51100000000E-03 0.  1.
    9900012    2    1    2    0    0 -0.13398609145E+02 -0.42321237380E+02 -0.76487696077E+01  0.46142317223E+02  0.99999950900E+01 0.  0.
         12    1    1    2    0    0  0.13398609145E+02  0.42321237380E+02  0.76487696077E+01  0.45045682777E+02  0.00000000000E+00 0. -1.
         11    1    3    3    0    0 -0.16986254933E+00 -0.33112532265E+01  0.12860876830E+01  0.35563004661E+01  0.51100000000E-03 0. -1.
        -11    1    3    3    0    0 -0.88479494455E+01 -0.19100826900E+02 -0.24431641179E+01  0.21191905266E+02  0.51100000000E-03 0.  1.
        -12    1    3    3    0    0 -0.43807971503E+01 -0.19909157253E+02 -0.64916931728E+01  0.21394111490E+02  0.00000000000E+00 0.  1.
</event>
<event>
 7    1  0.1524174E-008  0.4614232E+02  0.7816164E-02  0.1320468E+00
        -11   -1    0    0    0    0  0.00000000000E+00  0.00000000000E+00  0.45593999997E+02  0.45594000000E+02  0.51100000000E-03 0. -1.
         11   -1    0    0    0    0 -0.00000000000E+00 -0.00000000000E+00 -0.45593999997E+02  0.45594000000E+02  0.51100000000E-03 0.  1.
    9900012    2    1    2    0    0  0.44764722246E+02 -0.90515085950E+00  0.49410355889E+01  0.46142317760E+02  0.99999999869E+01 0.  0.
         12    1    1    2    0    0 -0.44764722246E+02  0.90515085950E+00 -0.49410355889E+01  0.45045682240E+02  0.00000000000E+00 0. -1.
         11    1    3    3    0    0  0.83072829511E+01  0.25907352622E+01  0.20131838389E+01  0.89317282011E+01  0.51100000000E-03 0. -1.
        -11    1    3    3    0    0  0.32696316791E+02 -0.38928873047E+01  0.42581345899E+01  0.33201436923E+02  0.51100000000E-03 0.  1.
        -12    1    3    3    0    0  0.37611225031E+01  0.39700118297E+00 -0.13302828399E+01  0.40091526358E+01  0.00000000000E+00 0.  1.
</event>
<event>
 7    1  0.1385632E-008  0.4614232E+02  0.7816164E-02  0.1320468E+00
        -11   -1    0    0    0    0  0.00000000000E+00  0.00000000000E+00  0.45593999997E+02  0.45594000000E+02  0.51100000000E-03 0. -1.
         11   -1    0    0    0    0 -0.00000000000E+00 -0.00000000000E+00 -0.45593999997E+02  0.45594000000E+02  0.51100000000E-03 0.  1.
    9900012    2    1    2    0    0  0.15672066326E+02 -0.19977929361E+02 -0.37207286383E+02  0.46142317805E+02  0.10000000400E+02 0.  0.
         12    1    1    2    0    0 -0.15672066326E+02  0.19977929361E+02  0.37207286383E+02  0.45045682195E+02  0.00000000000E+00 0. -1.
         11    1    3    3    0    0 -0.31739680991E+00 -0.64173682763E+00 -0.29411682507E+00  0.77399732479E+00  0.51100000000E-03 0. -1.
        -11    1    3    3    0    0  0.25168188352E+01 -0.14239318986E+01 -0.10482433880E+01  0.30758370507E+01  0.51100000000E-03 0.  1.
        -12    1    3    3    0    0  0.13472644300E+02 -0.17912260634E+02 -0.35864926170E+02  0.42292483429E+02  0.00000000000E+00 0.  1.
</event>
<event>
 7    1  0.1385632E-008  0.4614232E+02  0.7816164E-02  0.1320468E+00
        -11   -1    0    0    0    0  0.00000000000E+00  0.00000000000E+00  0.45593999997E+02  0.45594000000E+02  0.51100000000E-03 0.  1.
         11   -1    0    0    0    0 -0.00000000000E+00 -0.00000000000E+00 -0.45593999997E+02  0.45594000000E+02  0.51100000000E-03 0. -1.
    9900012    2    1    2    0    0  0.42060991361E+02 -0.49205674402E+01  0.15354949391E+02  0.46142318199E+02  0.10000003989E+02 0.  0.
         12    1    1    2    0    0 -0.42060991361E+02  0.49205674402E+01 -0.15354949391E+02  0.45045681801E+02  0.00000000000E+00 0. -1.
         11    1    3    3    0    0  0.12583358028E+02 -0.56243730529E+01  0.57732053960E+01  0.14943372187E+02  0.51100000000E-03 0. -1.
        -11    1    3    3    0    0  0.15292352432E+02  0.15822179022E+01  0.36696763368E+01  0.15805884381E+02  0.51100000000E-03 0.  1.
         12    1    3    3    0    0  0.14185280900E+02 -0.87841228946E+00  0.59120676578E+01  0.15393061630E+02  0.00000000000E+00 0. -1.
</event>
<event>
 7    1  0.1385632E-008  0.4614232E+02  0.7816164E-02  0.1320468E+00
        -11   -1    0    0    0    0  0.00000000000E+00  0.00000000000E+00  0.45593999997E+02  0.45594000000E+02  0.51100000000E-03 0. -1.
         11   -1    0    0    0    0 -0.00000000000E+00 -0.00000000000E+00 -0.45593999997E+02  0.45594000000E+02  0.51100000000E-03 0.  1.
    9900012    2    1    2    0    0 -0.24284506037E+02  0.14965551845E+02 -0.34862712808E+02  0.46142315191E+02  0.99999765679E+01 0.  0.
         12    1    1    2    0    0  0.24284506037E+02 -0.14965551845E+02  0.34862712808E+02  0.45045684809E+02  0.00000000000E+00 0. -1.
         11    1    3    3    0    0 -0.83890360933E+00 -0.12255200265E+01 -0.21526085318E+01  0.26152212819E+01  0.51100000000E-03 0. -1.
        -11    1    3    3    0    0 -0.48805089451E+01  0.17400578847E+01 -0.63283454695E+01  0.81789440423E+01  0.51100000000E-03 0.  1.
         12    1    3    3    0    0 -0.18565093483E+02  0.14451013987E+02 -0.26381758807E+02  0.35348149867E+02  0.00000000000E+00 0. -1.
</event>
<event>
 7    1  0.1385632E-008  0.4614232E+02  0.7816164E-02  0.1320468E+00
        -11   -1    0    0    0    0  0.00000000000E+00  0.00000000000E+00  0.45593999997E+02  0.45594000000E+02  0.51100000000E-03 0.  1.
         11   -1    0    0    0    0 -0.00000000000E+00 -0.00000000000E+00 -0.45593999997E+02  0.45594000000E+02  0.51100000000E-03 0. -1.
    9900012    2    1    2    0    0 -0.44026094549E+02  0.85392318800E+01  0.42306081434E+01  0.46142317326E+02  0.99999960329E+01 0.  0.
         12    1    1    2    0    0  0.44026094549E+02 -0.85392318800E+01 -0.42306081434E+01  0.45045682674E+02  0.00000000000E+00 0. -1.
         11    1    3    3    0    0 -0.14726981268E+02  0.15389289128E+01 -0.24529011782E+01  0.15008964119E+02  0.51100000000E-03 0. -1.
        -11    1    3    3    0    0 -0.29345415871E+02  0.69343505880E+01  0.68734208963E+01  0.30927052329E+02  0.51100000000E-03 0.  1.
        -12    1    3    3    0    0  0.46302589889E-01  0.65952379216E-01 -0.18991157470E+00  0.20630087823E+00  0.00000000000E+00 0.  1.
</event>
<event>
 7    1  0.1385632E-008  0.4614232E+02  0.7816164E-02  0.1320468E+00
        -11   -1    0    0    0    0  0.00000000000E+00  0.00000000000E+00  0.45593999997E+02  0.45594000000E+02  0.51100000000E-03 0.  1.
         11   -1    0    0    0    0 -0.00000000000E+00 -0.00000000000E+00 -0.45593999997E+02  0.45594000000E+02  0.51100000000E-03 0. -1.
    9900012    2    1    2    0    0  0.10999423270E+02 -0.42881633823E+02  0.83241585734E+01  0.46142318215E+02  0.10000004135E+02 0.  0.
         12    1    1    2    0    0 -0.10999423270E+02  0.42881633823E+02 -0.83241585734E+01  0.45045681785E+02  0.00000000000E+00 0. -1.
         11    1    3    3    0    0  0.92155058435E+01 -0.26144951606E+02  0.74067744501E+01  0.28693977599E+02  0.51100000000E-03 0. -1.
        -11    1    3    3    0    0  0.19025434303E+01 -0.14060548962E+02 -0.89048627400E+00  0.14216598563E+02  0.51100000000E-03 0.  1.
         12    1    3    3    0    0 -0.11862600420E+00 -0.26761332541E+01  0.18078703973E+01  0.32317420529E+01  0.00000000000E+00 0. -1.
</event>
<event>
 7    1  0.1385632E-008  0.4614232E+02  0.7816164E-02  0.1320468E+00
        -11   -1    0    0    0    0  0.00000000000E+00  0.00000000000E+00  0.45593999997E+02  0.45594000000E+02  0.51100000000E-03 0.  1.
         11   -1    0    0    0    0 -0.00000000000E+00 -0.00000000000E+00 -0.45593999997E+02  0.45594000000E+02  0.51100000000E-03 0. -1.
    9900012    2    1    2    0    0  0.70869203540E+01 -0.42667997853E+02  0.12582965602E+02  0.46142317585E+02  0.99999983922E+01 0.  0.
         12    1    1    2    0    0 -0.70869203540E+01  0.42667997853E+02 -0.12582965602E+02  0.45045682415E+02  0.00000000000E+00 0. -1.
         11    1    3    3    0    0 -0.47835908163E+00 -0.16472081244E+02  0.34814646542E+01  0.16842769497E+02  0.51100000000E-03 0. -1.
        -11    1    3    3    0    0  0.55695207624E+01 -0.94290286663E+01  0.40311194041E+01  0.11669450159E+02  0.51100000000E-03 0.  1.
        -12    1    3    3    0    0  0.19957586732E+01 -0.16766887943E+02  0.50703815437E+01  0.17630097928E+02  0.00000000000E+00 0.  1.
</event>
<event>
 7    1  0.1742967E-008  0.4614231E+02  0.7816164E-02  0.1320468E+00
        -11   -1    0    0    0    0  0.00000000000E+00  0.00000000000E+00  0.45593999997E+02  0.45594000000E+02  0.51100000000E-03 0. -1.
         11   -1    0    0    0    0 -0.00000000000E+00 -0.00000000000E+00 -0.45593999997E+02  0.45594000000E+02  0.51100000000E-03 0.  1.
    9900012    2    1    2    0    0 -0.37366900215E+01  0.43800731569E+02  0.98309141191E+01  0.46142314184E+02  0.99999673769E+01 0.  0.
         12    1    1    2    0    0  0.37366900215E+01 -0.43800731569E+02 -0.98309141191E+01  0.45045685816E+02  0.00000000000E+00 0. -1.
         11    1    3    3    0    0  0.10483729626E+01  0.13786728409E+02  0.60852129238E+01  0.15106382183E+02  0.51100000000E-03 0. -1.
        -11    1    3    3    0    0 -0.57049098494E+01  0.27729678040E+02  0.30338395329E+01  0.28472534541E+02  0.51100000000E-03 0.  1.
        -12    1    3    3    0    0  0.91984686536E+00  0.22843251197E+01  0.71186166241E+00  0.25633974594E+01  0.00000000000E+00 0.  1.
</event>
<event>
 7    1  0.1385632E-008  0.4614232E+02  0.7816164E-02  0.1320468E+00
        -11   -1    0    0    0    0  0.00000000000E+00  0.00000000000E+00  0.45593999997E+02  0.45594000000E+02  0.51100000000E-03 0.  1.
         11   -1    0    0    0    0 -0.00000000000E+00 -0.00000000000E+00 -0.45593999997E+02  0.45594000000E+02  0.51100000000E-03 0. -1.
    9900012    2    1    2    0    0 -0.18978579314E+02  0.95792291254E+01  0.39713535990E+02  0.46142322691E+02  0.10000044954E+02 0.  0.
         12    1    1    2    0    0  0.18978579314E+02 -0.95792291254E+01 -0.39713535990E+02  0.45045677309E+02  0.00000000000E+00 0. -1.
         11    1    3    3    0    0 -0.65959402888E+01  0.60374374208E+01  0.19395406632E+02  0.21357408026E+02  0.51100000000E-03 0. -1.
        -11    1    3    3    0    0 -0.10415886194E+02  0.48963423008E+01  0.14620744115E+02  0.18607283839E+02  0.51100000000E-03 0.  1.
         12    1    3    3    0    0 -0.19667528318E+01 -0.13545505963E+01  0.56973852422E+01  0.61776308256E+01  0.00000000000E+00 0. -1.
</event>
<event>
 7    1  0.1385632E-008  0.4614232E+02  0.7816164E-02  0.1320468E+00
        -11   -1    0    0    0    0  0.00000000000E+00  0.00000000000E+00  0.45593999997E+02  0.45594000000E+02  0.51100000000E-03 0. -1.
         11   -1    0    0    0    0 -0.00000000000E+00 -0.00000000000E+00 -0.45593999997E+02  0.45594000000E+02  0.51100000000E-03 0.  1.
    9900012    2    1    2    0    0 -0.43526799941E+02 -0.11522985337E+02  0.13236488118E+01  0.46142317073E+02  0.99999937233E+01 0.  0.
         12    1    1    2    0    0  0.43526799941E+02  0.11522985337E+02 -0.13236488118E+01  0.45045682927E+02  0.00000000000E+00 0. -1.
         11    1    3    3    0    0 -0.51345138223E+01 -0.34238614225E+01  0.29830590316E+01  0.68545386919E+01  0.51100000000E-03 0. -1.
        -11    1    3    3    0    0 -0.20812296000E+02 -0.45225321344E+01 -0.14342396691E+01  0.21346241013E+02  0.51100000000E-03 0.  1.
         12    1    3    3    0    0 -0.17579990119E+02 -0.35765917803E+01 -0.22517055069E+00  0.17941537368E+02  0.00000000000E+00 0. -1.
</event>
<event>
 7    1  0.1385632E-008  0.4614232E+02  0.7816164E-02  0.1320468E+00
        -11   -1    0    0    0    0  0.00000000000E+00  0.00000000000E+00  0.45593999997E+02  0.45594000000E+02  0.51100000000E-03 0.  1.
         11   -1    0    0    0    0 -0.00000000000E+00 -0.00000000000E+00 -0.45593999997E+02  0.45594000000E+02  0.51100000000E-03 0. -1.
    9900012    2    1    2    0    0 -0.16766890703E+02 -0.38421737956E+02  0.16484984948E+02  0.46142319850E+02  0.10000019052E+02 0.  0.
         12    1    1    2    0    0  0.16766890703E+02  0.38421737956E+02 -0.16484984948E+02  0.45045680150E+02  0.00000000000E+00 0. -1.
         11    1    3    3    0    0 -0.26319957660E+01 -0.11726575469E+01  0.25773998899E+01  0.38659433374E+01  0.51100000000E-03 0. -1.
        -11    1    3    3    0    0 -0.61089092932E+01 -0.13452545295E+02  0.42984642111E+01  0.15387220103E+02  0.51100000000E-03 0.  1.
         12    1    3    3    0    0 -0.80259856437E+01 -0.23796535114E+02  0.96091208475E+01  0.26889156410E+02  0.00000000000E+00 0. -1.
</event>
<event>
 7    1  0.1385632E-008  0.4614232E+02  0.7816164E-02  0.1320468E+00
        -11   -1    0    0    0    0  0.00000000000E+00  0.00000000000E+00  0.45593999997E+02  0.45594000000E+02  0.51100000000E-03 0.  1.
         11   -1    0    0    0    0 -0.00000000000E+00 -0.00000000000E+00 -0.45593999997E+02  0.45594000000E+02  0.51100000000E-03 0. -1.
    9900012    2    1    2    0    0 -0.97807489722E+01  0.20047328070E+02  0.39135084363E+02  0.46142320504E+02  0.10000025011E+02 0.  0.
         12    1    1    2    0    0  0.97807489722E+01 -0.20047328070E+02 -0.39135084363E+02  0.45045679496E+02  0.00000000000E+00 0. -1.
         11    1    3    3    0    0 -0.24707430596E+01  0.88860452217E+01  0.81626691692E+01  0.12316474300E+02  0.51100000000E-03 0. -1.
        -11    1    3    3    0    0 -0.64232798913E+01  0.78106361411E+01  0.23827225338E+02  0.25884381952E+02  0.51100000000E-03 0.  1.
         12    1    3    3    0    0 -0.88672602130E+00  0.33506467070E+01  0.71451898554E+01  0.79414642518E+01  0.00000000000E+00 0. -1.
</event>
<event>
 7    1  0.1385632E-008  0.4614232E+02  0.7816164E-02  0.1320468E+00
        -11   -1    0    0    0    0  0.00000000000E+00  0.00000000000E+00  0.45593999997E+02  0.45594000000E+02  0.51100000000E-03 0.  1.
         11   -1    0    0    0    0 -0.00000000000E+00 -0.00000000000E+00 -0.45593999997E+02  0.45594000000E+02  0.51100000000E-03 0. -1.
    9900012    2    1    2    0    0 -0.35310972695E+02 -0.23864996756E+02  0.14584603880E+02  0.46142317264E+02  0.99999954657E+01 0.  0.
         12    1    1    2    0    0  0.35310972695E+02  0.23864996756E+02 -0.14584603880E+02  0.45045682736E+02  0.00000000000E+00 0. -1.
         11    1    3    3    0    0 -0.25751909440E+02 -0.19456071671E+02  0.84308169870E+01  0.33358330893E+02  0.51100000000E-03 0. -1.
        -11    1    3    3    0    0 -0.84141309032E+01 -0.35653216063E+01  0.66234962141E+01  0.11286266848E+02  0.51100000000E-03 0.  1.
        -12    1    3    3    0    0 -0.11449323520E+01 -0.84360347954E+00 -0.46970932151E+00  0.14977195225E+01  0.00000000000E+00 0.  1.
</event>
<event>
 7    1  0.1385632E-008  0.4614232E+02  0.7816164E-02  0.1320468E+00
        -11   -1    0    0    0    0  0.00000000000E+00  0.00000000000E+00  0.45593999997E+02  0.45594000000E+02  0.51100000000E-03 0.  1.
         11   -1    0    0    0    0 -0.00000000000E+00 -0.00000000000E+00 -0.45593999997E+02  0.45594000000E+02  0.51100000000E-03 0. -1.
    9900012    2    1    2    0    0 -0.14682794862E+02 -0.26111686683E+02  0.33640880130E+02  0.46142318050E+02  0.10000002636E+02 0.  0.
         12    1    1    2    0    0  0.14682794862E+02  0.26111686683E+02 -0.33640880130E+02  0.45045681950E+02  0.00000000000E+00 0. -1.
         11    1    3    3    0    0 -0.13732555865E+01 -0.51244087760E+01  0.52540366703E+01  0.74666122039E+01  0.51100000000E-03 0. -1.
        -11    1    3    3    0    0 -0.13844894628E+02 -0.21300350356E+02  0.28331014131E+02  0.38053020833E+02  0.51100000000E-03 0.  1.
        -12    1    3    3    0    0  0.53535535268E+00  0.31307244875E+00  0.55829328457E-01  0.62268501325E+00  0.00000000000E+00 0.  1.
</event>
<event>
 7    1  0.1385632E-008  0.4614232E+02  0.7816164E-02  0.1320468E+00
        -11   -1    0    0    0    0  0.00000000000E+00  0.00000000000E+00  0.45593999997E+02  0.45594000000E+02  0.51100000000E-03 0. -1.
         11   -1    0    0    0    0 -0.00000000000E+00 -0.00000000000E+00 -0.45593999997E+02  0.45594000000E+02  0.51100000000E-03 0.  1.
    9900012    2    1    2    0    0 -0.27465986296E+02  0.23713643037E+02 -0.26690753176E+02  0.46142316806E+02  0.99999912932E+01 0.  0.
         12    1    1    2    0    0  0.27465986296E+02 -0.23713643037E+02  0.26690753176E+02  0.45045683194E+02  0.00000000000E+00 0. -1.
         11    1    3    3    0    0 -0.17987839041E+01  0.34170428316E+01 -0.65065178703E+01  0.75661469920E+01  0.51100000000E-03 0.  1.
        -11    1    3    3    0    0 -0.17701159590E+02  0.12888242958E+02 -0.12049876901E+02  0.24992746767E+02  0.51100000000E-03 0. -1.
        -12    1    3    3    0    0 -0.79660428016E+01  0.74083572469E+01 -0.81343584048E+01  0.13583423047E+02  0.00000000000E+00 0.  1.
</event>
<event>
 7    1  0.1385632E-008  0.4614232E+02  0.7816164E-02  0.1320468E+00
        -11   -1    0    0    0    0  0.00000000000E+00  0.00000000000E+00  0.45593999997E+02  0.45594000000E+02  0.51100000000E-03 0. -1.
         11   -1    0    0    0    0 -0.00000000000E+00 -0.00000000000E+00 -0.45593999997E+02  0.45594000000E+02  0.51100000000E-03 0.  1.
    9900012    2    1    2    0    0 -0.78282272714E+01  0.39867379966E+02  0.19453131577E+02  0.46142318124E+02  0.10000003305E+02 0.  0.
         12    1    1    2    0    0  0.78282272714E+01 -0.39867379966E+02 -0.19453131577E+02  0.45045681876E+02  0.00000000000E+00 0. -1.
         11    1    3    3    0    0  0.75734530360E+00  0.12051933026E+02  0.57345248081E+01  0.13368150082E+02  0.51100000000E-03 0. -1.
        -11    1    3    3    0    0 -0.33980924680E+01  0.98042719145E+01  0.17166366403E+01  0.10517491232E+02  0.51100000000E-03 0.  1.
         12    1    3    3    0    0 -0.51874801070E+01  0.18011175026E+02  0.12001970128E+02  0.22256676810E+02  0.00000000000E+00 0. -1.
</event>
<event>
 7    1  0.1385632E-008  0.4614232E+02  0.7816164E-02  0.1320468E+00
        -11   -1    0    0    0    0  0.00000000000E+00  0.00000000000E+00  0.45593999997E+02  0.45594000000E+02  0.51100000000E-03 0. -1.
         11   -1    0    0    0    0 -0.00000000000E+00 -0.00000000000E+00 -0.45593999997E+02  0.45594000000E+02  0.51100000000E-03 0.  1.
    9900012    2    1    2    0    0 -0.10608038116E+02  0.26097334178E+02 -0.35149848923E+02  0.46142320927E+02  0.10000028867E+02 0.  0.
         12    1    1    2    0    0  0.10608038116E+02 -0.26097334178E+02  0.35149848923E+02  0.45045679073E+02  0.00000000000E+00 0. -1.
         11    1    3    3    0    0 -0.21511952656E+01  0.95173834189E+01 -0.86004519826E+01  0.13006767576E+02  0.51100000000E-03 0. -1.
        -11    1    3    3    0    0 -0.81299517331E+01  0.15127761097E+02 -0.19738868248E+02  0.26164254068E+02  0.51100000000E-03 0.  1.
        -12    1    3    3    0    0 -0.32689111782E+00  0.14521896627E+01 -0.68105286924E+01  0.69712992827E+01  0.00000000000E+00 0.  1.
</event>
<event>
 7    1  0.1385632E-008  0.4614232E+02  0.7816164E-02  0.1320468E+00
        -11   -1    0    0    0    0  0.00000000000E+00  0.00000000000E+00  0.45593999997E+02  0.45594000000E+02  0.51100000000E-03 0.  1.
         11   -1    0    0    0    0 -0.00000000000E+00 -0.00000000000E+00 -0.45593999997E+02  0.45594000000E+02  0.51100000000E-03 0. -1.
    9900012    2    1    2    0    0  0.32013939374E+02 -0.31878390710E+01  0.31528698708E+02  0.46142317916E+02  0.10000001412E+02 0.  0.
         12    1    1    2    0    0 -0.32013939374E+02  0.31878390710E+01 -0.31528698708E+02  0.45045682084E+02  0.00000000000E+00 0. -1.
         11    1    3    3    0    0  0.27200930281E+02 -0.30956367363E+01  0.25438523949E+02  0.37371005819E+02  0.51100000000E-03 0. -1.
        -11    1    3    3    0    0  0.54288813677E+01  0.16321134357E+00  0.45223410546E+01  0.70675992899E+01  0.51100000000E-03 0.  1.
         12    1    3    3    0    0 -0.61587227424E+00 -0.25541367827E+00  0.15678337045E+01  0.17037128074E+01  0.00000000000E+00 0. -1.
</event>
<event>
 7    1  0.1385632E-008  0.4614232E+02  0.7816164E-02  0.1320468E+00
        -11   -1    0    0    0    0  0.00000000000E+00  0.00000000000E+00  0.45593999997E+02  0.45594000000E+02  0.51100000000E-03 0.  1.
         11   -1    0    0    0    0 -0.00000000000E+00 -0.00000000000E+00 -0.45593999997E+02  0.45594000000E+02  0.51100000000E-03 0. -1.
    9900012    2    1    2    0    0  0.12449086905E+02  0.43661296069E+01  0.43070530738E+02  0.46142317958E+02  0.10000001798E+02 0.  0.
         12    1    1    2    0    0 -0.12449086905E+02 -0.43661296069E+01 -0.43070530738E+02  0.45045682042E+02  0.00000000000E+00 0. -1.
         11    1    3    3    0    0  0.37258877844E+01  0.23278327006E+01  0.12216758464E+02  0.12982689725E+02  0.51100000000E-03 0. -1.
        -11    1    3    3    0    0  0.65738573851E+01  0.45071830167E+01  0.26738714950E+02  0.27901418908E+02  0.51100000000E-03 0.  1.
        -12    1    3    3    0    0  0.21493417353E+01 -0.24688861105E+01  0.41150573245E+01  0.52582093250E+01  0.00000000000E+00 0.  1.
</event>
<event>
 7    1  0.1385632E-008  0.4614232E+02  0.7816164E-02  0.1320468E+00
        -11   -1    0    0    0    0  0.00000000000E+00  0.00000000000E+00  0.45593999997E+02  0.45594000000E+02  0.51100000000E-03 0. -1.
         11   -1    0    0    0    0 -0.00000000000E+00 -0.00000000000E+00 -0.45593999997E+02  0.45594000000E+02  0.51100000000E-03 0.  1.
    9900012    2    1    2    0    0  0.12473421835E+02  0.12145862749E+02 -0.41545218873E+02  0.46142318238E+02  0.10000004349E+02 0.  0.
         12    1    1    2    0    0 -0.12473421835E+02 -0.12145862749E+02  0.41545218873E+02  0.45045681762E+02  0.00000000000E+00 0. -1.
         11    1    3    3    0    0  0.11274656829E+02  0.97120493407E+01 -0.33876009856E+02  0.37000349093E+02  0.51100000000E-03 0. -1.
        -11    1    3    3    0    0  0.25013089266E+01  0.22572447707E+01 -0.39196792565E+01  0.51687122222E+01  0.51100000000E-03 0.  1.
         12    1    3    3    0    0 -0.13025439199E+01  0.17656863735E+00 -0.37495297605E+01  0.39732569225E+01  0.00000000000E+00 0. -1.
</event>
<event>
 7    1  0.1385632E-008  0.4614232E+02  0.7816164E-02  0.1320468E+00
        -11   -1    0    0    0    0  0.00000000000E+00  0.00000000000E+00  0.45593999997E+02  0.45594000000E+02  0.51100000000E-03 0.  1.
         11   -1    0    0    0    0 -0.00000000000E+00 -0.00000000000E+00 -0.45593999997E+02  0.45594000000E+02  0.51100000000E-03 0. -1.
    9900012    2    1    2    0    0  0.26063955910E+02  0.25834801318E+01  0.36648455558E+02  0.46142318053E+02  0.10000002660E+02 0.  0.
         12    1    1    2    0    0 -0.26063955910E+02 -0.25834801318E+01 -0.36648455558E+02  0.45045681947E+02  0.00000000000E+00 0. -1.
         11    1    3    3    0    0 -0.69226369961E-01  0.16733922515E+01  0.33854030859E+01  0.37770343171E+01  0.51100000000E-03 0. -1.
        -11    1    3    3    0    0  0.19164179306E+02 -0.20436762255E+00  0.24922779008E+02  0.31439663617E+02  0.51100000000E-03 0.  1.
         12    1    3    3    0    0  0.69690029738E+01  0.11144555028E+01  0.83402734648E+01  0.10925620119E+02  0.00000000000E+00 0. -1.
</event>
<event>
 7    1  0.1385632E-008  0.4614232E+02  0.7816164E-02  0.1320468E+00
        -11   -1    0    0    0    0  0.00000000000E+00  0.00000000000E+00  0.45593999997E+02  0.45594000000E+02  0.51100000000E-03 0.  1.
         11   -1    0    0    0    0 -0.00000000000E+00 -0.00000000000E+00 -0.45593999997E+02  0.45594000000E+02  0.51100000000E-03 0. -1.
    9900012    2    1    2    0    0 -0.11671198828E+01 -0.97781134229E+01  0.43956112441E+02  0.46142317722E+02  0.99999996457E+01 0.  0.
         12    1    1    2    0    0  0.11671198828E+01  0.97781134229E+01 -0.43956112441E+02  0.45045682278E+02  0.00000000000E+00 0. -1.
         11    1    3    3    0    0  0.17584578413E-01  0.15395975734E+01  0.11285850860E+02  0.11390395068E+02  0.51100000000E-03 0. -1.
        -11    1    3    3    0    0  0.39948403751E+00 -0.91312810031E+01  0.24711772755E+02  0.26347895423E+02  0.51100000000E-03 0.  1.
         12    1    3    3    0    0 -0.15841884988E+01 -0.21864299933E+01  0.79584888257E+01  0.84040272312E+01  0.00000000000E+00 0. -1.
</event>
<event>
 7    1  0.1385632E-008  0.4614232E+02  0.7816164E-02  0.1320468E+00
        -11   -1    0    0    0    0  0.00000000000E+00  0.00000000000E+00  0.45593999997E+02  0.45594000000E+02  0.51100000000E-03 0.  1.
         11   -1    0    0    0    0 -0.00000000000E+00 -0.00000000000E+00 -0.45593999997E+02  0.45594000000E+02  0.51100000000E-03 0. -1.
    9900012    2    1    2    0    0 -0.17200791158E+02 -0.85413996448E+01  0.40746667192E+02  0.46142316394E+02  0.99999875294E+01 0.  0.
         12    1    1    2    0    0  0.17200791158E+02  0.85413996448E+01 -0.40746667192E+02  0.45045683606E+02  0.00000000000E+00 0. -1.
         11    1    3    3    0    0 -0.20755101667E+01  0.78014689967E-01  0.82030832005E+00  0.22330998064E+01  0.51100000000E-03 0. -1.
        -11    1    3    3    0    0 -0.60402335457E+01 -0.16081895713E+01  0.93185383595E+01  0.11220777709E+02  0.51100000000E-03 0.  1.
         12    1    3    3    0    0 -0.90850474452E+01 -0.70112247635E+01  0.30607820512E+02  0.32688438878E+02  0.00000000000E+00 0. -1.
</event>
<event>
 7    1  0.1385632E-008  0.4614232E+02  0.7816164E-02  0.1320468E+00
        -11   -1    0    0    0    0  0.00000000000E+00  0.00000000000E+00  0.45593999997E+02  0.45594000000E+02  0.51100000000E-03 0. -1.
         11   -1    0    0    0    0 -0.00000000000E+00 -0.00000000000E+00 -0.45593999997E+02  0.45594000000E+02  0.51100000000E-03 0.  1.
    9900012    2    1    2    0    0 -0.23227256234E+01  0.43568274436E+01 -0.44774282935E+02  0.46142318608E+02  0.10000007727E+02 0.  0.
         12    1    1    2    0    0  0.23227256234E+01 -0.43568274436E+01  0.44774282935E+02  0.45045681392E+02  0.00000000000E+00 0. -1.
         11    1    3    3    0    0  0.32158760260E+00 -0.13971154636E+01 -0.14656167053E+01  0.20502153040E+01  0.51100000000E-03 0. -1.
        -11    1    3    3    0    0 -0.30633030512E+01  0.47339729117E+01 -0.20631777366E+02  0.21388421229E+02  0.51100000000E-03 0.  1.
        -12    1    3    3    0    0  0.41898982520E+00  0.10199699955E+01 -0.22676888863E+02  0.22703682076E+02  0.00000000000E+00 0.  1.
</event>
<event>
 7    1  0.1385632E-008  0.4614232E+02  0.7816164E-02  0.1320468E+00
        -11   -1    0    0    0    0  0.00000000000E+00  0.00000000000E+00  0.45593999997E+02  0.45594000000E+02  0.51100000000E-03 0.  1.
         11   -1    0    0    0    0 -0.00000000000E+00 -0.00000000000E+00 -0.45593999997E+02  0.45594000000E+02  0.51100000000E-03 0. -1.
    9900012    2    1    2    0    0 -0.40582383264E+00  0.18839587780E+02  0.40914775184E+02  0.46142316644E+02  0.99999898102E+01 0.  0.
         12    1    1    2    0    0  0.40582383264E+00 -0.18839587780E+02 -0.40914775184E+02  0.45045683356E+02  0.00000000000E+00 0. -1.
         11    1    3    3    0    0  0.15393994172E+01  0.47940353309E+00  0.74847812621E+01  0.76564697554E+01  0.51100000000E-03 0. -1.
        -11    1    3    3    0    0 -0.28051335737E+01  0.81635238096E+01  0.18119312031E+02  0.20070410163E+02  0.51100000000E-03 0.  1.
         12    1    3    3    0    0  0.85991032388E+00  0.10196660437E+02  0.15310681890E+02  0.18415436725E+02  0.00000000000E+00 0. -1.
</event>
<event>
 7    1  0.1385632E-008  0.4614232E+02  0.7816164E-02  0.1320468E+00
        -11   -1    0    0    0    0  0.00000000000E+00  0.00000000000E+00  0.45593999997E+02  0.45594000000E+02  0.51100000000E-03 0. -1.
         11   -1    0    0    0    0 -0.00000000000E+00 -0.00000000000E+00 -0.45593999997E+02  0.45594000000E+02  0.51100000000E-03 0.  1.
    9900012    2    1    2    0    0  0.13776318893E+02  0.35003573415E+02 -0.24780563914E+02  0.46142318054E+02  0.10000002672E+02 0.  0.
         12    1    1    2    0    0 -0.13776318893E+02 -0.35003573415E+02  0.24780563914E+02  0.45045681946E+02  0.00000000000E+00 0. -1.
         11    1    3    3    0    0  0.70393358606E+01  0.19377595135E+02 -0.19075811856E+02  0.28087898476E+02  0.51100000000E-03 0. -1.
        -11    1    3    3    0    0  0.34967261250E+01  0.92704343975E+01 -0.24122639358E+01  0.10197404820E+02  0.51100000000E-03 0.  1.
         12    1    3    3    0    0  0.32402569071E+01  0.63555438829E+01 -0.32924881226E+01  0.78570147582E+01  0.00000000000E+00 0. -1.
</event>
<event>
 7    1  0.1385632E-008  0.4614232E+02  0.7816164E-02  0.1320468E+00
        -11   -1    0    0    0    0  0.00000000000E+00  0.00000000000E+00  0.45593999997E+02  0.45594000000E+02  0.51100000000E-03 0.  1.
         11   -1    0    0    0    0 -0.00000000000E+00 -0.00000000000E+00 -0.45593999997E+02  0.45594000000E+02  0.51100000000E-03 0. -1.
    9900012    2    1    2    0    0  0.22168789649E+02  0.14172896414E+02  0.36562099426E+02  0.46142319389E+02  0.10000014845E+02 0.  0.
         12    1    1    2    0    0 -0.22168789649E+02 -0.14172896414E+02 -0.36562099426E+02  0.45045680611E+02  0.00000000000E+00 0. -1.
         11    1    3    3    0    0  0.47497485506E+01  0.98172552211E+00  0.34508007568E+01  0.59524719586E+01  0.51100000000E-03 0. -1.
        -11    1    3    3    0    0 -0.16683469662E+00  0.15090953846E+01  0.12410296953E+01  0.19609583528E+01  0.51100000000E-03 0.  1.
        -12    1    3    3    0    0  0.17585875795E+02  0.11682075507E+02  0.31870268974E+02  0.38228889078E+02  0.00000000000E+00 0.  1.
</event>
<event>
 7    1  0.1385632E-008  0.4614232E+02  0.7816164E-02  0.1320468E+00
        -11   -1    0    0    0    0  0.00000000000E+00  0.00000000000E+00  0.45593999997E+02  0.45594000000E+02  0.51100000000E-03 0.  1.
         11   -1    0    0    0    0 -0.00000000000E+00 -0.00000000000E+00 -0.45593999997E+02  0.45594000000E+02  0.51100000000E-03 0. -1.
    9900012    2    1    2    0    0 -0.11798126483E+02  0.42284358781E+02  0.10097060644E+02  0.46142318524E+02  0.10000006953E+02 0.  0.
         12    1    1    2    0    0  0.11798126483E+02 -0.42284358781E+02 -0.10097060644E+02  0.45045681476E+02  0.00000000000E+00 0. -1.
         11    1    3    3    0    0 -0.23912133971E+01  0.14220794967E+02  0.69150736085E+01  0.15992721916E+02  0.51100000000E-03 0. -1.
        -11    1    3    3    0    0 -0.68004663799E+00  0.81721531410E+01  0.17203398397E+01  0.83789092258E+01  0.51100000000E-03 0.  1.
         12    1    3    3    0    0 -0.87268664476E+01  0.19891410673E+02  0.14616471954E+01  0.21770687382E+02  0.00000000000E+00 0. -1.
</event>
<event>
 7    1  0.1385632E-008  0.4614232E+02  0.7816164E-02  0.1320468E+00
        -11   -1    0    0    0    0  0.00000000000E+00  0.00000000000E+00  0.45593999997E+02  0.45594000000E+02  0.51100000000E-03 0.  1.
         11   -1    0    0    0    0 -0.00000000000E+00 -0.00000000000E+00 -0.45593999997E+02  0.45594000000E+02  0.51100000000E-03 0. -1.
    9900012    2    1    2    0    0 -0.48328165024E+01 -0.25632788344E+02  0.36724890322E+02  0.46142317379E+02  0.99999965157E+01 0.  0.
         12    1    1    2    0    0  0.48328165024E+01  0.25632788344E+02 -0.36724890322E+02  0.45045682621E+02  0.00000000000E+00 0. -1.
         11    1    3    3    0    0 -0.12126844690E+01 -0.21233149072E+01  0.62680731776E+01  0.67281358070E+01  0.51100000000E-03 0. -1.
        -11    1    3    3    0    0 -0.23061777219E+00 -0.19686705780E+02  0.26144477203E+02  0.32728477775E+02  0.51100000000E-03 0.  1.
        -12    1    3    3    0    0 -0.33895142612E+01 -0.38227676569E+01  0.43123399415E+01  0.66857037967E+01  0.00000000000E+00 0.  1.
</event>
<event>
 7    1  0.1385632E-008  0.4614232E+02  0.7816164E-02  0.1320468E+00
        -11   -1    0    0    0    0  0.00000000000E+00  0.00000000000E+00  0.45593999997E+02  0.45594000000E+02  0.51100000000E-03 0. -1.
         11   -1    0    0    0    0 -0.00000000000E+00 -0.00000000000E+00 -0.45593999997E+02  0.45594000000E+02  0.51100000000E-03 0.  1.
    9900012    2    1    2    0    0 -0.80955313038E+01 -0.32446194204E+02 -0.30179803147E+02  0.46142315818E+02  0.99999822842E+01 0.  0.
         12    1    1    2    0    0  0.80955313038E+01  0.32446194204E+02  0.30179803147E+02  0.45045684182E+02  0.00000000000E+00 0. -1.
         11    1    3    3    0    0 -0.10238370420E+01 -0.65204427393E+01 -0.28955069832E+01  0.72075222341E+01  0.51100000000E-03 0. -1.
        -11    1    3    3    0    0 -0.70526370127E+01 -0.15081843487E+02 -0.13757100022E+02  0.21597673326E+02  0.51100000000E-03 0.  1.
        -12    1    3    3    0    0 -0.19057249083E-01 -0.10843907977E+02 -0.13527196142E+02  0.17337120259E+02  0.00000000000E+00 0.  1.
</event>
<event>
 7    1  0.1385632E-008  0.4614232E+02  0.7816164E-02  0.1320468E+00
        -11   -1    0    0    0    0  0.00000000000E+00  0.00000000000E+00  0.45593999997E+02  0.45594000000E+02  0.51100000000E-03 0. -1.
         11   -1    0    0    0    0 -0.00000000000E+00 -0.00000000000E+00 -0.45593999997E+02  0.45594000000E+02  0.51100000000E-03 0.  1.
    9900012    2    1    2    0    0 -0.10573425182E+00 -0.42101051191E+02 -0.16018857571E+02  0.46142317754E+02  0.99999999327E+01 0.  0.
         12    1    1    2    0    0  0.10573425182E+00  0.42101051191E+02  0.16018857571E+02  0.45045682246E+02  0.00000000000E+00 0. -1.
         11    1    3    3    0    0  0.60702285199E+00 -0.74677534543E+01  0.44673793588E-01  0.74925172276E+01  0.51100000000E-03 0. -1.
        -11    1    3    3    0    0 -0.65210846854E+00 -0.34886427915E+02 -0.15965262084E+02  0.38371574008E+02  0.51100000000E-03 0.  1.
        -12    1    3    3    0    0 -0.60648635271E-01  0.25313017825E+00 -0.98269280125E-01  0.27822651836E+00  0.00000000000E+00 0.  1.
</event>
<event>
 7    1  0.1385632E-008  0.4614232E+02  0.7816164E-02  0.1320468E+00
        -11   -1    0    0    0    0  0.00000000000E+00  0.00000000000E+00  0.45593999997E+02  0.45594000000E+02  0.51100000000E-03 0.  1.
         11   -1    0    0    0    0 -0.00000000000E+00 -0.00000000000E+00 -0.45593999997E+02  0.45594000000E+02  0.51100000000E-03 0. -1.
    9900012    2    1    2    0    0 -0.38430453414E+02  0.57478192472E+00  0.23492201180E+02  0.46142316076E+02  0.99999846343E+01 0.  0.
         12    1    1    2    0    0  0.38430453414E+02 -0.57478192472E+00 -0.23492201180E+02  0.45045683924E+02  0.00000000000E+00 0. -1.
         11    1    3    3    0    0 -0.67649171154E+01 -0.26656155959E+01  0.59395521935E+01  0.93887108063E+01  0.51100000000E-03 0. -1.
        -11    1    3    3    0    0 -0.13842050012E+02  0.24126718617E+00  0.48783287302E+01  0.14678509797E+02  0.51100000000E-03 0.  1.
         12    1    3    3    0    0 -0.17823486286E+02  0.29991303344E+01  0.12674320257E+02  0.22075095473E+02  0.00000000000E+00 0. -1.
</event>
<event>
 7    1  0.1385632E-008  0.4614232E+02  0.7816164E-02  0.1320468E+00
        -11   -1    0    0    0    0  0.00000000000E+00  0.00000000000E+00  0.45593999997E+02  0.45594000000E+02  0.51100000000E-03 0. -1.
         11   -1    0    0    0    0 -0.00000000000E+00 -0.00000000000E+00 -0.45593999997E+02  0.45594000000E+02  0.51100000000E-03 0.  1.
    9900012    2    1    2    0    0  0.15371793821E+02  0.11123121287E+01 -0.42327109026E+02  0.46142318275E+02  0.10000004687E+02 0.  0.
         12    1    1    2    0    0 -0.15371793821E+02 -0.11123121287E+01  0.42327109026E+02  0.45045681725E+02  0.00000000000E+00 0. -1.
         11    1    3    3    0    0  0.17746800083E+01  0.47623059050E+00 -0.91652904730E+01  0.93476646508E+01  0.51100000000E-03 0. -1.
        -11    1    3    3    0    0  0.68280315423E+01 -0.18837045785E+00 -0.26095314777E+02  0.26974487053E+02  0.51100000000E-03 0.  1.
        -12    1    3    3    0    0  0.67690822708E+01  0.82445199608E+00 -0.70665037757E+01  0.98201665717E+01  0.00000000000E+00 0.  1.
</event>
<event>
 7    1  0.1385632E-008  0.4614232E+02  0.7816164E-02  0.1320468E+00
        -11   -1    0    0    0    0  0.00000000000E+00  0.00000000000E+00  0.45593999997E+02  0.45594000000E+02  0.51100000000E-03 0.  1.
         11   -1    0    0    0    0 -0.00000000000E+00 -0.00000000000E+00 -0.45593999997E+02  0.45594000000E+02  0.51100000000E-03 0. -1.
    9900012    2    1    2    0    0 -0.27626371819E+02 -0.11122008052E+02  0.33796410849E+02  0.46142324633E+02  0.10000062665E+02 0.  0.
         12    1    1    2    0    0  0.27626371819E+02  0.11122008052E+02 -0.33796410849E+02  0.45045675367E+02  0.00000000000E+00 0. -1.
         11    1    3    3    0    0 -0.45984430013E+01 -0.58672272733E+01  0.97825721981E+01  0.12299136270E+02  0.51100000000E-03 0. -1.
        -11    1    3    3    0    0 -0.19608598093E+02 -0.51378932065E+01  0.21800274646E+02  0.29768221994E+02  0.51100000000E-03 0.  1.
         12    1    3    3    0    0 -0.34193307247E+01 -0.11688757197E+00  0.22135640053E+01  0.40749663698E+01  0.00000000000E+00 0. -1.
</event>
<event>
 7    1  0.1385632E-008  0.4614232E+02  0.7816164E-02  0.1320468E+00
        -11   -1    0    0    0    0  0.00000000000E+00  0.00000000000E+00  0.45593999997E+02  0.45594000000E+02  0.51100000000E-03 0.  1.
         11   -1    0    0    0    0 -0.00000000000E+00 -0.00000000000E+00 -0.45593999997E+02  0.45594000000E+02  0.51100000000E-03 0. -1.
    9900012    2    1    2    0    0  0.12763775925E+02 -0.27069775023E+02  0.33666404966E+02  0.46142317421E+02  0.99999968983E+01 0.  0.
         12    1    1    2    0    0 -0.12763775925E+02  0.27069775023E+02 -0.33666404966E+02  0.45045682579E+02  0.00000000000E+00 0. -1.
         11    1    3    3    0    0  0.11513040193E+02 -0.13845032913E+02  0.17467721269E+02  0.25086975055E+02  0.51100000000E-03 0. -1.
        -11    1    3    3    0    0  0.26311441969E+00 -0.11148041102E+02  0.13376417262E+02  0.17414838174E+02  0.51100000000E-03 0.  1.
        -12    1    3    3    0    0  0.98762131209E+00 -0.20767010085E+01  0.28222664355E+01  0.36405041914E+01  0.00000000000E+00 0.  1.
</event>
<event>
 7    1  0.1385632E-008  0.4614232E+02  0.7816164E-02  0.1320468E+00
        -11   -1    0    0    0    0  0.00000000000E+00  0.00000000000E+00  0.45593999997E+02  0.45594000000E+02  0.51100000000E-03 0. -1.
         11   -1    0    0    0    0 -0.00000000000E+00 -0.00000000000E+00 -0.45593999997E+02  0.45594000000E+02  0.51100000000E-03 0.  1.
    9900012    2    1    2    0    0 -0.20425215561E+02 -0.32503861796E+02 -0.23567413395E+02  0.46142318336E+02  0.10000005246E+02 0.  0.
         12    1    1    2    0    0  0.20425215561E+02  0.32503861796E+02  0.23567413395E+02  0.45045681664E+02  0.00000000000E+00 0. -1.
         11    1    3    3    0    0 -0.36653488837E+00 -0.81220940922E+00  0.68654831913E+00  0.11248914634E+01  0.51100000000E-03 0. -1.
        -11    1    3    3    0    0 -0.46312292825E+01 -0.11363916617E+02 -0.96816146597E+01  0.15630756483E+02  0.51100000000E-03 0.  1.
         12    1    3    3    0    0 -0.15427451391E+02 -0.20327735770E+02 -0.14572347054E+02  0.29386670390E+02  0.00000000000E+00 0. -1.
</event>
<event>
 7    1  0.1385632E-008  0.4614232E+02  0.7816164E-02  0.1320468E+00
        -11   -1    0    0    0    0  0.00000000000E+00  0.00000000000E+00  0.45593999997E+02  0.45594000000E+02  0.51100000000E-03 0. -1.
         11   -1    0    0    0    0 -0.00000000000E+00 -0.00000000000E+00 -0.45593999997E+02  0.45594000000E+02  0.51100000000E-03 0.  1.
    9900012    2    1    2    0    0  0.39088597272E+02 -0.66296705987E+01 -0.21383228426E+02  0.46142318444E+02  0.10000006223E+02 0.  0.
         12    1    1    2    0    0 -0.39088597272E+02  0.66296705987E+01  0.21383228426E+02  0.45045681556E+02  0.00000000000E+00 0. -1.
         11    1    3    3    0    0  0.16912340242E+02 -0.23149156421E+00 -0.11144715127E+02  0.20255505828E+02  0.51100000000E-03 0. -1.
        -11    1    3    3    0    0  0.12463631037E+02 -0.27855256289E+01 -0.85963739368E+01  0.15394768488E+02  0.51100000000E-03 0.  1.
         12    1    3    3    0    0  0.97126259926E+01 -0.36126534056E+01 -0.16421393623E+01  0.10492044128E+02  0.00000000000E+00 0. -1.
</event>
<event>
 7    1  0.1385632E-008  0.4614232E+02  0.7816164E-02  0.1320468E+00
        -11   -1    0    0    0    0  0.00000000000E+00  0.00000000000E+00  0.45593999997E+02  0.45594000000E+02  0.51100000000E-03 0.  1.
         11   -1    0    0    0    0 -0.00000000000E+00 -0.00000000000E+00 -0.45593999997E+02  0.45594000000E+02  0.51100000000E-03 0. -1.
    9900012    2    1    2    0    0 -0.15555440027E+02  0.35241481034E+02  0.23349081693E+02  0.46142319677E+02  0.10000017469E+02 0.  0.
         12    1    1    2    0    0  0.15555440027E+02 -0.35241481034E+02 -0.23349081693E+02  0.45045680323E+02  0.00000000000E+00 0. -1.
         11    1    3    3    0    0 -0.29803617997E+01  0.38649912235E+01  0.62980911511E+01  0.79678520333E+01  0.51100000000E-03 0. -1.
        -11    1    3    3    0    0 -0.82314798972E+01  0.21099368827E+02  0.13928608340E+02  0.26588470372E+02  0.51100000000E-03 0.  1.
         12    1    3    3    0    0 -0.43435983301E+01  0.10277120983E+02  0.31223822021E+01  0.11585997271E+02  0.00000000000E+00 0. -1.
</event>
<event>
 7    1  0.1385632E-008  0.4614232E+02  0.7816164E-02  0.1320468E+00
        -11   -1    0    0    0    0  0.00000000000E+00  0.00000000000E+00  0.45593999997E+02  0.45594000000E+02  0.51100000000E-03 0.  1.
         11   -1    0    0    0    0 -0.00000000000E+00 -0.00000000000E+00 -0.45593999997E+02  0.45594000000E+02  0.51100000000E-03 0. -1.
    9900012    2    1    2    0    0 -0.14400901299E+02  0.27321623392E+01  0.42594165344E+02  0.46142316626E+02  0.99999896499E+01 0.  0.
         12    1    1    2    0    0  0.14400901299E+02 -0.27321623392E+01 -0.42594165344E+02  0.45045683374E+02  0.00000000000E+00 0. -1.
         11    1    3    3    0    0 -0.20535972778E+01 -0.10072075048E+01  0.49348471925E+01  0.54391585573E+01  0.51100000000E-03 0. -1.
        -11    1    3    3    0    0 -0.64040827516E+01  0.34406736956E+00  0.79438805658E+01  0.10209598276E+02  0.51100000000E-03 0.  1.
        -12    1    3    3    0    0 -0.59432212697E+01  0.33953024744E+01  0.29715437586E+02  0.30493559793E+02  0.00000000000E+00 0.  1.
</event>
<event>
 7    1  0.1385632E-008  0.4614232E+02  0.7816164E-02  0.1320468E+00
        -11   -1    0    0    0    0  0.00000000000E+00  0.00000000000E+00  0.45593999997E+02  0.45594000000E+02  0.51100000000E-03 0. -1.
         11   -1    0    0    0    0 -0.00000000000E+00 -0.00000000000E+00 -0.45593999997E+02  0.45594000000E+02  0.51100000000E-03 0.  1.
    9900012    2    1    2    0    0 -0.37917133263E+02  0.23822139615E+02  0.48897963884E+01  0.46142318304E+02  0.10000004948E+02 0.  0.
         12    1    1    2    0    0  0.37917133263E+02 -0.23822139615E+02 -0.48897963884E+01  0.45045681696E+02  0.00000000000E+00 0. -1.
         11    1    3    3    0    0 -0.16774079472E+01  0.17075159262E+00 -0.33485020141E+00  0.17190050745E+01  0.51100000000E-03 0. -1.
        -11    1    3    3    0    0 -0.90652729409E+01  0.91580547382E+01 -0.12689446752E+01  0.12948334292E+02  0.51100000000E-03 0.  1.
        -12    1    3    3    0    0 -0.27174452375E+02  0.14493333284E+02  0.64935912650E+01  0.31474978937E+02  0.00000000000E+00 0.  1.
</event>
<event>
 7    1  0.1385632E-008  0.4614232E+02  0.7816164E-02  0.1320468E+00
        -11   -1    0    0    0    0  0.00000000000E+00  0.00000000000E+00  0.45593999997E+02  0.45594000000E+02  0.51100000000E-03 0. -1.
         11   -1    0    0    0    0 -0.00000000000E+00 -0.00000000000E+00 -0.45593999997E+02  0.45594000000E+02  0.51100000000E-03 0.  1.
    9900012    2    1    2    0    0  0.44924946697E+02 -0.32874806380E+01  0.23446476288E+00  0.46142319426E+02  0.10000015182E+02 0.  0.
         12    1    1    2    0    0 -0.44924946697E+02  0.32874806380E+01 -0.23446476288E+00  0.45045680574E+02  0.00000000000E+00 0. -1.
         11    1    3    3    0    0  0.22698779773E+02  0.46882758201E+00 -0.42876489970E+01  0.23104941824E+02  0.51100000000E-03 0. -1.
        -11    1    3    3    0    0  0.35225763818E+01 -0.41867973021E+00  0.20060733373E+00  0.35530382274E+01  0.51100000000E-03 0.  1.
         12    1    3    3    0    0  0.18703590542E+02 -0.33376284898E+01  0.43215064262E+01  0.19484339375E+02  0.00000000000E+00 0. -1.
</event>
<event>
 7    1  0.1385632E-008  0.4614232E+02  0.7816164E-02  0.1320468E+00
        -11   -1    0    0    0    0  0.00000000000E+00  0.00000000000E+00  0.45593999997E+02  0.45594000000E+02  0.51100000000E-03 0. -1.
         11   -1    0    0    0    0 -0.00000000000E+00 -0.00000000000E+00 -0.45593999997E+02  0.45594000000E+02  0.51100000000E-03 0.  1.
    9900012    2    1    2    0    0  0.44441252791E+02  0.11243865847E+01 -0.72680336686E+01  0.46142317541E+02  0.99999979886E+01 0.  0.
         12    1    1    2    0    0 -0.44441252791E+02 -0.11243865847E+01  0.72680336686E+01  0.45045682459E+02  0.00000000000E+00 0. -1.
         11    1    3    3    0    0  0.70966418160E+01 -0.31860594122E+01  0.23085390108E+00  0.77824542033E+01  0.51100000000E-03 0. -1.
        -11    1    3    3    0    0  0.26005762419E+02  0.24970426708E+01 -0.56441069896E+01  0.26728090936E+02  0.51100000000E-03 0.  1.
         12    1    3    3    0    0  0.11338848556E+02  0.18134033261E+01 -0.18547805801E+01  0.11631772402E+02  0.00000000000E+00 0. -1.
</event>
<event>
 7    1  0.1879831E-008  0.4614232E+02  0.7816164E-02  0.1320468E+00
        -11   -1    0    0    0    0  0.00000000000E+00  0.00000000000E+00  0.45593999997E+02  0.45594000000E+02  0.51100000000E-03 0. -1.
         11   -1    0    0    0    0 -0.00000000000E+00 -0.00000000000E+00 -0.45593999997E+02  0.45594000000E+02  0.51100000000E-03 0.  1.
    9900012    2    1    2    0    0  0.23580063221E+02  0.36749099504E+02 -0.11072390768E+02  0.46142317264E+02  0.99999954660E+01 0.  0.
         12    1    1    2    0    0 -0.23580063221E+02 -0.36749099504E+02  0.11072390768E+02  0.45045682736E+02  0.00000000000E+00 0. -1.
         11    1    3    3    0    0 -0.47588450068E+00  0.15739001380E+01 -0.15241051758E+01  0.22419912021E+01  0.51100000000E-03 0. -1.
        -11    1    3    3    0    0  0.21862997627E+02  0.32345652200E+02 -0.74344431858E+01  0.39742959467E+02  0.51100000000E-03 0.  1.
        -12    1    3    3    0    0  0.21929500948E+01  0.28295471658E+01 -0.21138424066E+01  0.41573665946E+01  0.00000000000E+00 0.  1.
</event>
<event>
 7    1  0.1385632E-008  0.4614232E+02  0.7816164E-02  0.1320468E+00
        -11   -1    0    0    0    0  0.00000000000E+00  0.00000000000E+00  0.45593999997E+02  0.45594000000E+02  0.51100000000E-03 0.  1.
         11   -1    0    0    0    0 -0.00000000000E+00 -0.00000000000E+00 -0.45593999997E+02  0.45594000000E+02  0.51100000000E-03 0. -1.
    9900012    2    1    2    0    0 -0.16564452122E+02 -0.12599527555E+02  0.39949772752E+02  0.46142317503E+02  0.99999976450E+01 0.  0.
         12    1    1    2    0    0  0.16564452122E+02  0.12599527555E+02 -0.39949772752E+02  0.45045682497E+02  0.00000000000E+00 0. -1.
         11    1    3    3    0    0 -0.15658933684E+01  0.96548497031E+00  0.35015553038E+01  0.39553853258E+01  0.51100000000E-03 0. -1.
        -11    1    3    3    0    0 -0.31649231646E+01 -0.32159894506E+01  0.14525836257E+02  0.15210497888E+02  0.51100000000E-03 0.  1.
        -12    1    3    3    0    0 -0.11833635589E+02 -0.10349023075E+02  0.21922381192E+02  0.26976434289E+02  0.00000000000E+00 0.  1.
</event>
<event>
 7    1  0.1385632E-008  0.4614232E+02  0.7816164E-02  0.1320468E+00
        -11   -1    0    0    0    0  0.00000000000E+00  0.00000000000E+00  0.45593999997E+02  0.45594000000E+02  0.51100000000E-03 0. -1.
         11   -1    0    0    0    0 -0.00000000000E+00 -0.00000000000E+00 -0.45593999997E+02  0.45594000000E+02  0.51100000000E-03 0.  1.
    9900012    2    1    2    0    0 -0.38242607750E+00  0.44686614318E+02 -0.56633687903E+01  0.46142317687E+02  0.99999993284E+01 0.  0.
         12    1    1    2    0    0  0.38242607750E+00 -0.44686614318E+02  0.56633687903E+01  0.45045682313E+02  0.00000000000E+00 0. -1.
         11    1    3    3    0    0 -0.12829054156E+01  0.90525183412E+01 -0.16891860240E+01  0.92977031738E+01  0.51100000000E-03 0. -1.
        -11    1    3    3    0    0  0.15634769888E+01  0.33313005609E+02 -0.57580138452E+01  0.33843101612E+02  0.51100000000E-03 0.  1.
        -12    1    3    3    0    0 -0.66299765064E+00  0.23210903683E+01  0.17838310790E+01  0.30015129020E+01  0.00000000000E+00 0.  1.
</event>
<event>
 7    1  0.1385632E-008  0.4614232E+02  0.7816164E-02  0.1320468E+00
        -11   -1    0    0    0    0  0.00000000000E+00  0.00000000000E+00  0.45593999997E+02  0.45594000000E+02  0.51100000000E-03 0.  1.
         11   -1    0    0    0    0 -0.00000000000E+00 -0.00000000000E+00 -0.45593999997E+02  0.45594000000E+02  0.51100000000E-03 0. -1.
    9900012    2    1    2    0    0  0.44927232849E+02 -0.18221470733E+01  0.27086783518E+01  0.46142318633E+02  0.10000007951E+02 0.  0.
         12    1    1    2    0    0 -0.44927232849E+02  0.18221470733E+01 -0.27086783518E+01  0.45045681367E+02  0.00000000000E+00 0. -1.
         11    1    3    3    0    0  0.42470111207E+01 -0.79987481497E+00  0.11921199794E+01  0.44830852641E+01  0.51100000000E-03 0. -1.
        -11    1    3    3    0    0  0.23622548189E+02  0.36563221845E+01  0.17753540098E+01  0.23969675779E+02  0.51100000000E-03 0.  1.
        -12    1    3    3    0    0  0.17057673539E+02 -0.46785944429E+01 -0.25879563747E+00  0.17689557590E+02  0.00000000000E+00 0.  1.
</event>
<event>
 7    1  0.1385632E-008  0.4614232E+02  0.7816164E-02  0.1320468E+00
        -11   -1    0    0    0    0  0.00000000000E+00  0.00000000000E+00  0.45593999997E+02  0.45594000000E+02  0.51100000000E-03 0. -1.
         11   -1    0    0    0    0 -0.00000000000E+00 -0.00000000000E+00 -0.45593999997E+02  0.45594000000E+02  0.51100000000E-03 0.  1.
    9900012    2    1    2    0    0  0.35604132088E+02  0.21958420453E+02 -0.16711884190E+02  0.46142317369E+02  0.99999964241E+01 0.  0.
         12    1    1    2    0    0 -0.35604132088E+02 -0.21958420453E+02  0.16711884190E+02  0.45045682631E+02  0.00000000000E+00 0. -1.
         11    1    3    3    0    0  0.11880332476E+02  0.98838293937E+01 -0.55414902049E+01  0.16417688545E+02  0.51100000000E-03 0. -1.
        -11    1    3    3    0    0  0.10685859027E+02  0.22081099529E+01 -0.65801271307E+01  0.12742111522E+02  0.51100000000E-03 0.  1.
        -12    1    3    3    0    0  0.13037940585E+02  0.98664811061E+01 -0.45902668539E+01  0.16982517302E+02  0.00000000000E+00 0.  1.
</event>
<event>
 7    1  0.1385632E-008  0.4614232E+02  0.7816164E-02  0.1320468E+00
        -11   -1    0    0    0    0  0.00000000000E+00  0.00000000000E+00  0.45593999997E+02  0.45594000000E+02  0.51100000000E-03 0.  1.
         11   -1    0    0    0    0 -0.00000000000E+00 -0.00000000000E+00 -0.45593999997E+02  0.45594000000E+02  0.51100000000E-03 0. -1.
    9900012    2    1    2    0    0  0.40676463836E+02  0.15523748707E+02  0.11556470266E+02  0.46142317753E+02  0.99999999254E+01 0.  0.
         12    1    1    2    0    0 -0.40676463836E+02 -0.15523748707E+02 -0.11556470266E+02  0.45045682247E+02  0.00000000000E+00 0. -1.
         11    1    3    3    0    0  0.17568189760E+02  0.10013272702E+02  0.88833694933E+01  0.22086674160E+02  0.51100000000E-03 0. -1.
        -11    1    3    3    0    0  0.17715947449E+02  0.45061680841E+01  0.31516601755E+01  0.18549752207E+02  0.51100000000E-03 0.  1.
         12    1    3    3    0    0  0.53923266264E+01  0.10043079212E+01 -0.47855940295E+00  0.55058913855E+01  0.00000000000E+00 0. -1.
</event>
<event>
 7    1  0.1385632E-008  0.4614232E+02  0.7816164E-02  0.1320468E+00
        -11   -1    0    0    0    0  0.00000000000E+00  0.00000000000E+00  0.45593999997E+02  0.45594000000E+02  0.51100000000E-03 0.  1.
         11   -1    0    0    0    0 -0.00000000000E+00 -0.00000000000E+00 -0.45593999997E+02  0.45594000000E+02  0.51100000000E-03 0. -1.
    9900012    2    1    2    0    0 -0.28311534168E+02 -0.32798305928E+02  0.12322411314E+02  0.46142315864E+02  0.99999827038E+01 0.  0.
         12    1    1    2    0    0  0.28311534168E+02  0.32798305928E+02 -0.12322411314E+02  0.45045684136E+02  0.00000000000E+00 0. -1.
         11    1    3    3    0    0 -0.12648101170E+02 -0.20983232677E+02  0.94310414848E+01  0.26252905754E+02  0.51100000000E-03 0. -1.
        -11    1    3    3    0    0 -0.10005456673E+02 -0.69493853547E+01  0.12276381372E+01  0.12243782737E+02  0.51100000000E-03 0.  1.
        -12    1    3    3    0    0 -0.56579763249E+01 -0.48656878957E+01  0.16637316916E+01  0.76456273734E+01  0.00000000000E+00 0.  1.
</event>
<event>
 7    1  0.1385632E-008  0.4614232E+02  0.7816164E-02  0.1320468E+00
        -11   -1    0    0    0    0  0.00000000000E+00  0.00000000000E+00  0.45593999997E+02  0.45594000000E+02  0.51100000000E-03 0.  1.
         11   -1    0    0    0    0 -0.00000000000E+00 -0.00000000000E+00 -0.45593999997E+02  0.45594000000E+02  0.51100000000E-03 0. -1.
    9900012    2    1    2    0    0 -0.26025497916E+02 -0.30681204015E+02  0.20259582031E+02  0.46142317791E+02  0.10000000272E+02 0.  0.
         12    1    1    2    0    0  0.26025497916E+02  0.30681204015E+02 -0.20259582031E+02  0.45045682209E+02  0.00000000000E+00 0. -1.
         11    1    3    3    0    0 -0.50008289635E+01 -0.23762562341E+01  0.32006048027E+01  0.63952134739E+01  0.51100000000E-03 0. -1.
        -11    1    3    3    0    0 -0.18703656141E+02 -0.26864221631E+02  0.17264109264E+02  0.37007602270E+02  0.51100000000E-03 0.  1.
        -12    1    3    3    0    0 -0.23210128117E+01 -0.14407261502E+01 -0.20513203546E+00  0.27395020467E+01  0.00000000000E+00 0.  1.
</event>
<event>
 7    1  0.1385632E-008  0.4614231E+02  0.7816164E-02  0.1320468E+00
        -11   -1    0    0    0    0  0.00000000000E+00  0.00000000000E+00  0.45593999997E+02  0.45594000000E+02  0.51100000000E-03 0.  1.
         11   -1    0    0    0    0 -0.00000000000E+00 -0.00000000000E+00 -0.45593999997E+02  0.45594000000E+02  0.51100000000E-03 0. -1.
    9900012    2    1    2    0    0  0.15216260253E+02  0.49474194391E+01  0.42108220897E+02  0.46142314277E+02  0.99999682264E+01 0.  0.
         12    1    1    2    0    0 -0.15216260253E+02 -0.49474194391E+01 -0.42108220897E+02  0.45045685723E+02  0.00000000000E+00 0. -1.
         11    1    3    3    0    0  0.25274545142E+01  0.18101670409E+01  0.18940838546E+02  0.19194272483E+02  0.51100000000E-03 0. -1.
        -11    1    3    3    0    0  0.93409967624E+01  0.88664345504E+00  0.18744638347E+02  0.20961913656E+02  0.51100000000E-03 0.  1.
         12    1    3    3    0    0  0.33478089765E+01  0.22506089432E+01  0.44227440037E+01  0.59861281377E+01  0.00000000000E+00 0. -1.
</event>
<event>
 7    1  0.1385632E-008  0.4614231E+02  0.7816164E-02  0.1320468E+00
        -11   -1    0    0    0    0  0.00000000000E+00  0.00000000000E+00  0.45593999997E+02  0.45594000000E+02  0.51100000000E-03 0.  1.
         11   -1    0    0    0    0 -0.00000000000E+00 -0.00000000000E+00 -0.45593999997E+02  0.45594000000E+02  0.51100000000E-03 0. -1.
    9900012    2    1    2    0    0 -0.81436805125E+00  0.21961053082E+02  0.39321275489E+02  0.46142314814E+02  0.99999731230E+01 0.  0.
         12    1    1    2    0    0  0.81436805125E+00 -0.21961053082E+02 -0.39321275489E+02  0.45045685186E+02  0.00000000000E+00 0. -1.
         11    1    3    3    0    0  0.84060951235E+00  0.91971507385E+00  0.24424460333E+01  0.27419050050E+01  0.51100000000E-03 0. -1.
        -11    1    3    3    0    0  0.27240649677E+00  0.12822521274E+02  0.29580127637E+02  0.32240893419E+02  0.51100000000E-03 0.  1.
        -12    1    3    3    0    0 -0.19273840604E+01  0.82188167340E+01  0.72987018185E+01  0.11159516390E+02  0.00000000000E+00 0.  1.
</event>
<event>
 7    1  0.1385632E-008  0.4614232E+02  0.7816164E-02  0.1320468E+00
        -11   -1    0    0    0    0  0.00000000000E+00  0.00000000000E+00  0.45593999997E+02  0.45594000000E+02  0.51100000000E-03 0.  1.
         11   -1    0    0    0    0 -0.00000000000E+00 -0.00000000000E+00 -0.45593999997E+02  0.45594000000E+02  0.51100000000E-03 0. -1.
    9900012    2    1    2    0    0 -0.12582160470E+02  0.42745980396E+02 -0.66018051299E+01  0.46142318375E+02  0.10000005599E+02 0.  0.
         12    1    1    2    0    0  0.12582160470E+02 -0.42745980396E+02  0.66018051299E+01  0.45045681625E+02  0.00000000000E+00 0. -1.
         11    1    3    3    0    0 -0.10591070992E+01  0.12450068350E+02 -0.49723032661E+01  0.13448037396E+02  0.51100000000E-03 0. -1.
        -11    1    3    3    0    0 -0.10638630805E+02  0.27997560031E+02 -0.25641158418E+01  0.30060248226E+02  0.51100000000E-03 0.  1.
         12    1    3    3    0    0 -0.88442256513E+00  0.22983520144E+01  0.93461397801E+00  0.26340327529E+01  0.00000000000E+00 0. -1.
</event>
<event>
 7    1  0.1385632E-008  0.4614232E+02  0.7816164E-02  0.1320468E+00
        -11   -1    0    0    0    0  0.00000000000E+00  0.00000000000E+00  0.45593999997E+02  0.45594000000E+02  0.51100000000E-03 0.  1.
         11   -1    0    0    0    0 -0.00000000000E+00 -0.00000000000E+00 -0.45593999997E+02  0.45594000000E+02  0.51100000000E-03 0. -1.
    9900012    2    1    2    0    0 -0.27231616776E+01  0.44742416861E+02  0.44512949744E+01  0.46142317598E+02  0.99999985169E+01 0.  0.
         12    1    1    2    0    0  0.27231616776E+01 -0.44742416861E+02 -0.44512949744E+01  0.45045682402E+02  0.00000000000E+00 0. -1.
         11    1    3    3    0    0 -0.18094000209E+00  0.26899532995E+01  0.21743645912E+01  0.34635891318E+01  0.51100000000E-03 0. -1.
        -11    1    3    3    0    0  0.14148544031E+01  0.20175530071E+02 -0.76565388213E+00  0.20239566516E+02  0.51100000000E-03 0.  1.
         12    1    3    3    0    0 -0.39570760786E+01  0.21876933490E+02  0.30425842654E+01  0.22439161950E+02  0.00000000000E+00 0. -1.
</event>
<event>
 7    1  0.1385632E-008  0.4614232E+02  0.7816164E-02  0.1320468E+00
        -11   -1    0    0    0    0  0.00000000000E+00  0.00000000000E+00  0.45593999997E+02  0.45594000000E+02  0.51100000000E-03 0. -1.
         11   -1    0    0    0    0 -0.00000000000E+00 -0.00000000000E+00 -0.45593999997E+02  0.45594000000E+02  0.51100000000E-03 0.  1.
    9900012    2    1    2    0    0 -0.27471270950E+02 -0.19478742524E+02 -0.29916907533E+02  0.46142317695E+02  0.99999994015E+01 0.  0.
         12    1    1    2    0    0  0.27471270950E+02  0.19478742524E+02  0.29916907533E+02  0.45045682305E+02  0.00000000000E+00 0. -1.
         11    1    3    3    0    0 -0.82171561721E+01 -0.43456679415E+01 -0.40253713729E+01  0.10129664376E+02  0.51100000000E-03 0. -1.
        -11    1    3    3    0    0 -0.78835425836E+01 -0.48308543549E+01 -0.13112341948E+02  0.16044341965E+02  0.51100000000E-03 0.  1.
         12    1    3    3    0    0 -0.11370572195E+02 -0.10302220228E+02 -0.12779194212E+02  0.19968311355E+02  0.00000000000E+00 0. -1.
</event>
<event>
 7    1  0.1385632E-008  0.4614232E+02  0.7816164E-02  0.1320468E+00
        -11   -1    0    0    0    0  0.00000000000E+00  0.00000000000E+00  0.45593999997E+02  0.45594000000E+02  0.51100000000E-03 0. -1.
         11   -1    0    0    0    0 -0.00000000000E+00 -0.00000000000E+00 -0.45593999997E+02  0.45594000000E+02  0.51100000000E-03 0.  1.
    9900012    2    1    2    0    0 -0.21569114568E+02  0.37218680724E+02  0.13366249975E+02  0.46142317227E+02  0.99999951313E+01 0.  0.
         12    1    1    2    0    0  0.21569114568E+02 -0.37218680724E+02 -0.13366249975E+02  0.45045682773E+02  0.00000000000E+00 0. -1.
         11    1    3    3    0    0 -0.73127590758E+00  0.36935191623E+01  0.15012299758E+01  0.40534602448E+01  0.51100000000E-03 0. -1.
        -11    1    3    3    0    0 -0.14203840272E+02  0.14944613836E+02  0.51898632212E+01  0.21260885252E+02  0.51100000000E-03 0.  1.
        -12    1    3    3    0    0 -0.66339983889E+01  0.18580547725E+02  0.66751567781E+01  0.20827971730E+02  0.00000000000E+00 0.  1.
</event>
<event>
 7    1  0.1385632E-008  0.4614232E+02  0.7816164E-02  0.1320468E+00
        -11   -1    0    0    0    0  0.00000000000E+00  0.00000000000E+00  0.45593999997E+02  0.45594000000E+02  0.51100000000E-03 0.  1.
         11   -1    0    0    0    0 -0.00000000000E+00 -0.00000000000E+00 -0.45593999997E+02  0.45594000000E+02  0.51100000000E-03 0. -1.
    9900012    2    1    2    0    0  0.19803260351E+02 -0.36326037982E+02  0.17814693285E+02  0.46142318156E+02  0.10000003597E+02 0.  0.
         12    1    1    2    0    0 -0.19803260351E+02  0.36326037982E+02 -0.17814693285E+02  0.45045681844E+02  0.00000000000E+00 0. -1.
         11    1    3    3    0    0  0.51128510067E+00  0.13123145135E+00  0.50970340771E+00  0.73377923992E+00  0.51100000000E-03 0. -1.
        -11    1    3    3    0    0  0.12739823320E+02 -0.21928934351E+02  0.14538681585E+02  0.29232764537E+02  0.51100000000E-03 0.  1.
        -12    1    3    3    0    0  0.65521519309E+01 -0.14528335082E+02  0.27663082924E+01  0.16175774379E+02  0.00000000000E+00 0.  1.
</event>
<event>
 7    1  0.1385632E-008  0.4614232E+02  0.7816164E-02  0.1320468E+00
        -11   -1    0    0    0    0  0.00000000000E+00  0.00000000000E+00  0.45593999997E+02  0.45594000000E+02  0.51100000000E-03 0.  1.
         11   -1    0    0    0    0 -0.00000000000E+00 -0.00000000000E+00 -0.45593999997E+02  0.45594000000E+02  0.51100000000E-03 0. -1.
    9900012    2    1    2    0    0  0.41600452959E+02 -0.13604171180E+02 -0.10650930886E+02  0.46142317758E+02  0.99999999748E+01 0.  0.
         12    1    1    2    0    0 -0.41600452959E+02  0.13604171180E+02  0.10650930886E+02  0.45045682242E+02  0.00000000000E+00 0. -1.
         11    1    3    3    0    0  0.88087742388E+01 -0.26111623783E+01 -0.65147158502E+01  0.11262956780E+02  0.51100000000E-03 0. -1.
        -11    1    3    3    0    0  0.17171000065E+02 -0.59929481919E+01 -0.12864093959E+01  0.18232211075E+02  0.51100000000E-03 0.  1.
        -12    1    3    3    0    0  0.15620678654E+02 -0.50000606100E+01 -0.28498056402E+01  0.16647149904E+02  0.00000000000E+00 0.  1.
</event>
<event>
 7    1  0.1385632E-008  0.4614232E+02  0.7816164E-02  0.1320468E+00
        -11   -1    0    0    0    0  0.00000000000E+00  0.00000000000E+00  0.45593999997E+02  0.45594000000E+02  0.51100000000E-03 0.  1.
         11   -1    0    0    0    0 -0.00000000000E+00 -0.00000000000E+00 -0.45593999997E+02  0.45594000000E+02  0.51100000000E-03 0. -1.
    9900012    2    1    2    0    0 -0.65743261324E+01  0.89222256861E+01  0.43661030988E+02  0.46142317607E+02  0.99999985959E+01 0.  0.
         12    1    1    2    0    0  0.65743261324E+01 -0.89222256861E+01 -0.43661030988E+02  0.45045682393E+02  0.00000000000E+00 0. -1.
         11    1    3    3    0    0  0.93763324653E-01 -0.15308993226E+00  0.71939963267E+01  0.71962359257E+01  0.51100000000E-03 0. -1.
        -11    1    3    3    0    0 -0.79773606463E+01  0.85500537384E+01  0.35038894187E+02  0.36938676315E+02  0.51100000000E-03 0.  1.
        -12    1    3    3    0    0  0.13092711893E+01  0.52526188002E+00  0.14281404745E+01  0.20074053663E+01  0.00000000000E+00 0.  1.
</event>
<event>
 7    1  0.1385632E-008  0.4614232E+02  0.7816164E-02  0.1320468E+00
        -11   -1    0    0    0    0  0.00000000000E+00  0.00000000000E+00  0.45593999997E+02  0.45594000000E+02  0.51100000000E-03 0.  1.
         11   -1    0    0    0    0 -0.00000000000E+00 -0.00000000000E+00 -0.45593999997E+02  0.45594000000E+02  0.51100000000E-03 0. -1.
    9900012    2    1    2    0    0  0.35204729326E+02 -0.43244559405E+01  0.27767599522E+02  0.46142317973E+02  0.10000001928E+02 0.  0.
         12    1    1    2    0    0 -0.35204729326E+02  0.43244559405E+01 -0.27767599522E+02  0.45045682027E+02  0.00000000000E+00 0. -1.
         11    1    3    3    0    0  0.78918270910E+01 -0.50539674814E+01  0.78583909059E+01  0.12230201553E+02  0.51100000000E-03 0. -1.
        -11    1    3    3    0    0  0.88477090179E+01 -0.20170448627E+00  0.79201568566E+01  0.11876511460E+02  0.51100000000E-03 0.  1.
         12    1    3    3    0    0  0.18465193218E+02  0.93121602720E+00  0.11989051759E+02  0.22035604960E+02  0.00000000000E+00 0. -1.
</event>
<event>
 7    1  0.1385632E-008  0.4614232E+02  0.7816164E-02  0.1320468E+00
        -11   -1    0    0    0    0  0.00000000000E+00  0.00000000000E+00  0.45593999997E+02  0.45594000000E+02  0.51100000000E-03 0.  1.
         11   -1    0    0    0    0 -0.00000000000E+00 -0.00000000000E+00 -0.45593999997E+02  0.45594000000E+02  0.51100000000E-03 0. -1.
    9900012    2    1    2    0    0  0.82957899454E+01 -0.18640500067E+02  0.40159994619E+02  0.46142317173E+02  0.99999946351E+01 0.  0.
         12    1    1    2    0    0 -0.82957899454E+01  0.18640500067E+02 -0.40159994619E+02  0.45045682827E+02  0.00000000000E+00 0. -1.
         11    1    3    3    0    0  0.31823346337E+01 -0.76407083201E+01  0.92978220593E+01  0.12448179492E+02  0.51100000000E-03 0. -1.
        -11    1    3    3    0    0  0.85051030835E-01 -0.71961001615E+01  0.17350719247E+02  0.18783997175E+02  0.51100000000E-03 0.  1.
         12    1    3    3    0    0  0.50284042809E+01 -0.38036915851E+01  0.13511453313E+02  0.14910140506E+02  0.00000000000E+00 0. -1.
</event>
<event>
 7    1  0.1385632E-008  0.4614232E+02  0.7816164E-02  0.1320468E+00
        -11   -1    0    0    0    0  0.00000000000E+00  0.00000000000E+00  0.45593999997E+02  0.45594000000E+02  0.51100000000E-03 0. -1.
         11   -1    0    0    0    0 -0.00000000000E+00 -0.00000000000E+00 -0.45593999997E+02  0.45594000000E+02  0.51100000000E-03 0.  1.
    9900012    2    1    2    0    0 -0.32142781486E+02  0.26036337759E+01 -0.31451172676E+02  0.46142316819E+02  0.99999914130E+01 0.  0.
         12    1    1    2    0    0  0.32142781486E+02 -0.26036337759E+01  0.31451172676E+02  0.45045683181E+02  0.00000000000E+00 0. -1.
         11    1    3    3    0    0 -0.85658395367E+01  0.25821104774E+01 -0.11566896630E+02  0.14623063954E+02  0.51100000000E-03 0. -1.
        -11    1    3    3    0    0 -0.21668883981E+02 -0.13682633622E+01 -0.19384862484E+02  0.29106452401E+02  0.51100000000E-03 0.  1.
        -12    1    3    3    0    0 -0.19080579689E+01  0.13897866607E+01 -0.49941356172E+00  0.24128004643E+01  0.00000000000E+00 0.  1.
</event>
<event>
 7    1  0.1385632E-008  0.4614232E+02  0.7816164E-02  0.1320468E+00
        -11   -1    0    0    0    0  0.00000000000E+00  0.00000000000E+00  0.45593999997E+02  0.45594000000E+02  0.51100000000E-03 0.  1.
         11   -1    0    0    0    0 -0.00000000000E+00 -0.00000000000E+00 -0.45593999997E+02  0.45594000000E+02  0.51100000000E-03 0. -1.
    9900012    2    1    2    0    0  0.74750953812E+01 -0.16357833621E+01  0.44390996988E+02  0.46142318167E+02  0.10000003704E+02 0.  0.
         12    1    1    2    0    0 -0.74750953812E+01  0.16357833621E+01 -0.44390996988E+02  0.45045681833E+02  0.00000000000E+00 0. -1.
         11    1    3    3    0    0  0.85939359949E+01 -0.36143420138E+01  0.37070311554E+02  0.38224693629E+02  0.51100000000E-03 0. -1.
        -11    1    3    3    0    0 -0.94576571233E-01  0.19889730139E+01  0.47669319211E+01  0.51661009068E+01  0.51100000000E-03 0.  1.
         12    1    3    3    0    0 -0.10242640425E+01 -0.10414362283E-01  0.25537535131E+01  0.27515236313E+01  0.00000000000E+00 0. -1.
</event>
<event>
 7    1  0.1385632E-008  0.4614232E+02  0.7816164E-02  0.1320468E+00
        -11   -1    0    0    0    0  0.00000000000E+00  0.00000000000E+00  0.45593999997E+02  0.45594000000E+02  0.51100000000E-03 0. -1.
         11   -1    0    0    0    0 -0.00000000000E+00 -0.00000000000E+00 -0.45593999997E+02  0.45594000000E+02  0.51100000000E-03 0.  1.
    9900012    2    1    2    0    0  0.61433929941E+01  0.44552846796E+02 -0.25329994811E+01  0.46142317394E+02  0.99999966526E+01 0.  0.
         12    1    1    2    0    0 -0.61433929941E+01 -0.44552846796E+02  0.25329994811E+01  0.45045682606E+02  0.00000000000E+00 0. -1.
         11    1    3    3    0    0  0.10951314992E+01  0.25721560749E+02 -0.54252834201E+00  0.25750579365E+02  0.51100000000E-03 0. -1.
        -11    1    3    3    0    0  0.48586864533E+00  0.12329053389E+01 -0.17688855961E+01  0.22102218053E+01  0.51100000000E-03 0.  1.
        -12    1    3    3    0    0  0.45623928496E+01  0.17598380707E+02 -0.22158554292E+00  0.18181516224E+02  0.00000000000E+00 0.  1.
</event>
<event>
 7    1  0.1385632E-008  0.4614232E+02  0.7816164E-02  0.1320468E+00
        -11   -1    0    0    0    0  0.00000000000E+00  0.00000000000E+00  0.45593999997E+02  0.45594000000E+02  0.51100000000E-03 0. -1.
         11   -1    0    0    0    0 -0.00000000000E+00 -0.00000000000E+00 -0.45593999997E+02  0.45594000000E+02  0.51100000000E-03 0.  1.
    9900012    2    1    2    0    0 -0.37356769374E+02  0.87354759099E+01  0.23606709878E+02  0.46142317536E+02  0.99999979464E+01 0.  0.
         12    1    1    2    0    0  0.37356769374E+02 -0.87354759099E+01 -0.23606709878E+02  0.45045682464E+02  0.00000000000E+00 0. -1.
         11    1    3    3    0    0 -0.24595283014E+02  0.19137799210E+01  0.15974997105E+02  0.29390322096E+02  0.51100000000E-03 0. -1.
        -11    1    3    3    0    0 -0.80323763343E+01  0.31877804113E+01  0.61496471738E+01  0.10606562787E+02  0.51100000000E-03 0.  1.
         12    1    3    3    0    0 -0.47291100250E+01  0.36339155776E+01  0.14820655986E+01  0.61454326530E+01  0.00000000000E+00 0. -1.
</event>
<event>
 7    1  0.1385632E-008  0.4614232E+02  0.7816164E-02  0.1320468E+00
        -11   -1    0    0    0    0  0.00000000000E+00  0.00000000000E+00  0.45593999997E+02  0.45594000000E+02  0.51100000000E-03 0. -1.
         11   -1    0    0    0    0 -0.00000000000E+00 -0.00000000000E+00 -0.45593999997E+02  0.45594000000E+02  0.51100000000E-03 0.  1.
    9900012    2    1    2    0    0  0.43283786595E+02  0.18562169039E+01 -0.12336195229E+02  0.46142318343E+02  0.10000005308E+02 0.  0.
         12    1    1    2    0    0 -0.43283786595E+02 -0.18562169039E+01  0.12336195229E+02  0.45045681657E+02  0.00000000000E+00 0. -1.
         11    1    3    3    0    0  0.14589330085E+02 -0.97014049886E+00 -0.46592998240E+00  0.14628971800E+02  0.51100000000E-03 0. -1.
        -11    1    3    3    0    0  0.63873478577E+01 -0.83868803765E+00 -0.39661460587E+01  0.75651784579E+01  0.51100000000E-03 0.  1.
         12    1    3    3    0    0  0.22307108652E+02  0.36650454404E+01 -0.79041191880E+01  0.23948168085E+02  0.00000000000E+00 0. -1.
</event>
<event>
 7    1  0.1385632E-008  0.4614232E+02  0.7816164E-02  0.1320468E+00
        -11   -1    0    0    0    0  0.00000000000E+00  0.00000000000E+00  0.45593999997E+02  0.45594000000E+02  0.51100000000E-03 0. -1.
         11   -1    0    0    0    0 -0.00000000000E+00 -0.00000000000E+00 -0.45593999997E+02  0.45594000000E+02  0.51100000000E-03 0.  1.
    9900012    2    1    2    0    0 -0.25656850929E+02 -0.35597625800E+02 -0.10180794255E+02  0.46142317256E+02  0.99999953974E+01 0.  0.
         12    1    1    2    0    0  0.25656850929E+02  0.35597625800E+02  0.10180794255E+02  0.45045682744E+02  0.00000000000E+00 0. -1.
         11    1    3    3    0    0 -0.18997307165E-02 -0.27933213706E+01  0.31705968870E+00  0.28112586141E+01  0.51100000000E-03 0. -1.
        -11    1    3    3    0    0 -0.14622459889E+02 -0.19651896947E+02 -0.90105477829E+01  0.26099872767E+02  0.51100000000E-03 0.  1.
        -12    1    3    3    0    0 -0.11032491309E+02 -0.13152407483E+02 -0.14873061610E+01  0.17231185876E+02  0.00000000000E+00 0.  1.
</event>
<event>
 7    1  0.2546133E-008  0.4614232E+02  0.7816164E-02  0.1320468E+00
        -11   -1    0    0    0    0  0.00000000000E+00  0.00000000000E+00  0.45593999997E+02  0.45594000000E+02  0.51100000000E-03 0. -1.
         11   -1    0    0    0    0 -0.00000000000E+00 -0.00000000000E+00 -0.45593999997E+02  0.45594000000E+02  0.51100000000E-03 0.  1.
    9900012    2    1    2    0    0  0.20494982154E+02 -0.90740161076E+01 -0.39073411142E+02  0.46142317409E+02  0.99999967898E+01 0.  0.
         12    1    1    2    0    0 -0.20494982154E+02  0.90740161076E+01  0.39073411142E+02  0.45045682591E+02  0.00000000000E+00 0. -1.
         11    1    3    3    0    0 -0.54748878457E+00 -0.24234623545E+00 -0.19119897099E+01  0.20035420083E+01  0.51100000000E-03 0. -1.
        -11    1    3    3    0    0  0.18801996306E+02 -0.79199146240E+01 -0.27881481156E+02  0.34548764152E+02  0.51100000000E-03 0.  1.
        -12    1    3    3    0    0  0.22404746318E+01 -0.91175524820E+00 -0.92799402766E+01  0.95900112484E+01  0.00000000000E+00 0.  1.
</event>
<event>
 7    1  0.1385632E-008  0.4614232E+02  0.7816164E-02  0.1320468E+00
        -11   -1    0    0    0    0  0.00000000000E+00  0.00000000000E+00  0.45593999997E+02  0.45594000000E+02  0.51100000000E-03 0. -1.
         11   -1    0    0    0    0 -0.00000000000E+00 -0.00000000000E+00 -0.45593999997E+02  0.45594000000E+02  0.51100000000E-03 0.  1.
    9900012    2    1    2    0    0 -0.44863876213E+02  0.88101637683E+00 -0.39458655417E+01  0.46142318369E+02  0.10000005543E+02 0.  0.
         12    1    1    2    0    0  0.44863876213E+02 -0.88101637683E+00  0.39458655417E+01  0.45045681631E+02  0.00000000000E+00 0. -1.
         11    1    3    3    0    0 -0.14176445146E+02 -0.38984466070E+00 -0.42356714858E+01  0.14800827309E+02  0.51100000000E-03 0. -1.
        -11    1    3    3    0    0 -0.26502507958E+02  0.25422511266E+01  0.18730524596E+01  0.26689966179E+02  0.51100000000E-03 0.  1.
        -12    1    3    3    0    0 -0.41849231088E+01 -0.12713900890E+01 -0.15832465156E+01  0.46515248805E+01  0.00000000000E+00 0.  1.
</event>
<event>
 7    1  0.1385632E-008  0.4614232E+02  0.7816164E-02  0.1320468E+00
        -11   -1    0    0    0    0  0.00000000000E+00  0.00000000000E+00  0.45593999997E+02  0.45594000000E+02  0.51100000000E-03 0.  1.
         11   -1    0    0    0    0 -0.00000000000E+00 -0.00000000000E+00 -0.45593999997E+02  0.45594000000E+02  0.51100000000E-03 0. -1.
    9900012    2    1    2    0    0  0.37466081435E+02 -0.47734109338E+01  0.24548335377E+02  0.46142317856E+02  0.10000000868E+02 0.  0.
         12    1    1    2    0    0 -0.37466081435E+02  0.47734109338E+01 -0.24548335377E+02  0.45045682144E+02  0.00000000000E+00 0. -1.
         11    1    3    3    0    0  0.13752949174E+02 -0.23420506559E+01  0.53877255948E+01  0.14955146258E+02  0.51100000000E-03 0. -1.
        -11    1    3    3    0    0  0.12330980729E+01  0.13147298514E+01  0.11337393053E+01  0.21294155332E+01  0.51100000000E-03 0.  1.
        -12    1    3    3    0    0  0.22480034188E+02 -0.37460901294E+01  0.18026870477E+02  0.29057756065E+02  0.00000000000E+00 0.  1.
</event>
<event>
 7    1  0.1385632E-008  0.4614232E+02  0.7816164E-02  0.1320468E+00
        -11   -1    0    0    0    0  0.00000000000E+00  0.00000000000E+00  0.45593999997E+02  0.45594000000E+02  0.51100000000E-03 0.  1.
         11   -1    0    0    0    0 -0.00000000000E+00 -0.00000000000E+00 -0.45593999997E+02  0.45594000000E+02  0.51100000000E-03 0. -1.
    9900012    2    1    2    0    0  0.51963299443E+01 -0.39271451745E+02  0.21444455150E+02  0.46142318478E+02  0.10000006540E+02 0.  0.
         12    1    1    2    0    0 -0.51963299443E+01  0.39271451745E+02 -0.21444455150E+02  0.45045681522E+02  0.00000000000E+00 0. -1.
         11    1    3    3    0    0  0.16677417546E+01 -0.88159043723E+01  0.69374306613E+01  0.11341493592E+02  0.51100000000E-03 0. -1.
        -11    1    3    3    0    0  0.88058842672E-01 -0.24703604081E+02  0.13061955164E+02  0.27944417724E+02  0.51100000000E-03 0.  1.
         12    1    3    3    0    0  0.34405293470E+01 -0.57519432918E+01  0.14450693247E+01  0.68564071621E+01  0.00000000000E+00 0. -1.
</event>
<event>
 7    1  0.1385632E-008  0.4614232E+02  0.7816164E-02  0.1320468E+00
        -11   -1    0    0    0    0  0.00000000000E+00  0.00000000000E+00  0.45593999997E+02  0.45594000000E+02  0.51100000000E-03 0.  1.
         11   -1    0    0    0    0 -0.00000000000E+00 -0.00000000000E+00 -0.45593999997E+02  0.45594000000E+02  0.51100000000E-03 0. -1.
    9900012    2    1    2    0    0  0.31351777043E+02 -0.31898302656E+02 -0.53551709359E+01  0.46142317723E+02  0.99999996541E+01 0.  0.
         12    1    1    2    0    0 -0.31351777043E+02  0.31898302656E+02  0.53551709359E+01  0.45045682277E+02  0.00000000000E+00 0. -1.
         11    1    3    3    0    0  0.22958460834E+02 -0.21024785355E+02 -0.36451502123E+01  0.31343574197E+02  0.51100000000E-03 0.  1.
        -11    1    3    3    0    0  0.30885467051E+01 -0.80091412860E+01 -0.21165860803E+00  0.85866328975E+01  0.51100000000E-03 0. -1.
        -12    1    3    3    0    0  0.53047695032E+01 -0.28643760143E+01 -0.14983621156E+01  0.62121106287E+01  0.00000000000E+00 0.  1.
</event>
<event>
 7    1  0.1385632E-008  0.4614232E+02  0.7816164E-02  0.1320468E+00
        -11   -1    0    0    0    0  0.00000000000E+00  0.00000000000E+00  0.45593999997E+02  0.45594000000E+02  0.51100000000E-03 0.  1.
         11   -1    0    0    0    0 -0.00000000000E+00 -0.00000000000E+00 -0.45593999997E+02  0.45594000000E+02  0.51100000000E-03 0. -1.
    9900012    2    1    2    0    0  0.12175988563E+02 -0.31388495391E+02  0.29926930654E+02  0.46142317423E+02  0.99999969205E+01 0.  0.
         12    1    1    2    0    0 -0.12175988563E+02  0.31388495391E+02 -0.29926930654E+02  0.45045682577E+02  0.00000000000E+00 0. -1.
         11    1    3    3    0    0  0.17507962200E+01 -0.11025415479E+02  0.78727812740E+01  0.13660371852E+02  0.51100000000E-03 0. -1.
        -11    1    3    3    0    0  0.14533868167E+01 -0.57730618360E+01  0.24181496970E+01  0.64255758044E+01  0.51100000000E-03 0.  1.
        -12    1    3    3    0    0  0.89718055265E+01 -0.14590018076E+02  0.19635999683E+02  0.26056369767E+02  0.00000000000E+00 0.  1.
</event>
<event>
 7    1  0.1385632E-008  0.4614232E+02  0.7816164E-02  0.1320468E+00
        -11   -1    0    0    0    0  0.00000000000E+00  0.00000000000E+00  0.45593999997E+02  0.45594000000E+02  0.51100000000E-03 0. -1.
         11   -1    0    0    0    0 -0.00000000000E+00 -0.00000000000E+00 -0.45593999997E+02  0.45594000000E+02  0.51100000000E-03 0.  1.
    9900012    2    1    2    0    0 -0.13930540070E+02 -0.19244178094E+02 -0.38271596706E+02  0.46142318169E+02  0.10000003723E+02 0.  0.
         12    1    1    2    0    0  0.13930540070E+02  0.19244178094E+02  0.38271596706E+02  0.45045681831E+02  0.00000000000E+00 0. -1.
         11    1    3    3    0    0 -0.20879414698E+01 -0.71085889637E+01 -0.10693847009E+02  0.13009608017E+02  0.51100000000E-03 0. -1.
        -11    1    3    3    0    0 -0.52750153514E+01 -0.91527575688E+01 -0.12139258145E+02  0.16092244923E+02  0.51100000000E-03 0.  1.
        -12    1    3    3    0    0 -0.65675832487E+01 -0.29828315610E+01 -0.15438491552E+02  0.17040465230E+02  0.00000000000E+00 0.  1.
</event>
<event>
 7    1  0.1385632E-008  0.4614232E+02  0.7816164E-02  0.1320468E+00
        -11   -1    0    0    0    0  0.00000000000E+00  0.00000000000E+00  0.45593999997E+02  0.45594000000E+02  0.51100000000E-03 0.  1.
         11   -1    0    0    0    0 -0.00000000000E+00 -0.00000000000E+00 -0.45593999997E+02  0.45594000000E+02  0.51100000000E-03 0. -1.
    9900012    2    1    2    0    0  0.23609579029E+02 -0.34841874583E+02  0.16054439026E+02  0.46142318089E+02  0.10000002994E+02 0.  0.
         12    1    1    2    0    0 -0.23609579029E+02  0.34841874583E+02 -0.16054439026E+02  0.45045681911E+02  0.00000000000E+00 0. -1.
         11    1    3    3    0    0  0.22961974727E+01 -0.11415975441E+01  0.11345674567E+01  0.28041061608E+01  0.51100000000E-03 0. -1.
        -11    1    3    3    0    0  0.10241041618E+02 -0.90740711206E+01  0.46842143999E+01  0.14462349910E+02  0.51100000000E-03 0.  1.
        -12    1    3    3    0    0  0.11072339939E+02 -0.24626205918E+02  0.10235657169E+02  0.28875862018E+02  0.00000000000E+00 0.  1.
</event>
<event>
 7    1  0.1385632E-008  0.4614232E+02  0.7816164E-02  0.1320468E+00
        -11   -1    0    0    0    0  0.00000000000E+00  0.00000000000E+00  0.45593999997E+02  0.45594000000E+02  0.51100000000E-03 0.  1.
         11   -1    0    0    0    0 -0.00000000000E+00 -0.00000000000E+00 -0.45593999997E+02  0.45594000000E+02  0.51100000000E-03 0. -1.
    9900012    2    1    2    0    0  0.21430322455E+02  0.21687690025E+02  0.33158693073E+02  0.46142317128E+02  0.99999942265E+01 0.  0.
         12    1    1    2    0    0 -0.21430322455E+02 -0.21687690025E+02 -0.33158693073E+02  0.45045682872E+02  0.00000000000E+00 0. -1.
         11    1    3    3    0    0  0.31133132198E+01  0.82696780951E+00  0.58067115973E+01  0.66403685739E+01  0.51100000000E-03 0. -1.
        -11    1    3    3    0    0  0.84015530886E+01  0.14054680192E+02  0.14125710458E+02  0.21625351460E+02  0.51100000000E-03 0.  1.
        -12    1    3    3    0    0  0.99154561467E+01  0.68060420236E+01  0.13226271017E+02  0.17876597094E+02  0.00000000000E+00 0.  1.
</event>
<event>
 7    1  0.1385632E-008  0.4614232E+02  0.7816164E-02  0.1320468E+00
        -11   -1    0    0    0    0  0.00000000000E+00  0.00000000000E+00  0.45593999997E+02  0.45594000000E+02  0.51100000000E-03 0. -1.
         11   -1    0    0    0    0 -0.00000000000E+00 -0.00000000000E+00 -0.45593999997E+02  0.45594000000E+02  0.51100000000E-03 0.  1.
    9900012    2    1    2    0    0 -0.32771627524E+02 -0.30144669080E+02  0.68141593520E+01  0.46142318607E+02  0.10000007714E+02 0.  0.
         12    1    1    2    0    0  0.32771627524E+02  0.30144669080E+02 -0.68141593520E+01  0.45045681393E+02  0.00000000000E+00 0. -1.
         11    1    3    3    0    0 -0.20171469364E+01 -0.52281840087E+01 -0.93579572227E+00  0.56814174012E+01  0.51100000000E-03 0. -1.
        -11    1    3    3    0    0 -0.59874531353E+01 -0.55235347439E+01  0.28218569761E+01  0.86210154952E+01  0.51100000000E-03 0.  1.
         12    1    3    3    0    0 -0.24767027452E+02 -0.19392950327E+02  0.49280980982E+01  0.31839885711E+02  0.00000000000E+00 0. -1.
</event>
<event>
 7    1  0.1385632E-008  0.4614232E+02  0.7816164E-02  0.1320468E+00
        -11   -1    0    0    0    0  0.00000000000E+00  0.00000000000E+00  0.45593999997E+02  0.45594000000E+02  0.51100000000E-03 0.  1.
         11   -1    0    0    0    0 -0.00000000000E+00 -0.00000000000E+00 -0.45593999997E+02  0.45594000000E+02  0.51100000000E-03 0. -1.
    9900012    2    1    2    0    0  0.11851861378E+01  0.31686472504E+02  0.31994941978E+02  0.46142317431E+02  0.99999969894E+01 0.  0.
         12    1    1    2    0    0 -0.11851861378E+01 -0.31686472504E+02 -0.31994941978E+02  0.45045682569E+02  0.00000000000E+00 0. -1.
         11    1    3    3    0    0 -0.23174229877E+01  0.27703085821E+01  0.17763468121E+01  0.40249803977E+01  0.51100000000E-03 0. -1.
        -11    1    3    3    0    0  0.22758630065E+01  0.21425962339E+02  0.24413962044E+02  0.32562139940E+02  0.51100000000E-03 0.  1.
         12    1    3    3    0    0  0.12267461191E+01  0.74902015836E+01  0.58046331219E+01  0.95551970929E+01  0.00000000000E+00 0. -1.
</event>
<event>
 7    1  0.1385632E-008  0.4614232E+02  0.7816164E-02  0.1320468E+00
        -11   -1    0    0    0    0  0.00000000000E+00  0.00000000000E+00  0.45593999997E+02  0.45594000000E+02  0.51100000000E-03 0.  1.
         11   -1    0    0    0    0 -0.00000000000E+00 -0.00000000000E+00 -0.45593999997E+02  0.45594000000E+02  0.51100000000E-03 0. -1.
    9900012    2    1    2    0    0 -0.69711695258E+01 -0.44218501293E+02 -0.50239888974E+01  0.46142317348E+02  0.99999962346E+01 0.  0.
         12    1    1    2    0    0  0.69711695258E+01  0.44218501293E+02  0.50239888974E+01  0.45045682652E+02  0.00000000000E+00 0. -1.
         11    1    3    3    0    0  0.80972996200E+00 -0.16370875799E+02 -0.26620046418E+01  0.16605646811E+02  0.51100000000E-03 0. -1.
        -11    1    3    3    0    0 -0.51614830856E+01 -0.14405835434E+02  0.13092347565E+01  0.15358486191E+02  0.51100000000E-03 0.  1.
        -12    1    3    3    0    0 -0.26194164022E+01 -0.13441790060E+02 -0.36712190122E+01  0.14178184345E+02  0.00000000000E+00 0.  1.
</event>
<event>
 7    1  0.1385632E-008  0.4614232E+02  0.7816164E-02  0.1320468E+00
        -11   -1    0    0    0    0  0.00000000000E+00  0.00000000000E+00  0.45593999997E+02  0.45594000000E+02  0.51100000000E-03 0.  1.
         11   -1    0    0    0    0 -0.00000000000E+00 -0.00000000000E+00 -0.45593999997E+02  0.45594000000E+02  0.51100000000E-03 0. -1.
    9900012    2    1    2    0    0  0.10159462905E+02  0.24362319462E+02  0.36501727437E+02  0.46142318720E+02  0.10000008741E+02 0.  0.
         12    1    1    2    0    0 -0.10159462905E+02 -0.24362319462E+02 -0.36501727437E+02  0.45045681280E+02  0.00000000000E+00 0. -1.
         11    1    3    3    0    0 -0.10922530809E+01  0.47200859205E+01  0.10673338630E+02  0.11721449810E+02  0.51100000000E-03 0. -1.
        -11    1    3    3    0    0  0.10447003037E+02  0.18528919795E+02  0.24966446022E+02  0.32799148898E+02  0.51100000000E-03 0.  1.
         12    1    3    3    0    0  0.80471294891E+00  0.11133137469E+01  0.86194278595E+00  0.16217200114E+01  0.00000000000E+00 0. -1.
</event>
<event>
 7    1  0.1385632E-008  0.4614232E+02  0.7816164E-02  0.1320468E+00
        -11   -1    0    0    0    0  0.00000000000E+00  0.00000000000E+00  0.45593999997E+02  0.45594000000E+02  0.51100000000E-03 0. -1.
         11   -1    0    0    0    0 -0.00000000000E+00 -0.00000000000E+00 -0.45593999997E+02  0.45594000000E+02  0.51100000000E-03 0.  1.
    9900012    2    1    2    0    0 -0.43212832643E+02  0.10719215316E+02 -0.68456608910E+01  0.46142317021E+02  0.99999932521E+01 0.  0.
         12    1    1    2    0    0  0.43212832643E+02 -0.10719215316E+02  0.68456608910E+01  0.45045682979E+02  0.00000000000E+00 0. -1.
         11    1    3    3    0    0 -0.12015659820E+02  0.50851750992E+01 -0.42109452415E+01  0.13710111115E+02  0.51100000000E-03 0. -1.
        -11    1    3    3    0    0 -0.29191015484E+02  0.35598907517E+01 -0.28102776727E+01  0.29541257048E+02  0.51100000000E-03 0.  1.
        -12    1    3    3    0    0 -0.20061573389E+01  0.20741494656E+01  0.17556202323E+00  0.28909488577E+01  0.00000000000E+00 0.  1.
</event>
<event>
 7    1  0.1385632E-008  0.4614232E+02  0.7816164E-02  0.1320468E+00
        -11   -1    0    0    0    0  0.00000000000E+00  0.00000000000E+00  0.45593999997E+02  0.45594000000E+02  0.51100000000E-03 0. -1.
         11   -1    0    0    0    0 -0.00000000000E+00 -0.00000000000E+00 -0.45593999997E+02  0.45594000000E+02  0.51100000000E-03 0.  1.
    9900012    2    1    2    0    0  0.43026426795E+02  0.77576754089E+01  0.10847052204E+02  0.46142317943E+02  0.10000001656E+02 0.  0.
         12    1    1    2    0    0 -0.43026426795E+02 -0.77576754089E+01 -0.10847052204E+02  0.45045682057E+02  0.00000000000E+00 0. -1.
         11    1    3    3    0    0  0.28129911614E+02  0.22121133902E+01  0.35340993682E+01  0.28437215610E+02  0.51100000000E-03 0.  1.
        -11    1    3    3    0    0  0.13080900503E+02  0.57267999376E+01  0.67575552667E+01  0.15797808359E+02  0.51100000000E-03 0. -1.
        -12    1    3    3    0    0  0.18156146783E+01 -0.18123791898E+00  0.55539756891E+00  0.19072939739E+01  0.00000000000E+00 0.  1.
</event>
<event>
 7    1  0.1385632E-008  0.4614232E+02  0.7816164E-02  0.1320468E+00
        -11   -1    0    0    0    0  0.00000000000E+00  0.00000000000E+00  0.45593999997E+02  0.45594000000E+02  0.51100000000E-03 0.  1.
         11   -1    0    0    0    0 -0.00000000000E+00 -0.00000000000E+00 -0.45593999997E+02  0.45594000000E+02  0.51100000000E-03 0. -1.
    9900012    2    1    2    0    0  0.10599376896E+02  0.35439191260E+02  0.25706617603E+02  0.46142320337E+02  0.10000023490E+02 0.  0.
         12    1    1    2    0    0 -0.10599376896E+02 -0.35439191260E+02 -0.25706617603E+02  0.45045679663E+02  0.00000000000E+00 0. -1.
         11    1    3    3    0    0  0.23231292080E+00 -0.43062250411E+00  0.10607594763E+00  0.50065697039E+00  0.51100000000E-03 0. -1.
        -11    1    3    3    0    0  0.27851499895E+01  0.17332401315E+02  0.96088547862E+01  0.20012478266E+02  0.51100000000E-03 0.  1.
        -12    1    3    3    0    0  0.75819139855E+01  0.18537412449E+02  0.15991686869E+02  0.25629185100E+02  0.00000000000E+00 0.  1.
</event>
<event>
 7    1  0.1385632E-008  0.4614232E+02  0.7816164E-02  0.1320468E+00
        -11   -1    0    0    0    0  0.00000000000E+00  0.00000000000E+00  0.45593999997E+02  0.45594000000E+02  0.51100000000E-03 0.  1.
         11   -1    0    0    0    0 -0.00000000000E+00 -0.00000000000E+00 -0.45593999997E+02  0.45594000000E+02  0.51100000000E-03 0. -1.
    9900012    2    1    2    0    0 -0.14706528017E+02  0.32885892911E+02  0.27043475704E+02  0.46142317665E+02  0.99999991209E+01 0.  0.
         12    1    1    2    0    0  0.14706528017E+02 -0.32885892911E+02 -0.27043475704E+02  0.45045682335E+02  0.00000000000E+00 0. -1.
         11    1    3    3    0    0 -0.11779457374E+01  0.56602250370E+01  0.76189938230E+01  0.95642443907E+01  0.51100000000E-03 0. -1.
        -11    1    3    3    0    0 -0.12836443274E+02  0.27419059466E+02  0.18940467877E+02  0.35711628661E+02  0.51100000000E-03 0.  1.
        -12    1    3    3    0    0 -0.69213900575E+00 -0.19339159226E+00  0.48401400467E+00  0.86644461332E+00  0.00000000000E+00 0.  1.
</event>
<event>
 7    1  0.1385632E-008  0.4614232E+02  0.7816164E-02  0.1320468E+00
        -11   -1    0    0    0    0  0.00000000000E+00  0.00000000000E+00  0.45593999997E+02  0.45594000000E+02  0.51100000000E-03 0.  1.
         11   -1    0    0    0    0 -0.00000000000E+00 -0.00000000000E+00 -0.45593999997E+02  0.45594000000E+02  0.51100000000E-03 0. -1.
    9900012    2    1    2    0    0 -0.83713837943E+00 -0.76492537924E+01  0.44383573354E+02  0.46142317988E+02  0.10000002069E+02 0.  0.
         12    1    1    2    0    0  0.83713837943E+00  0.76492537924E+01 -0.44383573354E+02  0.45045682012E+02  0.00000000000E+00 0. -1.
         11    1    3    3    0    0  0.39618247891E+01 -0.26923728657E+01  0.23051471865E+02  0.23543901179E+02  0.51100000000E-03 0. -1.
        -11    1    3    3    0    0 -0.44529924488E+01 -0.29165222103E+01  0.13928323882E+02  0.14910850076E+02  0.51100000000E-03 0.  1.
         12    1    3    3    0    0 -0.34597071975E+00 -0.20403587164E+01  0.74037776066E+01  0.76875667333E+01  0.00000000000E+00 0. -1.
</event>
<event>
 7    1  0.1385632E-008  0.4614232E+02  0.7816164E-02  0.1320468E+00
        -11   -1    0    0    0    0  0.00000000000E+00  0.00000000000E+00  0.45593999997E+02  0.45594000000E+02  0.51100000000E-03 0.  1.
         11   -1    0    0    0    0 -0.00000000000E+00 -0.00000000000E+00 -0.45593999997E+02  0.45594000000E+02  0.51100000000E-03 0. -1.
    9900012    2    1    2    0    0  0.70462024541E+01  0.41087375179E+02  0.17067282815E+02  0.46142317511E+02  0.99999977230E+01 0.  0.
         12    1    1    2    0    0 -0.70462024541E+01 -0.41087375179E+02 -0.17067282815E+02  0.45045682489E+02  0.00000000000E+00 0. -1.
         11    1    3    3    0    0  0.29639650336E+01  0.14952738502E+02  0.46860546402E+01  0.15947682772E+02  0.51100000000E-03 0.  1.
        -11    1    3    3    0    0 -0.38245411134E+00  0.12279142283E+02  0.23285457988E+01  0.12503828700E+02  0.51100000000E-03 0. -1.
        -12    1    3    3    0    0  0.44646915318E+01  0.13855494394E+02  0.10052682376E+02  0.17690806040E+02  0.00000000000E+00 0.  1.
</event>
<event>
 7    1  0.1385632E-008  0.4614232E+02  0.7816164E-02  0.1320468E+00
        -11   -1    0    0    0    0  0.00000000000E+00  0.00000000000E+00  0.45593999997E+02  0.45594000000E+02  0.51100000000E-03 0.  1.
         11   -1    0    0    0    0 -0.00000000000E+00 -0.00000000000E+00 -0.45593999997E+02  0.45594000000E+02  0.51100000000E-03 0. -1.
    9900012    2    1    2    0    0 -0.11305412854E+02  0.40381649485E+02  0.16450637057E+02  0.46142318359E+02  0.10000005450E+02 0.  0.
         12    1    1    2    0    0  0.11305412854E+02 -0.40381649485E+02 -0.16450637057E+02  0.45045681641E+02  0.00000000000E+00 0. -1.
         11    1    3    3    0    0 -0.41277375037E+00  0.22512200843E+01  0.37508957296E+01  0.43940406316E+01  0.51100000000E-03 0. -1.
        -11    1    3    3    0    0 -0.36031092303E+01  0.16516715444E+02  0.43254970887E+01  0.17449762477E+02  0.51100000000E-03 0.  1.
         12    1    3    3    0    0 -0.72895298730E+01  0.21613713957E+02  0.83742442385E+01  0.24298515250E+02  0.00000000000E+00 0. -1.
</event>
<event>
 7    1  0.1385632E-008  0.4614232E+02  0.7816164E-02  0.1320468E+00
        -11   -1    0    0    0    0  0.00000000000E+00  0.00000000000E+00  0.45593999997E+02  0.45594000000E+02  0.51100000000E-03 0. -1.
         11   -1    0    0    0    0 -0.00000000000E+00 -0.00000000000E+00 -0.45593999997E+02  0.45594000000E+02  0.51100000000E-03 0.  1.
    9900012    2    1    2    0    0 -0.18179142832E+02  0.41186426661E+02 -0.15199838945E+01  0.46142319560E+02  0.10000016408E+02 0.  0.
         12    1    1    2    0    0  0.18179142832E+02 -0.41186426661E+02  0.15199838945E+01  0.45045680440E+02  0.00000000000E+00 0. -1.
         11    1    3    3    0    0 -0.48092762996E+00  0.41929968133E+00 -0.30479260659E+00  0.70710847977E+00  0.51100000000E-03 0. -1.
        -11    1    3    3    0    0 -0.84661855265E+01  0.16336158419E+02 -0.49464701665E+01  0.19052924622E+02  0.51100000000E-03 0.  1.
        -12    1    3    3    0    0 -0.92320296755E+01  0.24430968560E+02  0.37312788786E+01  0.26382286459E+02  0.00000000000E+00 0.  1.
</event>
<event>
 7    1  0.1385632E-008  0.4614232E+02  0.7816164E-02  0.1320468E+00
        -11   -1    0    0    0    0  0.00000000000E+00  0.00000000000E+00  0.45593999997E+02  0.45594000000E+02  0.51100000000E-03 0. -1.
         11   -1    0    0    0    0 -0.00000000000E+00 -0.00000000000E+00 -0.45593999997E+02  0.45594000000E+02  0.51100000000E-03 0.  1.
    9900012    2    1    2    0    0 -0.44604802318E+02 -0.26115013362E+01  0.57188397370E+01  0.46142318109E+02  0.10000003172E+02 0.  0.
         12    1    1    2    0    0  0.44604802318E+02  0.26115013362E+01 -0.57188397370E+01  0.45045681891E+02  0.00000000000E+00 0. -1.
         11    1    3    3    0    0 -0.77740295791E+01 -0.20998258507E+01  0.43557527917E+01  0.91551836215E+01  0.51100000000E-03 0. -1.
        -11    1    3    3    0    0 -0.22927115508E+02 -0.11967145329E+01 -0.35439889292E+00  0.22961061604E+02  0.51100000000E-03 0.  1.
        -12    1    3    3    0    0 -0.13903657232E+02  0.68503904742E+00  0.17174858383E+01  0.14026072883E+02  0.00000000000E+00 0.  1.
</event>
<event>
 7    1  0.1385632E-008  0.4614232E+02  0.7816164E-02  0.1320468E+00
        -11   -1    0    0    0    0  0.00000000000E+00  0.00000000000E+00  0.45593999997E+02  0.45594000000E+02  0.51100000000E-03 0.  1.
         11   -1    0    0    0    0 -0.00000000000E+00 -0.00000000000E+00 -0.45593999997E+02  0.45594000000E+02  0.51100000000E-03 0. -1.
    9900012    2    1    2    0    0 -0.28826011181E+02  0.59736460377E+01  0.34095309712E+02  0.46142317500E+02  0.99999976145E+01 0.  0.
         12    1    1    2    0    0  0.28826011181E+02 -0.59736460377E+01 -0.34095309712E+02  0.45045682500E+02  0.00000000000E+00 0. -1.
         11    1    3    3    0    0  0.44861707683E+00 -0.43284842589E+00 -0.12841455567E+00  0.63647906536E+00  0.51100000000E-03 0. -1.
        -11    1    3    3    0    0 -0.20013305817E+02  0.44953934440E+01  0.22576664564E+02  0.30503225322E+02  0.51100000000E-03 0.  1.
         12    1    3    3    0    0 -0.92613224411E+01  0.19111010196E+01  0.11647059703E+02  0.15002613112E+02  0.00000000000E+00 0. -1.
</event>
<event>
 7    1  0.1385632E-008  0.4614231E+02  0.7816164E-02  0.1320468E+00
        -11   -1    0    0    0    0  0.00000000000E+00  0.00000000000E+00  0.45593999997E+02  0.45594000000E+02  0.51100000000E-03 0.  1.
         11   -1    0    0    0    0 -0.00000000000E+00 -0.00000000000E+00 -0.45593999997E+02  0.45594000000E+02  0.51100000000E-03 0. -1.
    9900012    2    1    2    0    0  0.12812388597E+02  0.35681418333E+02  0.24326793459E+02  0.46142314348E+02  0.99999688778E+01 0.  0.
         12    1    1    2    0    0 -0.12812388597E+02 -0.35681418333E+02 -0.24326793459E+02  0.45045685652E+02  0.00000000000E+00 0. -1.
         11    1    3    3    0    0  0.38438009207E+01  0.16521387545E+02  0.12909654846E+02  0.21316431231E+02  0.51100000000E-03 0. -1.
        -11    1    3    3    0    0  0.67295347274E+01  0.92673891129E+01  0.85288701788E+01  0.14279802709E+02  0.51100000000E-03 0.  1.
         12    1    3    3    0    0  0.22390529492E+01  0.98926416756E+01  0.28882684348E+01  0.10546080408E+02  0.00000000000E+00 0. -1.
</event>
<event>
 7    1  0.1385632E-008  0.4614232E+02  0.7816164E-02  0.1320468E+00
        -11   -1    0    0    0    0  0.00000000000E+00  0.00000000000E+00  0.45593999997E+02  0.45594000000E+02  0.51100000000E-03 0. -1.
         11   -1    0    0    0    0 -0.00000000000E+00 -0.00000000000E+00 -0.45593999997E+02  0.45594000000E+02  0.51100000000E-03 0.  1.
    9900012    2    1    2    0    0  0.41777436641E+02  0.14265342121E+02 -0.89587496037E+01  0.46142318825E+02  0.10000009698E+02 0.  0.
         12    1    1    2    0    0 -0.41777436641E+02 -0.14265342121E+02  0.89587496037E+01  0.45045681175E+02  0.00000000000E+00 0. -1.
         11    1    3    3    0    0  0.70472198329E+01  0.41758071282E+00 -0.32269952789E+01  0.77621633464E+01  0.51100000000E-03 0. -1.
        -11    1    3    3    0    0  0.21862282129E+02  0.10852207487E+02 -0.61174140560E+01  0.25162522573E+02  0.51100000000E-03 0.  1.
        -12    1    3    3    0    0  0.12867934679E+02  0.29955539203E+01  0.38565973131E+00  0.13217632906E+02  0.00000000000E+00 0.  1.
</event>
<event>
 7    1  0.1385632E-008  0.4614232E+02  0.7816164E-02  0.1320468E+00
        -11   -1    0    0    0    0  0.00000000000E+00  0.00000000000E+00  0.45593999997E+02  0.45594000000E+02  0.51100000000E-03 0.  1.
         11   -1    0    0    0    0 -0.00000000000E+00 -0.00000000000E+00 -0.45593999997E+02  0.45594000000E+02  0.51100000000E-03 0. -1.
    9900012    2    1    2    0    0  0.38252377590E+02  0.21498950804E+02  0.10181564060E+02  0.46142317369E+02  0.99999964280E+01 0.  0.
         12    1    1    2    0    0 -0.38252377590E+02 -0.21498950804E+02 -0.10181564060E+02  0.45045682631E+02  0.00000000000E+00 0. -1.
         11    1    3    3    0    0  0.76946780621E+01  0.43939146789E+01  0.45692525286E+01  0.99695850273E+01  0.51100000000E-03 0. -1.
        -11    1    3    3    0    0  0.18973920306E+02  0.12521818759E+02  0.66113696375E+01  0.23675215006E+02  0.51100000000E-03 0.  1.
         12    1    3    3    0    0  0.11583779221E+02  0.45832173665E+01 -0.99905810602E+00  0.12497517336E+02  0.00000000000E+00 0. -1.
</event>
<event>
 7    1  0.1385632E-008  0.4614232E+02  0.7816164E-02  0.1320468E+00
        -11   -1    0    0    0    0  0.00000000000E+00  0.00000000000E+00  0.45593999997E+02  0.45594000000E+02  0.51100000000E-03 0. -1.
         11   -1    0    0    0    0 -0.00000000000E+00 -0.00000000000E+00 -0.45593999997E+02  0.45594000000E+02  0.51100000000E-03 0.  1.
    9900012    2    1    2    0    0 -0.26035336481E+02  0.33629968456E+02  0.14842506302E+02  0.46142317439E+02  0.99999970663E+01 0.  0.
         12    1    1    2    0    0  0.26035336481E+02 -0.33629968456E+02 -0.14842506302E+02  0.45045682561E+02  0.00000000000E+00 0. -1.
         11    1    3    3    0    0  0.35552606004E-01  0.14553000919E+00 -0.77373488177E+00  0.78810462488E+00  0.51100000000E-03 0. -1.
        -11    1    3    3    0    0 -0.18564042447E+02  0.25337508295E+02  0.12840399726E+02  0.33933594916E+02  0.51100000000E-03 0.  1.
         12    1    3    3    0    0 -0.75068466400E+01  0.81469301523E+01  0.27758414579E+01  0.11420617898E+02  0.00000000000E+00 0. -1.
</event>
<event>
 7    1  0.2189672E-008  0.4614232E+02  0.7816164E-02  0.1320468E+00
        -11   -1    0    0    0    0  0.00000000000E+00  0.00000000000E+00  0.45593999997E+02  0.45594000000E+02  0.51100000000E-03 0. -1.
         11   -1    0    0    0    0 -0.00000000000E+00 -0.00000000000E+00 -0.45593999997E+02  0.45594000000E+02  0.51100000000E-03 0.  1.
    9900012    2    1    2    0    0  0.14158410355E+01  0.41703659076E+02 -0.16968025937E+02  0.46142315519E+02  0.99999795510E+01 0.  0.
         12    1    1    2    0    0 -0.14158410355E+01 -0.41703659076E+02  0.16968025937E+02  0.45045684481E+02  0.00000000000E+00 0. -1.
         11    1    3    3    0    0  0.14632497576E+01  0.14203419718E+02 -0.25770669496E+01  0.14509290329E+02  0.51100000000E-03 0. -1.
        -11    1    3    3    0    0 -0.25219897584E+01  0.75084030251E+01 -0.53136818184E+01  0.95379118813E+01  0.51100000000E-03 0.  1.
        -12    1    3    3    0    0  0.24745810363E+01  0.19991836334E+02 -0.90772771691E+01  0.22095113308E+02  0.00000000000E+00 0.  1.
</event>
<event>
 7    1  0.1385632E-008  0.4614232E+02  0.7816164E-02  0.1320468E+00
        -11   -1    0    0    0    0  0.00000000000E+00  0.00000000000E+00  0.45593999997E+02  0.45594000000E+02  0.51100000000E-03 0.  1.
         11   -1    0    0    0    0 -0.00000000000E+00 -0.00000000000E+00 -0.45593999997E+02  0.45594000000E+02  0.51100000000E-03 0. -1.
    9900012    2    1    2    0    0  0.42583710583E+02  0.14684150645E+02 -0.34173533099E+00  0.46142317963E+02  0.10000001840E+02 0.  0.
         12    1    1    2    0    0 -0.42583710583E+02 -0.14684150645E+02  0.34173533099E+00  0.45045682037E+02  0.00000000000E+00 0. -1.
         11    1    3    3    0    0  0.15124209068E+02  0.78182847787E+01 -0.31450341089E+01  0.17313535648E+02  0.51100000000E-03 0. -1.
        -11    1    3    3    0    0  0.18403189728E+02  0.48340491292E+01  0.40798373998E+01  0.19459971650E+02  0.51100000000E-03 0.  1.
         12    1    3    3    0    0  0.90563117862E+01  0.20318167369E+01 -0.12765386219E+01  0.93688106649E+01  0.00000000000E+00 0. -1.
</event>
<event>
 7    1  0.1385632E-008  0.4614232E+02  0.7816164E-02  0.1320468E+00
        -11   -1    0    0    0    0  0.00000000000E+00  0.00000000000E+00  0.45593999997E+02  0.45594000000E+02  0.51100000000E-03 0. -1.
         11   -1    0    0    0    0 -0.00000000000E+00 -0.00000000000E+00 -0.45593999997E+02  0.45594000000E+02  0.51100000000E-03 0.  1.
    9900012    2    1    2    0    0  0.20467040363E+01 -0.42034837298E+02  0.16062286823E+02  0.46142316499E+02  0.99999884932E+01 0.  0.
         12    1    1    2    0    0 -0.20467040363E+01  0.42034837298E+02 -0.16062286823E+02  0.45045683501E+02  0.00000000000E+00 0. -1.
         11    1    3    3    0    0 -0.22279687072E+01 -0.77479601660E+01  0.15576606136E+01  0.82110314908E+01  0.51100000000E-03 0. -1.
        -11    1    3    3    0    0  0.46170436312E+01 -0.27806297900E+02  0.13858339628E+02  0.31409566572E+02  0.51100000000E-03 0.  1.
        -12    1    3    3    0    0 -0.34237088768E+00 -0.64805792325E+01  0.64628658112E+00  0.65217184360E+01  0.00000000000E+00 0.  1.
</event>
<event>
 7    1  0.1385632E-008  0.4614232E+02  0.7816164E-02  0.1320468E+00
        -11   -1    0    0    0    0  0.00000000000E+00  0.00000000000E+00  0.45593999997E+02  0.45594000000E+02  0.51100000000E-03 0. -1.
         11   -1    0    0    0    0 -0.00000000000E+00 -0.00000000000E+00 -0.45593999997E+02  0.45594000000E+02  0.51100000000E-03 0.  1.
    9900012    2    1    2    0    0  0.14602601416E+02  0.35817441501E+02 -0.23086542189E+02  0.46142317477E+02  0.99999974068E+01 0.  0.
         12    1    1    2    0    0 -0.14602601416E+02 -0.35817441501E+02  0.23086542189E+02  0.45045682523E+02  0.00000000000E+00 0. -1.
         11    1    3    3    0    0  0.93165849826E+01  0.23748145612E+02 -0.10276385959E+02  0.27502314164E+02  0.51100000000E-03 0. -1.
        -11    1    3    3    0    0  0.21082189627E+01  0.31089611640E+01 -0.20420682173E+01  0.42755431911E+01  0.51100000000E-03 0.  1.
         12    1    3    3    0    0  0.31777974703E+01  0.89603347251E+01 -0.10768088012E+02  0.14364460122E+02  0.00000000000E+00 0. -1.
</event>
<event>
 7    1  0.1385632E-008  0.4614232E+02  0.7816164E-02  0.1320468E+00
        -11   -1    0    0    0    0  0.00000000000E+00  0.00000000000E+00  0.45593999997E+02  0.45594000000E+02  0.51100000000E-03 0.  1.
         11   -1    0    0    0    0 -0.00000000000E+00 -0.00000000000E+00 -0.45593999997E+02  0.45594000000E+02  0.51100000000E-03 0. -1.
    9900012    2    1    2    0    0  0.44384453815E+02  0.63003087599E+01  0.44090745843E+01  0.46142316859E+02  0.99999917761E+01 0.  0.
         12    1    1    2    0    0 -0.44384453815E+02 -0.63003087599E+01 -0.44090745843E+01  0.45045683141E+02  0.00000000000E+00 0. -1.
         11    1    3    3    0    0 -0.64294975766E-01  0.73964550621E+00 -0.80882650107E-01  0.74682767957E+00  0.51100000000E-03 0. -1.
        -11    1    3    3    0    0  0.31304859593E+01 -0.30361646018E+00  0.16871797123E+01  0.35691316786E+01  0.51100000000E-03 0.  1.
         12    1    3    3    0    0  0.41318262831E+02  0.58642797139E+01  0.28027775222E+01  0.41826357501E+02  0.00000000000E+00 0. -1.
</event>
<event>
 7    1  0.1385632E-008  0.4614232E+02  0.7816164E-02  0.1320468E+00
        -11   -1    0    0    0    0  0.00000000000E+00  0.00000000000E+00  0.45593999997E+02  0.45594000000E+02  0.51100000000E-03 0. -1.
         11   -1    0    0    0    0 -0.00000000000E+00 -0.00000000000E+00 -0.45593999997E+02  0.45594000000E+02  0.51100000000E-03 0.  1.
    9900012    2    1    2    0    0  0.35741969662E+02  0.70230211419E+01  0.26500986695E+02  0.46142317442E+02  0.99999970926E+01 0.  0.
         12    1    1    2    0    0 -0.35741969662E+02 -0.70230211419E+01 -0.26500986695E+02  0.45045682558E+02  0.00000000000E+00 0. -1.
         11    1    3    3    0    0  0.88346178527E+01  0.40637226060E+01  0.77600399208E+01  0.12441162882E+02  0.51100000000E-03 0.  1.
        -11    1    3    3    0    0  0.77714469884E+01 -0.14154149883E+01  0.26904265932E+01  0.83448896576E+01  0.51100000000E-03 0. -1.
         12    1    3    3    0    0  0.19135904821E+02  0.43747135243E+01  0.16050520181E+02  0.25356264903E+02  0.00000000000E+00 0. -1.
</event>
<event>
 7    1  0.1385632E-008  0.4614232E+02  0.7816164E-02  0.1320468E+00
        -11   -1    0    0    0    0  0.00000000000E+00  0.00000000000E+00  0.45593999997E+02  0.45594000000E+02  0.51100000000E-03 0. -1.
         11   -1    0    0    0    0 -0.00000000000E+00 -0.00000000000E+00 -0.45593999997E+02  0.45594000000E+02  0.51100000000E-03 0.  1.
    9900012    2    1    2    0    0  0.30408784718E+02  0.12050327100E+02 -0.30971097776E+02  0.46142317979E+02  0.10000001988E+02 0.  0.
         12    1    1    2    0    0 -0.30408784718E+02 -0.12050327100E+02  0.30971097776E+02  0.45045682021E+02  0.00000000000E+00 0. -1.
         11    1    3    3    0    0  0.48979890054E+01  0.44341714646E+01 -0.60193952773E+01  0.89378572734E+01  0.51100000000E-03 0. -1.
        -11    1    3    3    0    0  0.21588854689E+02  0.39823710024E+01 -0.17728022673E+02  0.28217383184E+02  0.51100000000E-03 0.  1.
        -12    1    3    3    0    0  0.39219410236E+01  0.36337846326E+01 -0.72236798265E+01  0.89870775219E+01  0.00000000000E+00 0.  1.
</event>
<event>
 7    1  0.1385632E-008  0.4614232E+02  0.7816164E-02  0.1320468E+00
        -11   -1    0    0    0    0  0.00000000000E+00  0.00000000000E+00  0.45593999997E+02  0.45594000000E+02  0.51100000000E-03 0.  1.
         11   -1    0    0    0    0 -0.00000000000E+00 -0.00000000000E+00 -0.45593999997E+02  0.45594000000E+02  0.51100000000E-03 0. -1.
    9900012    2    1    2    0    0  0.16288178410E+02 -0.28679668969E+02  0.30680374357E+02  0.46142317202E+02  0.99999949020E+01 0.  0.
         12    1    1    2    0    0 -0.16288178410E+02  0.28679668969E+02 -0.30680374357E+02  0.45045682798E+02  0.00000000000E+00 0. -1.
         11    1    3    3    0    0  0.88593538712E+01 -0.66788297352E+01  0.11054332692E+02  0.15661838627E+02  0.51100000000E-03 0. -1.
        -11    1    3    3    0    0  0.50796298118E+01 -0.11686768805E+02  0.10713644475E+02  0.16648284666E+02  0.51100000000E-03 0.  1.
         12    1    3    3    0    0  0.23491947268E+01 -0.10314070429E+02  0.89123971889E+01  0.13832193909E+02  0.00000000000E+00 0. -1.
</event>
<event>
 7    1  0.1385632E-008  0.4614232E+02  0.7816164E-02  0.1320468E+00
        -11   -1    0    0    0    0  0.00000000000E+00  0.00000000000E+00  0.45593999997E+02  0.45594000000E+02  0.51100000000E-03 0.  1.
         11   -1    0    0    0    0 -0.00000000000E+00 -0.00000000000E+00 -0.45593999997E+02  0.45594000000E+02  0.51100000000E-03 0. -1.
    9900012    2    1    2    0    0 -0.20711471883E+00 -0.55037556355E+01  0.44707710085E+02  0.46142316926E+02  0.99999923803E+01 0.  0.
         12    1    1    2    0    0  0.20711471883E+00  0.55037556355E+01 -0.44707710085E+02  0.45045683074E+02  0.00000000000E+00 0. -1.
         11    1    3    3    0    0 -0.27215594310E+01 -0.28676698709E+01  0.34635963469E+02  0.34860871789E+02  0.51100000000E-03 0.  1.
        -11    1    3    3    0    0  0.28504793725E+01 -0.31231502202E+01  0.97027769954E+01  0.10584100417E+02  0.51100000000E-03 0. -1.
        -12    1    3    3    0    0 -0.33603466030E+00  0.48706445564E+00  0.36896962104E+00  0.69734471971E+00  0.00000000000E+00 0.  1.
</event>
<event>
 7    1  0.1385632E-008  0.4614232E+02  0.7816164E-02  0.1320468E+00
        -11   -1    0    0    0    0  0.00000000000E+00  0.00000000000E+00  0.45593999997E+02  0.45594000000E+02  0.51100000000E-03 0.  1.
         11   -1    0    0    0    0 -0.00000000000E+00 -0.00000000000E+00 -0.45593999997E+02  0.45594000000E+02  0.51100000000E-03 0. -1.
    9900012    2    1    2    0    0  0.40851630826E+02  0.15717220315E+02  0.10640805002E+02  0.46142317779E+02  0.10000000167E+02 0.  0.
         12    1    1    2    0    0 -0.40851630826E+02 -0.15717220315E+02 -0.10640805002E+02  0.45045682221E+02  0.00000000000E+00 0. -1.
         11    1    3    3    0    0  0.10490625301E+02  0.19435265305E+01  0.58883662372E+01  0.12186195952E+02  0.51100000000E-03 0.  1.
        -11    1    3    3    0    0  0.10682142499E+02  0.64461049593E+01  0.24412921820E+00  0.12478783469E+02  0.51100000000E-03 0. -1.
        -12    1    3    3    0    0  0.19678863027E+02  0.73275888257E+01  0.45083095470E+01  0.21477338359E+02  0.00000000000E+00 0.  1.
</event>
<event>
 7    1  0.1385632E-008  0.4614232E+02  0.7816164E-02  0.1320468E+00
        -11   -1    0    0    0    0  0.00000000000E+00  0.00000000000E+00  0.45593999997E+02  0.45594000000E+02  0.51100000000E-03 0. -1.
         11   -1    0    0    0    0 -0.00000000000E+00 -0.00000000000E+00 -0.45593999997E+02  0.45594000000E+02  0.51100000000E-03 0.  1.
    9900012    2    1    2    0    0  0.19934957400E+02 -0.19806999391E+02 -0.35205023575E+02  0.46142318339E+02  0.10000005265E+02 0.  0.
         12    1    1    2    0    0 -0.19934957400E+02  0.19806999391E+02  0.35205023575E+02  0.45045681661E+02  0.00000000000E+00 0. -1.
         11    1    3    3    0    0  0.77342059737E+00 -0.18758957288E+01 -0.49821991830E+00  0.20893509887E+01  0.51100000000E-03 0. -1.
        -11    1    3    3    0    0  0.11199804183E+02 -0.14180380130E+02 -0.26086146423E+02  0.31733355162E+02  0.51100000000E-03 0.  1.
         12    1    3    3    0    0  0.79617326191E+01 -0.37507235326E+01 -0.86206572346E+01  0.12319612188E+02  0.00000000000E+00 0. -1.
</event>
<event>
 7    1  0.1385632E-008  0.4614232E+02  0.7816164E-02  0.1320468E+00
        -11   -1    0    0    0    0  0.00000000000E+00  0.00000000000E+00  0.45593999997E+02  0.45594000000E+02  0.51100000000E-03 0.  1.
         11   -1    0    0    0    0 -0.00000000000E+00 -0.00000000000E+00 -0.45593999997E+02  0.45594000000E+02  0.51100000000E-03 0. -1.
    9900012    2    1    2    0    0  0.16582603367E+02  0.94940143328E+01  0.40792088010E+02  0.46142317778E+02  0.10000000155E+02 0.  0.
         12    1    1    2    0    0 -0.16582603367E+02 -0.94940143328E+01 -0.40792088010E+02  0.45045682222E+02  0.00000000000E+00 0. -1.
         11    1    3    3    0    0 -0.86513883115E+00  0.12571092092E+00  0.10451664727E+01  0.13625863824E+01  0.51100000000E-03 0. -1.
        -11    1    3    3    0    0  0.10635493051E+02  0.54111460971E+01  0.29733680794E+02  0.32038820021E+02  0.51100000000E-03 0.  1.
        -12    1    3    3    0    0  0.68122491479E+01  0.39571573148E+01  0.10013240744E+02  0.12740911375E+02  0.00000000000E+00 0.  1.
</event>
<event>
 7    1  0.1385632E-008  0.4614232E+02  0.7816164E-02  0.1320468E+00
        -11   -1    0    0    0    0  0.00000000000E+00  0.00000000000E+00  0.45593999997E+02  0.45594000000E+02  0.51100000000E-03 0. -1.
         11   -1    0    0    0    0 -0.00000000000E+00 -0.00000000000E+00 -0.45593999997E+02  0.45594000000E+02  0.51100000000E-03 0.  1.
    9900012    2    1    2    0    0 -0.23543847672E+02 -0.25648579771E+02 -0.28582360062E+02  0.46142315254E+02  0.99999771409E+01 0.  0.
         12    1    1    2    0    0  0.23543847672E+02  0.25648579771E+02  0.28582360062E+02  0.45045684746E+02  0.00000000000E+00 0. -1.
         11    1    3    3    0    0 -0.10995278528E+02 -0.95695603395E+01 -0.14607405657E+02  0.20636107562E+02  0.51100000000E-03 0. -1.
        -11    1    3    3    0    0 -0.10528678821E+02 -0.15237660040E+02 -0.14154542320E+02  0.23310736363E+02  0.51100000000E-03 0.  1.
         12    1    3    3    0    0 -0.20198903226E+01 -0.84135939168E+00  0.17958791513E+00  0.21954713299E+01  0.00000000000E+00 0. -1.
</event>
<event>
 7    1  0.1385632E-008  0.4614232E+02  0.7816164E-02  0.1320468E+00
        -11   -1    0    0    0    0  0.00000000000E+00  0.00000000000E+00  0.45593999997E+02  0.45594000000E+02  0.51100000000E-03 0. -1.
         11   -1    0    0    0    0 -0.00000000000E+00 -0.00000000000E+00 -0.45593999997E+02  0.45594000000E+02  0.51100000000E-03 0.  1.
    9900012    2    1    2    0    0 -0.10571354943E+02  0.43772633356E+02  0.11474724820E+01  0.46142315752E+02  0.99999816784E+01 0.  0.
         12    1    1    2    0    0  0.10571354943E+02 -0.43772633356E+02 -0.11474724820E+01  0.45045684248E+02  0.00000000000E+00 0. -1.
         11    1    3    3    0    0 -0.34328774603E+01  0.13670288972E+02 -0.41261434101E+01  0.14686269368E+02  0.51100000000E-03 0.  1.
        -11    1    3    3    0    0 -0.57597415755E+01  0.21003758163E+02  0.43289533690E+01  0.22205231760E+02  0.51100000000E-03 0. -1.
         12    1    3    3    0    0 -0.13787359075E+01  0.90985862213E+01  0.94466252313E+00  0.92508146242E+01  0.00000000000E+00 0. -1.
</event>
<event>
 7    1  0.1385632E-008  0.4614232E+02  0.7816164E-02  0.1320468E+00
        -11   -1    0    0    0    0  0.00000000000E+00  0.00000000000E+00  0.45593999997E+02  0.45594000000E+02  0.51100000000E-03 0.  1.
         11   -1    0    0    0    0 -0.00000000000E+00 -0.00000000000E+00 -0.45593999997E+02  0.45594000000E+02  0.51100000000E-03 0. -1.
    9900012    2    1    2    0    0 -0.18242545346E+02 -0.20639290780E+02  0.35641863728E+02  0.46142320578E+02  0.10000025684E+02 0.  0.
         12    1    1    2    0    0  0.18242545346E+02  0.20639290780E+02 -0.35641863728E+02  0.45045679422E+02  0.00000000000E+00 0. -1.
         11    1    3    3    0    0 -0.10299976838E+02 -0.60149296043E+01  0.13479491367E+02  0.17999044107E+02  0.51100000000E-03 0. -1.
        -11    1    3    3    0    0 -0.13393179062E+01 -0.61685035598E+01  0.10849142984E+02  0.12551817095E+02  0.51100000000E-03 0.  1.
         12    1    3    3    0    0 -0.66032506026E+01 -0.84558576157E+01  0.11313229377E+02  0.15591459376E+02  0.00000000000E+00 0. -1.
</event>
<event>
 7    1  0.1385632E-008  0.4614232E+02  0.7816164E-02  0.1320468E+00
        -11   -1    0    0    0    0  0.00000000000E+00  0.00000000000E+00  0.45593999997E+02  0.45594000000E+02  0.51100000000E-03 0. -1.
         11   -1    0    0    0    0 -0.00000000000E+00 -0.00000000000E+00 -0.45593999997E+02  0.45594000000E+02  0.51100000000E-03 0.  1.
    9900012    2    1    2    0    0 -0.23320621312E+02  0.37690124415E+02 -0.80446678299E+01  0.46142317218E+02  0.99999950469E+01 0.  0.
         12    1    1    2    0    0  0.23320621312E+02 -0.37690124415E+02  0.80446678299E+01  0.45045682782E+02  0.00000000000E+00 0. -1.
         11    1    3    3    0    0  0.45653683662E+00  0.18893499891E+01 -0.15232260928E+01  0.24694710477E+01  0.51100000000E-03 0. -1.
        -11    1    3    3    0    0 -0.18368900943E+01  0.53077275933E+01 -0.92832282064E+00  0.56927955297E+01  0.51100000000E-03 0.  1.
         12    1    3    3    0    0 -0.21940268054E+02  0.30493046833E+02 -0.55931189164E+01  0.37980050641E+02  0.00000000000E+00 0. -1.
</event>
<event>
 7    1  0.1385632E-008  0.4614232E+02  0.7816164E-02  0.1320468E+00
        -11   -1    0    0    0    0  0.00000000000E+00  0.00000000000E+00  0.45593999997E+02  0.45594000000E+02  0.51100000000E-03 0.  1.
         11   -1    0    0    0    0 -0.00000000000E+00 -0.00000000000E+00 -0.45593999997E+02  0.45594000000E+02  0.51100000000E-03 0. -1.
    9900012    2    1    2    0    0  0.27158967799E+01 -0.64252869825E+01  0.44502278730E+02  0.46142320736E+02  0.10000027131E+02 0.  0.
         12    1    1    2    0    0 -0.27158967799E+01  0.64252869825E+01 -0.44502278730E+02  0.45045679264E+02  0.00000000000E+00 0. -1.
         11    1    3    3    0    0 -0.44134358146E+00  0.24365533759E+00  0.82376154241E-01  0.51082107664E+00  0.51100000000E-03 0. -1.
        -11    1    3    3    0    0  0.50579803922E+01 -0.57756807522E+01  0.40097804991E+02  0.40826163414E+02  0.51100000000E-03 0.  1.
        -12    1    3    3    0    0 -0.19007400309E+01 -0.89326156786E+00  0.43220975855E+01  0.48053362455E+01  0.00000000000E+00 0.  1.
</event>
<event>
 7    1  0.1385632E-008  0.4614232E+02  0.7816164E-02  0.1320468E+00
        -11   -1    0    0    0    0  0.00000000000E+00  0.00000000000E+00  0.45593999997E+02  0.45594000000E+02  0.51100000000E-03 0.  1.
         11   -1    0    0    0    0 -0.00000000000E+00 -0.00000000000E+00 -0.45593999997E+02  0.45594000000E+02  0.51100000000E-03 0. -1.
    9900012    2    1    2    0    0 -0.41389898980E+01  0.21134334552E+02  0.39564150458E+02  0.46142319455E+02  0.10000015442E+02 0.  0.
         12    1    1    2    0    0  0.41389898980E+01 -0.21134334552E+02 -0.39564150458E+02  0.45045680545E+02  0.00000000000E+00 0. -1.
         11    1    3    3    0    0 -0.68154933291E+01  0.12692593977E+02  0.24187280872E+02  0.28152752040E+02  0.51100000000E-03 0. -1.
        -11    1    3    3    0    0  0.24042123612E+01  0.86510586681E+01  0.14598039013E+02  0.17138372048E+02  0.51100000000E-03 0.  1.
         12    1    3    3    0    0  0.27229106987E+00 -0.20931809339E+00  0.77883057271E+00  0.85119536650E+00  0.00000000000E+00 0. -1.
</event>
<event>
 7    1  0.1385632E-008  0.4614232E+02  0.7816164E-02  0.1320468E+00
        -11   -1    0    0    0    0  0.00000000000E+00  0.00000000000E+00  0.45593999997E+02  0.45594000000E+02  0.51100000000E-03 0.  1.
         11   -1    0    0    0    0 -0.00000000000E+00 -0.00000000000E+00 -0.45593999997E+02  0.45594000000E+02  0.51100000000E-03 0. -1.
    9900012    2    1    2    0    0  0.19717591569E+02 -0.37127666773E+02  0.16182288867E+02  0.46142317296E+02  0.99999957562E+01 0.  0.
         12    1    1    2    0    0 -0.19717591569E+02  0.37127666773E+02 -0.16182288867E+02  0.45045682704E+02  0.00000000000E+00 0. -1.
         11    1    3    3    0    0  0.36667119489E+01 -0.13192137271E+02  0.68844115847E+01  0.15325546823E+02  0.51100000000E-03 0. -1.
        -11    1    3    3    0    0 -0.12897716991E+00 -0.19181275634E-01  0.66642520665E+00  0.67906247789E+00  0.51100000000E-03 0.  1.
        -12    1    3    3    0    0  0.16179856790E+02 -0.23916348227E+02  0.86314520755E+01  0.30137707995E+02  0.00000000000E+00 0.  1.
</event>
<event>
 7    1  0.1385632E-008  0.4614232E+02  0.7816164E-02  0.1320468E+00
        -11   -1    0    0    0    0  0.00000000000E+00  0.00000000000E+00  0.45593999997E+02  0.45594000000E+02  0.51100000000E-03 0.  1.
         11   -1    0    0    0    0 -0.00000000000E+00 -0.00000000000E+00 -0.45593999997E+02  0.45594000000E+02  0.51100000000E-03 0. -1.
    9900012    2    1    2    0    0  0.10004578154E+02  0.30342512835E+02  0.31754587609E+02  0.46142317594E+02  0.99999984797E+01 0.  0.
         12    1    1    2    0    0 -0.10004578154E+02 -0.30342512835E+02 -0.31754587609E+02  0.45045682406E+02  0.00000000000E+00 0. -1.
         11    1    3    3    0    0  0.41075926345E+00  0.99566652118E+01  0.11564531419E+02  0.15265722797E+02  0.51100000000E-03 0. -1.
        -11    1    3    3    0    0  0.65860799218E+01  0.18595165476E+02  0.18251817972E+02  0.26875369529E+02  0.51100000000E-03 0.  1.
        -12    1    3    3    0    0  0.30077389685E+01  0.17906821472E+01  0.19382382187E+01  0.40012252683E+01  0.00000000000E+00 0.  1.
</event>
<event>
 7    1  0.1385632E-008  0.4614232E+02  0.7816164E-02  0.1320468E+00
        -11   -1    0    0    0    0  0.00000000000E+00  0.00000000000E+00  0.45593999997E+02  0.45594000000E+02  0.51100000000E-03 0.  1.
         11   -1    0    0    0    0 -0.00000000000E+00 -0.00000000000E+00 -0.45593999997E+02  0.45594000000E+02  0.51100000000E-03 0. -1.
    9900012    2    1    2    0    0  0.22274843422E+02  0.24370165378E+02  0.30643757571E+02  0.46142317764E+02  0.10000000028E+02 0.  0.
         12    1    1    2    0    0 -0.22274843422E+02 -0.24370165378E+02 -0.30643757571E+02  0.45045682236E+02  0.00000000000E+00 0. -1.
         11    1    3    3    0    0  0.16198214276E+02  0.19997178092E+02  0.22588536551E+02  0.34241951772E+02  0.51100000000E-03 0. -1.
        -11    1    3    3    0    0  0.58741550052E+01  0.24292704123E+01  0.43226398377E+01  0.76871494839E+01  0.51100000000E-03 0.  1.
         12    1    3    3    0    0  0.20247414077E+00  0.19437168735E+01  0.37325811828E+01  0.42132165086E+01  0.00000000000E+00 0. -1.
</event>
<event>
 7    1  0.1385632E-008  0.4614232E+02  0.7816164E-02  0.1320468E+00
        -11   -1    0    0    0    0  0.00000000000E+00  0.00000000000E+00  0.45593999997E+02  0.45594000000E+02  0.51100000000E-03 0.  1.
         11   -1    0    0    0    0 -0.00000000000E+00 -0.00000000000E+00 -0.45593999997E+02  0.45594000000E+02  0.51100000000E-03 0. -1.
    9900012    2    1    2    0    0  0.89375270050E+01  0.20324220783E+02  0.39193881197E+02  0.46142315826E+02  0.99999823537E+01 0.  0.
         12    1    1    2    0    0 -0.89375270050E+01 -0.20324220783E+02 -0.39193881197E+02  0.45045684174E+02  0.00000000000E+00 0. -1.
         11    1    3    3    0    0  0.13429561337E+01  0.25281357647E+00  0.75594602705E+00  0.15616979665E+01  0.51100000000E-03 0. -1.
        -11    1    3    3    0    0  0.77181039232E+01  0.20554543051E+02  0.38115042215E+02  0.43986529887E+02  0.51100000000E-03 0.  1.
        -12    1    3    3    0    0 -0.12353305194E+00 -0.48313584393E+00  0.32289295531E+00  0.59408797261E+00  0.00000000000E+00 0.  1.
</event>
<event>
 7    1  0.1385632E-008  0.4614232E+02  0.7816164E-02  0.1320468E+00
        -11   -1    0    0    0    0  0.00000000000E+00  0.00000000000E+00  0.45593999997E+02  0.45594000000E+02  0.51100000000E-03 0.  1.
         11   -1    0    0    0    0 -0.00000000000E+00 -0.00000000000E+00 -0.45593999997E+02  0.45594000000E+02  0.51100000000E-03 0. -1.
    9900012    2    1    2    0    0 -0.31649404063E+02 -0.99792361227E+01  0.30460524360E+02  0.46142317904E+02  0.10000001307E+02 0.  0.
         12    1    1    2    0    0  0.31649404063E+02  0.99792361227E+01 -0.30460524360E+02  0.45045682096E+02  0.00000000000E+00 0. -1.
         11    1    3    3    0    0 -0.24395105150E+00  0.38985925283E+00 -0.33029558692E+00  0.56621355371E+00  0.51100000000E-03 0. -1.
        -11    1    3    3    0    0 -0.71744446323E+01 -0.13084135416E+01  0.10057616637E+02  0.12423375325E+02  0.51100000000E-03 0.  1.
         12    1    3    3    0    0 -0.24231008379E+02 -0.90606818339E+01  0.20733203310E+02  0.33152729026E+02  0.00000000000E+00 0. -1.
</event>
<event>
 7    1  0.1385632E-008  0.4614231E+02  0.7816164E-02  0.1320468E+00
        -11   -1    0    0    0    0  0.00000000000E+00  0.00000000000E+00  0.45593999997E+02  0.45594000000E+02  0.51100000000E-03 0.  1.
         11   -1    0    0    0    0 -0.00000000000E+00 -0.00000000000E+00 -0.45593999997E+02  0.45594000000E+02  0.51100000000E-03 0. -1.
    9900012    2    1    2    0    0  0.63757092136E+01  0.33701182849E+02  0.29200942957E+02  0.46142306943E+02  0.99999013501E+01 0.  0.
         12    1    1    2    0    0 -0.63757092136E+01 -0.33701182849E+02 -0.29200942957E+02  0.45045693057E+02  0.00000000000E+00 0. -1.
         11    1    3    3    0    0  0.54631040306E+01  0.14137505087E+02  0.10442972611E+02  0.18405711965E+02  0.51100000000E-03 0. -1.
        -11    1    3    3    0    0 -0.24173415408E+01  0.73982106899E+01  0.79616587748E+01  0.11133960313E+02  0.51100000000E-03 0.  1.
        -12    1    3    3    0    0  0.33299467237E+01  0.12165467072E+02  0.10796311572E+02  0.16602634665E+02  0.00000000000E+00 0.  1.
</event>
<event>
 7    1  0.1385632E-008  0.4614232E+02  0.7816164E-02  0.1320468E+00
        -11   -1    0    0    0    0  0.00000000000E+00  0.00000000000E+00  0.45593999997E+02  0.45594000000E+02  0.51100000000E-03 0.  1.
         11   -1    0    0    0    0 -0.00000000000E+00 -0.00000000000E+00 -0.45593999997E+02  0.45594000000E+02  0.51100000000E-03 0. -1.
    9900012    2    1    2    0    0 -0.12548948429E+02 -0.15224793837E+02  0.40494972950E+02  0.46142319982E+02  0.10000020255E+02 0.  0.
         12    1    1    2    0    0  0.12548948429E+02  0.15224793837E+02 -0.40494972950E+02  0.45045680018E+02  0.00000000000E+00 0. -1.
         11    1    3    3    0    0 -0.66147647441E+01 -0.11216816905E+02  0.22861760212E+02  0.26310305478E+02  0.51100000000E-03 0. -1.
        -11    1    3    3    0    0 -0.36955855584E+01  0.72709733552E+00  0.86311070238E+01  0.94171137761E+01  0.51100000000E-03 0.  1.
        -12    1    3    3    0    0 -0.22385981266E+01 -0.47350742677E+01  0.90021057142E+01  0.10414900728E+02  0.00000000000E+00 0.  1.
</event>
<event>
 7    1  0.1385632E-008  0.4614232E+02  0.7816164E-02  0.1320468E+00
        -11   -1    0    0    0    0  0.00000000000E+00  0.00000000000E+00  0.45593999997E+02  0.45594000000E+02  0.51100000000E-03 0.  1.
         11   -1    0    0    0    0 -0.00000000000E+00 -0.00000000000E+00 -0.45593999997E+02  0.45594000000E+02  0.51100000000E-03 0. -1.
    9900012    2    1    2    0    0  0.35613973671E+02  0.10395147750E+02  0.25547982566E+02  0.46142316182E+02  0.99999856009E+01 0.  0.
         12    1    1    2    0    0 -0.35613973671E+02 -0.10395147750E+02 -0.25547982566E+02  0.45045683818E+02  0.00000000000E+00 0. -1.
         11    1    3    3    0    0  0.11332653277E+01 -0.10830252079E+01  0.96101303376E+00  0.18386898096E+01  0.51100000000E-03 0. -1.
        -11    1    3    3    0    0  0.29085072567E+02  0.71840308774E+01  0.19971835182E+02  0.36005915440E+02  0.51100000000E-03 0.  1.
        -12    1    3    3    0    0  0.53956357766E+01  0.42941420805E+01  0.46151343502E+01  0.82977109320E+01  0.00000000000E+00 0.  1.
</event>
<event>
 7    1  0.1385632E-008  0.4614232E+02  0.7816164E-02  0.1320468E+00
        -11   -1    0    0    0    0  0.00000000000E+00  0.00000000000E+00  0.45593999997E+02  0.45594000000E+02  0.51100000000E-03 0.  1.
         11   -1    0    0    0    0 -0.00000000000E+00 -0.00000000000E+00 -0.45593999997E+02  0.45594000000E+02  0.51100000000E-03 0. -1.
    9900012    2    1    2    0    0 -0.26100648849E+00 -0.19446955186E+02  0.40630791436E+02  0.46142318707E+02  0.10000008626E+02 0.  0.
         12    1    1    2    0    0  0.26100648849E+00  0.19446955186E+02 -0.40630791436E+02  0.45045681293E+02  0.00000000000E+00 0. -1.
         11    1    3    3    0    0  0.86303201897E+00 -0.24316003881E+01  0.93858384908E+00  0.27456228103E+01  0.51100000000E-03 0. -1.
        -11    1    3    3    0    0  0.31118351547E+00 -0.15230531230E+02  0.33766741338E+02  0.37044010819E+02  0.51100000000E-03 0.  1.
        -12    1    3    3    0    0 -0.14352220229E+01 -0.17848235679E+01  0.59254662495E+01  0.63526850778E+01  0.00000000000E+00 0.  1.
</event>
<event>
 7    1  0.1385632E-008  0.4614232E+02  0.7816164E-02  0.1320468E+00
        -11   -1    0    0    0    0  0.00000000000E+00  0.00000000000E+00  0.45593999997E+02  0.45594000000E+02  0.51100000000E-03 0.  1.
         11   -1    0    0    0    0 -0.00000000000E+00 -0.00000000000E+00 -0.45593999997E+02  0.45594000000E+02  0.51100000000E-03 0. -1.
    9900012    2    1    2    0    0 -0.25035442633E+00 -0.18377083095E+02  0.41125826356E+02  0.46142318144E+02  0.10000003490E+02 0.  0.
         12    1    1    2    0    0  0.25035442633E+00  0.18377083095E+02 -0.41125826356E+02  0.45045681856E+02  0.00000000000E+00 0. -1.
         11    1    3    3    0    0 -0.43306018612E+01 -0.50871993524E+01  0.12271486313E+02  0.13972225532E+02  0.51100000000E-03 0. -1.
        -11    1    3    3    0    0  0.32297307790E+01 -0.58196232050E+01  0.12204755003E+02  0.13901626527E+02  0.51100000000E-03 0.  1.
         12    1    3    3    0    0  0.85051665590E+00 -0.74702605376E+01  0.16649585041E+02  0.18268466085E+02  0.00000000000E+00 0. -1.
</event>
<event>
 7    1  0.1385632E-008  0.4614232E+02  0.7816164E-02  0.1320468E+00
        -11   -1    0    0    0    0  0.00000000000E+00  0.00000000000E+00  0.45593999997E+02  0.45594000000E+02  0.51100000000E-03 0. -1.
         11   -1    0    0    0    0 -0.00000000000E+00 -0.00000000000E+00 -0.45593999997E+02  0.45594000000E+02  0.51100000000E-03 0.  1.
    9900012    2    1    2    0    0  0.11519930626E+02  0.42017232862E+02 -0.11443634982E+02  0.46142318292E+02  0.10000004837E+02 0.  0.
         12    1    1    2    0    0 -0.11519930626E+02 -0.42017232862E+02  0.11443634982E+02  0.45045681708E+02  0.00000000000E+00 0. -1.
         11    1    3    3    0    0  0.32426767936E+01  0.36984121134E+01 -0.21196969449E+00  0.49232241835E+01  0.51100000000E-03 0.  1.
        -11    1    3    3    0    0  0.91203057909E+01  0.33504704115E+02 -0.91669351121E+01  0.35913477626E+02  0.51100000000E-03 0. -1.
         12    1    3    3    0    0 -0.84305195843E+00  0.48141166333E+01 -0.20647301750E+01  0.53056164825E+01  0.00000000000E+00 0. -1.
</event>
<event>
 7    1  0.1385632E-008  0.4614232E+02  0.7816164E-02  0.1320468E+00
        -11   -1    0    0    0    0  0.00000000000E+00  0.00000000000E+00  0.45593999997E+02  0.45594000000E+02  0.51100000000E-03 0.  1.
         11   -1    0    0    0    0 -0.00000000000E+00 -0.00000000000E+00 -0.45593999997E+02  0.45594000000E+02  0.51100000000E-03 0. -1.
    9900012    2    1    2    0    0 -0.22581441143E+02 -0.25674732185E+02  0.29325759677E+02  0.46142317216E+02  0.99999950265E+01 0.  0.
         12    1    1    2    0    0  0.22581441143E+02  0.25674732185E+02 -0.29325759677E+02  0.45045682784E+02  0.00000000000E+00 0. -1.
         11    1    3    3    0    0 -0.51508069686E+00 -0.44584342538E+01  0.21628270122E+01  0.49820442658E+01  0.51100000000E-03 0. -1.
        -11    1    3    3    0    0 -0.48050677340E+01 -0.26203573287E+01  0.37375297753E+01  0.66275242391E+01  0.51100000000E-03 0.  1.
        -12    1    3    3    0    0 -0.17261292712E+02 -0.18595940603E+02  0.23425402889E+02  0.34532748711E+02  0.00000000000E+00 0.  1.
</event>
<event>
 7    1  0.1385632E-008  0.4614232E+02  0.7816164E-02  0.1320468E+00
        -11   -1    0    0    0    0  0.00000000000E+00  0.00000000000E+00  0.45593999997E+02  0.45594000000E+02  0.51100000000E-03 0. -1.
         11   -1    0    0    0    0 -0.00000000000E+00 -0.00000000000E+00 -0.45593999997E+02  0.45594000000E+02  0.51100000000E-03 0.  1.
    9900012    2    1    2    0    0  0.28767948333E+02 -0.26582432875E+02 -0.22246193003E+02  0.46142315501E+02  0.99999793933E+01 0.  0.
         12    1    1    2    0    0 -0.28767948333E+02  0.26582432875E+02  0.22246193003E+02  0.45045684499E+02  0.00000000000E+00 0. -1.
         11    1    3    3    0    0  0.17040765707E+02 -0.16140033614E+02 -0.86035188311E+01  0.24998178283E+02  0.51100000000E-03 0.  1.
        -11    1    3    3    0    0  0.11559725596E+02 -0.10307310481E+02 -0.12281904860E+02  0.19766463833E+02  0.51100000000E-03 0. -1.
         12    1    3    3    0    0  0.16745702944E+00 -0.13508877974E+00 -0.13607693120E+01  0.13776733850E+01  0.00000000000E+00 0. -1.
</event>
<event>
 7    1  0.1385632E-008  0.4614232E+02  0.7816164E-02  0.1320468E+00
        -11   -1    0    0    0    0  0.00000000000E+00  0.00000000000E+00  0.45593999997E+02  0.45594000000E+02  0.51100000000E-03 0.  1.
         11   -1    0    0    0    0 -0.00000000000E+00 -0.00000000000E+00 -0.45593999997E+02  0.45594000000E+02  0.51100000000E-03 0. -1.
    9900012    2    1    2    0    0 -0.41357013139E+02 -0.17594451377E+02  0.30242801112E+01  0.46142317352E+02  0.99999962673E+01 0.  0.
         12    1    1    2    0    0  0.41357013139E+02  0.17594451377E+02 -0.30242801112E+01  0.45045682648E+02  0.00000000000E+00 0. -1.
         11    1    3    3    0    0 -0.31110851129E+01 -0.46836945409E+01  0.90079607864E+00  0.56944954973E+01  0.51100000000E-03 0. -1.
        -11    1    3    3    0    0 -0.32497468557E+02 -0.10526408213E+02  0.14888757777E+01  0.34192213789E+02  0.51100000000E-03 0.  1.
        -12    1    3    3    0    0 -0.57484594695E+01 -0.23843486232E+01  0.63460825482E+00  0.62556080653E+01  0.00000000000E+00 0.  1.
</event>
<event>
 7    1  0.1385632E-008  0.4614232E+02  0.7816164E-02  0.1320468E+00
        -11   -1    0    0    0    0  0.00000000000E+00  0.00000000000E+00  0.45593999997E+02  0.45594000000E+02  0.51100000000E-03 0. -1.
         11   -1    0    0    0    0 -0.00000000000E+00 -0.00000000000E+00 -0.45593999997E+02  0.45594000000E+02  0.51100000000E-03 0.  1.
    9900012    2    1    2    0    0 -0.20880006182E+02  0.39912272479E+02 -0.38645136992E+00  0.46142317663E+02  0.99999991014E+01 0.  0.
         12    1    1    2    0    0  0.20880006182E+02 -0.39912272479E+02  0.38645136992E+00  0.45045682337E+02  0.00000000000E+00 0. -1.
         11    1    3    3    0    0 -0.16823787395E+01  0.18200403147E+01 -0.22198264930E+01  0.33272473443E+01  0.51100000000E-03 0. -1.
        -11    1    3    3    0    0 -0.67260190752E+01  0.16455896266E+02  0.41562965591E-01  0.17777445886E+02  0.51100000000E-03 0.  1.
         12    1    3    3    0    0 -0.12471608367E+02  0.21636335899E+02  0.17918121575E+01  0.25037624432E+02  0.00000000000E+00 0. -1.
</event>
<event>
 7    1  0.1385632E-008  0.4614232E+02  0.7816164E-02  0.1320468E+00
        -11   -1    0    0    0    0  0.00000000000E+00  0.00000000000E+00  0.45593999997E+02  0.45594000000E+02  0.51100000000E-03 0.  1.
         11   -1    0    0    0    0 -0.00000000000E+00 -0.00000000000E+00 -0.45593999997E+02  0.45594000000E+02  0.51100000000E-03 0. -1.
    9900012    2    1    2    0    0 -0.81846702080E+01  0.43451456518E+02  0.86078776624E+01  0.46142318100E+02  0.10000003093E+02 0.  0.
         12    1    1    2    0    0  0.81846702080E+01 -0.43451456518E+02 -0.86078776624E+01  0.45045681900E+02  0.00000000000E+00 0. -1.
         11    1    3    3    0    0 -0.35883046428E+01  0.14053351520E+02  0.68438393741E+01  0.16037791519E+02  0.51100000000E-03 0. -1.
        -11    1    3    3    0    0 -0.34706792311E+01  0.12078138559E+02  0.21194671651E+01  0.12744378632E+02  0.51100000000E-03 0.  1.
         12    1    3    3    0    0 -0.11256863341E+01  0.17319966438E+02 -0.35542887685E+00  0.17360147950E+02  0.00000000000E+00 0. -1.
</event>
<event>
 7    1  0.1385632E-008  0.4614232E+02  0.7816164E-02  0.1320468E+00
        -11   -1    0    0    0    0  0.00000000000E+00  0.00000000000E+00  0.45593999997E+02  0.45594000000E+02  0.51100000000E-03 0.  1.
         11   -1    0    0    0    0 -0.00000000000E+00 -0.00000000000E+00 -0.45593999997E+02  0.45594000000E+02  0.51100000000E-03 0. -1.
    9900012    2    1    2    0    0 -0.24095606482E+02 -0.23623501467E+02  0.29840331123E+02  0.46142318356E+02  0.10000005421E+02 0.  0.
         12    1    1    2    0    0  0.24095606482E+02  0.23623501467E+02 -0.29840331123E+02  0.45045681644E+02  0.00000000000E+00 0. -1.
         11    1    3    3    0    0 -0.55749909476E+01 -0.76410268520E+01  0.12273909437E+02  0.15495633855E+02  0.51100000000E-03 0. -1.
        -11    1    3    3    0    0 -0.43099525395E+01 -0.52788855425E+01  0.77772094576E+01  0.10340566265E+02  0.51100000000E-03 0.  1.
         12    1    3    3    0    0 -0.14210662995E+02 -0.10703589073E+02  0.97892122277E+01  0.20306118236E+02  0.00000000000E+00 0. -1.
</event>
<event>
 7    1  0.1385632E-008  0.4614232E+02  0.7816164E-02  0.1320468E+00
        -11   -1    0    0    0    0  0.00000000000E+00  0.00000000000E+00  0.45593999997E+02  0.45594000000E+02  0.51100000000E-03 0.  1.
         11   -1    0    0    0    0 -0.00000000000E+00 -0.00000000000E+00 -0.45593999997E+02  0.45594000000E+02  0.51100000000E-03 0. -1.
    9900012    2    1    2    0    0 -0.57516312626E+00  0.19162308911E+02  0.40762587375E+02  0.46142318465E+02  0.10000006419E+02 0.  0.
         12    1    1    2    0    0  0.57516312626E+00 -0.19162308911E+02 -0.40762587375E+02  0.45045681535E+02  0.00000000000E+00 0. -1.
         11    1    3    3    0    0 -0.45711985957E+00  0.51742275475E+00  0.18408412022E+01  0.19660573405E+01  0.51100000000E-03 0. -1.
        -11    1    3    3    0    0  0.29607258597E+00  0.10136180994E+02  0.30722122097E+02  0.32352412747E+02  0.51100000000E-03 0.  1.
        -12    1    3    3    0    0 -0.41411585265E+00  0.85087051623E+01  0.81996240757E+01  0.11823848378E+02  0.00000000000E+00 0.  1.
</event>
<event>
 7    1  0.1385632E-008  0.4614232E+02  0.7816164E-02  0.1320468E+00
        -11   -1    0    0    0    0  0.00000000000E+00  0.00000000000E+00  0.45593999997E+02  0.45594000000E+02  0.51100000000E-03 0.  1.
         11   -1    0    0    0    0 -0.00000000000E+00 -0.00000000000E+00 -0.45593999997E+02  0.45594000000E+02  0.51100000000E-03 0. -1.
    9900012    2    1    2    0    0 -0.16080753445E+02 -0.20213093219E+02  0.36904655761E+02  0.46142318901E+02  0.10000010394E+02 0.  0.
         12    1    1    2    0    0  0.16080753445E+02  0.20213093219E+02 -0.36904655761E+02  0.45045681099E+02  0.00000000000E+00 0. -1.
         11    1    3    3    0    0 -0.37309611769E+01 -0.10261725948E+02  0.99829558054E+01  0.14794678016E+02  0.51100000000E-03 0. -1.
        -11    1    3    3    0    0 -0.35520839833E+01 -0.14904207405E+01  0.63074675435E+01  0.73907240296E+01  0.51100000000E-03 0.  1.
         12    1    3    3    0    0 -0.87977082845E+01 -0.84609465303E+01  0.20614232412E+02  0.23956916855E+02  0.00000000000E+00 0. -1.
</event>
<event>
 7    1  0.1385632E-008  0.4614232E+02  0.7816164E-02  0.1320468E+00
        -11   -1    0    0    0    0  0.00000000000E+00  0.00000000000E+00  0.45593999997E+02  0.45594000000E+02  0.51100000000E-03 0.  1.
         11   -1    0    0    0    0 -0.00000000000E+00 -0.00000000000E+00 -0.45593999997E+02  0.45594000000E+02  0.51100000000E-03 0. -1.
    9900012    2    1    2    0    0 -0.27326633058E+02 -0.84743839241E+01  0.34793008166E+02  0.46142317916E+02  0.10000001415E+02 0.  0.
         12    1    1    2    0    0  0.27326633058E+02  0.84743839241E+01 -0.34793008166E+02  0.45045682084E+02  0.00000000000E+00 0. -1.
         11    1    3    3    0    0 -0.43978080290E+01 -0.33091040522E+01  0.36797794025E+01  0.66205484517E+01  0.51100000000E-03 0. -1.
        -11    1    3    3    0    0 -0.21588306700E+02 -0.55879684473E+01  0.26169042515E+02  0.34381669010E+02  0.51100000000E-03 0.  1.
         12    1    3    3    0    0 -0.13405183292E+01  0.42268857539E+00  0.49441862483E+01  0.51401004543E+01  0.00000000000E+00 0. -1.
</event>
<event>
 7    1  0.1385632E-008  0.4614232E+02  0.7816164E-02  0.1320468E+00
        -11   -1    0    0    0    0  0.00000000000E+00  0.00000000000E+00  0.45593999997E+02  0.45594000000E+02  0.51100000000E-03 0.  1.
         11   -1    0    0    0    0 -0.00000000000E+00 -0.00000000000E+00 -0.45593999997E+02  0.45594000000E+02  0.51100000000E-03 0. -1.
    9900012    2    1    2    0    0 -0.42652476555E+02 -0.30945290190E+01  0.14152866651E+02  0.46142317626E+02  0.99999987635E+01 0.  0.
         12    1    1    2    0    0  0.42652476555E+02  0.30945290190E+01 -0.14152866651E+02  0.45045682374E+02  0.00000000000E+00 0. -1.
         11    1    3    3    0    0 -0.20152051084E+02  0.17394419816E+01  0.35877558445E+01  0.20542707065E+02  0.51100000000E-03 0. -1.
        -11    1    3    3    0    0 -0.18984862268E+02 -0.32571122151E+01  0.10006535830E+02  0.21706324767E+02  0.51100000000E-03 0.  1.
         12    1    3    3    0    0 -0.35155632028E+01 -0.15768587855E+01  0.55857497692E+00  0.38932857931E+01  0.00000000000E+00 0. -1.
</event>
<event>
 7    1  0.1385632E-008  0.4614232E+02  0.7816164E-02  0.1320468E+00
        -11   -1    0    0    0    0  0.00000000000E+00  0.00000000000E+00  0.45593999997E+02  0.45594000000E+02  0.51100000000E-03 0.  1.
         11   -1    0    0    0    0 -0.00000000000E+00 -0.00000000000E+00 -0.45593999997E+02  0.45594000000E+02  0.51100000000E-03 0. -1.
    9900012    2    1    2    0    0  0.42727593322E+02  0.28784489568E+01  0.13970707702E+02  0.46142319040E+02  0.10000011662E+02 0.  0.
         12    1    1    2    0    0 -0.42727593322E+02 -0.28784489568E+01 -0.13970707702E+02  0.45045680960E+02  0.00000000000E+00 0. -1.
         11    1    3    3    0    0  0.16231373949E+02  0.16876030284E+01  0.28218106387E+01  0.16561042231E+02  0.51100000000E-03 0.  1.
        -11    1    3    3    0    0  0.14315636725E+02  0.36725909527E+01  0.77805671111E+01  0.16702173630E+02  0.51100000000E-03 0. -1.
        -12    1    3    3    0    0  0.12180582648E+02 -0.24817450244E+01  0.33683299524E+01  0.12879103179E+02  0.00000000000E+00 0.  1.
</event>
<event>
 7    1  0.1385632E-008  0.4614232E+02  0.7816164E-02  0.1320468E+00
        -11   -1    0    0    0    0  0.00000000000E+00  0.00000000000E+00  0.45593999997E+02  0.45594000000E+02  0.51100000000E-03 0.  1.
         11   -1    0    0    0    0 -0.00000000000E+00 -0.00000000000E+00 -0.45593999997E+02  0.45594000000E+02  0.51100000000E-03 0. -1.
    9900012    2    1    2    0    0  0.43780190176E+01  0.43372455165E+02  0.11347976946E+02  0.46142317651E+02  0.99999989925E+01 0.  0.
         12    1    1    2    0    0 -0.43780190176E+01 -0.43372455165E+02 -0.11347976946E+02  0.45045682349E+02  0.00000000000E+00 0. -1.
         11    1    3    3    0    0  0.27199262116E+01  0.12489927926E+02  0.94680956829E-01  0.12783006804E+02  0.51100000000E-03 0. -1.
        -11    1    3    3    0    0 -0.15853395729E+01  0.18978533436E+02  0.74282674313E+01  0.20442044668E+02  0.51100000000E-03 0.  1.
        -12    1    3    3    0    0  0.32434323789E+01  0.11903993803E+02  0.38250285579E+01  0.12917266179E+02  0.00000000000E+00 0.  1.
</event>
<event>
 7    1  0.1385632E-008  0.4614232E+02  0.7816164E-02  0.1320468E+00
        -11   -1    0    0    0    0  0.00000000000E+00  0.00000000000E+00  0.45593999997E+02  0.45594000000E+02  0.51100000000E-03 0.  1.
         11   -1    0    0    0    0 -0.00000000000E+00 -0.00000000000E+00 -0.45593999997E+02  0.45594000000E+02  0.51100000000E-03 0. -1.
    9900012    2    1    2    0    0  0.10091018545E+02 -0.66324294109E+01  0.43396955655E+02  0.46142317240E+02  0.99999952461E+01 0.  0.
         12    1    1    2    0    0 -0.10091018545E+02  0.66324294109E+01 -0.43396955655E+02  0.45045682760E+02  0.00000000000E+00 0. -1.
         11    1    3    3    0    0  0.19108255006E+01 -0.56175651386E+01  0.96673173151E+01  0.11343073504E+02  0.51100000000E-03 0. -1.
        -11    1    3    3    0    0  0.33183816858E+01 -0.25803527734E-01  0.18078540750E+02  0.18380586464E+02  0.51100000000E-03 0.  1.
         12    1    3    3    0    0  0.48618113587E+01 -0.98906074457E+00  0.15651097590E+02  0.16418657272E+02  0.00000000000E+00 0. -1.
</event>
<event>
 7    1  0.1385632E-008  0.4614231E+02  0.7816164E-02  0.1320468E+00
        -11   -1    0    0    0    0  0.00000000000E+00  0.00000000000E+00  0.45593999997E+02  0.45594000000E+02  0.51100000000E-03 0.  1.
         11   -1    0    0    0    0 -0.00000000000E+00 -0.00000000000E+00 -0.45593999997E+02  0.45594000000E+02  0.51100000000E-03 0. -1.
    9900012    2    1    2    0    0  0.23549758436E+02  0.53599934730E+01  0.38023588788E+02  0.46142312562E+02  0.99999525926E+01 0.  0.
         12    1    1    2    0    0 -0.23549758436E+02 -0.53599934730E+01 -0.38023588788E+02  0.45045687438E+02  0.00000000000E+00 0. -1.
         11    1    3    3    0    0  0.46436621023E+01  0.16918891495E+01  0.23911897287E+01  0.54903438139E+01  0.51100000000E-03 0. -1.
        -11    1    3    3    0    0  0.14091979200E+02  0.15063932676E+01  0.27857268335E+02  0.31255087551E+02  0.51100000000E-03 0.  1.
        -12    1    3    3    0    0  0.48141171338E+01  0.21617110559E+01  0.77751307243E+01  0.93968811979E+01  0.00000000000E+00 0.  1.
</event>
<event>
 7    1  0.1385632E-008  0.4614232E+02  0.7816164E-02  0.1320468E+00
        -11   -1    0    0    0    0  0.00000000000E+00  0.00000000000E+00  0.45593999997E+02  0.45594000000E+02  0.51100000000E-03 0. -1.
         11   -1    0    0    0    0 -0.00000000000E+00 -0.00000000000E+00 -0.45593999997E+02  0.45594000000E+02  0.51100000000E-03 0.  1.
    9900012    2    1    2    0    0  0.43073277401E+02 -0.64602977569E+01  0.11492205813E+02  0.46142317991E+02  0.10000002100E+02 0.  0.
         12    1    1    2    0    0 -0.43073277401E+02  0.64602977569E+01 -0.11492205813E+02  0.45045682009E+02  0.00000000000E+00 0. -1.
         11    1    3    3    0    0  0.12076812289E+02  0.17742697869E+01  0.12740953366E+01  0.12272764461E+02  0.51100000000E-03 0. -1.
        -11    1    3    3    0    0  0.26731517540E+02 -0.74630563383E+01  0.74841686588E+01  0.28745156474E+02  0.51100000000E-03 0.  1.
         12    1    3    3    0    0  0.42649475718E+01 -0.77151120551E+00  0.27339418177E+01  0.51243970565E+01  0.00000000000E+00 0. -1.
</event>
<event>
 7    1  0.1385632E-008  0.4614232E+02  0.7816164E-02  0.1320468E+00
        -11   -1    0    0    0    0  0.00000000000E+00  0.00000000000E+00  0.45593999997E+02  0.45594000000E+02  0.51100000000E-03 0.  1.
         11   -1    0    0    0    0 -0.00000000000E+00 -0.00000000000E+00 -0.45593999997E+02  0.45594000000E+02  0.51100000000E-03 0. -1.
    9900012    2    1    2    0    0 -0.36509015544E+02  0.94055866616E+01 -0.24652387029E+02  0.46142318046E+02  0.10000002599E+02 0.  0.
         12    1    1    2    0    0  0.36509015544E+02 -0.94055866616E+01  0.24652387029E+02  0.45045681954E+02  0.00000000000E+00 0. -1.
         11    1    3    3    0    0 -0.36939706652E+01  0.30119900306E+01 -0.41922590311E+00  0.47846895238E+01  0.51100000000E-03 0. -1.
        -11    1    3    3    0    0 -0.15600814333E+02  0.41016755558E+01 -0.12331296116E+02  0.20304433368E+02  0.51100000000E-03 0.  1.
         12    1    3    3    0    0 -0.17214230546E+02  0.22919210752E+01 -0.11901865009E+02  0.21053195154E+02  0.00000000000E+00 0. -1.
</event>
<event>
 7    1  0.1781155E-008  0.4614232E+02  0.7816164E-02  0.1320468E+00
        -11   -1    0    0    0    0  0.00000000000E+00  0.00000000000E+00  0.45593999997E+02  0.45594000000E+02  0.51100000000E-03 0. -1.
         11   -1    0    0    0    0 -0.00000000000E+00 -0.00000000000E+00 -0.45593999997E+02  0.45594000000E+02  0.51100000000E-03 0.  1.
    9900012    2    1    2    0    0 -0.26817952302E+02  0.34638917831E+02 -0.10490764701E+02  0.46142319428E+02  0.10000015196E+02 0.  0.
         12    1    1    2    0    0  0.26817952302E+02 -0.34638917831E+02  0.10490764701E+02  0.45045680572E+02  0.00000000000E+00 0. -1.
         11    1    3    3    0    0 -0.30515330515E+01  0.11917837314E+01 -0.21702526530E+01  0.39296563801E+01  0.51100000000E-03 0. -1.
        -11    1    3    3    0    0 -0.23124566667E+02  0.31280738647E+02 -0.88448856878E+01  0.39893134709E+02  0.51100000000E-03 0.  1.
        -12    1    3    3    0    0 -0.64185258427E+00  0.21663954530E+01  0.52437363999E+00  0.23195283385E+01  0.00000000000E+00 0.  1.
</event>
<event>
 7    1  0.1385632E-008  0.4614232E+02  0.7816164E-02  0.1320468E+00
        -11   -1    0    0    0    0  0.00000000000E+00  0.00000000000E+00  0.45593999997E+02  0.45594000000E+02  0.51100000000E-03 0.  1.
         11   -1    0    0    0    0 -0.00000000000E+00 -0.00000000000E+00 -0.45593999997E+02  0.45594000000E+02  0.51100000000E-03 0. -1.
    9900012    2    1    2    0    0  0.26471023986E+02 -0.36446178970E+02 -0.27275430086E+00  0.46142317995E+02  0.10000002132E+02 0.  0.
         12    1    1    2    0    0 -0.26471023986E+02  0.36446178970E+02  0.27275430086E+00  0.45045682005E+02  0.00000000000E+00 0. -1.
         11    1    3    3    0    0  0.18826268458E+02 -0.21424225070E+02 -0.30309143668E+01  0.28681217653E+02  0.51100000000E-03 0. -1.
        -11    1    3    3    0    0  0.73811551515E+01 -0.11817106695E+02  0.15210465748E+01  0.14015671405E+02  0.51100000000E-03 0.  1.
         12    1    3    3    0    0  0.26360037733E+00 -0.32048472052E+01  0.12371134912E+01  0.34454289367E+01  0.00000000000E+00 0. -1.
</event>
<event>
 7    1  0.1385632E-008  0.4614232E+02  0.7816164E-02  0.1320468E+00
        -11   -1    0    0    0    0  0.00000000000E+00  0.00000000000E+00  0.45593999997E+02  0.45594000000E+02  0.51100000000E-03 0.  1.
         11   -1    0    0    0    0 -0.00000000000E+00 -0.00000000000E+00 -0.45593999997E+02  0.45594000000E+02  0.51100000000E-03 0. -1.
    9900012    2    1    2    0    0 -0.20864530390E+02  0.32811075431E+02  0.22742432025E+02  0.46142317480E+02  0.99999974327E+01 0.  0.
         12    1    1    2    0    0  0.20864530390E+02 -0.32811075431E+02 -0.22742432025E+02  0.45045682520E+02  0.00000000000E+00 0. -1.
         11    1    3    3    0    0 -0.12747327182E+00  0.59512769856E+01  0.39437086941E+01  0.71405031840E+01  0.51100000000E-03 0. -1.
        -11    1    3    3    0    0 -0.18652133749E+01  0.30508183307E+01  0.71699029047E+00  0.36469972249E+01  0.51100000000E-03 0.  1.
         12    1    3    3    0    0 -0.18871843743E+02  0.23808980115E+02  0.18081733040E+02  0.35354817071E+02  0.00000000000E+00 0. -1.
</event>
<event>
 7    1  0.1385632E-008  0.4614232E+02  0.7816164E-02  0.1320468E+00
        -11   -1    0    0    0    0  0.00000000000E+00  0.00000000000E+00  0.45593999997E+02  0.45594000000E+02  0.51100000000E-03 0.  1.
         11   -1    0    0    0    0 -0.00000000000E+00 -0.00000000000E+00 -0.45593999997E+02  0.45594000000E+02  0.51100000000E-03 0. -1.
    9900012    2    1    2    0    0 -0.72858955589E+01  0.23852736893E+02  0.37511014316E+02  0.46142317339E+02  0.99999961532E+01 0.  0.
         12    1    1    2    0    0  0.72858955589E+01 -0.23852736893E+02 -0.37511014316E+02  0.45045682661E+02  0.00000000000E+00 0. -1.
         11    1    3    3    0    0 -0.27291722480E+01  0.11263768660E+02  0.22849398629E+02  0.25620614426E+02  0.51100000000E-03 0. -1.
        -11    1    3    3    0    0 -0.52566661241E+01  0.92957578785E+01  0.12816388246E+02  0.16682429715E+02  0.51100000000E-03 0.  1.
         12    1    3    3    0    0  0.69994281322E+00  0.32932103548E+01  0.18452274406E+01  0.38392731982E+01  0.00000000000E+00 0. -1.
</event>
<event>
 7    1  0.1385632E-008  0.4614232E+02  0.7816164E-02  0.1320468E+00
        -11   -1    0    0    0    0  0.00000000000E+00  0.00000000000E+00  0.45593999997E+02  0.45594000000E+02  0.51100000000E-03 0. -1.
         11   -1    0    0    0    0 -0.00000000000E+00 -0.00000000000E+00 -0.45593999997E+02  0.45594000000E+02  0.51100000000E-03 0.  1.
    9900012    2    1    2    0    0  0.18801890036E+02  0.23834644602E+02 -0.33279305227E+02  0.46142317536E+02  0.99999979473E+01 0.  0.
         12    1    1    2    0    0 -0.18801890036E+02 -0.23834644602E+02  0.33279305227E+02  0.45045682464E+02  0.00000000000E+00 0. -1.
         11    1    3    3    0    0  0.62391311879E+01  0.82875675872E+01 -0.75357635188E+01  0.12821788743E+02  0.51100000000E-03 0. -1.
        -11    1    3    3    0    0  0.11160694296E+02  0.88565928060E+01 -0.18645774328E+02  0.23466257347E+02  0.51100000000E-03 0.  1.
        -12    1    3    3    0    0  0.14020645522E+01  0.66904842091E+01 -0.70977673802E+01  0.98542714466E+01  0.00000000000E+00 0.  1.
</event>
<event>
 7    1  0.1385632E-008  0.4614232E+02  0.7816164E-02  0.1320468E+00
        -11   -1    0    0    0    0  0.00000000000E+00  0.00000000000E+00  0.45593999997E+02  0.45594000000E+02  0.51100000000E-03 0.  1.
         11   -1    0    0    0    0 -0.00000000000E+00 -0.00000000000E+00 -0.45593999997E+02  0.45594000000E+02  0.51100000000E-03 0. -1.
    9900012    2    1    2    0    0 -0.14589676875E+02 -0.25724018417E+02  0.33978370343E+02  0.46142318231E+02  0.10000004289E+02 0.  0.
         12    1    1    2    0    0  0.14589676875E+02  0.25724018417E+02 -0.33978370343E+02  0.45045681769E+02  0.00000000000E+00 0. -1.
         11    1    3    3    0    0 -0.78681166629E+01 -0.93354238145E+01  0.14391725455E+02  0.18872709383E+02  0.51100000000E-03 0.  1.
        -11    1    3    3    0    0 -0.53496108416E+01 -0.45473398643E+01  0.65051554695E+01  0.95715037451E+01  0.51100000000E-03 0. -1.
        -12    1    3    3    0    0 -0.13719493706E+01 -0.11841254739E+02  0.13081489418E+02  0.17698105103E+02  0.00000000000E+00 0.  1.
</event>
<event>
 7    1  0.1385632E-008  0.4614232E+02  0.7816164E-02  0.1320468E+00
        -11   -1    0    0    0    0  0.00000000000E+00  0.00000000000E+00  0.45593999997E+02  0.45594000000E+02  0.51100000000E-03 0. -1.
         11   -1    0    0    0    0 -0.00000000000E+00 -0.00000000000E+00 -0.45593999997E+02  0.45594000000E+02  0.51100000000E-03 0.  1.
    9900012    2    1    2    0    0 -0.38280390047E+02  0.23261206739E+02  0.47583238719E+01  0.46142315998E+02  0.99999839247E+01 0.  0.
         12    1    1    2    0    0  0.38280390047E+02 -0.23261206739E+02 -0.47583238719E+01  0.45045684002E+02  0.00000000000E+00 0. -1.
         11    1    3    3    0    0 -0.10276006843E+02  0.94193104445E+01 -0.14376347088E+01  0.14013797476E+02  0.51100000000E-03 0. -1.
        -11    1    3    3    0    0 -0.22468023884E+02  0.12663519302E+02  0.42248941046E+01  0.26134776617E+02  0.51100000000E-03 0.  1.
        -12    1    3    3    0    0 -0.55363593195E+01  0.11783769933E+01  0.19710644761E+01  0.59937419049E+01  0.00000000000E+00 0.  1.
</event>
<event>
 7    1  0.1385632E-008  0.4614233E+02  0.7816164E-02  0.1320468E+00
        -11   -1    0    0    0    0  0.00000000000E+00  0.00000000000E+00  0.45593999997E+02  0.45594000000E+02  0.51100000000E-03 0.  1.
         11   -1    0    0    0    0 -0.00000000000E+00 -0.00000000000E+00 -0.45593999997E+02  0.45594000000E+02  0.51100000000E-03 0. -1.
    9900012    2    1    2    0    0  0.92519770286E+01 -0.43899213423E+02 -0.40462552311E+01  0.46142332067E+02  0.10000130455E+02 0.  0.
         12    1    1    2    0    0 -0.92519770286E+01  0.43899213423E+02  0.40462552311E+01  0.45045667933E+02  0.00000000000E+00 0. -1.
         11    1    3    3    0    0  0.43026989505E+01 -0.21247636456E+02 -0.47869097386E+01  0.22201121105E+02  0.51100000000E-03 0. -1.
        -11    1    3    3    0    0  0.60735685799E+01 -0.19076268885E+02  0.16401467359E+01  0.20086870126E+02  0.51100000000E-03 0.  1.
        -12    1    3    3    0    0 -0.11242905017E+01 -0.35753080820E+01 -0.89949222835E+00  0.38543408363E+01  0.00000000000E+00 0.  1.
</event>
<event>
 7    1  0.1385632E-008  0.4614232E+02  0.7816164E-02  0.1320468E+00
        -11   -1    0    0    0    0  0.00000000000E+00  0.00000000000E+00  0.45593999997E+02  0.45594000000E+02  0.51100000000E-03 0. -1.
         11   -1    0    0    0    0 -0.00000000000E+00 -0.00000000000E+00 -0.45593999997E+02  0.45594000000E+02  0.51100000000E-03 0.  1.
    9900012    2    1    2    0    0 -0.40981744548E+02 -0.18036478357E+02 -0.49290495912E+01  0.46142317991E+02  0.10000002100E+02 0.  0.
         12    1    1    2    0    0  0.40981744548E+02  0.18036478357E+02  0.49290495912E+01  0.45045682009E+02  0.00000000000E+00 0. -1.
         11    1    3    3    0    0 -0.53645921915E+01 -0.10395075283E+01 -0.18777391584E+01  0.57780039711E+01  0.51100000000E-03 0. -1.
        -11    1    3    3    0    0 -0.32697579600E+02 -0.14688962086E+02 -0.49511268148E+01  0.36185784168E+02  0.51100000000E-03 0.  1.
        -12    1    3    3    0    0 -0.29195727566E+01 -0.23080087434E+01  0.18998163820E+01  0.41785298523E+01  0.00000000000E+00 0.  1.
</event>
<event>
 7    1  0.1385632E-008  0.4614232E+02  0.7816164E-02  0.1320468E+00
        -11   -1    0    0    0    0  0.00000000000E+00  0.00000000000E+00  0.45593999997E+02  0.45594000000E+02  0.51100000000E-03 0.  1.
         11   -1    0    0    0    0 -0.00000000000E+00 -0.00000000000E+00 -0.45593999997E+02  0.45594000000E+02  0.51100000000E-03 0. -1.
    9900012    2    1    2    0    0  0.15488560749E+02 -0.36130672485E+02  0.21995283385E+02  0.46142317638E+02  0.99999988798E+01 0.  0.
         12    1    1    2    0    0 -0.15488560749E+02  0.36130672485E+02 -0.21995283385E+02  0.45045682362E+02  0.00000000000E+00 0. -1.
         11    1    3    3    0    0  0.86210980010E+01 -0.11089485388E+02  0.10616485353E+02  0.17607094548E+02  0.51100000000E-03 0. -1.
        -11    1    3    3    0    0  0.65485641322E+01 -0.23709551716E+02  0.11514971471E+02  0.27159180824E+02  0.51100000000E-03 0.  1.
         12    1    3    3    0    0  0.31889861605E+00 -0.13316353796E+01 -0.13617343973E+00  0.13760422658E+01  0.00000000000E+00 0. -1.
</event>
<event>
 7    1  0.1385632E-008  0.4614232E+02  0.7816164E-02  0.1320468E+00
        -11   -1    0    0    0    0  0.00000000000E+00  0.00000000000E+00  0.45593999997E+02  0.45594000000E+02  0.51100000000E-03 0.  1.
         11   -1    0    0    0    0 -0.00000000000E+00 -0.00000000000E+00 -0.45593999997E+02  0.45594000000E+02  0.51100000000E-03 0. -1.
    9900012    2    1    2    0    0 -0.89127378915E+01  0.22538864148E+02  0.37969411211E+02  0.46142317837E+02  0.10000000694E+02 0.  0.
         12    1    1    2    0    0  0.89127378915E+01 -0.22538864148E+02 -0.37969411211E+02  0.45045682163E+02  0.00000000000E+00 0. -1.
         11    1    3    3    0    0 -0.76973859508E+01  0.21180759965E+02  0.31577259850E+02  0.38794299621E+02  0.51100000000E-03 0. -1.
        -11    1    3    3    0    0 -0.22184208849E+01  0.13298899014E+01  0.50312530796E+01  0.56571641468E+01  0.51100000000E-03 0.  1.
         12    1    3    3    0    0  0.10030689441E+01  0.28214281661E-01  0.13608982812E+01  0.16908540695E+01  0.00000000000E+00 0. -1.
</event>
<event>
 7    1  0.1385632E-008  0.4614232E+02  0.7816164E-02  0.1320468E+00
        -11   -1    0    0    0    0  0.00000000000E+00  0.00000000000E+00  0.45593999997E+02  0.45594000000E+02  0.51100000000E-03 0.  1.
         11   -1    0    0    0    0 -0.00000000000E+00 -0.00000000000E+00 -0.45593999997E+02  0.45594000000E+02  0.51100000000E-03 0. -1.
    9900012    2    1    2    0    0  0.31825248559E+02 -0.20040289914E+01  0.31815888525E+02  0.46142319401E+02  0.10000014951E+02 0.  0.
         12    1    1    2    0    0 -0.31825248559E+02  0.20040289914E+01 -0.31815888525E+02  0.45045680599E+02  0.00000000000E+00 0. -1.
         11    1    3    3    0    0  0.42638659694E+01  0.21713953339E+01  0.18938053582E+01  0.51460674012E+01  0.51100000000E-03 0. -1.
        -11    1    3    3    0    0  0.18398075671E+02 -0.26125716839E+01  0.17921402517E+02  0.25816494488E+02  0.51100000000E-03 0.  1.
         12    1    3    3    0    0  0.91633069181E+01 -0.15628526414E+01  0.12000680650E+02  0.15179757512E+02  0.00000000000E+00 0. -1.
</event>
<event>
 7    1  0.1385632E-008  0.4614232E+02  0.7816164E-02  0.1320468E+00
        -11   -1    0    0    0    0  0.00000000000E+00  0.00000000000E+00  0.45593999997E+02  0.45594000000E+02  0.51100000000E-03 0.  1.
         11   -1    0    0    0    0 -0.00000000000E+00 -0.00000000000E+00 -0.45593999997E+02  0.45594000000E+02  0.51100000000E-03 0. -1.
    9900012    2    1    2    0    0  0.14207600219E+02  0.93126094542E+01  0.41719697075E+02  0.46142315158E+02  0.99999762626E+01 0.  0.
         12    1    1    2    0    0 -0.14207600219E+02 -0.93126094542E+01 -0.41719697075E+02  0.45045684842E+02  0.00000000000E+00 0. -1.
         11    1    3    3    0    0  0.95078894095E+01  0.73852196747E+00  0.16241871322E+02  0.18834642551E+02  0.51100000000E-03 0. -1.
        -11    1    3    3    0    0  0.71086042565E+00  0.19566971446E+01  0.47323014020E+01  0.51699770870E+01  0.51100000000E-03 0.  1.
         12    1    3    3    0    0  0.39888503843E+01  0.66173903421E+01  0.20745524352E+02  0.22137695520E+02  0.00000000000E+00 0. -1.
</event>
<event>
 7    1  0.1385632E-008  0.4614232E+02  0.7816164E-02  0.1320468E+00
        -11   -1    0    0    0    0  0.00000000000E+00  0.00000000000E+00  0.45593999997E+02  0.45594000000E+02  0.51100000000E-03 0.  1.
         11   -1    0    0    0    0 -0.00000000000E+00 -0.00000000000E+00 -0.45593999997E+02  0.45594000000E+02  0.51100000000E-03 0. -1.
    9900012    2    1    2    0    0  0.21718807368E+02 -0.32837376632E+01  0.39327140658E+02  0.46142317423E+02  0.99999969174E+01 0.  0.
         12    1    1    2    0    0 -0.21718807368E+02  0.32837376632E+01 -0.39327140658E+02  0.45045682577E+02  0.00000000000E+00 0. -1.
         11    1    3    3    0    0  0.11404230408E+00  0.15465448268E+01  0.41840399105E+01  0.44621739973E+01  0.51100000000E-03 0. -1.
        -11    1    3    3    0    0  0.19460840979E+02 -0.45470171069E+01  0.29455705683E+02  0.35595481367E+02  0.51100000000E-03 0.  1.
        -12    1    3    3    0    0  0.21439240847E+01 -0.28326538312E+00  0.56873950643E+01  0.60846620593E+01  0.00000000000E+00 0.  1.
</event>
<event>
 7    1  0.1385632E-008  0.4614232E+02  0.7816164E-02  0.1320468E+00
        -11   -1    0    0    0    0  0.00000000000E+00  0.00000000000E+00  0.45593999997E+02  0.45594000000E+02  0.51100000000E-03 0.  1.
         11   -1    0    0    0    0 -0.00000000000E+00 -0.00000000000E+00 -0.45593999997E+02  0.45594000000E+02  0.51100000000E-03 0. -1.
    9900012    2    1    2    0    0  0.11014185835E+02  0.57969258370E+01  0.43291995297E+02  0.46142317681E+02  0.99999992718E+01 0.  0.
         12    1    1    2    0    0 -0.11014185835E+02 -0.57969258370E+01 -0.43291995297E+02  0.45045682319E+02  0.00000000000E+00 0. -1.
         11    1    3    3    0    0  0.58240765513E+01  0.58080432349E+01  0.20518938345E+02  0.22106109223E+02  0.51100000000E-03 0. -1.
        -11    1    3    3    0    0  0.62809769511E+01 -0.23480221075E-01  0.16233050463E+02  0.17405836675E+02  0.51100000000E-03 0.  1.
        -12    1    3    3    0    0 -0.10908676672E+01  0.12362823220E-01  0.65400064894E+01  0.66303717835E+01  0.00000000000E+00 0.  1.
</event>
<event>
 7    1  0.1385632E-008  0.4614232E+02  0.7816164E-02  0.1320468E+00
        -11   -1    0    0    0    0  0.00000000000E+00  0.00000000000E+00  0.45593999997E+02  0.45594000000E+02  0.51100000000E-03 0. -1.
         11   -1    0    0    0    0 -0.00000000000E+00 -0.00000000000E+00 -0.45593999997E+02  0.45594000000E+02  0.51100000000E-03 0.  1.
    9900012    2    1    2    0    0  0.22585754994E+02  0.34673881832E+02 -0.17796606459E+02  0.46142316395E+02  0.99999875426E+01 0.  0.
         12    1    1    2    0    0 -0.22585754994E+02 -0.34673881832E+02  0.17796606459E+02  0.45045683605E+02  0.00000000000E+00 0. -1.
         11    1    3    3    0    0  0.21458555688E+01  0.63653248293E+00 -0.30321726963E+01  0.37688116490E+01  0.51100000000E-03 0. -1.
        -11    1    3    3    0    0  0.15338679254E+02  0.26426539787E+02 -0.11283933532E+02  0.32572446064E+02  0.51100000000E-03 0.  1.
         12    1    3    3    0    0  0.51012201717E+01  0.76108095622E+01 -0.34805002306E+01  0.98010586820E+01  0.00000000000E+00 0. -1.
</event>
<event>
 7    1  0.1385632E-008  0.4614232E+02  0.7816164E-02  0.1320468E+00
        -11   -1    0    0    0    0  0.00000000000E+00  0.00000000000E+00  0.45593999997E+02  0.45594000000E+02  0.51100000000E-03 0. -1.
         11   -1    0    0    0    0 -0.00000000000E+00 -0.00000000000E+00 -0.45593999997E+02  0.45594000000E+02  0.51100000000E-03 0.  1.
    9900012    2    1    2    0    0 -0.14072139259E+01  0.27062214424E+02 -0.35982910032E+02  0.46142317466E+02  0.99999973135E+01 0.  0.
         12    1    1    2    0    0  0.14072139259E+01 -0.27062214424E+02  0.35982910032E+02  0.45045682534E+02  0.00000000000E+00 0. -1.
         11    1    3    3    0    0  0.56573803024E+00 -0.68694492946E+00 -0.83927073851E+00  0.12232450648E+01  0.51100000000E-03 0. -1.
        -11    1    3    3    0    0 -0.24100476221E+01  0.15644606534E+02 -0.21004580806E+02  0.26301225414E+02  0.51100000000E-03 0.  1.
         12    1    3    3    0    0  0.43709566589E+00  0.12104552819E+02 -0.14139058487E+02  0.18617846988E+02  0.00000000000E+00 0. -1.
</event>
<event>
 7    1  0.1385632E-008  0.4614232E+02  0.7816164E-02  0.1320468E+00
        -11   -1    0    0    0    0  0.00000000000E+00  0.00000000000E+00  0.45593999997E+02  0.45594000000E+02  0.51100000000E-03 0. -1.
         11   -1    0    0    0    0 -0.00000000000E+00 -0.00000000000E+00 -0.45593999997E+02  0.45594000000E+02  0.51100000000E-03 0.  1.
    9900012    2    1    2    0    0 -0.43737926956E+02  0.10205529151E+02  0.34574721572E+01  0.46142321035E+02  0.10000029857E+02 0.  0.
         12    1    1    2    0    0  0.43737926956E+02 -0.10205529151E+02 -0.34574721572E+01  0.45045678965E+02  0.00000000000E+00 0. -1.
         11    1    3    3    0    0 -0.16593377460E+02  0.68483034547E+01  0.32894498373E+01  0.18249929211E+02  0.51100000000E-03 0. -1.
        -11    1    3    3    0    0 -0.12815875042E+02  0.25534428890E+01  0.26347478656E+01  0.13330739674E+02  0.51100000000E-03 0.  1.
         12    1    3    3    0    0 -0.14328674454E+02  0.80378280781E+00 -0.24667255457E+01  0.14561652150E+02  0.00000000000E+00 0. -1.
</event>
<event>
 7    1  0.1385632E-008  0.4614232E+02  0.7816164E-02  0.1320468E+00
        -11   -1    0    0    0    0  0.00000000000E+00  0.00000000000E+00  0.45593999997E+02  0.45594000000E+02  0.51100000000E-03 0. -1.
         11   -1    0    0    0    0 -0.00000000000E+00 -0.00000000000E+00 -0.45593999997E+02  0.45594000000E+02  0.51100000000E-03 0.  1.
    9900012    2    1    2    0    0 -0.38811238092E+02  0.14795397880E+02 -0.17432657516E+02  0.46142317091E+02  0.99999938873E+01 0.  0.
         12    1    1    2    0    0  0.38811238092E+02 -0.14795397880E+02  0.17432657516E+02  0.45045682909E+02  0.00000000000E+00 0. -1.
         11    1    3    3    0    0 -0.94499770043E+01  0.28766366587E+01 -0.82477780619E+01  0.12868680860E+02  0.51100000000E-03 0. -1.
        -11    1    3    3    0    0 -0.18119637923E+02  0.84358842935E+01 -0.38608944123E+01  0.20356618781E+02  0.51100000000E-03 0.  1.
        -12    1    3    3    0    0 -0.11241623165E+02  0.34828769281E+01 -0.53239850415E+01  0.12917017450E+02  0.00000000000E+00 0.  1.
</event>
<event>
 7    1  0.1385632E-008  0.4614232E+02  0.7816164E-02  0.1320468E+00
        -11   -1    0    0    0    0  0.00000000000E+00  0.00000000000E+00  0.45593999997E+02  0.45594000000E+02  0.51100000000E-03 0.  1.
         11   -1    0    0    0    0 -0.00000000000E+00 -0.00000000000E+00 -0.45593999997E+02  0.45594000000E+02  0.51100000000E-03 0. -1.
    9900012    2    1    2    0    0 -0.10097326777E+02 -0.38534256076E+01  0.43729948549E+02  0.46142319885E+02  0.10000019366E+02 0.  0.
         12    1    1    2    0    0  0.10097326777E+02  0.38534256076E+01 -0.43729948549E+02  0.45045680115E+02  0.00000000000E+00 0. -1.
         11    1    3    3    0    0 -0.58213114843E+01  0.27527774421E+01  0.17468815891E+02  0.18617867223E+02  0.51100000000E-03 0. -1.
        -11    1    3    3    0    0 -0.39351921843E+01 -0.42333113938E+01  0.20060485322E+02  0.20876535500E+02  0.51100000000E-03 0.  1.
         12    1    3    3    0    0 -0.34082310831E+00 -0.23728916559E+01  0.62006473362E+01  0.66479171617E+01  0.00000000000E+00 0. -1.
</event>
<event>
 7    1  0.1385632E-008  0.4614232E+02  0.7816164E-02  0.1320468E+00
        -11   -1    0    0    0    0  0.00000000000E+00  0.00000000000E+00  0.45593999997E+02  0.45594000000E+02  0.51100000000E-03 0. -1.
         11   -1    0    0    0    0 -0.00000000000E+00 -0.00000000000E+00 -0.45593999997E+02  0.45594000000E+02  0.51100000000E-03 0.  1.
    9900012    2    1    2    0    0 -0.30920183949E+02  0.24981944281E+02  0.21188636685E+02  0.46142316078E+02  0.99999846504E+01 0.  0.
         12    1    1    2    0    0  0.30920183949E+02 -0.24981944281E+02 -0.21188636685E+02  0.45045683922E+02  0.00000000000E+00 0. -1.
         11    1    3    3    0    0 -0.18486866901E+02  0.93760686620E+01  0.97827806313E+01  0.22921119269E+02  0.51100000000E-03 0. -1.
        -11    1    3    3    0    0 -0.79997992712E+01  0.98761384872E+01  0.90521343182E+01  0.15603718652E+02  0.51100000000E-03 0.  1.
         12    1    3    3    0    0 -0.44335177759E+01  0.57297371317E+01  0.23537217351E+01  0.76174781571E+01  0.00000000000E+00 0. -1.
</event>
<event>
 7    1  0.1385632E-008  0.4614232E+02  0.7816164E-02  0.1320468E+00
        -11   -1    0    0    0    0  0.00000000000E+00  0.00000000000E+00  0.45593999997E+02  0.45594000000E+02  0.51100000000E-03 0.  1.
         11   -1    0    0    0    0 -0.00000000000E+00 -0.00000000000E+00 -0.45593999997E+02  0.45594000000E+02  0.51100000000E-03 0. -1.
    9900012    2    1    2    0    0 -0.36309900903E+02  0.17273228311E+02  0.20306159839E+02  0.46142318217E+02  0.10000004159E+02 0.  0.
         12    1    1    2    0    0  0.36309900903E+02 -0.17273228311E+02 -0.20306159839E+02  0.45045681783E+02  0.00000000000E+00 0. -1.
         11    1    3    3    0    0 -0.16258824675E+02  0.11289948810E+02  0.82845564875E+01  0.21458010169E+02  0.51100000000E-03 0. -1.
        -11    1    3    3    0    0 -0.18464548345E+02  0.45904913900E+01  0.12140231947E+02  0.22569833601E+02  0.51100000000E-03 0.  1.
        -12    1    3    3    0    0 -0.15865278828E+01  0.13927881107E+01 -0.11862859541E+00  0.21144744472E+01  0.00000000000E+00 0.  1.
</event>
<event>
 7    1  0.1385632E-008  0.4614232E+02  0.7816164E-02  0.1320468E+00
        -11   -1    0    0    0    0  0.00000000000E+00  0.00000000000E+00  0.45593999997E+02  0.45594000000E+02  0.51100000000E-03 0.  1.
         11   -1    0    0    0    0 -0.00000000000E+00 -0.00000000000E+00 -0.45593999997E+02  0.45594000000E+02  0.51100000000E-03 0. -1.
    9900012    2    1    2    0    0 -0.10965693363E+01  0.41041747887E+02  0.18533372785E+02  0.46142318290E+02  0.10000004825E+02 0.  0.
         12    1    1    2    0    0  0.10965693363E+01 -0.41041747887E+02 -0.18533372785E+02  0.45045681710E+02  0.00000000000E+00 0. -1.
         11    1    3    3    0    0 -0.15628935510E+01  0.15789095711E+02  0.49623091960E+01  0.16624159902E+02  0.51100000000E-03 0. -1.
        -11    1    3    3    0    0 -0.86064515285E+00  0.17117497881E+02  0.55459684198E+01  0.18014083651E+02  0.51100000000E-03 0.  1.
         12    1    3    3    0    0  0.13269693676E+01  0.81351542944E+01  0.80250951697E+01  0.11504074738E+02  0.00000000000E+00 0. -1.
</event>
<event>
 7    1  0.1385632E-008  0.4614232E+02  0.7816164E-02  0.1320468E+00
        -11   -1    0    0    0    0  0.00000000000E+00  0.00000000000E+00  0.45593999997E+02  0.45594000000E+02  0.51100000000E-03 0.  1.
         11   -1    0    0    0    0 -0.00000000000E+00 -0.00000000000E+00 -0.45593999997E+02  0.45594000000E+02  0.51100000000E-03 0. -1.
    9900012    2    1    2    0    0 -0.15595229814E+01  0.12967135156E+02  0.43110726743E+02  0.46142318005E+02  0.10000002225E+02 0.  0.
         12    1    1    2    0    0  0.15595229814E+01 -0.12967135156E+02 -0.43110726743E+02  0.45045681995E+02  0.00000000000E+00 0. -1.
         11    1    3    3    0    0 -0.92166640342E+00  0.27096235022E+01  0.18574532038E+02  0.18793742820E+02  0.51100000000E-03 0. -1.
        -11    1    3    3    0    0  0.14335704328E+01  0.72923727229E-01  0.14987411274E+01  0.20752511376E+01  0.51100000000E-03 0.  1.
        -12    1    3    3    0    0 -0.20714270108E+01  0.10184587926E+02  0.23037453578E+02  0.25273324048E+02  0.00000000000E+00 0.  1.
</event>
<event>
 7    1  0.1385632E-008  0.4614232E+02  0.7816164E-02  0.1320468E+00
        -11   -1    0    0    0    0  0.00000000000E+00  0.00000000000E+00  0.45593999997E+02  0.45594000000E+02  0.51100000000E-03 0.  1.
         11   -1    0    0    0    0 -0.00000000000E+00 -0.00000000000E+00 -0.45593999997E+02  0.45594000000E+02  0.51100000000E-03 0. -1.
    9900012    2    1    2    0    0  0.41484056447E+02 -0.96232474516E+01 -0.14682631991E+02  0.46142317487E+02  0.99999975027E+01 0.  0.
         12    1    1    2    0    0 -0.41484056447E+02  0.96232474516E+01  0.14682631991E+02  0.45045682513E+02  0.00000000000E+00 0. -1.
         11    1    3    3    0    0 -0.58770193082E-01 -0.86154585397E+00 -0.16316782545E-02  0.86354971923E+00  0.51100000000E-03 0. -1.
        -11    1    3    3    0    0  0.23426483748E+02 -0.69933838254E+01 -0.10469624191E+02  0.26595499414E+02  0.51100000000E-03 0.  1.
         12    1    3    3    0    0  0.18116342893E+02 -0.17683177722E+01 -0.42113761220E+01  0.18683268354E+02  0.00000000000E+00 0. -1.
</event>
<event>
 7    1  0.1385632E-008  0.4614232E+02  0.7816164E-02  0.1320468E+00
        -11   -1    0    0    0    0  0.00000000000E+00  0.00000000000E+00  0.45593999997E+02  0.45594000000E+02  0.51100000000E-03 0.  1.
         11   -1    0    0    0    0 -0.00000000000E+00 -0.00000000000E+00 -0.45593999997E+02  0.45594000000E+02  0.51100000000E-03 0. -1.
    9900012    2    1    2    0    0  0.41668669110E+02  0.16595413452E+02  0.41746354357E+01  0.46142319695E+02  0.10000017638E+02 0.  0.
         12    1    1    2    0    0 -0.41668669110E+02 -0.16595413452E+02 -0.41746354357E+01  0.45045680305E+02  0.00000000000E+00 0. -1.
         11    1    3    3    0    0  0.10469397116E+02  0.75682784466E+01 -0.89630360984E+00  0.12949535707E+02  0.51100000000E-03 0. -1.
        -11    1    3    3    0    0  0.17397705917E+02  0.49572498792E+01  0.50730102376E+00  0.18097288530E+02  0.51100000000E-03 0.  1.
         12    1    3    3    0    0  0.13801566077E+02  0.40698851265E+01  0.45636380218E+01  0.15095495458E+02  0.00000000000E+00 0. -1.
</event>
<event>
 7    1  0.1385632E-008  0.4614232E+02  0.7816164E-02  0.1320468E+00
        -11   -1    0    0    0    0  0.00000000000E+00  0.00000000000E+00  0.45593999997E+02  0.45594000000E+02  0.51100000000E-03 0.  1.
         11   -1    0    0    0    0 -0.00000000000E+00 -0.00000000000E+00 -0.45593999997E+02  0.45594000000E+02  0.51100000000E-03 0. -1.
    9900012    2    1    2    0    0  0.15707536420E+02  0.24981193365E+02  0.34034200207E+02  0.46142317564E+02  0.99999982067E+01 0.  0.
         12    1    1    2    0    0 -0.15707536420E+02 -0.24981193365E+02 -0.34034200207E+02  0.45045682436E+02  0.00000000000E+00 0. -1.
         11    1    3    3    0    0  0.44377299618E+00  0.16367976552E-01 -0.28485455909E+00  0.52758389262E+00  0.51100000000E-03 0. -1.
        -11    1    3    3    0    0  0.54859368554E+00 -0.34015546674E+00  0.15278132635E+01  0.16585760166E+01  0.51100000000E-03 0.  1.
        -12    1    3    3    0    0  0.14715169738E+02  0.25304980855E+02  0.32791241503E+02  0.43956157655E+02  0.00000000000E+00 0.  1.
</event>
<event>
 7    1  0.1385632E-008  0.4614232E+02  0.7816164E-02  0.1320468E+00
        -11   -1    0    0    0    0  0.00000000000E+00  0.00000000000E+00  0.45593999997E+02  0.45594000000E+02  0.51100000000E-03 0.  1.
         11   -1    0    0    0    0 -0.00000000000E+00 -0.00000000000E+00 -0.45593999997E+02  0.45594000000E+02  0.51100000000E-03 0. -1.
    9900012    2    1    2    0    0 -0.99571175419E+01 -0.36426055035E+02  0.24558330476E+02  0.46142320174E+02  0.10000022004E+02 0.  0.
         12    1    1    2    0    0  0.99571175419E+01  0.36426055035E+02 -0.24558330476E+02  0.45045679826E+02  0.00000000000E+00 0. -1.
         11    1    3    3    0    0 -0.75975620549E+00  0.10722531629E-01  0.16350099068E+01  0.18029426283E+01  0.51100000000E-03 0. -1.
        -11    1    3    3    0    0 -0.91852038084E+01 -0.34288001694E+02  0.22796820598E+02  0.42186846988E+02  0.51100000000E-03 0.  1.
         12    1    3    3    0    0 -0.12157528076E-01 -0.21487758731E+01  0.12649997133E+00  0.21525305575E+01  0.00000000000E+00 0. -1.
</event>
<event>
 7    1  0.1385632E-008  0.4614232E+02  0.7816164E-02  0.1320468E+00
        -11   -1    0    0    0    0  0.00000000000E+00  0.00000000000E+00  0.45593999997E+02  0.45594000000E+02  0.51100000000E-03 0.  1.
         11   -1    0    0    0    0 -0.00000000000E+00 -0.00000000000E+00 -0.45593999997E+02  0.45594000000E+02  0.51100000000E-03 0. -1.
    9900012    2    1    2    0    0 -0.30254197720E+02  0.26249028180E+02  0.20610325575E+02  0.46142317850E+02  0.10000000813E+02 0.  0.
         12    1    1    2    0    0  0.30254197720E+02 -0.26249028180E+02 -0.20610325575E+02  0.45045682150E+02  0.00000000000E+00 0. -1.
         11    1    3    3    0    0 -0.38988775606E+01  0.75188092667E+01  0.68264725132E+01  0.10878164655E+02  0.51100000000E-03 0. -1.
        -11    1    3    3    0    0 -0.15656984503E+02  0.12285434656E+02  0.95690523887E+01  0.22082568517E+02  0.51100000000E-03 0.  1.
         12    1    3    3    0    0 -0.10698335657E+02  0.64447842567E+01  0.42148006726E+01  0.13181584679E+02  0.00000000000E+00 0. -1.
</event>
<event>
 7    1  0.1385632E-008  0.4614232E+02  0.7816164E-02  0.1320468E+00
        -11   -1    0    0    0    0  0.00000000000E+00  0.00000000000E+00  0.45593999997E+02  0.45594000000E+02  0.51100000000E-03 0.  1.
         11   -1    0    0    0    0 -0.00000000000E+00 -0.00000000000E+00 -0.45593999997E+02  0.45594000000E+02  0.51100000000E-03 0. -1.
    9900012    2    1    2    0    0  0.32736946819E+02  0.27373961329E+02  0.14424699016E+02  0.46142318880E+02  0.10000010200E+02 0.  0.
         12    1    1    2    0    0 -0.32736946819E+02 -0.27373961329E+02 -0.14424699016E+02  0.45045681120E+02  0.00000000000E+00 0. -1.
         11    1    3    3    0    0  0.45145428171E+01  0.61495023926E+01  0.13125088020E+01  0.77408110777E+01  0.51100000000E-03 0. -1.
        -11    1    3    3    0    0  0.60189317084E+01  0.11389632903E+01  0.27971412744E+01  0.67341499729E+01  0.51100000000E-03 0.  1.
        -12    1    3    3    0    0  0.22203472293E+02  0.20085495646E+02  0.10315048940E+02  0.31667357829E+02  0.00000000000E+00 0.  1.
</event>
<event>
 7    1  0.1385632E-008  0.4614232E+02  0.7816164E-02  0.1320468E+00
        -11   -1    0    0    0    0  0.00000000000E+00  0.00000000000E+00  0.45593999997E+02  0.45594000000E+02  0.51100000000E-03 0. -1.
         11   -1    0    0    0    0 -0.00000000000E+00 -0.00000000000E+00 -0.45593999997E+02  0.45594000000E+02  0.51100000000E-03 0.  1.
    9900012    2    1    2    0    0 -0.13776892560E+02  0.84378656624E+00 -0.42878884755E+02  0.46142317608E+02  0.99999986002E+01 0.  0.
         12    1    1    2    0    0  0.13776892560E+02 -0.84378656624E+00  0.42878884755E+02  0.45045682392E+02  0.00000000000E+00 0. -1.
         11    1    3    3    0    0 -0.16371571528E+01 -0.28765831681E-01 -0.27626414216E+00  0.16605520628E+01  0.51100000000E-03 0. -1.
        -11    1    3    3    0    0 -0.16056545350E+01  0.13735006134E+01 -0.49965340593E+01  0.54249408557E+01  0.51100000000E-03 0.  1.
         12    1    3    3    0    0 -0.10534080872E+02 -0.50094821551E+00 -0.37606086553E+02  0.39056824689E+02  0.00000000000E+00 0. -1.
</event>
<event>
 7    1  0.1385632E-008  0.4614232E+02  0.7816164E-02  0.1320468E+00
        -11   -1    0    0    0    0  0.00000000000E+00  0.00000000000E+00  0.45593999997E+02  0.45594000000E+02  0.51100000000E-03 0.  1.
         11   -1    0    0    0    0 -0.00000000000E+00 -0.00000000000E+00 -0.45593999997E+02  0.45594000000E+02  0.51100000000E-03 0. -1.
    9900012    2    1    2    0    0  0.29156823116E+02  0.26226361403E+02  0.22162380568E+02  0.46142317864E+02  0.10000000938E+02 0.  0.
         12    1    1    2    0    0 -0.29156823116E+02 -0.26226361403E+02 -0.22162380568E+02  0.45045682136E+02  0.00000000000E+00 0. -1.
         11    1    3    3    0    0  0.91220379558E+00  0.26576925427E+01  0.24903331123E+00  0.28208975996E+01  0.51100000000E-03 0. -1.
        -11    1    3    3    0    0  0.79220601633E+01  0.77389381857E+01  0.10072634836E+02  0.14970242960E+02  0.51100000000E-03 0.  1.
        -12    1    3    3    0    0  0.20322559158E+02  0.15829730674E+02  0.11840712420E+02  0.28351177304E+02  0.00000000000E+00 0.  1.
</event>
<event>
 7    1  0.1385632E-008  0.4614232E+02  0.7816164E-02  0.1320468E+00
        -11   -1    0    0    0    0  0.00000000000E+00  0.00000000000E+00  0.45593999997E+02  0.45594000000E+02  0.51100000000E-03 0. -1.
         11   -1    0    0    0    0 -0.00000000000E+00 -0.00000000000E+00 -0.45593999997E+02  0.45594000000E+02  0.51100000000E-03 0.  1.
    9900012    2    1    2    0    0  0.40747672109E+02  0.60782840541E+01 -0.18215242661E+02  0.46142318914E+02  0.10000010510E+02 0.  0.
         12    1    1    2    0    0 -0.40747672109E+02 -0.60782840541E+01  0.18215242661E+02  0.45045681086E+02  0.00000000000E+00 0. -1.
         11    1    3    3    0    0  0.10734712701E+02  0.40937063853E+01 -0.39500193897E+01  0.12148874112E+02  0.51100000000E-03 0. -1.
        -11    1    3    3    0    0  0.66452349956E+01  0.28506677445E+01 -0.16221296373E+01  0.74105842925E+01  0.51100000000E-03 0.  1.
        -12    1    3    3    0    0  0.23367724412E+02 -0.86609007570E+00 -0.12643093634E+02  0.26582860509E+02  0.00000000000E+00 0.  1.
</event>
<event>
 7    1  0.1385632E-008  0.4614232E+02  0.7816164E-02  0.1320468E+00
        -11   -1    0    0    0    0  0.00000000000E+00  0.00000000000E+00  0.45593999997E+02  0.45594000000E+02  0.51100000000E-03 0.  1.
         11   -1    0    0    0    0 -0.00000000000E+00 -0.00000000000E+00 -0.45593999997E+02  0.45594000000E+02  0.51100000000E-03 0. -1.
    9900012    2    1    2    0    0  0.37964625699E+02  0.12974834638E+02  0.20480584482E+02  0.46142317864E+02  0.10000000943E+02 0.  0.
         12    1    1    2    0    0 -0.37964625699E+02 -0.12974834638E+02 -0.20480584482E+02  0.45045682136E+02  0.00000000000E+00 0. -1.
         11    1    3    3    0    0  0.48457860129E+01 -0.44735558966E+00  0.36364195229E+01  0.60749745937E+01  0.51100000000E-03 0. -1.
        -11    1    3    3    0    0  0.24443583128E+02  0.91567233845E+01  0.89749781994E+01  0.27602256669E+02  0.51100000000E-03 0.  1.
         12    1    3    3    0    0  0.86752565579E+01  0.42654668427E+01  0.78691867594E+01  0.12465086602E+02  0.00000000000E+00 0. -1.
</event>
<event>
 7    1  0.1385632E-008  0.4614232E+02  0.7816164E-02  0.1320468E+00
        -11   -1    0    0    0    0  0.00000000000E+00  0.00000000000E+00  0.45593999997E+02  0.45594000000E+02  0.51100000000E-03 0.  1.
         11   -1    0    0    0    0 -0.00000000000E+00 -0.00000000000E+00 -0.45593999997E+02  0.45594000000E+02  0.51100000000E-03 0. -1.
    9900012    2    1    2    0    0  0.15957051915E+02 -0.83225690219E+01  0.41294319372E+02  0.46142317928E+02  0.10000001523E+02 0.  0.
         12    1    1    2    0    0 -0.15957051915E+02  0.83225690219E+01 -0.41294319372E+02  0.45045682072E+02  0.00000000000E+00 0. -1.
         11    1    3    3    0    0  0.58723758367E+01 -0.36777060846E+01  0.80118459163E+01  0.10592449918E+02  0.51100000000E-03 0. -1.
        -11    1    3    3    0    0  0.87140485435E+01 -0.55218647968E+01  0.23961240784E+02  0.26087673201E+02  0.51100000000E-03 0.  1.
         12    1    3    3    0    0  0.13706275343E+01  0.87700185945E+00  0.93212326715E+01  0.94621948097E+01  0.00000000000E+00 0. -1.
</event>
<event>
 7    1  0.1385632E-008  0.4614232E+02  0.7816164E-02  0.1320468E+00
        -11   -1    0    0    0    0  0.00000000000E+00  0.00000000000E+00  0.45593999997E+02  0.45594000000E+02  0.51100000000E-03 0. -1.
         11   -1    0    0    0    0 -0.00000000000E+00 -0.00000000000E+00 -0.45593999997E+02  0.45594000000E+02  0.51100000000E-03 0.  1.
    9900012    2    1    2    0    0 -0.24751238224E+02 -0.37299056118E+02 -0.50269280183E+01  0.46142318895E+02  0.10000010340E+02 0.  0.
         12    1    1    2    0    0  0.24751238224E+02  0.37299056118E+02  0.50269280183E+01  0.45045681105E+02  0.00000000000E+00 0. -1.
         11    1    3    3    0    0 -0.62447806124E+01 -0.84432303212E+01 -0.31514873987E+01  0.10964364835E+02  0.51100000000E-03 0. -1.
        -11    1    3    3    0    0 -0.22109486698E+01 -0.89060731228E+01 -0.21177987532E+01  0.94176167001E+01  0.51100000000E-03 0.  1.
         12    1    3    3    0    0 -0.16295508942E+02 -0.19949752674E+02  0.24235813370E+00  0.25760337360E+02  0.00000000000E+00 0. -1.
</event>
<event>
 7    1  0.1385632E-008  0.4614232E+02  0.7816164E-02  0.1320468E+00
        -11   -1    0    0    0    0  0.00000000000E+00  0.00000000000E+00  0.45593999997E+02  0.45594000000E+02  0.51100000000E-03 0.  1.
         11   -1    0    0    0    0 -0.00000000000E+00 -0.00000000000E+00 -0.45593999997E+02  0.45594000000E+02  0.51100000000E-03 0. -1.
    9900012    2    1    2    0    0  0.35251309242E+02 -0.17914995966E+02  0.21575717134E+02  0.46142318147E+02  0.10000003523E+02 0.  0.
         12    1    1    2    0    0 -0.35251309242E+02  0.17914995966E+02 -0.21575717134E+02  0.45045681853E+02  0.00000000000E+00 0. -1.
         11    1    3    3    0    0  0.52734083140E+00 -0.98644879967E+00 -0.65593357535E+00  0.12966953008E+01  0.51100000000E-03 0. -1.
        -11    1    3    3    0    0  0.22207783508E+02 -0.92330302093E+01  0.11548866748E+02  0.26679782956E+02  0.51100000000E-03 0.  1.
        -12    1    3    3    0    0  0.12516184902E+02 -0.76955169571E+01  0.10682783962E+02  0.18165839890E+02  0.00000000000E+00 0.  1.
</event>
<event>
 7    1  0.1385632E-008  0.4614232E+02  0.7816164E-02  0.1320468E+00
        -11   -1    0    0    0    0  0.00000000000E+00  0.00000000000E+00  0.45593999997E+02  0.45594000000E+02  0.51100000000E-03 0.  1.
         11   -1    0    0    0    0 -0.00000000000E+00 -0.00000000000E+00 -0.45593999997E+02  0.45594000000E+02  0.51100000000E-03 0. -1.
    9900012    2    1    2    0    0  0.98383401867E+01 -0.36751600877E+02  0.24117212428E+02  0.46142322738E+02  0.10000045386E+02 0.  0.
         12    1    1    2    0    0 -0.98383401867E+01  0.36751600877E+02 -0.24117212428E+02  0.45045677262E+02  0.00000000000E+00 0. -1.
         11    1    3    3    0    0  0.37542260995E+01 -0.66136294731E+01  0.59997960406E+01  0.96866847374E+01  0.51100000000E-03 0. -1.
        -11    1    3    3    0    0  0.73918688892E+01 -0.22645029607E+02  0.11880118467E+02  0.26619059086E+02  0.51100000000E-03 0.  1.
        -12    1    3    3    0    0 -0.13077548019E+01 -0.74929417975E+01  0.62372979208E+01  0.98365789152E+01  0.00000000000E+00 0.  1.
</event>
<event>
 7    1  0.1788137E-008  0.4614232E+02  0.7816164E-02  0.1320468E+00
        -11   -1    0    0    0    0  0.00000000000E+00  0.00000000000E+00  0.45593999997E+02  0.45594000000E+02  0.51100000000E-03 0.  1.
         11   -1    0    0    0    0 -0.00000000000E+00 -0.00000000000E+00 -0.45593999997E+02  0.45594000000E+02  0.51100000000E-03 0. -1.
    9900012    2    1    2    0    0  0.42307789418E+02  0.15455055436E+02 -0.55307443213E+00  0.46142315686E+02  0.99999810784E+01 0.  0.
         12    1    1    2    0    0 -0.42307789418E+02 -0.15455055436E+02  0.55307443213E+00  0.45045684314E+02  0.00000000000E+00 0. -1.
         11    1    3    3    0    0  0.52402438959E+01  0.11667934373E+01  0.22885329380E+01  0.58360043080E+01  0.51100000000E-03 0. -1.
        -11    1    3    3    0    0  0.34918262047E+02  0.14853436090E+02 -0.30814777672E+01  0.38071053223E+02  0.51100000000E-03 0.  1.
        -12    1    3    3    0    0  0.21492834758E+01 -0.56517409108E+00  0.23987039711E+00  0.22352581551E+01  0.00000000000E+00 0.  1.
</event>
<event>
 7    1  0.1385632E-008  0.4614231E+02  0.7816164E-02  0.1320468E+00
        -11   -1    0    0    0    0  0.00000000000E+00  0.00000000000E+00  0.45593999997E+02  0.45594000000E+02  0.51100000000E-03 0.  1.
         11   -1    0    0    0    0 -0.00000000000E+00 -0.00000000000E+00 -0.45593999997E+02  0.45594000000E+02  0.51100000000E-03 0. -1.
    9900012    2    1    2    0    0 -0.34439742902E+02 -0.61610219487E+01  0.28373575587E+02  0.46142313478E+02  0.99999609461E+01 0.  0.
         12    1    1    2    0    0  0.34439742902E+02  0.61610219487E+01 -0.28373575587E+02  0.45045686522E+02  0.00000000000E+00 0. -1.
         11    1    3    3    0    0 -0.13420783493E+01 -0.21599089554E+01  0.30227135378E+01  0.39500858705E+01  0.51100000000E-03 0. -1.
        -11    1    3    3    0    0 -0.15430261825E+02 -0.62968711764E+00  0.89388511134E+01  0.17843557530E+02  0.51100000000E-03 0.  1.
         12    1    3    3    0    0 -0.17667402728E+02 -0.33714258757E+01  0.16412010936E+02  0.24348670078E+02  0.00000000000E+00 0. -1.
</event>
<event>
 7    1  0.1385632E-008  0.4614232E+02  0.7816164E-02  0.1320468E+00
        -11   -1    0    0    0    0  0.00000000000E+00  0.00000000000E+00  0.45593999997E+02  0.45594000000E+02  0.51100000000E-03 0.  1.
         11   -1    0    0    0    0 -0.00000000000E+00 -0.00000000000E+00 -0.45593999997E+02  0.45594000000E+02  0.51100000000E-03 0. -1.
    9900012    2    1    2    0    0  0.29805958761E+02 -0.40654095586E+01  0.33528954005E+02  0.46142317751E+02  0.99999999101E+01 0.  0.
         12    1    1    2    0    0 -0.29805958761E+02  0.40654095586E+01 -0.33528954005E+02  0.45045682249E+02  0.00000000000E+00 0. -1.
         11    1    3    3    0    0  0.30333076277E+01 -0.22016208096E+01  0.20025382554E+01  0.42494998622E+01  0.51100000000E-03 0. -1.
        -11    1    3    3    0    0  0.20269020971E+02 -0.41195944726E+01  0.24345499856E+02  0.31945385164E+02  0.51100000000E-03 0.  1.
         12    1    3    3    0    0  0.65036301621E+01  0.22558057236E+01  0.71809158942E+01  0.99474327254E+01  0.00000000000E+00 0. -1.
</event>
<event>
 7    1  0.1385632E-008  0.4614232E+02  0.7816164E-02  0.1320468E+00
        -11   -1    0    0    0    0  0.00000000000E+00  0.00000000000E+00  0.45593999997E+02  0.45594000000E+02  0.51100000000E-03 0.  1.
         11   -1    0    0    0    0 -0.00000000000E+00 -0.00000000000E+00 -0.45593999997E+02  0.45594000000E+02  0.51100000000E-03 0. -1.
    9900012    2    1    2    0    0 -0.19384380087E+02 -0.15808669721E+02  0.37462584036E+02  0.46142318382E+02  0.10000005665E+02 0.  0.
         12    1    1    2    0    0  0.19384380087E+02  0.15808669721E+02 -0.37462584036E+02  0.45045681618E+02  0.00000000000E+00 0. -1.
         11    1    3    3    0    0  0.61965638770E+00 -0.95499810933E+00  0.24180992930E+00  0.11638160210E+01  0.51100000000E-03 0. -1.
        -11    1    3    3    0    0 -0.18732620973E+02 -0.14744960632E+02  0.36198459786E+02  0.43343435993E+02  0.51100000000E-03 0.  1.
        -12    1    3    3    0    0 -0.12714155026E+01 -0.10871097920E+00  0.10223143209E+01  0.16350663680E+01  0.00000000000E+00 0.  1.
</event>
<event>
 7    1  0.1385632E-008  0.4614233E+02  0.7816164E-02  0.1320468E+00
        -11   -1    0    0    0    0  0.00000000000E+00  0.00000000000E+00  0.45593999997E+02  0.45594000000E+02  0.51100000000E-03 0.  1.
         11   -1    0    0    0    0 -0.00000000000E+00 -0.00000000000E+00 -0.45593999997E+02  0.45594000000E+02  0.51100000000E-03 0. -1.
    9900012    2    1    2    0    0 -0.10800998072E+02 -0.34986989682E+02  0.26236650480E+02  0.46142325016E+02  0.10000066157E+02 0.  0.
         12    1    1    2    0    0  0.10800998072E+02  0.34986989682E+02 -0.26236650480E+02  0.45045674984E+02  0.00000000000E+00 0. -1.
         11    1    3    3    0    0 -0.52745536171E+01 -0.15273816709E+02  0.94337527245E+01  0.18711121918E+02  0.51100000000E-03 0. -1.
        -11    1    3    3    0    0 -0.36022741993E+01 -0.80877873591E+01  0.11489549407E+02  0.14505117359E+02  0.51100000000E-03 0.  1.
         12    1    3    3    0    0 -0.19241702558E+01 -0.11625385614E+02  0.53133483481E+01  0.12926085738E+02  0.00000000000E+00 0. -1.
</event>
<event>
 7    1  0.1385632E-008  0.4614232E+02  0.7816164E-02  0.1320468E+00
        -11   -1    0    0    0    0  0.00000000000E+00  0.00000000000E+00  0.45593999997E+02  0.45594000000E+02  0.51100000000E-03 0.  1.
         11   -1    0    0    0    0 -0.00000000000E+00 -0.00000000000E+00 -0.45593999997E+02  0.45594000000E+02  0.51100000000E-03 0. -1.
    9900012    2    1    2    0    0  0.43901112518E+02  0.88908914086E+01 -0.47705153259E+01  0.46142318222E+02  0.10000004206E+02 0.  0.
         12    1    1    2    0    0 -0.43901112518E+02 -0.88908914086E+01  0.47705153259E+01  0.45045681778E+02  0.00000000000E+00 0. -1.
         11    1    3    3    0    0  0.82629266224E+01 -0.21933846828E+01 -0.13571225986E+01  0.86561350927E+01  0.51100000000E-03 0. -1.
        -11    1    3    3    0    0  0.10841782283E+02  0.37326130465E+01 -0.93119904615E+00  0.11504076458E+02  0.51100000000E-03 0.  1.
         12    1    3    3    0    0  0.24796403612E+02  0.73516630449E+01 -0.24821936812E+01  0.25982106672E+02  0.00000000000E+00 0. -1.
</event>
<event>
 7    1  0.1385632E-008  0.4614231E+02  0.7816164E-02  0.1320468E+00
        -11   -1    0    0    0    0  0.00000000000E+00  0.00000000000E+00  0.45593999997E+02  0.45594000000E+02  0.51100000000E-03 0.  1.
         11   -1    0    0    0    0 -0.00000000000E+00 -0.00000000000E+00 -0.45593999997E+02  0.45594000000E+02  0.51100000000E-03 0. -1.
    9900012    2    1    2    0    0 -0.24120307758E+02  0.33467555382E+02  0.18089991414E+02  0.46142308764E+02  0.99999179559E+01 0.  0.
         12    1    1    2    0    0  0.24120307758E+02 -0.33467555382E+02 -0.18089991414E+02  0.45045691236E+02  0.00000000000E+00 0. -1.
         11    1    3    3    0    0 -0.57585298002E+01  0.63090292498E+01  0.58395994320E+01  0.10347242982E+02  0.51100000000E-03 0. -1.
        -11    1    3    3    0    0 -0.13459811606E+02  0.23005856862E+02  0.71616157899E+01  0.27599360851E+02  0.51100000000E-03 0.  1.
        -12    1    3    3    0    0 -0.49019663514E+01  0.41526692703E+01  0.50887761921E+01  0.81957049307E+01  0.00000000000E+00 0.  1.
</event>
<event>
 7    1  0.1385632E-008  0.4614232E+02  0.7816164E-02  0.1320468E+00
        -11   -1    0    0    0    0  0.00000000000E+00  0.00000000000E+00  0.45593999997E+02  0.45594000000E+02  0.51100000000E-03 0.  1.
         11   -1    0    0    0    0 -0.00000000000E+00 -0.00000000000E+00 -0.45593999997E+02  0.45594000000E+02  0.51100000000E-03 0. -1.
    9900012    2    1    2    0    0 -0.38679425032E+02  0.15976721362E+02  0.16666134650E+02  0.46142316627E+02  0.99999896617E+01 0.  0.
         12    1    1    2    0    0  0.38679425032E+02 -0.15976721362E+02 -0.16666134650E+02  0.45045683373E+02  0.00000000000E+00 0. -1.
         11    1    3    3    0    0 -0.11341444854E+02  0.53501893890E+01  0.21438161742E+01  0.12721982782E+02  0.51100000000E-03 0. -1.
        -11    1    3    3    0    0 -0.14684777678E+02  0.61356977664E+01  0.11561495397E+02  0.19671239376E+02  0.51100000000E-03 0.  1.
        -12    1    3    3    0    0 -0.12653202501E+02  0.44908342070E+01  0.29608230793E+01  0.13749094469E+02  0.00000000000E+00 0.  1.
</event>
<event>
 7    1  0.1385632E-008  0.4614232E+02  0.7816164E-02  0.1320468E+00
        -11   -1    0    0    0    0  0.00000000000E+00  0.00000000000E+00  0.45593999997E+02  0.45594000000E+02  0.51100000000E-03 0. -1.
         11   -1    0    0    0    0 -0.00000000000E+00 -0.00000000000E+00 -0.45593999997E+02  0.45594000000E+02  0.51100000000E-03 0.  1.
    9900012    2    1    2    0    0  0.23160919687E+02 -0.32238345060E+02  0.21292589466E+02  0.46142318086E+02  0.10000002962E+02 0.  0.
         12    1    1    2    0    0 -0.23160919687E+02  0.32238345060E+02 -0.21292589466E+02  0.45045681914E+02  0.00000000000E+00 0. -1.
         11    1    3    3    0    0  0.63260541474E+01 -0.15221673737E+02  0.89838962270E+01  0.18773084566E+02  0.51100000000E-03 0. -1.
        -11    1    3    3    0    0  0.14380076037E+02 -0.16224419160E+02  0.98752833964E+01  0.23823089353E+02  0.51100000000E-03 0.  1.
         12    1    3    3    0    0  0.24547895025E+01 -0.79225216259E+00  0.24334098423E+01  0.35461441667E+01  0.00000000000E+00 0. -1.
</event>
<event>
 7    1  0.1385632E-008  0.4614232E+02  0.7816164E-02  0.1320468E+00
        -11   -1    0    0    0    0  0.00000000000E+00  0.00000000000E+00  0.45593999997E+02  0.45594000000E+02  0.51100000000E-03 0.  1.
         11   -1    0    0    0    0 -0.00000000000E+00 -0.00000000000E+00 -0.45593999997E+02  0.45594000000E+02  0.51100000000E-03 0. -1.
    9900012    2    1    2    0    0  0.10102039220E+02 -0.13918366658E+02  0.41633414824E+02  0.46142319223E+02  0.10000013328E+02 0.  0.
         12    1    1    2    0    0 -0.10102039220E+02  0.13918366658E+02 -0.41633414824E+02  0.45045680777E+02  0.00000000000E+00 0. -1.
         11    1    3    3    0    0 -0.88901038599E+00 -0.15997741313E+01  0.22813487069E+01  0.29247510871E+01  0.51100000000E-03 0. -1.
        -11    1    3    3    0    0  0.10517918654E+02 -0.12642259492E+02  0.39345668916E+02  0.42644284501E+02  0.51100000000E-03 0.  1.
        -12    1    3    3    0    0  0.47313095160E+00  0.32366696576E+00  0.63972011189E-02  0.57328363509E+00  0.00000000000E+00 0.  1.
</event>
<event>
 7    1  0.1385632E-008  0.4614232E+02  0.7816164E-02  0.1320468E+00
        -11   -1    0    0    0    0  0.00000000000E+00  0.00000000000E+00  0.45593999997E+02  0.45594000000E+02  0.51100000000E-03 0.  1.
         11   -1    0    0    0    0 -0.00000000000E+00 -0.00000000000E+00 -0.45593999997E+02  0.45594000000E+02  0.51100000000E-03 0. -1.
    9900012    2    1    2    0    0  0.12567445436E+02 -0.27979489669E+02  0.32989711155E+02  0.46142316866E+02  0.99999918357E+01 0.  0.
         12    1    1    2    0    0 -0.12567445436E+02  0.27979489669E+02 -0.32989711155E+02  0.45045683134E+02  0.00000000000E+00 0. -1.
         11    1    3    3    0    0  0.11184807142E+01 -0.48850227042E+01  0.91808690185E+01  0.10459579443E+02  0.51100000000E-03 0. -1.
        -11    1    3    3    0    0  0.16475724165E+01 -0.54034744578E+01  0.21370727151E+01  0.60397939646E+01  0.51100000000E-03 0.  1.
        -12    1    3    3    0    0  0.98013923048E+01 -0.17690992507E+02  0.21671769422E+02  0.29642943458E+02  0.00000000000E+00 0.  1.
</event>
<event>
 7    1  0.1385632E-008  0.4614232E+02  0.7816164E-02  0.1320468E+00
        -11   -1    0    0    0    0  0.00000000000E+00  0.00000000000E+00  0.45593999997E+02  0.45594000000E+02  0.51100000000E-03 0.  1.
         11   -1    0    0    0    0 -0.00000000000E+00 -0.00000000000E+00 -0.45593999997E+02  0.45594000000E+02  0.51100000000E-03 0. -1.
    9900012    2    1    2    0    0 -0.25307174930E+02 -0.10649529798E+02  0.35710614266E+02  0.46142316976E+02  0.99999928406E+01 0.  0.
         12    1    1    2    0    0  0.25307174930E+02  0.10649529798E+02 -0.35710614266E+02  0.45045683024E+02  0.00000000000E+00 0. -1.
         11    1    3    3    0    0 -0.94970637845E+01 -0.30494287289E+00  0.94866224981E+01  0.13426958604E+02  0.51100000000E-03 0. -1.
        -11    1    3    3    0    0 -0.61913157377E+01 -0.14723962591E+01  0.70021451900E+01  0.94620493991E+01  0.51100000000E-03 0.  1.
         12    1    3    3    0    0 -0.96187954076E+01 -0.88721906659E+01  0.19221846578E+02  0.23253308972E+02  0.00000000000E+00 0. -1.
</event>
<event>
 7    1  0.1385632E-008  0.4614232E+02  0.7816164E-02  0.1320468E+00
        -11   -1    0    0    0    0  0.00000000000E+00  0.00000000000E+00  0.45593999997E+02  0.45594000000E+02  0.51100000000E-03 0.  1.
         11   -1    0    0    0    0 -0.00000000000E+00 -0.00000000000E+00 -0.45593999997E+02  0.45594000000E+02  0.51100000000E-03 0. -1.
    9900012    2    1    2    0    0  0.24638177183E+02  0.24502268688E+01  0.37630706318E+02  0.46142318247E+02  0.10000004433E+02 0.  0.
         12    1    1    2    0    0 -0.24638177183E+02 -0.24502268688E+01 -0.37630706318E+02  0.45045681753E+02  0.00000000000E+00 0. -1.
         11    1    3    3    0    0  0.45303097513E+01  0.72978013861E+00  0.26443845240E+01  0.52961358806E+01  0.51100000000E-03 0. -1.
        -11    1    3    3    0    0  0.19795837482E+02  0.68437293708E+00  0.34149742277E+02  0.39478455463E+02  0.51100000000E-03 0.  1.
        -12    1    3    3    0    0  0.31202994995E+00  0.10360737931E+01  0.83657951641E+00  0.13677269032E+01  0.00000000000E+00 0.  1.
</event>
<event>
 7    1  0.1598810E-008  0.4614232E+02  0.7816164E-02  0.1320468E+00
        -11   -1    0    0    0    0  0.00000000000E+00  0.00000000000E+00  0.45593999997E+02  0.45594000000E+02  0.51100000000E-03 0. -1.
         11   -1    0    0    0    0 -0.00000000000E+00 -0.00000000000E+00 -0.45593999997E+02  0.45594000000E+02  0.51100000000E-03 0.  1.
    9900012    2    1    2    0    0 -0.39949978589E+02  0.90513886477E+01 -0.18739935237E+02  0.46142316540E+02  0.99999888623E+01 0.  0.
         12    1    1    2    0    0  0.39949978589E+02 -0.90513886477E+01  0.18739935237E+02  0.45045683460E+02  0.00000000000E+00 0. -1.
         11    1    3    3    0    0 -0.12028269067E+01  0.50226553458E+00  0.93355782543E+00  0.16033071163E+01  0.51100000000E-03 0. -1.
        -11    1    3    3    0    0 -0.36029847203E+02  0.91436700848E+01 -0.18478730141E+02  0.41511685824E+02  0.51100000000E-03 0.  1.
        -12    1    3    3    0    0 -0.27173044796E+01 -0.59454697161E+00 -0.11947629207E+01  0.30273235989E+01  0.00000000000E+00 0.  1.
</event>
<event>
 7    1  0.1385632E-008  0.4614232E+02  0.7816164E-02  0.1320468E+00
        -11   -1    0    0    0    0  0.00000000000E+00  0.00000000000E+00  0.45593999997E+02  0.45594000000E+02  0.51100000000E-03 0.  1.
         11   -1    0    0    0    0 -0.00000000000E+00 -0.00000000000E+00 -0.45593999997E+02  0.45594000000E+02  0.51100000000E-03 0. -1.
    9900012    2    1    2    0    0 -0.10389808255E+02 -0.13199001081E+02  0.41796551598E+02  0.46142317958E+02  0.10000001796E+02 0.  0.
         12    1    1    2    0    0  0.10389808255E+02  0.13199001081E+02 -0.41796551598E+02  0.45045682042E+02  0.00000000000E+00 0. -1.
         11    1    3    3    0    0 -0.23341173000E+01 -0.57850721139E+01  0.66967933666E+01  0.91521693925E+01  0.51100000000E-03 0. -1.
        -11    1    3    3    0    0 -0.83499048669E+01 -0.75358668228E+01  0.34709500073E+02  0.36486430294E+02  0.51100000000E-03 0.  1.
        -12    1    3    3    0    0  0.29421391163E+00  0.12193785524E+00  0.39025815890E+00  0.50371827138E+00  0.00000000000E+00 0.  1.
</event>
<event>
 7    1  0.1385632E-008  0.4614232E+02  0.7816164E-02  0.1320468E+00
        -11   -1    0    0    0    0  0.00000000000E+00  0.00000000000E+00  0.45593999997E+02  0.45594000000E+02  0.51100000000E-03 0.  1.
         11   -1    0    0    0    0 -0.00000000000E+00 -0.00000000000E+00 -0.45593999997E+02  0.45594000000E+02  0.51100000000E-03 0. -1.
    9900012    2    1    2    0    0  0.81236295544E+00  0.10767966736E+02  0.43732188714E+02  0.46142319065E+02  0.10000011888E+02 0.  0.
         12    1    1    2    0    0 -0.81236295544E+00 -0.10767966736E+02 -0.43732188714E+02  0.45045680935E+02  0.00000000000E+00 0. -1.
         11    1    3    3    0    0  0.60004119814E+00 -0.14993643683E+01  0.18573730527E+01  0.24612959729E+01  0.51100000000E-03 0. -1.
        -11    1    3    3    0    0  0.66058039000E+00  0.10209003896E+02  0.32485752417E+02  0.34058541327E+02  0.51100000000E-03 0.  1.
         12    1    3    3    0    0 -0.44825863270E+00  0.20583272081E+01  0.93890632447E+01  0.96224817647E+01  0.00000000000E+00 0. -1.
</event>
<event>
 7    1  0.1385632E-008  0.4614232E+02  0.7816164E-02  0.1320468E+00
        -11   -1    0    0    0    0  0.00000000000E+00  0.00000000000E+00  0.45593999997E+02  0.45594000000E+02  0.51100000000E-03 0. -1.
         11   -1    0    0    0    0 -0.00000000000E+00 -0.00000000000E+00 -0.45593999997E+02  0.45594000000E+02  0.51100000000E-03 0.  1.
    9900012    2    1    2    0    0 -0.39428313814E+02  0.20904583021E+02  0.61253623071E+01  0.46142316689E+02  0.99999902263E+01 0.  0.
         12    1    1    2    0    0  0.39428313814E+02 -0.20904583021E+02 -0.61253623071E+01  0.45045683311E+02  0.00000000000E+00 0. -1.
         11    1    3    3    0    0 -0.17194414755E+02  0.10056333962E+02 -0.70785495159E+00  0.19931854164E+02  0.51100000000E-03 0. -1.
        -11    1    3    3    0    0 -0.13499175650E+02  0.39322902990E+01  0.49804083380E+01  0.14916270234E+02  0.51100000000E-03 0.  1.
         12    1    3    3    0    0 -0.87347234096E+01  0.69159587605E+01  0.18528089207E+01  0.11294192291E+02  0.00000000000E+00 0. -1.
</event>
<event>
 7    1  0.1385632E-008  0.4614232E+02  0.7816164E-02  0.1320468E+00
        -11   -1    0    0    0    0  0.00000000000E+00  0.00000000000E+00  0.45593999997E+02  0.45594000000E+02  0.51100000000E-03 0.  1.
         11   -1    0    0    0    0 -0.00000000000E+00 -0.00000000000E+00 -0.45593999997E+02  0.45594000000E+02  0.51100000000E-03 0. -1.
    9900012    2    1    2    0    0 -0.35951018995E+02  0.23470753119E+02 -0.13629437158E+02  0.46142316788E+02  0.99999911280E+01 0.  0.
         12    1    1    2    0    0  0.35951018995E+02 -0.23470753119E+02  0.13629437158E+02  0.45045683212E+02  0.00000000000E+00 0. -1.
         11    1    3    3    0    0 -0.11555054090E+02  0.97110650235E+01 -0.59186803257E+01  0.16212798524E+02  0.51100000000E-03 0.  1.
        -11    1    3    3    0    0 -0.58210391159E+01  0.30217375157E+00 -0.28249705302E+01  0.64773655233E+01  0.51100000000E-03 0. -1.
         12    1    3    3    0    0 -0.18574925789E+02  0.13457514344E+02 -0.48857863020E+01  0.23452152741E+02  0.00000000000E+00 0. -1.
</event>
<event>
 7    1  0.1385632E-008  0.4614232E+02  0.7816164E-02  0.1320468E+00
        -11   -1    0    0    0    0  0.00000000000E+00  0.00000000000E+00  0.45593999997E+02  0.45594000000E+02  0.51100000000E-03 0.  1.
         11   -1    0    0    0    0 -0.00000000000E+00 -0.00000000000E+00 -0.45593999997E+02  0.45594000000E+02  0.51100000000E-03 0. -1.
    9900012    2    1    2    0    0 -0.27925743688E+02  0.27229419501E+02  0.22534973053E+02  0.46142318105E+02  0.10000003136E+02 0.  0.
         12    1    1    2    0    0  0.27925743688E+02 -0.27229419501E+02 -0.22534973053E+02  0.45045681895E+02  0.00000000000E+00 0. -1.
         11    1    3    3    0    0 -0.20543269495E+02  0.19331218320E+02  0.11820617296E+02  0.30585109396E+02  0.51100000000E-03 0. -1.
        -11    1    3    3    0    0 -0.64643328865E+01  0.77315244515E+01  0.86092709453E+01  0.13254569645E+02  0.51100000000E-03 0.  1.
         12    1    3    3    0    0 -0.91814130671E+00  0.16667672965E+00  0.21050848118E+01  0.23026390634E+01  0.00000000000E+00 0. -1.
</event>
<event>
 7    1  0.1385632E-008  0.4614232E+02  0.7816164E-02  0.1320468E+00
        -11   -1    0    0    0    0  0.00000000000E+00  0.00000000000E+00  0.45593999997E+02  0.45594000000E+02  0.51100000000E-03 0.  1.
         11   -1    0    0    0    0 -0.00000000000E+00 -0.00000000000E+00 -0.45593999997E+02  0.45594000000E+02  0.51100000000E-03 0. -1.
    9900012    2    1    2    0    0 -0.18703600181E+02 -0.32503911475E+02  0.24955650815E+02  0.46142318425E+02  0.10000006055E+02 0.  0.
         12    1    1    2    0    0  0.18703600181E+02  0.32503911475E+02 -0.24955650815E+02  0.45045681575E+02  0.00000000000E+00 0. -1.
         11    1    3    3    0    0 -0.28456721219E+01 -0.84534705725E+01  0.42761686272E+01  0.98916446022E+01  0.51100000000E-03 0. -1.
        -11    1    3    3    0    0 -0.82199291119E+01 -0.84251132914E+01  0.12014110493E+02  0.16819293082E+02  0.51100000000E-03 0.  1.
        -12    1    3    3    0    0 -0.76379989471E+01 -0.15625327611E+02  0.86653716950E+01  0.19431380741E+02  0.00000000000E+00 0.  1.
</event>
<event>
 7    1  0.1385632E-008  0.4614232E+02  0.7816164E-02  0.1320468E+00
        -11   -1    0    0    0    0  0.00000000000E+00  0.00000000000E+00  0.45593999997E+02  0.45594000000E+02  0.51100000000E-03 0.  1.
         11   -1    0    0    0    0 -0.00000000000E+00 -0.00000000000E+00 -0.45593999997E+02  0.45594000000E+02  0.51100000000E-03 0. -1.
    9900012    2    1    2    0    0  0.39110145223E+01 -0.41771990120E+02  0.16398727797E+02  0.46142318003E+02  0.10000002208E+02 0.  0.
         12    1    1    2    0    0 -0.39110145223E+01  0.41771990120E+02 -0.16398727797E+02  0.45045681997E+02  0.00000000000E+00 0. -1.
         11    1    3    3    0    0 -0.21035594832E+01 -0.94318676525E+01  0.51265818223E+01  0.10939238152E+02  0.51100000000E-03 0. -1.
        -11    1    3    3    0    0  0.14994495306E+01 -0.21947530500E+02  0.80134351830E+01  0.23412765485E+02  0.51100000000E-03 0.  1.
         12    1    3    3    0    0  0.45151244749E+01 -0.10392591968E+02  0.32587107917E+01  0.11790314366E+02  0.00000000000E+00 0. -1.
</event>
<event>
 7    1  0.1385632E-008  0.4614232E+02  0.7816164E-02  0.1320468E+00
        -11   -1    0    0    0    0  0.00000000000E+00  0.00000000000E+00  0.45593999997E+02  0.45594000000E+02  0.51100000000E-03 0.  1.
         11   -1    0    0    0    0 -0.00000000000E+00 -0.00000000000E+00 -0.45593999997E+02  0.45594000000E+02  0.51100000000E-03 0. -1.
    9900012    2    1    2    0    0  0.23593264428E+02  0.13770341352E+02  0.35816881317E+02  0.46142318580E+02  0.10000007466E+02 0.  0.
         12    1    1    2    0    0 -0.23593264428E+02 -0.13770341352E+02 -0.35816881317E+02  0.45045681420E+02  0.00000000000E+00 0. -1.
         11    1    3    3    0    0  0.74286270206E+01  0.12769396090E+01  0.10418063898E+02  0.12858893025E+02  0.51100000000E-03 0. -1.
        -11    1    3    3    0    0  0.77983346539E+01  0.92178866404E+01  0.11128801589E+02  0.16420526257E+02  0.51100000000E-03 0.  1.
        -12    1    3    3    0    0  0.83663027533E+01  0.32755151026E+01  0.14270015830E+02  0.16862899298E+02  0.00000000000E+00 0.  1.
</event>
<event>
 7    1  0.1385632E-008  0.4614232E+02  0.7816164E-02  0.1320468E+00
        -11   -1    0    0    0    0  0.00000000000E+00  0.00000000000E+00  0.45593999997E+02  0.45594000000E+02  0.51100000000E-03 0.  1.
         11   -1    0    0    0    0 -0.00000000000E+00 -0.00000000000E+00 -0.45593999997E+02  0.45594000000E+02  0.51100000000E-03 0. -1.
    9900012    2    1    2    0    0 -0.36292252457E+02 -0.24256671422E+01  0.26572574904E+02  0.46142321111E+02  0.10000030550E+02 0.  0.
         12    1    1    2    0    0  0.36292252457E+02  0.24256671422E+01 -0.26572574904E+02  0.45045678889E+02  0.00000000000E+00 0. -1.
         11    1    3    3    0    0 -0.16414687266E+02 -0.89288656907E+00  0.86807811564E+01  0.18590190053E+02  0.51100000000E-03 0. -1.
        -11    1    3    3    0    0 -0.19622111809E+02 -0.24348986204E+01  0.15979808692E+02  0.25422633405E+02  0.51100000000E-03 0.  1.
        -12    1    3    3    0    0 -0.25545338194E+00  0.90211804722E+00  0.19119850558E+01  0.21294976533E+01  0.00000000000E+00 0.  1.
</event>
<event>
 7    1  0.1385632E-008  0.4614232E+02  0.7816164E-02  0.1320468E+00
        -11   -1    0    0    0    0  0.00000000000E+00  0.00000000000E+00  0.45593999997E+02  0.45594000000E+02  0.51100000000E-03 0.  1.
         11   -1    0    0    0    0 -0.00000000000E+00 -0.00000000000E+00 -0.45593999997E+02  0.45594000000E+02  0.51100000000E-03 0. -1.
    9900012    2    1    2    0    0 -0.37193753936E+02  0.13508210344E+02  0.21523624458E+02  0.46142317762E+02  0.10000000004E+02 0.  0.
         12    1    1    2    0    0  0.37193753936E+02 -0.13508210344E+02 -0.21523624458E+02  0.45045682238E+02  0.00000000000E+00 0. -1.
         11    1    3    3    0    0 -0.20024532680E+02  0.88913398781E+01  0.13665118622E+02  0.25821953859E+02  0.51100000000E-03 0. -1.
        -11    1    3    3    0    0 -0.10592127347E+02  0.41154568522E+01  0.76919023125E+01  0.13722081048E+02  0.51100000000E-03 0.  1.
         12    1    3    3    0    0 -0.65770939093E+01  0.50141361348E+00  0.16660352350E+00  0.65982828553E+01  0.00000000000E+00 0. -1.
</event>
<event>
 7    1  0.1385632E-008  0.4614232E+02  0.7816164E-02  0.1320468E+00
        -11   -1    0    0    0    0  0.00000000000E+00  0.00000000000E+00  0.45593999997E+02  0.45594000000E+02  0.51100000000E-03 0.  1.
         11   -1    0    0    0    0 -0.00000000000E+00 -0.00000000000E+00 -0.45593999997E+02  0.45594000000E+02  0.51100000000E-03 0. -1.
    9900012    2    1    2    0    0  0.69911639548E+01  0.36027716514E+02  0.26119739090E+02  0.46142317623E+02  0.99999987446E+01 0.  0.
         12    1    1    2    0    0 -0.69911639548E+01 -0.36027716514E+02 -0.26119739090E+02  0.45045682377E+02  0.00000000000E+00 0. -1.
         11    1    3    3    0    0  0.68429184173E+00  0.38673776832E+01 -0.20606545924E+00  0.39328524894E+01  0.51100000000E-03 0. -1.
        -11    1    3    3    0    0  0.22266173951E+01  0.80898097603E+01  0.87802581452E+01  0.12144784080E+02  0.51100000000E-03 0.  1.
        -12    1    3    3    0    0  0.40802547180E+01  0.24070529071E+02  0.17545546404E+02  0.30064681054E+02  0.00000000000E+00 0.  1.
</event>
<event>
 7    1  0.1385632E-008  0.4614232E+02  0.7816164E-02  0.1320468E+00
        -11   -1    0    0    0    0  0.00000000000E+00  0.00000000000E+00  0.45593999997E+02  0.45594000000E+02  0.51100000000E-03 0. -1.
         11   -1    0    0    0    0 -0.00000000000E+00 -0.00000000000E+00 -0.45593999997E+02  0.45594000000E+02  0.51100000000E-03 0.  1.
    9900012    2    1    2    0    0  0.95728024824E+01 -0.71223733387E+01 -0.43436698028E+02  0.46142317799E+02  0.10000000346E+02 0.  0.
         12    1    1    2    0    0 -0.95728024824E+01  0.71223733387E+01  0.43436698028E+02  0.45045682201E+02  0.00000000000E+00 0. -1.
         11    1    3    3    0    0  0.38551112434E+01  0.44112987391E+00 -0.40169367893E+01  0.55850031061E+01  0.51100000000E-03 0. -1.
        -11    1    3    3    0    0  0.39079234314E+01 -0.47640870192E+01 -0.27363627943E+02  0.28048823953E+02  0.51100000000E-03 0.  1.
         12    1    3    3    0    0  0.18097678076E+01 -0.27994161935E+01 -0.12056133296E+02  0.12508490740E+02  0.00000000000E+00 0. -1.
</event>
<event>
 7    1  0.1385632E-008  0.4614232E+02  0.7816164E-02  0.1320468E+00
        -11   -1    0    0    0    0  0.00000000000E+00  0.00000000000E+00  0.45593999997E+02  0.45594000000E+02  0.51100000000E-03 0.  1.
         11   -1    0    0    0    0 -0.00000000000E+00 -0.00000000000E+00 -0.45593999997E+02  0.45594000000E+02  0.51100000000E-03 0. -1.
    9900012    2    1    2    0    0  0.28498543472E+02 -0.21056718091E+02  0.27812967179E+02  0.46142317632E+02  0.99999988187E+01 0.  0.
         12    1    1    2    0    0 -0.28498543472E+02  0.21056718091E+02 -0.27812967179E+02  0.45045682368E+02  0.00000000000E+00 0. -1.
         11    1    3    3    0    0  0.17707559494E+01 -0.36105788294E+01  0.66762830429E+01  0.77938829633E+01  0.51100000000E-03 0. -1.
        -11    1    3    3    0    0  0.12855533132E+02 -0.90134648923E+01  0.91919644002E+01  0.18193391417E+02  0.51100000000E-03 0.  1.
         12    1    3    3    0    0  0.13872254391E+02 -0.84326743691E+01  0.11944719736E+02  0.20155043251E+02  0.00000000000E+00 0. -1.
</event>
<event>
 7    1  0.1385632E-008  0.4614232E+02  0.7816164E-02  0.1320468E+00
        -11   -1    0    0    0    0  0.00000000000E+00  0.00000000000E+00  0.45593999997E+02  0.45594000000E+02  0.51100000000E-03 0.  1.
         11   -1    0    0    0    0 -0.00000000000E+00 -0.00000000000E+00 -0.45593999997E+02  0.45594000000E+02  0.51100000000E-03 0. -1.
    9900012    2    1    2    0    0 -0.61300965305E+01  0.20061997650E+02  0.39862912209E+02  0.46142316489E+02  0.99999883965E+01 0.  0.
         12    1    1    2    0    0  0.61300965305E+01 -0.20061997650E+02 -0.39862912209E+02  0.45045683511E+02  0.00000000000E+00 0. -1.
         11    1    3    3    0    0 -0.84738623028E+00 -0.60083199779E+00  0.12606405158E+01  0.16334862362E+01  0.51100000000E-03 0. -1.
        -11    1    3    3    0    0 -0.62831285750E+01  0.16866930849E+02  0.28954572418E+02  0.34093083245E+02  0.51100000000E-03 0.  1.
        -12    1    3    3    0    0  0.10004182748E+01  0.37958987991E+01  0.96476992756E+01  0.10415747008E+02  0.00000000000E+00 0.  1.
</event>
<event>
 7    1  0.1385632E-008  0.4614232E+02  0.7816164E-02  0.1320468E+00
        -11   -1    0    0    0    0  0.00000000000E+00  0.00000000000E+00  0.45593999997E+02  0.45594000000E+02  0.51100000000E-03 0.  1.
         11   -1    0    0    0    0 -0.00000000000E+00 -0.00000000000E+00 -0.45593999997E+02  0.45594000000E+02  0.51100000000E-03 0. -1.
    9900012    2    1    2    0    0  0.27891360881E+02 -0.22526242673E+02  0.27271851992E+02  0.46142317279E+02  0.99999955994E+01 0.  0.
         12    1    1    2    0    0 -0.27891360881E+02  0.22526242673E+02 -0.27271851992E+02  0.45045682721E+02  0.00000000000E+00 0. -1.
         11    1    3    3    0    0  0.99112650472E+01 -0.78189581590E+01  0.63838598163E+01  0.14146481822E+02  0.51100000000E-03 0. -1.
        -11    1    3    3    0    0  0.11568083999E+02 -0.51866041741E+01  0.96560940278E+01  0.15936172138E+02  0.51100000000E-03 0.  1.
        -12    1    3    3    0    0  0.64120118351E+01 -0.95206803404E+01  0.11231898147E+02  0.16059663319E+02  0.00000000000E+00 0.  1.
</event>
<event>
 7    1  0.1385632E-008  0.4614232E+02  0.7816164E-02  0.1320468E+00
        -11   -1    0    0    0    0  0.00000000000E+00  0.00000000000E+00  0.45593999997E+02  0.45594000000E+02  0.51100000000E-03 0.  1.
         11   -1    0    0    0    0 -0.00000000000E+00 -0.00000000000E+00 -0.45593999997E+02  0.45594000000E+02  0.51100000000E-03 0. -1.
    9900012    2    1    2    0    0  0.38613725525E+02 -0.19760697119E+02  0.12149426414E+02  0.46142317501E+02  0.99999976296E+01 0.  0.
         12    1    1    2    0    0 -0.38613725525E+02  0.19760697119E+02 -0.12149426414E+02  0.45045682499E+02  0.00000000000E+00 0. -1.
         11    1    3    3    0    0  0.40470911372E+01 -0.38800605314E+01  0.11346283459E+01  0.57202445878E+01  0.51100000000E-03 0. -1.
        -11    1    3    3    0    0  0.17839906951E+02 -0.44761439761E+01  0.29395319621E+01  0.18626298433E+02  0.51100000000E-03 0.  1.
        -12    1    3    3    0    0  0.16726727437E+02 -0.11404492612E+02  0.80752661064E+01  0.21795774480E+02  0.00000000000E+00 0.  1.
</event>
<event>
 7    1  0.1385632E-008  0.4614232E+02  0.7816164E-02  0.1320468E+00
        -11   -1    0    0    0    0  0.00000000000E+00  0.00000000000E+00  0.45593999997E+02  0.45594000000E+02  0.51100000000E-03 0.  1.
         11   -1    0    0    0    0 -0.00000000000E+00 -0.00000000000E+00 -0.45593999997E+02  0.45594000000E+02  0.51100000000E-03 0. -1.
    9900012    2    1    2    0    0  0.44856380155E+01  0.37100033306E+02  0.25151142272E+02  0.46142318994E+02  0.10000011243E+02 0.  0.
         12    1    1    2    0    0 -0.44856380155E+01 -0.37100033306E+02 -0.25151142272E+02  0.45045681006E+02  0.00000000000E+00 0. -1.
         11    1    3    3    0    0  0.37572966118E+01  0.13170104435E+02  0.14314838299E+02  0.19811196946E+02  0.51100000000E-03 0. -1.
        -11    1    3    3    0    0  0.22933016093E+00  0.14380782687E+02  0.73622296428E+01  0.16157410949E+02  0.51100000000E-03 0.  1.
         12    1    3    3    0    0  0.49901124272E+00  0.95491461845E+01  0.34740743310E+01  0.10173711099E+02  0.00000000000E+00 0. -1.
</event>
<event>
 7    1  0.1385632E-008  0.4614232E+02  0.7816164E-02  0.1320468E+00
        -11   -1    0    0    0    0  0.00000000000E+00  0.00000000000E+00  0.45593999997E+02  0.45594000000E+02  0.51100000000E-03 0. -1.
         11   -1    0    0    0    0 -0.00000000000E+00 -0.00000000000E+00 -0.45593999997E+02  0.45594000000E+02  0.51100000000E-03 0.  1.
    9900012    2    1    2    0    0  0.34696455110E+02 -0.28584120050E+02  0.28666370382E+01  0.46142317364E+02  0.99999963791E+01 0.  0.
         12    1    1    2    0    0 -0.34696455110E+02  0.28584120050E+02 -0.28666370382E+01  0.45045682636E+02  0.00000000000E+00 0. -1.
         11    1    3    3    0    0  0.11878772625E+01 -0.19095023821E+01 -0.18331055867E+01  0.29012976564E+01  0.51100000000E-03 0. -1.
        -11    1    3    3    0    0  0.11221649318E+02 -0.10616285835E+02  0.28574604561E+01  0.15709742801E+02  0.51100000000E-03 0.  1.
         12    1    3    3    0    0  0.22286928530E+02 -0.16058331833E+02  0.18422821687E+01  0.27531276907E+02  0.00000000000E+00 0. -1.
</event>
<event>
 7    1  0.1385632E-008  0.4614231E+02  0.7816164E-02  0.1320468E+00
        -11   -1    0    0    0    0  0.00000000000E+00  0.00000000000E+00  0.45593999997E+02  0.45594000000E+02  0.51100000000E-03 0. -1.
         11   -1    0    0    0    0 -0.00000000000E+00 -0.00000000000E+00 -0.45593999997E+02  0.45594000000E+02  0.51100000000E-03 0.  1.
    9900012    2    1    2    0    0  0.27558334958E+02 -0.21491774954E+02 -0.28421040111E+02  0.46142314998E+02  0.99999748045E+01 0.  0.
         12    1    1    2    0    0 -0.27558334958E+02  0.21491774954E+02  0.28421040111E+02  0.45045685002E+02  0.00000000000E+00 0. -1.
         11    1    3    3    0    0  0.30857329772E+01 -0.90324447803E+00 -0.14129842975E-01  0.32152447041E+01  0.51100000000E-03 0. -1.
        -11    1    3    3    0    0  0.12022252466E+02 -0.93722335145E+01 -0.11261216678E+02  0.18952264159E+02  0.51100000000E-03 0.  1.
         12    1    3    3    0    0  0.12450349515E+02 -0.11216296961E+02 -0.17145693589E+02  0.23974806135E+02  0.00000000000E+00 0. -1.
</event>
<event>
 7    1  0.1385632E-008  0.4614232E+02  0.7816164E-02  0.1320468E+00
        -11   -1    0    0    0    0  0.00000000000E+00  0.00000000000E+00  0.45593999997E+02  0.45594000000E+02  0.51100000000E-03 0. -1.
         11   -1    0    0    0    0 -0.00000000000E+00 -0.00000000000E+00 -0.45593999997E+02  0.45594000000E+02  0.51100000000E-03 0.  1.
    9900012    2    1    2    0    0 -0.37907015698E+02 -0.17277652861E+02 -0.17136333128E+02  0.46142322732E+02  0.10000045324E+02 0.  0.
         12    1    1    2    0    0  0.37907015698E+02  0.17277652861E+02  0.17136333128E+02  0.45045677268E+02  0.00000000000E+00 0. -1.
         11    1    3    3    0    0 -0.11512820323E+02 -0.42458865591E+01 -0.69146149729E+01  0.14084902731E+02  0.51100000000E-03 0. -1.
        -11    1    3    3    0    0 -0.22438414038E+02 -0.84297663629E+01 -0.61387332580E+01  0.24743230018E+02  0.51100000000E-03 0.  1.
        -12    1    3    3    0    0 -0.39557813375E+01 -0.46019999394E+01 -0.40829848966E+01  0.73141899824E+01  0.00000000000E+00 0.  1.
</event>
<event>
 7    1  0.1385632E-008  0.4614232E+02  0.7816164E-02  0.1320468E+00
        -11   -1    0    0    0    0  0.00000000000E+00  0.00000000000E+00  0.45593999997E+02  0.45594000000E+02  0.51100000000E-03 0. -1.
         11   -1    0    0    0    0 -0.00000000000E+00 -0.00000000000E+00 -0.45593999997E+02  0.45594000000E+02  0.51100000000E-03 0.  1.
    9900012    2    1    2    0    0 -0.40104432402E+02  0.88368998155E+01 -0.18511001890E+02  0.46142317770E+02  0.10000000077E+02 0.  0.
         12    1    1    2    0    0  0.40104432402E+02 -0.88368998155E+01  0.18511001890E+02  0.45045682230E+02  0.00000000000E+00 0. -1.
         11    1    3    3    0    0 -0.83563756905E+01  0.34832155845E+01 -0.15798542853E+01  0.91900895161E+01  0.51100000000E-03 0.  1.
        -11    1    3    3    0    0 -0.63534198742E+00  0.51006774834E-01 -0.18811877428E+01  0.19862348091E+01  0.51100000000E-03 0. -1.
         12    1    3    3    0    0 -0.31112714724E+02  0.53026774561E+01 -0.15049959861E+02  0.34965993444E+02  0.00000000000E+00 0. -1.
</event>
<event>
 7    1  0.1385632E-008  0.4614232E+02  0.7816164E-02  0.1320468E+00
        -11   -1    0    0    0    0  0.00000000000E+00  0.00000000000E+00  0.45593999997E+02  0.45594000000E+02  0.51100000000E-03 0. -1.
         11   -1    0    0    0    0 -0.00000000000E+00 -0.00000000000E+00 -0.45593999997E+02  0.45594000000E+02  0.51100000000E-03 0.  1.
    9900012    2    1    2    0    0 -0.44937261523E+02 -0.31214805325E+01  0.11141096778E+00  0.46142317340E+02  0.99999961606E+01 0.  0.
         12    1    1    2    0    0  0.44937261523E+02  0.31214805325E+01 -0.11141096778E+00  0.45045682660E+02  0.00000000000E+00 0. -1.
         11    1    3    3    0    0 -0.21874081638E+01 -0.20097944609E+01  0.15514755619E+01  0.33512840719E+01  0.51100000000E-03 0. -1.
        -11    1    3    3    0    0 -0.17182210829E+02 -0.54971543618E+00 -0.37727910068E+00  0.17195141634E+02  0.51100000000E-03 0.  1.
         12    1    3    3    0    0 -0.25567642530E+02 -0.56197063536E+00 -0.10627854934E+01  0.25595891634E+02  0.00000000000E+00 0. -1.
</event>
<event>
 7    1  0.1385632E-008  0.4614232E+02  0.7816164E-02  0.1320468E+00
        -11   -1    0    0    0    0  0.00000000000E+00  0.00000000000E+00  0.45593999997E+02  0.45594000000E+02  0.51100000000E-03 0.  1.
         11   -1    0    0    0    0 -0.00000000000E+00 -0.00000000000E+00 -0.45593999997E+02  0.45594000000E+02  0.51100000000E-03 0. -1.
    9900012    2    1    2    0    0 -0.35798265636E+02 -0.22659251853E+02 -0.15302153616E+02  0.46142318494E+02  0.10000006682E+02 0.  0.
         12    1    1    2    0    0  0.35798265636E+02  0.22659251853E+02  0.15302153616E+02  0.45045681506E+02  0.00000000000E+00 0. -1.
         11    1    3    3    0    0 -0.22163572851E+02 -0.14292042240E+02 -0.11520715912E+02  0.28778695737E+02  0.51100000000E-03 0. -1.
        -11    1    3    3    0    0 -0.10053561389E+02 -0.70086183578E+01 -0.41201975041E+00  0.12262323940E+02  0.51100000000E-03 0.  1.
         12    1    3    3    0    0 -0.35811313957E+01 -0.13585912550E+01 -0.33694179534E+01  0.51012988166E+01  0.00000000000E+00 0. -1.
</event>
<event>
 7    1  0.1385632E-008  0.4614232E+02  0.7816164E-02  0.1320468E+00
        -11   -1    0    0    0    0  0.00000000000E+00  0.00000000000E+00  0.45593999997E+02  0.45594000000E+02  0.51100000000E-03 0.  1.
         11   -1    0    0    0    0 -0.00000000000E+00 -0.00000000000E+00 -0.45593999997E+02  0.45594000000E+02  0.51100000000E-03 0. -1.
    9900012    2    1    2    0    0 -0.18956589766E+02 -0.40795436178E+02  0.23438475797E+01  0.46142317299E+02  0.99999957882E+01 0.  0.
         12    1    1    2    0    0  0.18956589766E+02  0.40795436178E+02 -0.23438475797E+01  0.45045682701E+02  0.00000000000E+00 0. -1.
         11    1    3    3    0    0 -0.63696574297E+01 -0.13474848205E+02 -0.27979546358E+01  0.15164848180E+02  0.51100000000E-03 0. -1.
        -11    1    3    3    0    0 -0.11909380701E+02 -0.21005900599E+02  0.33480083559E+01  0.24378071475E+02  0.51100000000E-03 0.  1.
        -12    1    3    3    0    0 -0.67755163566E+00 -0.63146873740E+01  0.17937938596E+01  0.65993976438E+01  0.00000000000E+00 0.  1.
</event>
<event>
 7    1  0.1385632E-008  0.4614232E+02  0.7816164E-02  0.1320468E+00
        -11   -1    0    0    0    0  0.00000000000E+00  0.00000000000E+00  0.45593999997E+02  0.45594000000E+02  0.51100000000E-03 0.  1.
         11   -1    0    0    0    0 -0.00000000000E+00 -0.00000000000E+00 -0.45593999997E+02  0.45594000000E+02  0.51100000000E-03 0. -1.
    9900012    2    1    2    0    0 -0.11891490762E+02  0.91211664466E+01  0.42479528374E+02  0.46142316957E+02  0.99999926705E+01 0.  0.
         12    1    1    2    0    0  0.11891490762E+02 -0.91211664466E+01 -0.42479528374E+02  0.45045683043E+02  0.00000000000E+00 0. -1.
         11    1    3    3    0    0 -0.40673328899E+00 -0.65185634985E+00  0.71432816717E+01  0.71844848090E+01  0.51100000000E-03 0. -1.
        -11    1    3    3    0    0 -0.11196408881E+02  0.86149606676E+01  0.26399833082E+02  0.29942082529E+02  0.51100000000E-03 0.  1.
        -12    1    3    3    0    0 -0.28834859147E+00  0.11580621288E+01  0.89364136203E+01  0.90157496193E+01  0.00000000000E+00 0.  1.
</event>
<event>
 7    1  0.1385632E-008  0.4614232E+02  0.7816164E-02  0.1320468E+00
        -11   -1    0    0    0    0  0.00000000000E+00  0.00000000000E+00  0.45593999997E+02  0.45594000000E+02  0.51100000000E-03 0.  1.
         11   -1    0    0    0    0 -0.00000000000E+00 -0.00000000000E+00 -0.45593999997E+02  0.45594000000E+02  0.51100000000E-03 0. -1.
    9900012    2    1    2    0    0  0.39100203971E+02 -0.29681991814E+01  0.22169289001E+02  0.46142317279E+02  0.99999956077E+01 0.  0.
         12    1    1    2    0    0 -0.39100203971E+02  0.29681991814E+01 -0.22169289001E+02  0.45045682721E+02  0.00000000000E+00 0. -1.
         11    1    3    3    0    0  0.16321876432E+02 -0.40417572722E+00  0.12999335614E+02  0.20869828340E+02  0.51100000000E-03 0. -1.
        -11    1    3    3    0    0  0.22504502683E+02 -0.27514709661E+01  0.79773608320E+01  0.24034590065E+02  0.51100000000E-03 0.  1.
        -12    1    3    3    0    0  0.27382485631E+00  0.18744751199E+00  0.11925925547E+01  0.12378988744E+01  0.00000000000E+00 0.  1.
</event>
<event>
 7    1  0.1385632E-008  0.4614232E+02  0.7816164E-02  0.1320468E+00
        -11   -1    0    0    0    0  0.00000000000E+00  0.00000000000E+00  0.45593999997E+02  0.45594000000E+02  0.51100000000E-03 0.  1.
         11   -1    0    0    0    0 -0.00000000000E+00 -0.00000000000E+00 -0.45593999997E+02  0.45594000000E+02  0.51100000000E-03 0. -1.
    9900012    2    1    2    0    0  0.98041207055E+01  0.23322676043E+02  0.37269900256E+02  0.46142318013E+02  0.10000002293E+02 0.  0.
         12    1    1    2    0    0 -0.98041207055E+01 -0.23322676043E+02 -0.37269900256E+02  0.45045681987E+02  0.00000000000E+00 0. -1.
         11    1    3    3    0    0  0.71208817489E-01  0.26420013594E+01  0.20297839388E+01  0.33324562980E+01  0.51100000000E-03 0. -1.
        -11    1    3    3    0    0  0.73172092646E+01  0.65871269932E+01  0.11985617805E+02  0.15510861609E+02  0.51100000000E-03 0.  1.
        -12    1    3    3    0    0  0.24157026234E+01  0.14093547691E+02  0.23254498513E+02  0.27299000105E+02  0.00000000000E+00 0.  1.
</event>
<event>
 7    1  0.1385632E-008  0.4614232E+02  0.7816164E-02  0.1320468E+00
        -11   -1    0    0    0    0  0.00000000000E+00  0.00000000000E+00  0.45593999997E+02  0.45594000000E+02  0.51100000000E-03 0.  1.
         11   -1    0    0    0    0 -0.00000000000E+00 -0.00000000000E+00 -0.45593999997E+02  0.45594000000E+02  0.51100000000E-03 0. -1.
    9900012    2    1    2    0    0 -0.14946396382E+02  0.14201113477E+02  0.40050556848E+02  0.46142317714E+02  0.99999995671E+01 0.  0.
         12    1    1    2    0    0  0.14946396382E+02 -0.14201113477E+02 -0.40050556848E+02  0.45045682286E+02  0.00000000000E+00 0. -1.
         11    1    3    3    0    0 -0.38185781148E+00 -0.55116243793E+00  0.35648230888E+00  0.75939141346E+00  0.51100000000E-03 0. -1.
        -11    1    3    3    0    0 -0.13530285356E+02  0.95807965089E+01  0.32224154538E+02  0.36238879943E+02  0.51100000000E-03 0.  1.
        -12    1    3    3    0    0 -0.10342532142E+01  0.51714794057E+01  0.74699200010E+01  0.91440463568E+01  0.00000000000E+00 0.  1.
</event>
<event>
 7    1  0.1385632E-008  0.4614232E+02  0.7816164E-02  0.1320468E+00
        -11   -1    0    0    0    0  0.00000000000E+00  0.00000000000E+00  0.45593999997E+02  0.45594000000E+02  0.51100000000E-03 0.  1.
         11   -1    0    0    0    0 -0.00000000000E+00 -0.00000000000E+00 -0.45593999997E+02  0.45594000000E+02  0.51100000000E-03 0. -1.
    9900012    2    1    2    0    0  0.89773542950E+01 -0.32813871772E+02  0.29525757145E+02  0.46142318678E+02  0.10000008361E+02 0.  0.
         12    1    1    2    0    0 -0.89773542950E+01  0.32813871772E+02 -0.29525757145E+02  0.45045681322E+02  0.00000000000E+00 0. -1.
         11    1    3    3    0    0  0.46595045126E+01 -0.36718100047E+01  0.56294053389E+01  0.81782257088E+01  0.51100000000E-03 0. -1.
        -11    1    3    3    0    0  0.30356092723E+01 -0.15966804351E+02  0.12690850814E+02  0.20620656136E+02  0.51100000000E-03 0.  1.
         12    1    3    3    0    0  0.12822405102E+01 -0.13175257416E+02  0.11205500992E+02  0.17343436833E+02  0.00000000000E+00 0. -1.
</event>
<event>
 7    1  0.1385632E-008  0.4614232E+02  0.7816164E-02  0.1320468E+00
        -11   -1    0    0    0    0  0.00000000000E+00  0.00000000000E+00  0.45593999997E+02  0.45594000000E+02  0.51100000000E-03 0.  1.
         11   -1    0    0    0    0 -0.00000000000E+00 -0.00000000000E+00 -0.45593999997E+02  0.45594000000E+02  0.51100000000E-03 0. -1.
    9900012    2    1    2    0    0 -0.60927923645E+01  0.92722547029E+01  0.43657949589E+02  0.46142318871E+02  0.10000010123E+02 0.  0.
         12    1    1    2    0    0  0.60927923645E+01 -0.92722547029E+01 -0.43657949589E+02  0.45045681129E+02  0.00000000000E+00 0. -1.
         11    1    3    3    0    0  0.17936336108E+01  0.11757182782E+01  0.87275005935E+01  0.89871409175E+01  0.51100000000E-03 0. -1.
        -11    1    3    3    0    0 -0.73530475071E+01  0.64744339843E+01  0.33574492973E+02  0.34974736336E+02  0.51100000000E-03 0.  1.
        -12    1    3    3    0    0 -0.53337846821E+00  0.16221024403E+01  0.13559560218E+01  0.21804416182E+01  0.00000000000E+00 0.  1.
</event>
<event>
 7    1  0.1385632E-008  0.4614232E+02  0.7816164E-02  0.1320468E+00
        -11   -1    0    0    0    0  0.00000000000E+00  0.00000000000E+00  0.45593999997E+02  0.45594000000E+02  0.51100000000E-03 0.  1.
         11   -1    0    0    0    0 -0.00000000000E+00 -0.00000000000E+00 -0.45593999997E+02  0.45594000000E+02  0.51100000000E-03 0. -1.
    9900012    2    1    2    0    0 -0.29801822852E+02 -0.55768450707E+01  0.33314615314E+02  0.46142318301E+02  0.10000004922E+02 0.  0.
         12    1    1    2    0    0  0.29801822852E+02  0.55768450707E+01 -0.33314615314E+02  0.45045681699E+02  0.00000000000E+00 0. -1.
         11    1    3    3    0    0 -0.46928061795E+01  0.23001909011E+00  0.40712126149E+01  0.62169213472E+01  0.51100000000E-03 0. -1.
        -11    1    3    3    0    0 -0.20355367192E+02 -0.70069851013E+01  0.27005457454E+02  0.34535974668E+02  0.51100000000E-03 0.  1.
        -12    1    3    3    0    0 -0.47536494802E+01  0.12001209405E+01  0.22379452454E+01  0.53894222858E+01  0.00000000000E+00 0.  1.
</event>
<event>
 7    1  0.1385632E-008  0.4614232E+02  0.7816164E-02  0.1320468E+00
        -11   -1    0    0    0    0  0.00000000000E+00  0.00000000000E+00  0.45593999997E+02  0.45594000000E+02  0.51100000000E-03 0. -1.
         11   -1    0    0    0    0 -0.00000000000E+00 -0.00000000000E+00 -0.45593999997E+02  0.45594000000E+02  0.51100000000E-03 0.  1.
    9900012    2    1    2    0    0 -0.11207335147E+01  0.10471661754E+02 -0.43797277224E+02  0.46142320565E+02  0.10000025566E+02 0.  0.
         12    1    1    2    0    0  0.11207335147E+01 -0.10471661754E+02  0.43797277224E+02  0.45045679435E+02  0.00000000000E+00 0. -1.
         11    1    3    3    0    0  0.28326519883E+01  0.49438524897E+01 -0.10157253477E+02  0.11646260910E+02  0.51100000000E-03 0. -1.
        -11    1    3    3    0    0 -0.21226249919E+01  0.52159211430E+01 -0.27915555015E+02  0.28477878824E+02  0.51100000000E-03 0.  1.
         12    1    3    3    0    0 -0.18307605111E+01  0.31188812166E+00 -0.57244687323E+01  0.60181808312E+01  0.00000000000E+00 0. -1.
</event>
<event>
 7    1  0.1385632E-008  0.4614232E+02  0.7816164E-02  0.1320468E+00
        -11   -1    0    0    0    0  0.00000000000E+00  0.00000000000E+00  0.45593999997E+02  0.45594000000E+02  0.51100000000E-03 0.  1.
         11   -1    0    0    0    0 -0.00000000000E+00 -0.00000000000E+00 -0.45593999997E+02  0.45594000000E+02  0.51100000000E-03 0. -1.
    9900012    2    1    2    0    0  0.27896352120E+02 -0.12896681055E+01  0.35344641605E+02  0.46142318791E+02  0.10000009392E+02 0.  0.
         12    1    1    2    0    0 -0.27896352120E+02  0.12896681055E+01 -0.35344641605E+02  0.45045681209E+02  0.00000000000E+00 0. -1.
         11    1    3    3    0    0  0.97589497640E+01  0.34563363326E+01  0.16440398401E+02  0.19428588760E+02  0.51100000000E-03 0. -1.
        -11    1    3    3    0    0  0.17022421881E+02 -0.38812224544E+01  0.17336242158E+02  0.24604309111E+02  0.51100000000E-03 0.  1.
         12    1    3    3    0    0  0.11149804752E+01 -0.86478198375E+00  0.15680010455E+01  0.21094209201E+01  0.00000000000E+00 0. -1.
</event>
<event>
 7    1  0.1385632E-008  0.4614232E+02  0.7816164E-02  0.1320468E+00
        -11   -1    0    0    0    0  0.00000000000E+00  0.00000000000E+00  0.45593999997E+02  0.45594000000E+02  0.51100000000E-03 0.  1.
         11   -1    0    0    0    0 -0.00000000000E+00 -0.00000000000E+00 -0.45593999997E+02  0.45594000000E+02  0.51100000000E-03 0. -1.
    9900012    2    1    2    0    0  0.20615383762E+02  0.37209869728E+02  0.14817048653E+02  0.46142318924E+02  0.10000010603E+02 0.  0.
         12    1    1    2    0    0 -0.20615383762E+02 -0.37209869728E+02 -0.14817048653E+02  0.45045681076E+02  0.00000000000E+00 0. -1.
         11    1    3    3    0    0  0.11057375298E+02  0.28698614043E+02  0.11707591865E+02  0.32908110003E+02  0.51100000000E-03 0. -1.
        -11    1    3    3    0    0  0.64921459231E+01  0.61477199948E+01  0.27088081021E+01  0.93423798583E+01  0.51100000000E-03 0.  1.
         12    1    3    3    0    0  0.30658625409E+01  0.23635356903E+01  0.40064868602E+00  0.38918290621E+01  0.00000000000E+00 0. -1.
</event>
<event>
 7    1  0.1385632E-008  0.4614232E+02  0.7816164E-02  0.1320468E+00
        -11   -1    0    0    0    0  0.00000000000E+00  0.00000000000E+00  0.45593999997E+02  0.45594000000E+02  0.51100000000E-03 0. -1.
         11   -1    0    0    0    0 -0.00000000000E+00 -0.00000000000E+00 -0.45593999997E+02  0.45594000000E+02  0.51100000000E-03 0.  1.
    9900012    2    1    2    0    0  0.15408726755E+02  0.40028052911E+02 -0.13763707695E+02  0.46142317304E+02  0.99999958309E+01 0.  0.
         12    1    1    2    0    0 -0.15408726755E+02 -0.40028052911E+02  0.13763707695E+02  0.45045682696E+02  0.00000000000E+00 0. -1.
         11    1    3    3    0    0  0.98640799169E+01  0.20328675621E+02 -0.92724631789E+01  0.24424039362E+02  0.51100000000E-03 0. -1.
        -11    1    3    3    0    0  0.53188395318E+01  0.15888496433E+02 -0.14136345405E+01  0.16814658360E+02  0.51100000000E-03 0.  1.
         12    1    3    3    0    0  0.22580730607E+00  0.38108808564E+01 -0.30776099752E+01  0.49036195816E+01  0.00000000000E+00 0. -1.
</event>
<event>
 7    1  0.1385632E-008  0.4614232E+02  0.7816164E-02  0.1320468E+00
        -11   -1    0    0    0    0  0.00000000000E+00  0.00000000000E+00  0.45593999997E+02  0.45594000000E+02  0.51100000000E-03 0. -1.
         11   -1    0    0    0    0 -0.00000000000E+00 -0.00000000000E+00 -0.45593999997E+02  0.45594000000E+02  0.51100000000E-03 0.  1.
    9900012    2    1    2    0    0  0.34322773598E+02 -0.25781013862E+02 -0.13652838920E+02  0.46142317923E+02  0.10000001474E+02 0.  0.
         12    1    1    2    0    0 -0.34322773598E+02  0.25781013862E+02  0.13652838920E+02  0.45045682077E+02  0.00000000000E+00 0. -1.
         11    1    3    3    0    0  0.15534715319E+02 -0.11246182638E+02 -0.96158395210E+01  0.21453866176E+02  0.51100000000E-03 0. -1.
        -11    1    3    3    0    0  0.34924496558E+01 -0.56252591086E+01 -0.52413687300E+00  0.66419473319E+01  0.51100000000E-03 0.  1.
         12    1    3    3    0    0  0.15295608624E+02 -0.89095721159E+01 -0.35128625257E+01  0.18046504415E+02  0.00000000000E+00 0. -1.
</event>
<event>
 7    1  0.1385632E-008  0.4614232E+02  0.7816164E-02  0.1320468E+00
        -11   -1    0    0    0    0  0.00000000000E+00  0.00000000000E+00  0.45593999997E+02  0.45594000000E+02  0.51100000000E-03 0.  1.
         11   -1    0    0    0    0 -0.00000000000E+00 -0.00000000000E+00 -0.45593999997E+02  0.45594000000E+02  0.51100000000E-03 0. -1.
    9900012    2    1    2    0    0 -0.41132466574E+02  0.14395691490E+02  0.11401658822E+02  0.46142316924E+02  0.99999923638E+01 0.  0.
         12    1    1    2    0    0  0.41132466574E+02 -0.14395691490E+02 -0.11401658822E+02  0.45045683076E+02  0.00000000000E+00 0. -1.
         11    1    3    3    0    0 -0.60833184291E+01  0.29404677560E+01  0.36464444055E+00  0.67665411817E+01  0.51100000000E-03 0. -1.
        -11    1    3    3    0    0 -0.18326170990E+02  0.21609150824E+01  0.75015846610E+01  0.19919635284E+02  0.51100000000E-03 0.  1.
        -12    1    3    3    0    0 -0.16722977154E+02  0.92943086517E+01  0.35354297207E+01  0.19456140458E+02  0.00000000000E+00 0.  1.
</event>
<event>
 7    1  0.1385632E-008  0.4614232E+02  0.7816164E-02  0.1320468E+00
        -11   -1    0    0    0    0  0.00000000000E+00  0.00000000000E+00  0.45593999997E+02  0.45594000000E+02  0.51100000000E-03 0.  1.
         11   -1    0    0    0    0 -0.00000000000E+00 -0.00000000000E+00 -0.45593999997E+02  0.45594000000E+02  0.51100000000E-03 0. -1.
    9900012    2    1    2    0    0  0.19310495911E+02  0.13949399478E+02  0.38231301840E+02  0.46142318314E+02  0.10000005045E+02 0.  0.
         12    1    1    2    0    0 -0.19310495911E+02 -0.13949399478E+02 -0.38231301840E+02  0.45045681686E+02  0.00000000000E+00 0. -1.
         11    1    3    3    0    0  0.33570920109E+01 -0.69605552404E+00  0.39897078156E+01  0.52604494843E+01  0.51100000000E-03 0. -1.
        -11    1    3    3    0    0  0.94179872070E+01  0.11034659302E+02  0.25903730346E+02  0.29689483576E+02  0.51100000000E-03 0.  1.
        -12    1    3    3    0    0  0.65354166931E+01  0.36107957002E+01  0.83378636791E+01  0.11192385254E+02  0.00000000000E+00 0.  1.
</event>
<event>
 7    1  0.1385632E-008  0.4614232E+02  0.7816164E-02  0.1320468E+00
        -11   -1    0    0    0    0  0.00000000000E+00  0.00000000000E+00  0.45593999997E+02  0.45594000000E+02  0.51100000000E-03 0. -1.
         11   -1    0    0    0    0 -0.00000000000E+00 -0.00000000000E+00 -0.45593999997E+02  0.45594000000E+02  0.51100000000E-03 0.  1.
    9900012    2    1    2    0    0 -0.40825029292E+02  0.17201990936E+02 -0.81561041100E+01  0.46142317153E+02  0.99999944582E+01 0.  0.
         12    1    1    2    0    0  0.40825029292E+02 -0.17201990936E+02  0.81561041100E+01  0.45045682847E+02  0.00000000000E+00 0. -1.
         11    1    3    3    0    0 -0.57660681767E+01  0.60596467651E+00 -0.58176800448E-01  0.57981135043E+01  0.51100000000E-03 0. -1.
        -11    1    3    3    0    0 -0.17400830893E+02  0.41146521109E+01 -0.42802375757E+01  0.18385856296E+02  0.51100000000E-03 0.  1.
        -12    1    3    3    0    0 -0.17658130222E+02  0.12481374148E+02 -0.38176897338E+01  0.21958347353E+02  0.00000000000E+00 0.  1.
</event>
<event>
 7    1  0.1385632E-008  0.4614232E+02  0.7816164E-02  0.1320468E+00
        -11   -1    0    0    0    0  0.00000000000E+00  0.00000000000E+00  0.45593999997E+02  0.45594000000E+02  0.51100000000E-03 0. -1.
         11   -1    0    0    0    0 -0.00000000000E+00 -0.00000000000E+00 -0.45593999997E+02  0.45594000000E+02  0.51100000000E-03 0.  1.
    9900012    2    1    2    0    0 -0.10612556209E+02  0.43774629594E+02 -0.51860998887E+00  0.46142317613E+02  0.99999986527E+01 0.  0.
         12    1    1    2    0    0  0.10612556209E+02 -0.43774629594E+02  0.51860998887E+00  0.45045682387E+02  0.00000000000E+00 0. -1.
         11    1    3    3    0    0 -0.10994882698E+01  0.16970467135E+02  0.16896616219E+01  0.17089780159E+02  0.51100000000E-03 0. -1.
        -11    1    3    3    0    0 -0.68223925476E+01  0.24295550758E+02 -0.13291594949E+01  0.25270249147E+02  0.51100000000E-03 0.  1.
        -12    1    3    3    0    0 -0.26906753918E+01  0.25086117008E+01 -0.87911211583E+00  0.37822883076E+01  0.00000000000E+00 0.  1.
</event>
<event>
 7    1  0.1385632E-008  0.4614232E+02  0.7816164E-02  0.1320468E+00
        -11   -1    0    0    0    0  0.00000000000E+00  0.00000000000E+00  0.45593999997E+02  0.45594000000E+02  0.51100000000E-03 0.  1.
         11   -1    0    0    0    0 -0.00000000000E+00 -0.00000000000E+00 -0.45593999997E+02  0.45594000000E+02  0.51100000000E-03 0. -1.
    9900012    2    1    2    0    0 -0.14843998609E+02 -0.17361065240E+02  0.38824767303E+02  0.46142318330E+02  0.10000005188E+02 0.  0.
         12    1    1    2    0    0  0.14843998609E+02  0.17361065240E+02 -0.38824767303E+02  0.45045681670E+02  0.00000000000E+00 0. -1.
         11    1    3    3    0    0  0.66865230746E+00  0.36331803984E+00  0.36359189870E+00  0.84338320843E+00  0.51100000000E-03 0. -1.
        -11    1    3    3    0    0 -0.15304139915E+02 -0.16542911818E+02  0.34926017443E+02  0.41565747012E+02  0.51100000000E-03 0.  1.
        -12    1    3    3    0    0 -0.20851100169E+00 -0.11814714620E+01  0.35351579613E+01  0.37331881100E+01  0.00000000000E+00 0.  1.
</event>
<event>
 7    1  0.1385632E-008  0.4614232E+02  0.7816164E-02  0.1320468E+00
        -11   -1    0    0    0    0  0.00000000000E+00  0.00000000000E+00  0.45593999997E+02  0.45594000000E+02  0.51100000000E-03 0.  1.
         11   -1    0    0    0    0 -0.00000000000E+00 -0.00000000000E+00 -0.45593999997E+02  0.45594000000E+02  0.51100000000E-03 0. -1.
    9900012    2    1    2    0    0 -0.40331017045E+02 -0.10319562994E+02  0.17205495323E+02  0.46142318902E+02  0.10000010402E+02 0.  0.
         12    1    1    2    0    0  0.40331017045E+02  0.10319562994E+02 -0.17205495323E+02  0.45045681098E+02  0.00000000000E+00 0. -1.
         11    1    3    3    0    0 -0.46567304026E+01  0.99428638701E+00  0.16277137093E+01  0.50322157786E+01  0.51100000000E-03 0. -1.
        -11    1    3    3    0    0 -0.15268695400E+02 -0.74604316369E+01  0.95180013828E+01  0.19477768096E+02  0.51100000000E-03 0.  1.
        -12    1    3    3    0    0 -0.20405591243E+02 -0.38534177439E+01  0.60597802306E+01  0.21632335027E+02  0.00000000000E+00 0.  1.
</event>
<event>
 7    1  0.1385632E-008  0.4614232E+02  0.7816164E-02  0.1320468E+00
        -11   -1    0    0    0    0  0.00000000000E+00  0.00000000000E+00  0.45593999997E+02  0.45594000000E+02  0.51100000000E-03 0.  1.
         11   -1    0    0    0    0 -0.00000000000E+00 -0.00000000000E+00 -0.45593999997E+02  0.45594000000E+02  0.51100000000E-03 0. -1.
    9900012    2    1    2    0    0 -0.23690018259E+02  0.31155373393E+02  0.22298863393E+02  0.46142316911E+02  0.99999922466E+01 0.  0.
         12    1    1    2    0    0  0.23690018259E+02 -0.31155373393E+02 -0.22298863393E+02  0.45045683089E+02  0.00000000000E+00 0. -1.
         11    1    3    3    0    0 -0.74559354928E+01  0.77634303849E+01  0.21930211131E+01  0.10985042889E+02  0.51100000000E-03 0. -1.
        -11    1    3    3    0    0 -0.46044852325E+01  0.34576797680E+01  0.42488257021E+01  0.71560711108E+01  0.51100000000E-03 0.  1.
         12    1    3    3    0    0 -0.11629597534E+02  0.19934263240E+02  0.15857016578E+02  0.28001202911E+02  0.00000000000E+00 0. -1.
</event>
<event>
 7    1  0.1385632E-008  0.4614232E+02  0.7816164E-02  0.1320468E+00
        -11   -1    0    0    0    0  0.00000000000E+00  0.00000000000E+00  0.45593999997E+02  0.45594000000E+02  0.51100000000E-03 0.  1.
         11   -1    0    0    0    0 -0.00000000000E+00 -0.00000000000E+00 -0.45593999997E+02  0.45594000000E+02  0.51100000000E-03 0. -1.
    9900012    2    1    2    0    0 -0.35982028752E+02 -0.20256656953E+02  0.18002082715E+02  0.46142317342E+02  0.99999961772E+01 0.  0.
         12    1    1    2    0    0  0.35982028752E+02  0.20256656953E+02 -0.18002082715E+02  0.45045682658E+02  0.00000000000E+00 0. -1.
         11    1    3    3    0    0 -0.18777122995E+02 -0.13283939544E+02  0.12496320141E+02  0.26176352212E+02  0.51100000000E-03 0. -1.
        -11    1    3    3    0    0 -0.15175071762E+02 -0.47122154479E+01  0.33457974867E+01  0.16238292352E+02  0.51100000000E-03 0.  1.
        -12    1    3    3    0    0 -0.20298339949E+01 -0.22605019620E+01  0.21599650870E+01  0.37276727786E+01  0.00000000000E+00 0.  1.
</event>
<event>
 7    1  0.1385632E-008  0.4614232E+02  0.7816164E-02  0.1320468E+00
        -11   -1    0    0    0    0  0.00000000000E+00  0.00000000000E+00  0.45593999997E+02  0.45594000000E+02  0.51100000000E-03 0.  1.
         11   -1    0    0    0    0 -0.00000000000E+00 -0.00000000000E+00 -0.45593999997E+02  0.45594000000E+02  0.51100000000E-03 0. -1.
    9900012    2    1    2    0    0  0.31539127097E+01 -0.38594233628E+02  0.23014156784E+02  0.46142318218E+02  0.10000004166E+02 0.  0.
         12    1    1    2    0    0 -0.31539127097E+01  0.38594233628E+02 -0.23014156784E+02  0.45045681782E+02  0.00000000000E+00 0. -1.
         11    1    3    3    0    0 -0.26845218746E+01 -0.72645855484E+01  0.56018377272E+01  0.95583182134E+01  0.51100000000E-03 0. -1.
        -11    1    3    3    0    0  0.88908758974E+00 -0.13161284774E+02  0.54344255323E+01  0.14266845299E+02  0.51100000000E-03 0.  1.
         12    1    3    3    0    0  0.49493469946E+01 -0.18168363305E+02  0.11977893525E+02  0.22317154706E+02  0.00000000000E+00 0. -1.
</event>
<event>
 7    1  0.1385632E-008  0.4614232E+02  0.7816164E-02  0.1320468E+00
        -11   -1    0    0    0    0  0.00000000000E+00  0.00000000000E+00  0.45593999997E+02  0.45594000000E+02  0.51100000000E-03 0.  1.
         11   -1    0    0    0    0 -0.00000000000E+00 -0.00000000000E+00 -0.45593999997E+02  0.45594000000E+02  0.51100000000E-03 0. -1.
    9900012    2    1    2    0    0 -0.10419143066E+02 -0.36358597617E+02  0.24466453106E+02  0.46142317737E+02  0.99999997827E+01 0.  0.
         12    1    1    2    0    0  0.10419143066E+02  0.36358597617E+02 -0.24466453106E+02  0.45045682263E+02  0.00000000000E+00 0. -1.
         11    1    3    3    0    0 -0.14660024281E+01 -0.94195020085E+01  0.10635102928E+02  0.14282212565E+02  0.51100000000E-03 0. -1.
        -11    1    3    3    0    0 -0.81925061021E+01 -0.21273384301E+02  0.12468277339E+02  0.25983301867E+02  0.51100000000E-03 0.  1.
         12    1    3    3    0    0 -0.76063453560E+00 -0.56657113080E+01  0.13630728390E+01  0.58768033051E+01  0.00000000000E+00 0. -1.
</event>
<event>
 7    1  0.1385632E-008  0.4614231E+02  0.7816164E-02  0.1320468E+00
        -11   -1    0    0    0    0  0.00000000000E+00  0.00000000000E+00  0.45593999997E+02  0.45594000000E+02  0.51100000000E-03 0. -1.
         11   -1    0    0    0    0 -0.00000000000E+00 -0.00000000000E+00 -0.45593999997E+02  0.45594000000E+02  0.51100000000E-03 0.  1.
    9900012    2    1    2    0    0 -0.96817099532E+01 -0.37513927249E+02  0.22980070452E+02  0.46142313378E+02  0.99999600276E+01 0.  0.
         12    1    1    2    0    0  0.96817099532E+01  0.37513927249E+02 -0.22980070452E+02  0.45045686622E+02  0.00000000000E+00 0. -1.
         11    1    3    3    0    0 -0.36318467038E+01 -0.13506132722E+02  0.30330632250E+01  0.14311023876E+02  0.51100000000E-03 0. -1.
        -11    1    3    3    0    0 -0.55203330373E+01 -0.22714738649E+02  0.18417833991E+02  0.29759872949E+02  0.51100000000E-03 0.  1.
         12    1    3    3    0    0 -0.52953021211E+00 -0.12930558782E+01  0.15291732363E+01  0.20714165531E+01  0.00000000000E+00 0. -1.
</event>
<event>
 7    1  0.1385632E-008  0.4614232E+02  0.7816164E-02  0.1320468E+00
        -11   -1    0    0    0    0  0.00000000000E+00  0.00000000000E+00  0.45593999997E+02  0.45594000000E+02  0.51100000000E-03 0.  1.
         11   -1    0    0    0    0 -0.00000000000E+00 -0.00000000000E+00 -0.45593999997E+02  0.45594000000E+02  0.51100000000E-03 0. -1.
    9900012    2    1    2    0    0  0.30082170389E+02 -0.28651867632E+02  0.17413987813E+02  0.46142318013E+02  0.10000002296E+02 0.  0.
         12    1    1    2    0    0 -0.30082170389E+02  0.28651867632E+02 -0.17413987813E+02  0.45045681987E+02  0.00000000000E+00 0. -1.
         11    1    3    3    0    0  0.10571805176E+02 -0.72576151695E+01  0.90333627110E+01  0.15685588442E+02  0.51100000000E-03 0. -1.
        -11    1    3    3    0    0  0.16579511123E+02 -0.16091797840E+02  0.77294050776E+01  0.24363288979E+02  0.51100000000E-03 0.  1.
         12    1    3    3    0    0  0.29308540903E+01 -0.53024546226E+01  0.65122002475E+00  0.60934405916E+01  0.00000000000E+00 0. -1.
</event>
<event>
 7    1  0.1385632E-008  0.4614232E+02  0.7816164E-02  0.1320468E+00
        -11   -1    0    0    0    0  0.00000000000E+00  0.00000000000E+00  0.45593999997E+02  0.45594000000E+02  0.51100000000E-03 0. -1.
         11   -1    0    0    0    0 -0.00000000000E+00 -0.00000000000E+00 -0.45593999997E+02  0.45594000000E+02  0.51100000000E-03 0.  1.
    9900012    2    1    2    0    0  0.49634033378E+01  0.36648651947E+02 -0.25716812202E+02  0.46142317721E+02  0.99999996312E+01 0.  0.
         12    1    1    2    0    0 -0.49634033378E+01 -0.36648651947E+02  0.25716812202E+02  0.45045682279E+02  0.00000000000E+00 0. -1.
         11    1    3    3    0    0  0.25670483506E+00  0.78674884191E+01 -0.30170526204E+01  0.84300580171E+01  0.51100000000E-03 0. -1.
        -11    1    3    3    0    0 -0.61731999927E+00  0.12155421912E+02 -0.60652522349E+01  0.13598626797E+02  0.51100000000E-03 0.  1.
        -12    1    3    3    0    0  0.53240185020E+01  0.16625741615E+02 -0.16634507346E+02  0.24113632906E+02  0.00000000000E+00 0.  1.
</event>
<event>
 7    1  0.1385632E-008  0.4614232E+02  0.7816164E-02  0.1320468E+00
        -11   -1    0    0    0    0  0.00000000000E+00  0.00000000000E+00  0.45593999997E+02  0.45594000000E+02  0.51100000000E-03 0. -1.
         11   -1    0    0    0    0 -0.00000000000E+00 -0.00000000000E+00 -0.45593999997E+02  0.45594000000E+02  0.51100000000E-03 0.  1.
    9900012    2    1    2    0    0 -0.20549174257E+02 -0.38163198014E+02 -0.12264388646E+02  0.46142317918E+02  0.10000001435E+02 0.  0.
         12    1    1    2    0    0  0.20549174257E+02  0.38163198014E+02  0.12264388646E+02  0.45045682082E+02  0.00000000000E+00 0. -1.
         11    1    3    3    0    0 -0.17591010469E+02 -0.31618015755E+02 -0.10676084290E+02  0.37724280585E+02  0.51100000000E-03 0. -1.
        -11    1    3    3    0    0  0.94447003900E+00 -0.95615603261E+00 -0.77905627609E+00  0.15534435798E+01  0.51100000000E-03 0.  1.
         12    1    3    3    0    0 -0.39026338271E+01 -0.55890262261E+01 -0.80924807950E+00  0.68645937534E+01  0.00000000000E+00 0. -1.
</event>
<event>
 7    1  0.1385632E-008  0.4614232E+02  0.7816164E-02  0.1320468E+00
        -11   -1    0    0    0    0  0.00000000000E+00  0.00000000000E+00  0.45593999997E+02  0.45594000000E+02  0.51100000000E-03 0. -1.
         11   -1    0    0    0    0 -0.00000000000E+00 -0.00000000000E+00 -0.45593999997E+02  0.45594000000E+02  0.51100000000E-03 0.  1.
    9900012    2    1    2    0    0 -0.42554854557E+01  0.28667461032E+02 -0.34484503468E+02  0.46142318099E+02  0.10000003079E+02 0.  0.
         12    1    1    2    0    0  0.42554854557E+01 -0.28667461032E+02  0.34484503468E+02  0.45045681901E+02  0.00000000000E+00 0. -1.
         11    1    3    3    0    0 -0.41528335307E+01  0.72310172166E+01 -0.83255430927E+01  0.11783391039E+02  0.51100000000E-03 0. -1.
        -11    1    3    3    0    0 -0.30768666526E+01  0.11043649786E+02 -0.13217563534E+02  0.17496665254E+02  0.51100000000E-03 0.  1.
         12    1    3    3    0    0  0.29742147276E+01  0.10392794030E+02 -0.12941396842E+02  0.16862261806E+02  0.00000000000E+00 0. -1.
</event>
<event>
 7    1  0.1385632E-008  0.4614232E+02  0.7816164E-02  0.1320468E+00
        -11   -1    0    0    0    0  0.00000000000E+00  0.00000000000E+00  0.45593999997E+02  0.45594000000E+02  0.51100000000E-03 0.  1.
         11   -1    0    0    0    0 -0.00000000000E+00 -0.00000000000E+00 -0.45593999997E+02  0.45594000000E+02  0.51100000000E-03 0. -1.
    9900012    2    1    2    0    0 -0.30335764554E+02  0.21096594240E+02  0.25764095558E+02  0.46142317415E+02  0.99999968478E+01 0.  0.
         12    1    1    2    0    0  0.30335764554E+02 -0.21096594240E+02 -0.25764095558E+02  0.45045682585E+02  0.00000000000E+00 0. -1.
         11    1    3    3    0    0 -0.72591852359E+01  0.23379610958E+01  0.17702870419E+01  0.78291601623E+01  0.51100000000E-03 0. -1.
        -11    1    3    3    0    0 -0.16231668799E+02  0.14658830992E+02  0.18188238886E+02  0.28445745413E+02  0.51100000000E-03 0.  1.
         12    1    3    3    0    0 -0.68449105187E+01  0.40998021521E+01  0.58055696299E+01  0.98674118401E+01  0.00000000000E+00 0. -1.
</event>
<event>
 7    1  0.1385632E-008  0.4614232E+02  0.7816164E-02  0.1320468E+00
        -11   -1    0    0    0    0  0.00000000000E+00  0.00000000000E+00  0.45593999997E+02  0.45594000000E+02  0.51100000000E-03 0.  1.
         11   -1    0    0    0    0 -0.00000000000E+00 -0.00000000000E+00 -0.45593999997E+02  0.45594000000E+02  0.51100000000E-03 0. -1.
    9900012    2    1    2    0    0 -0.43436888461E+02 -0.11912208787E+02  0.67046870447E+00  0.46142317347E+02  0.99999962241E+01 0.  0.
         12    1    1    2    0    0  0.43436888461E+02  0.11912208787E+02 -0.67046870447E+00  0.45045682653E+02  0.00000000000E+00 0. -1.
         11    1    3    3    0    0 -0.35557153128E+01  0.62050764981E+00 -0.12699401304E+01  0.38263415066E+01  0.51100000000E-03 0. -1.
        -11    1    3    3    0    0 -0.32325499231E+02 -0.11180937796E+02 -0.66259790853E+00  0.34210967638E+02  0.51100000000E-03 0.  1.
         12    1    3    3    0    0 -0.75556739181E+01 -0.13517786403E+01  0.26030067434E+01  0.81050082021E+01  0.00000000000E+00 0. -1.
</event>
<event>
 7    1  0.1385632E-008  0.4614232E+02  0.7816164E-02  0.1320468E+00
        -11   -1    0    0    0    0  0.00000000000E+00  0.00000000000E+00  0.45593999997E+02  0.45594000000E+02  0.51100000000E-03 0.  1.
         11   -1    0    0    0    0 -0.00000000000E+00 -0.00000000000E+00 -0.45593999997E+02  0.45594000000E+02  0.51100000000E-03 0. -1.
    9900012    2    1    2    0    0 -0.25826009221E+02  0.14212112156E+01  0.36879680003E+02  0.46142318845E+02  0.10000009886E+02 0.  0.
         12    1    1    2    0    0  0.25826009221E+02 -0.14212112156E+01 -0.36879680003E+02  0.45045681155E+02  0.00000000000E+00 0. -1.
         11    1    3    3    0    0 -0.32128411185E+01  0.29291770958E+00  0.12027699745E+02  0.12452859521E+02  0.51100000000E-03 0. -1.
        -11    1    3    3    0    0 -0.21300631381E+02  0.11506483287E+01  0.24067000315E+02  0.32159934596E+02  0.51100000000E-03 0.  1.
        -12    1    3    3    0    0 -0.13125367215E+01 -0.22354822670E-01  0.78497994296E+00  0.15295247282E+01  0.00000000000E+00 0.  1.
</event>
<event>
 7    1  0.1385632E-008  0.4614232E+02  0.7816164E-02  0.1320468E+00
        -11   -1    0    0    0    0  0.00000000000E+00  0.00000000000E+00  0.45593999997E+02  0.45594000000E+02  0.51100000000E-03 0.  1.
         11   -1    0    0    0    0 -0.00000000000E+00 -0.00000000000E+00 -0.45593999997E+02  0.45594000000E+02  0.51100000000E-03 0. -1.
    9900012    2    1    2    0    0  0.93412724620E+01  0.22461150587E+02  0.37912409577E+02  0.46142318112E+02  0.10000003195E+02 0.  0.
         12    1    1    2    0    0 -0.93412724620E+01 -0.22461150587E+02 -0.37912409577E+02  0.45045681888E+02  0.00000000000E+00 0. -1.
         11    1    3    3    0    0  0.41141207856E+01  0.27824778471E+01  0.58569942571E+01  0.76793590095E+01  0.51100000000E-03 0. -1.
        -11    1    3    3    0    0 -0.29703851429E+00  0.81931865516E+01  0.15863606429E+02  0.17856946741E+02  0.51100000000E-03 0.  1.
        -12    1    3    3    0    0  0.55241901907E+01  0.11485486188E+02  0.16191808891E+02  0.20606012361E+02  0.00000000000E+00 0.  1.
</event>
<event>
 7    1  0.1385632E-008  0.4614231E+02  0.7816164E-02  0.1320468E+00
        -11   -1    0    0    0    0  0.00000000000E+00  0.00000000000E+00  0.45593999997E+02  0.45594000000E+02  0.51100000000E-03 0. -1.
         11   -1    0    0    0    0 -0.00000000000E+00 -0.00000000000E+00 -0.45593999997E+02  0.45594000000E+02  0.51100000000E-03 0.  1.
    9900012    2    1    2    0    0  0.15414658283E+02 -0.30016161751E+02 -0.29841787044E+02  0.46142313078E+02  0.99999572995E+01 0.  0.
         12    1    1    2    0    0 -0.15414658283E+02  0.30016161751E+02  0.29841787044E+02  0.45045686922E+02  0.00000000000E+00 0. -1.
         11    1    3    3    0    0  0.73838767496E+01 -0.83356164041E+01 -0.96132527569E+01  0.14711178251E+02  0.51100000000E-03 0.  1.
        -11    1    3    3    0    0  0.53489725075E+01 -0.10312354392E+02 -0.61711764474E+01  0.13154450920E+02  0.51100000000E-03 0. -1.
         12    1    3    3    0    0  0.26818090259E+01 -0.11368190954E+02 -0.14057357840E+02  0.18276683908E+02  0.00000000000E+00 0. -1.
</event>
<event>
 7    1  0.1385632E-008  0.4614232E+02  0.7816164E-02  0.1320468E+00
        -11   -1    0    0    0    0  0.00000000000E+00  0.00000000000E+00  0.45593999997E+02  0.45594000000E+02  0.51100000000E-03 0.  1.
         11   -1    0    0    0    0 -0.00000000000E+00 -0.00000000000E+00 -0.45593999997E+02  0.45594000000E+02  0.51100000000E-03 0. -1.
    9900012    2    1    2    0    0 -0.76703085896E+01  0.42199046011E+02 -0.13766637232E+02  0.46142318533E+02  0.10000007041E+02 0.  0.
         12    1    1    2    0    0  0.76703085896E+01 -0.42199046011E+02  0.13766637232E+02  0.45045681467E+02  0.00000000000E+00 0. -1.
         11    1    3    3    0    0 -0.35380576539E+01  0.65572189906E+01  0.42807720395E+00  0.74631242256E+01  0.51100000000E-03 0. -1.
        -11    1    3    3    0    0 -0.25136897839E+01  0.19187134439E+02 -0.90532744012E+01  0.21364141499E+02  0.51100000000E-03 0.  1.
         12    1    3    3    0    0 -0.16185611519E+01  0.16454692581E+02 -0.51414400346E+01  0.17315052809E+02  0.00000000000E+00 0. -1.
</event>
<event>
 7    1  0.1385632E-008  0.4614232E+02  0.7816164E-02  0.1320468E+00
        -11   -1    0    0    0    0  0.00000000000E+00  0.00000000000E+00  0.45593999997E+02  0.45594000000E+02  0.51100000000E-03 0.  1.
         11   -1    0    0    0    0 -0.00000000000E+00 -0.00000000000E+00 -0.45593999997E+02  0.45594000000E+02  0.51100000000E-03 0. -1.
    9900012    2    1    2    0    0  0.29745348434E+01  0.18229873538E+01  0.44910383864E+02  0.46142315199E+02  0.99999766356E+01 0.  0.
         12    1    1    2    0    0 -0.29745348434E+01 -0.18229873538E+01 -0.44910383864E+02  0.45045684801E+02  0.00000000000E+00 0. -1.
         11    1    3    3    0    0  0.32976944248E+01  0.45793815874E+00  0.49468275599E+01  0.59628515867E+01  0.51100000000E-03 0. -1.
        -11    1    3    3    0    0  0.90239870538E+00  0.23943620622E+01  0.24891687097E+02  0.25022857149E+02  0.51100000000E-03 0.  1.
         12    1    3    3    0    0 -0.12255582868E+01 -0.10293128671E+01  0.15071869207E+02  0.15156606463E+02  0.00000000000E+00 0. -1.
</event>
<event>
 7    1  0.1385632E-008  0.4614232E+02  0.7816164E-02  0.1320468E+00
        -11   -1    0    0    0    0  0.00000000000E+00  0.00000000000E+00  0.45593999997E+02  0.45594000000E+02  0.51100000000E-03 0. -1.
         11   -1    0    0    0    0 -0.00000000000E+00 -0.00000000000E+00 -0.45593999997E+02  0.45594000000E+02  0.51100000000E-03 0.  1.
    9900012    2    1    2    0    0 -0.20431984430E+02 -0.39698363368E+02 -0.59738478134E+01  0.46142324297E+02  0.10000059600E+02 0.  0.
         12    1    1    2    0    0  0.20431984430E+02  0.39698363368E+02  0.59738478134E+01  0.45045675703E+02  0.00000000000E+00 0. -1.
         11    1    3    3    0    0 -0.89144296098E+01 -0.13158540436E+02  0.10867529085E+01  0.15930953325E+02  0.51100000000E-03 0. -1.
        -11    1    3    3    0    0 -0.12046926376E+02 -0.25623924098E+02 -0.68762824578E+01  0.29137556211E+02  0.51100000000E-03 0.  1.
        -12    1    3    3    0    0  0.52937155615E+00 -0.91589883386E+00 -0.18431826421E+00  0.10738147610E+01  0.00000000000E+00 0.  1.
</event>
<event>
 7    1  0.1385632E-008  0.4614232E+02  0.7816164E-02  0.1320468E+00
        -11   -1    0    0    0    0  0.00000000000E+00  0.00000000000E+00  0.45593999997E+02  0.45594000000E+02  0.51100000000E-03 0. -1.
         11   -1    0    0    0    0 -0.00000000000E+00 -0.00000000000E+00 -0.45593999997E+02  0.45594000000E+02  0.51100000000E-03 0.  1.
    9900012    2    1    2    0    0  0.17482204528E+02 -0.30622839863E+01 -0.41401792575E+02  0.46142317779E+02  0.10000000160E+02 0.  0.
         12    1    1    2    0    0 -0.17482204528E+02  0.30622839863E+01  0.41401792575E+02  0.45045682221E+02  0.00000000000E+00 0. -1.
         11    1    3    3    0    0  0.35432353800E+01 -0.49624432707E+01 -0.12139803899E+02  0.13585109463E+02  0.51100000000E-03 0. -1.
        -11    1    3    3    0    0  0.94613677669E+01  0.16305391444E+00 -0.18920440775E+02  0.21154837414E+02  0.51100000000E-03 0.  1.
         12    1    3    3    0    0  0.44776013807E+01  0.17371053700E+01 -0.10341547901E+02  0.11402370902E+02  0.00000000000E+00 0. -1.
</event>
<event>
 7    1  0.1385632E-008  0.4614231E+02  0.7816164E-02  0.1320468E+00
        -11   -1    0    0    0    0  0.00000000000E+00  0.00000000000E+00  0.45593999997E+02  0.45594000000E+02  0.51100000000E-03 0.  1.
         11   -1    0    0    0    0 -0.00000000000E+00 -0.00000000000E+00 -0.45593999997E+02  0.45594000000E+02  0.51100000000E-03 0. -1.
    9900012    2    1    2    0    0 -0.21490209031E+02 -0.11595392215E+00  0.39588776661E+02  0.46142314668E+02  0.99999717977E+01 0.  0.
         12    1    1    2    0    0  0.21490209031E+02  0.11595392215E+00 -0.39588776661E+02  0.45045685332E+02  0.00000000000E+00 0. -1.
         11    1    3    3    0    0 -0.49945346370E+01 -0.28406548091E+01  0.74286716778E+01  0.93914780062E+01  0.51100000000E-03 0. -1.
        -11    1    3    3    0    0 -0.13879736490E+02  0.20547103304E+01  0.30521667585E+02  0.33592277565E+02  0.51100000000E-03 0.  1.
        -12    1    3    3    0    0 -0.26159379040E+01  0.66999055650E+00  0.16384373981E+01  0.31585590972E+01  0.00000000000E+00 0.  1.
</event>
<event>
 7    1  0.1385632E-008  0.4614232E+02  0.7816164E-02  0.1320468E+00
        -11   -1    0    0    0    0  0.00000000000E+00  0.00000000000E+00  0.45593999997E+02  0.45594000000E+02  0.51100000000E-03 0.  1.
         11   -1    0    0    0    0 -0.00000000000E+00 -0.00000000000E+00 -0.45593999997E+02  0.45594000000E+02  0.51100000000E-03 0. -1.
    9900012    2    1    2    0    0  0.68825121214E+01 -0.44062522933E+02  0.63433600986E+01  0.46142321875E+02  0.10000037518E+02 0.  0.
         12    1    1    2    0    0 -0.68825121214E+01  0.44062522933E+02 -0.63433600986E+01  0.45045678125E+02  0.00000000000E+00 0. -1.
         11    1    3    3    0    0  0.70830210659E+01 -0.41987122986E+02  0.62057219016E+01  0.43030206468E+02  0.51100000000E-03 0.  1.
        -11    1    3    3    0    0  0.22487187076E+00  0.46270473210E+00  0.15919005166E+00  0.53852090121E+00  0.51100000000E-03 0. -1.
        -12    1    3    3    0    0 -0.42538081525E+00 -0.25381046795E+01 -0.21551854704E-01  0.25735945067E+01  0.00000000000E+00 0.  1.
</event>
<event>
 7    1  0.1385632E-008  0.4614232E+02  0.7816164E-02  0.1320468E+00
        -11   -1    0    0    0    0  0.00000000000E+00  0.00000000000E+00  0.45593999997E+02  0.45594000000E+02  0.51100000000E-03 0.  1.
         11   -1    0    0    0    0 -0.00000000000E+00 -0.00000000000E+00 -0.45593999997E+02  0.45594000000E+02  0.51100000000E-03 0. -1.
    9900012    2    1    2    0    0 -0.26909592996E+02  0.28708917841E+02  0.21926818244E+02  0.46142317442E+02  0.99999970892E+01 0.  0.
         12    1    1    2    0    0  0.26909592996E+02 -0.28708917841E+02 -0.21926818244E+02  0.45045682558E+02  0.00000000000E+00 0. -1.
         11    1    3    3    0    0 -0.91972305539E+01  0.54239744010E+01  0.38668661971E+01  0.11356108603E+02  0.51100000000E-03 0. -1.
        -11    1    3    3    0    0 -0.86077883467E+01  0.15332313106E+02  0.96220304013E+01  0.20043884721E+02  0.51100000000E-03 0.  1.
        -12    1    3    3    0    0 -0.91045740957E+01  0.79526303340E+01  0.84379216456E+01  0.14742324118E+02  0.00000000000E+00 0.  1.
</event>
<event>
 7    1  0.1385632E-008  0.4614232E+02  0.7816164E-02  0.1320468E+00
        -11   -1    0    0    0    0  0.00000000000E+00  0.00000000000E+00  0.45593999997E+02  0.45594000000E+02  0.51100000000E-03 0.  1.
         11   -1    0    0    0    0 -0.00000000000E+00 -0.00000000000E+00 -0.45593999997E+02  0.45594000000E+02  0.51100000000E-03 0. -1.
    9900012    2    1    2    0    0 -0.23788355078E+02  0.23752285897E+02  0.29984272013E+02  0.46142317734E+02  0.99999997517E+01 0.  0.
         12    1    1    2    0    0  0.23788355078E+02 -0.23752285897E+02 -0.29984272013E+02  0.45045682266E+02  0.00000000000E+00 0. -1.
         11    1    3    3    0    0 -0.78115222025E+01  0.14356512780E+02  0.13932254543E+02  0.21476430225E+02  0.51100000000E-03 0. -1.
        -11    1    3    3    0    0 -0.60277184329E+01  0.25840653228E+01  0.43947139730E+01  0.78945737227E+01  0.51100000000E-03 0.  1.
         12    1    3    3    0    0 -0.99491144424E+01  0.68117077945E+01  0.11657303497E+02  0.16771313786E+02  0.00000000000E+00 0. -1.
</event>
<event>
 7    1  0.1385632E-008  0.4614232E+02  0.7816164E-02  0.1320468E+00
        -11   -1    0    0    0    0  0.00000000000E+00  0.00000000000E+00  0.45593999997E+02  0.45594000000E+02  0.51100000000E-03 0.  1.
         11   -1    0    0    0    0 -0.00000000000E+00 -0.00000000000E+00 -0.45593999997E+02  0.45594000000E+02  0.51100000000E-03 0. -1.
    9900012    2    1    2    0    0  0.40774596355E+02  0.55024778479E-01  0.19145308166E+02  0.46142316962E+02  0.99999927089E+01 0.  0.
         12    1    1    2    0    0 -0.40774596355E+02 -0.55024778479E-01 -0.19145308166E+02  0.45045683038E+02  0.00000000000E+00 0. -1.
         11    1    3    3    0    0  0.14641744737E+01  0.18419246338E+01  0.65666169170E+00  0.24428872435E+01  0.51100000000E-03 0. -1.
        -11    1    3    3    0    0  0.13247810282E+02 -0.19152370053E+01  0.45128416602E+01  0.14125804408E+02  0.51100000000E-03 0.  1.
         12    1    3    3    0    0  0.26062611599E+02  0.12833714996E+00  0.13975804814E+02  0.29573625310E+02  0.00000000000E+00 0. -1.
</event>
<event>
 7    1  0.1385632E-008  0.4614232E+02  0.7816164E-02  0.1320468E+00
        -11   -1    0    0    0    0  0.00000000000E+00  0.00000000000E+00  0.45593999997E+02  0.45594000000E+02  0.51100000000E-03 0.  1.
         11   -1    0    0    0    0 -0.00000000000E+00 -0.00000000000E+00 -0.45593999997E+02  0.45594000000E+02  0.51100000000E-03 0. -1.
    9900012    2    1    2    0    0  0.53047321264E+00  0.36889138643E+02  0.25846152226E+02  0.46142317227E+02  0.99999951293E+01 0.  0.
         12    1    1    2    0    0 -0.53047321264E+00 -0.36889138643E+02 -0.25846152226E+02  0.45045682773E+02  0.00000000000E+00 0. -1.
         11    1    3    3    0    0 -0.56790977040E-01 -0.25522345473E+00  0.18488454556E+01  0.18672423535E+01  0.51100000000E-03 0. -1.
        -11    1    3    3    0    0  0.32306948913E+00  0.26055186623E+02  0.15684055641E+02  0.30413265616E+02  0.51100000000E-03 0.  1.
         12    1    3    3    0    0  0.26419470055E+00  0.11089175475E+02  0.83132511294E+01  0.13861809257E+02  0.00000000000E+00 0. -1.
</event>
<event>
 7    1  0.1385632E-008  0.4614232E+02  0.7816164E-02  0.1320468E+00
        -11   -1    0    0    0    0  0.00000000000E+00  0.00000000000E+00  0.45593999997E+02  0.45594000000E+02  0.51100000000E-03 0.  1.
         11   -1    0    0    0    0 -0.00000000000E+00 -0.00000000000E+00 -0.45593999997E+02  0.45594000000E+02  0.51100000000E-03 0. -1.
    9900012    2    1    2    0    0 -0.44711752148E+02  0.26404962448E+01 -0.47958761663E+01  0.46142318423E+02  0.10000006032E+02 0.  0.
         12    1    1    2    0    0  0.44711752148E+02 -0.26404962448E+01  0.47958761663E+01  0.45045681577E+02  0.00000000000E+00 0. -1.
         11    1    3    3    0    0 -0.97630747360E+01  0.35201209445E+00  0.26016527444E+01  0.10109902971E+02  0.51100000000E-03 0. -1.
        -11    1    3    3    0    0 -0.20289193888E+02  0.30210623037E+01 -0.54616552352E+01  0.21227526569E+02  0.51100000000E-03 0.  1.
         12    1    3    3    0    0 -0.14659483524E+02 -0.73257815329E+00 -0.19358736755E+01  0.14804888883E+02  0.00000000000E+00 0. -1.
</event>
<event>
 7    1  0.1385632E-008  0.4614232E+02  0.7816164E-02  0.1320468E+00
        -11   -1    0    0    0    0  0.00000000000E+00  0.00000000000E+00  0.45593999997E+02  0.45594000000E+02  0.51100000000E-03 0.  1.
         11   -1    0    0    0    0 -0.00000000000E+00 -0.00000000000E+00 -0.45593999997E+02  0.45594000000E+02  0.51100000000E-03 0. -1.
    9900012    2    1    2    0    0 -0.40770735505E+02  0.96739325448E+01  0.16531047064E+02  0.46142319169E+02  0.10000012840E+02 0.  0.
         12    1    1    2    0    0  0.40770735505E+02 -0.96739325448E+01 -0.16531047064E+02  0.45045680831E+02  0.00000000000E+00 0. -1.
         11    1    3    3    0    0 -0.25135803469E+00  0.27152186882E+00  0.33721736898E+00  0.50062041700E+00  0.51100000000E-03 0. -1.
        -11    1    3    3    0    0 -0.65771666268E+01  0.54950639507E+00 -0.82847180007E+00  0.66518752168E+01  0.51100000000E-03 0.  1.
        -12    1    3    3    0    0 -0.33942210843E+02  0.88529042809E+01  0.17022301496E+02  0.38989823535E+02  0.00000000000E+00 0.  1.
</event>
<event>
 7    1  0.1385632E-008  0.4614232E+02  0.7816164E-02  0.1320468E+00
        -11   -1    0    0    0    0  0.00000000000E+00  0.00000000000E+00  0.45593999997E+02  0.45594000000E+02  0.51100000000E-03 0.  1.
         11   -1    0    0    0    0 -0.00000000000E+00 -0.00000000000E+00 -0.45593999997E+02  0.45594000000E+02  0.51100000000E-03 0. -1.
    9900012    2    1    2    0    0 -0.28683194809E+02  0.33039150269E+02  0.10714577608E+02  0.46142319982E+02  0.10000020253E+02 0.  0.
         12    1    1    2    0    0  0.28683194809E+02 -0.33039150269E+02 -0.10714577608E+02  0.45045680018E+02  0.00000000000E+00 0. -1.
         11    1    3    3    0    0 -0.27564239207E+01  0.80008755250E+01  0.79226950868E+00  0.84993866387E+01  0.51100000000E-03 0. -1.
        -11    1    3    3    0    0 -0.74604531383E+01  0.99116009612E+01  0.41821643621E+01  0.13091550468E+02  0.51100000000E-03 0.  1.
         12    1    3    3    0    0 -0.18466317750E+02  0.15126673782E+02  0.57401437371E+01  0.24551382876E+02  0.00000000000E+00 0. -1.
</event>
<event>
 7    1  0.1385632E-008  0.4614232E+02  0.7816164E-02  0.1320468E+00
        -11   -1    0    0    0    0  0.00000000000E+00  0.00000000000E+00  0.45593999997E+02  0.45594000000E+02  0.51100000000E-03 0. -1.
         11   -1    0    0    0    0 -0.00000000000E+00 -0.00000000000E+00 -0.45593999997E+02  0.45594000000E+02  0.51100000000E-03 0.  1.
    9900012    2    1    2    0    0  0.38522727359E+02  0.21919063850E+02 -0.80416218785E+01  0.46142316903E+02  0.99999921765E+01 0.  0.
         12    1    1    2    0    0 -0.38522727359E+02 -0.21919063850E+02  0.80416218785E+01  0.45045683097E+02  0.00000000000E+00 0. -1.
         11    1    3    3    0    0  0.74248973334E+01  0.87592338249E+01 -0.32891739814E+01  0.11944536130E+02  0.51100000000E-03 0. -1.
        -11    1    3    3    0    0  0.24375976698E+02  0.10391328312E+02 -0.26523841830E+01  0.26630867170E+02  0.51100000000E-03 0.  1.
         12    1    3    3    0    0  0.67218533272E+01  0.27685017132E+01 -0.21000637142E+01  0.75669136041E+01  0.00000000000E+00 0. -1.
</event>
<event>
 7    1  0.1385632E-008  0.4614232E+02  0.7816164E-02  0.1320468E+00
        -11   -1    0    0    0    0  0.00000000000E+00  0.00000000000E+00  0.45593999997E+02  0.45594000000E+02  0.51100000000E-03 0.  1.
         11   -1    0    0    0    0 -0.00000000000E+00 -0.00000000000E+00 -0.45593999997E+02  0.45594000000E+02  0.51100000000E-03 0. -1.
    9900012    2    1    2    0    0  0.23340392531E+02 -0.38518939940E+02 -0.79416054037E+00  0.46142319312E+02  0.10000014146E+02 0.  0.
         12    1    1    2    0    0 -0.23340392531E+02  0.38518939940E+02  0.79416054037E+00  0.45045680688E+02  0.00000000000E+00 0. -1.
         11    1    3    3    0    0  0.13179137861E+02 -0.23358465924E+02  0.32497821913E+01  0.27016082055E+02  0.51100000000E-03 0. -1.
        -11    1    3    3    0    0  0.40812792466E+01 -0.72595410296E+01  0.10269081548E+00  0.83287647292E+01  0.51100000000E-03 0.  1.
         12    1    3    3    0    0  0.60799754233E+01 -0.79009329871E+01 -0.41466335472E+01  0.10797472528E+02  0.00000000000E+00 0. -1.
</event>
<event>
 7    1  0.1385632E-008  0.4614231E+02  0.7816164E-02  0.1320468E+00
        -11   -1    0    0    0    0  0.00000000000E+00  0.00000000000E+00  0.45593999997E+02  0.45594000000E+02  0.51100000000E-03 0. -1.
         11   -1    0    0    0    0 -0.00000000000E+00 -0.00000000000E+00 -0.45593999997E+02  0.45594000000E+02  0.51100000000E-03 0.  1.
    9900012    2    1    2    0    0 -0.43112414676E+01 -0.34833897296E+02 -0.28233436694E+02  0.46142310402E+02  0.99999328918E+01 0.  0.
         12    1    1    2    0    0  0.43112414676E+01  0.34833897296E+02  0.28233436694E+02  0.45045689598E+02  0.00000000000E+00 0. -1.
         11    1    3    3    0    0  0.12787519696E+01 -0.16906193627E+02 -0.99622568717E+01  0.19664718452E+02  0.51100000000E-03 0. -1.
        -11    1    3    3    0    0 -0.56806347804E+01 -0.17309643861E+02 -0.18338323525E+02  0.25849322855E+02  0.51100000000E-03 0.  1.
        -12    1    3    3    0    0  0.90641343239E-01 -0.61805980702E+00  0.67143702146E-01  0.62826909433E+00  0.00000000000E+00 0.  1.
</event>
<event>
 7    1  0.1385632E-008  0.4614232E+02  0.7816164E-02  0.1320468E+00
        -11   -1    0    0    0    0  0.00000000000E+00  0.00000000000E+00  0.45593999997E+02  0.45594000000E+02  0.51100000000E-03 0.  1.
         11   -1    0    0    0    0 -0.00000000000E+00 -0.00000000000E+00 -0.45593999997E+02  0.45594000000E+02  0.51100000000E-03 0. -1.
    9900012    2    1    2    0    0  0.22881980819E+02 -0.31092402306E+02  0.23211873777E+02  0.46142316393E+02  0.99999875279E+01 0.  0.
         12    1    1    2    0    0 -0.22881980819E+02  0.31092402306E+02 -0.23211873777E+02  0.45045683607E+02  0.00000000000E+00 0. -1.
         11    1    3    3    0    0  0.72564374377E+01 -0.10041421397E+02  0.62051592149E+01  0.13856046662E+02  0.51100000000E-03 0. -1.
        -11    1    3    3    0    0  0.76030207019E+01 -0.43986525846E+01  0.72256300222E+01  0.11373820723E+02  0.51100000000E-03 0.  1.
        -12    1    3    3    0    0  0.80225226793E+01 -0.16652328324E+02  0.97810845401E+01  0.20912449008E+02  0.00000000000E+00 0.  1.
</event>
<event>
 7    1  0.1385632E-008  0.4614232E+02  0.7816164E-02  0.1320468E+00
        -11   -1    0    0    0    0  0.00000000000E+00  0.00000000000E+00  0.45593999997E+02  0.45594000000E+02  0.51100000000E-03 0. -1.
         11   -1    0    0    0    0 -0.00000000000E+00 -0.00000000000E+00 -0.45593999997E+02  0.45594000000E+02  0.51100000000E-03 0.  1.
    9900012    2    1    2    0    0 -0.23761040656E+02  0.36563438113E+02 -0.11297847969E+02  0.46142318427E+02  0.10000006069E+02 0.  0.
         12    1    1    2    0    0  0.23761040656E+02 -0.36563438113E+02  0.11297847969E+02  0.45045681573E+02  0.00000000000E+00 0. -1.
         11    1    3    3    0    0  0.71184677230E+00  0.10341180006E+01 -0.88438194298E+00  0.15356619252E+01  0.51100000000E-03 0. -1.
        -11    1    3    3    0    0 -0.14495477696E+00  0.71680038179E+00 -0.75591302361E+00  0.10517696683E+01  0.51100000000E-03 0.  1.
         12    1    3    3    0    0 -0.24327932652E+02  0.34812519730E+02 -0.96575530020E+01  0.43554886833E+02  0.00000000000E+00 0. -1.
</event>
<event>
 7    1  0.1385632E-008  0.4614232E+02  0.7816164E-02  0.1320468E+00
        -11   -1    0    0    0    0  0.00000000000E+00  0.00000000000E+00  0.45593999997E+02  0.45594000000E+02  0.51100000000E-03 0.  1.
         11   -1    0    0    0    0 -0.00000000000E+00 -0.00000000000E+00 -0.45593999997E+02  0.45594000000E+02  0.51100000000E-03 0. -1.
    9900012    2    1    2    0    0 -0.39349764485E+02  0.21704031664E+02 -0.31056032751E+01  0.46142315110E+02  0.99999758244E+01 0.  0.
         12    1    1    2    0    0  0.39349764485E+02 -0.21704031664E+02  0.31056032751E+01  0.45045684890E+02  0.00000000000E+00 0. -1.
         11    1    3    3    0    0 -0.15338963542E+02  0.70299399823E+01 -0.58746087224E+01  0.17866585757E+02  0.51100000000E-03 0. -1.
        -11    1    3    3    0    0 -0.93618741432E+01  0.57213076797E+01  0.10579939783E+01  0.11022585929E+02  0.51100000000E-03 0.  1.
         12    1    3    3    0    0 -0.14648926800E+02  0.89527840017E+01  0.17110114690E+01  0.17253143424E+02  0.00000000000E+00 0. -1.
</event>
<event>
 7    1  0.1385632E-008  0.4614232E+02  0.7816164E-02  0.1320468E+00
        -11   -1    0    0    0    0  0.00000000000E+00  0.00000000000E+00  0.45593999997E+02  0.45594000000E+02  0.51100000000E-03 0. -1.
         11   -1    0    0    0    0 -0.00000000000E+00 -0.00000000000E+00 -0.45593999997E+02  0.45594000000E+02  0.51100000000E-03 0.  1.
    9900012    2    1    2    0    0  0.34267759737E+02 -0.29234546495E+02 -0.41883944096E+00  0.46142317714E+02  0.99999995669E+01 0.  0.
         12    1    1    2    0    0 -0.34267759737E+02  0.29234546495E+02  0.41883944096E+00  0.45045682286E+02  0.00000000000E+00 0. -1.
         11    1    3    3    0    0  0.22428690127E+01 -0.18391652718E+01 -0.12919983806E+01  0.31752559552E+01  0.51100000000E-03 0. -1.
        -11    1    3    3    0    0  0.32415410279E+02 -0.26188380535E+02  0.64072077168E+00  0.41677339430E+02  0.51100000000E-03 0.  1.
        -12    1    3    3    0    0 -0.39051955407E+00 -0.12070006878E+01  0.23243816791E+00  0.12897223284E+01  0.00000000000E+00 0.  1.
</event>
<event>
 7    1  0.1385632E-008  0.4614232E+02  0.7816164E-02  0.1320468E+00
        -11   -1    0    0    0    0  0.00000000000E+00  0.00000000000E+00  0.45593999997E+02  0.45594000000E+02  0.51100000000E-03 0.  1.
         11   -1    0    0    0    0 -0.00000000000E+00 -0.00000000000E+00 -0.45593999997E+02  0.45594000000E+02  0.51100000000E-03 0. -1.
    9900012    2    1    2    0    0 -0.12816695348E+02 -0.13902441983E+02  0.40884812345E+02  0.46142318151E+02  0.10000003557E+02 0.  0.
         12    1    1    2    0    0  0.12816695348E+02  0.13902441983E+02 -0.40884812345E+02  0.45045681849E+02  0.00000000000E+00 0. -1.
         11    1    3    3    0    0 -0.11222339192E+02 -0.66924203857E+01  0.28201833605E+02  0.31081711769E+02  0.51100000000E-03 0. -1.
        -11    1    3    3    0    0 -0.18559635558E+01 -0.62005520213E+01  0.81404798745E+01  0.10399945141E+02  0.51100000000E-03 0.  1.
         12    1    3    3    0    0  0.26160740040E+00 -0.10094695755E+01  0.45424988662E+01  0.46606612412E+01  0.00000000000E+00 0. -1.
</event>
<event>
 7    1  0.1385632E-008  0.4614232E+02  0.7816164E-02  0.1320468E+00
        -11   -1    0    0    0    0  0.00000000000E+00  0.00000000000E+00  0.45593999997E+02  0.45594000000E+02  0.51100000000E-03 0.  1.
         11   -1    0    0    0    0 -0.00000000000E+00 -0.00000000000E+00 -0.45593999997E+02  0.45594000000E+02  0.51100000000E-03 0. -1.
    9900012    2    1    2    0    0  0.81997240229E+00 -0.31730652125E+02  0.31962579057E+02  0.46142322083E+02  0.10000039410E+02 0.  0.
         12    1    1    2    0    0 -0.81997240229E+00  0.31730652125E+02 -0.31962579057E+02  0.45045677917E+02  0.00000000000E+00 0. -1.
         11    1    3    3    0    0 -0.40648007165E+00 -0.30086242104E+02  0.28985306903E+02  0.41779124051E+02  0.51100000000E-03 0.  1.
        -11    1    3    3    0    0  0.15521979832E+01 -0.84812515579E-01  0.11187749202E+01  0.19152465441E+01  0.51100000000E-03 0. -1.
         12    1    3    3    0    0 -0.32574550922E+00 -0.15595975056E+01  0.18584972341E+01  0.24479514875E+01  0.00000000000E+00 0. -1.
</event>
<event>
 7    1  0.1385632E-008  0.4614232E+02  0.7816164E-02  0.1320468E+00
        -11   -1    0    0    0    0  0.00000000000E+00  0.00000000000E+00  0.45593999997E+02  0.45594000000E+02  0.51100000000E-03 0. -1.
         11   -1    0    0    0    0 -0.00000000000E+00 -0.00000000000E+00 -0.45593999997E+02  0.45594000000E+02  0.51100000000E-03 0.  1.
    9900012    2    1    2    0    0 -0.17681760008E+02  0.32847339942E+02  0.25249179320E+02  0.46142318358E+02  0.10000005447E+02 0.  0.
         12    1    1    2    0    0  0.17681760008E+02 -0.32847339942E+02 -0.25249179320E+02  0.45045681642E+02  0.00000000000E+00 0. -1.
         11    1    3    3    0    0 -0.18668399088E-01  0.14747688739E+01 -0.25548472315E-01  0.14751083777E+01  0.51100000000E-03 0. -1.
        -11    1    3    3    0    0 -0.10949665915E+02  0.24834908765E+02  0.21240898494E+02  0.34465107661E+02  0.51100000000E-03 0.  1.
        -12    1    3    3    0    0 -0.67134256936E+01  0.65376623030E+01  0.40338292986E+01  0.10202102320E+02  0.00000000000E+00 0.  1.
</event>
<event>
 7    1  0.1385632E-008  0.4614232E+02  0.7816164E-02  0.1320468E+00
        -11   -1    0    0    0    0  0.00000000000E+00  0.00000000000E+00  0.45593999997E+02  0.45594000000E+02  0.51100000000E-03 0. -1.
         11   -1    0    0    0    0 -0.00000000000E+00 -0.00000000000E+00 -0.45593999997E+02  0.45594000000E+02  0.51100000000E-03 0.  1.
    9900012    2    1    2    0    0 -0.37192280640E+02  0.12367146922E+02  0.22201383446E+02  0.46142317753E+02  0.99999999261E+01 0.  0.
         12    1    1    2    0    0  0.37192280640E+02 -0.12367146922E+02 -0.22201383446E+02  0.45045682247E+02  0.00000000000E+00 0. -1.
         11    1    3    3    0    0 -0.12309085733E+02  0.16672262138E+01  0.11717617582E+02  0.17076176296E+02  0.51100000000E-03 0. -1.
        -11    1    3    3    0    0 -0.74556348395E+01  0.32603887884E+01  0.37044493673E+01  0.89408932041E+01  0.51100000000E-03 0.  1.
         12    1    3    3    0    0 -0.17427560067E+02  0.74395319201E+01  0.67793164969E+01  0.20125248253E+02  0.00000000000E+00 0. -1.
</event>
<event>
 7    1  0.1385632E-008  0.4614232E+02  0.7816164E-02  0.1320468E+00
        -11   -1    0    0    0    0  0.00000000000E+00  0.00000000000E+00  0.45593999997E+02  0.45594000000E+02  0.51100000000E-03 0.  1.
         11   -1    0    0    0    0 -0.00000000000E+00 -0.00000000000E+00 -0.45593999997E+02  0.45594000000E+02  0.51100000000E-03 0. -1.
    9900012    2    1    2    0    0 -0.17057097234E+02 -0.14820834990E+01  0.41665001148E+02  0.46142318096E+02  0.10000003055E+02 0.  0.
         12    1    1    2    0    0  0.17057097234E+02  0.14820834990E+01 -0.41665001148E+02  0.45045681904E+02  0.00000000000E+00 0. -1.
         11    1    3    3    0    0 -0.25616557071E+01  0.34645760473E+01  0.87605846816E+01  0.97628485276E+01  0.51100000000E-03 0. -1.
        -11    1    3    3    0    0 -0.11986940526E+02 -0.46056252306E+01  0.25436143884E+02  0.28493787795E+02  0.51100000000E-03 0.  1.
         12    1    3    3    0    0 -0.25085010004E+01 -0.34103431573E+00  0.74682725821E+01  0.78856817735E+01  0.00000000000E+00 0. -1.
</event>
<event>
 7    1  0.1385632E-008  0.4614232E+02  0.7816164E-02  0.1320468E+00
        -11   -1    0    0    0    0  0.00000000000E+00  0.00000000000E+00  0.45593999997E+02  0.45594000000E+02  0.51100000000E-03 0.  1.
         11   -1    0    0    0    0 -0.00000000000E+00 -0.00000000000E+00 -0.45593999997E+02  0.45594000000E+02  0.51100000000E-03 0. -1.
    9900012    2    1    2    0    0  0.14595864025E+02 -0.29921979935E+02  0.30343851607E+02  0.46142318074E+02  0.10000002849E+02 0.  0.
         12    1    1    2    0    0 -0.14595864025E+02  0.29921979935E+02 -0.30343851607E+02  0.45045681926E+02  0.00000000000E+00 0. -1.
         11    1    3    3    0    0  0.37861041549E+01 -0.15053829162E+01  0.46173206357E+01  0.61579552215E+01  0.51100000000E-03 0. -1.
        -11    1    3    3    0    0  0.38911958811E+01 -0.11719090922E+02  0.83074300395E+01  0.14882603655E+02  0.51100000000E-03 0.  1.
         12    1    3    3    0    0  0.69185639891E+01 -0.16697506096E+02  0.17419100932E+02  0.25101759197E+02  0.00000000000E+00 0. -1.
</event>
<event>
 7    1  0.1385632E-008  0.4614232E+02  0.7816164E-02  0.1320468E+00
        -11   -1    0    0    0    0  0.00000000000E+00  0.00000000000E+00  0.45593999997E+02  0.45594000000E+02  0.51100000000E-03 0.  1.
         11   -1    0    0    0    0 -0.00000000000E+00 -0.00000000000E+00 -0.45593999997E+02  0.45594000000E+02  0.51100000000E-03 0. -1.
    9900012    2    1    2    0    0 -0.87361668689E+01  0.92877304637E+01  0.43203367295E+02  0.46142317695E+02  0.99999993949E+01 0.  0.
         12    1    1    2    0    0  0.87361668689E+01 -0.92877304637E+01 -0.43203367295E+02  0.45045682305E+02  0.00000000000E+00 0. -1.
         11    1    3    3    0    0 -0.23355274871E+01  0.16306938120E+01  0.21542550496E+01  0.35713675296E+01  0.51100000000E-03 0. -1.
        -11    1    3    3    0    0 -0.49850178591E+01  0.60160126898E+01  0.38202324031E+02  0.38993081096E+02  0.51100000000E-03 0.  1.
        -12    1    3    3    0    0 -0.14156215227E+01  0.16410239620E+01  0.28467882148E+01  0.35778690695E+01  0.00000000000E+00 0.  1.
</event>
<event>
 7    1  0.1385632E-008  0.4614232E+02  0.7816164E-02  0.1320468E+00
        -11   -1    0    0    0    0  0.00000000000E+00  0.00000000000E+00  0.45593999997E+02  0.45594000000E+02  0.51100000000E-03 0. -1.
         11   -1    0    0    0    0 -0.00000000000E+00 -0.00000000000E+00 -0.45593999997E+02  0.45594000000E+02  0.51100000000E-03 0.  1.
    9900012    2    1    2    0    0  0.32461518127E+02 -0.85471222899E+01 -0.30038474233E+02  0.46142318822E+02  0.10000009671E+02 0.  0.
         12    1    1    2    0    0 -0.32461518127E+02  0.85471222899E+01  0.30038474233E+02  0.45045681178E+02  0.00000000000E+00 0. -1.
         11    1    3    3    0    0  0.14457073128E+02 -0.28402549379E+01 -0.16815629575E+02  0.22357088581E+02  0.51100000000E-03 0. -1.
        -11    1    3    3    0    0  0.16386836924E+02 -0.61719927597E+01 -0.13459206191E+02  0.22085564302E+02  0.51100000000E-03 0.  1.
         12    1    3    3    0    0  0.16176080749E+01  0.46512540771E+00  0.23636153254E+00  0.16996659386E+01  0.00000000000E+00 0. -1.
</event>
<event>
 7    1  0.1385632E-008  0.4614232E+02  0.7816164E-02  0.1320468E+00
        -11   -1    0    0    0    0  0.00000000000E+00  0.00000000000E+00  0.45593999997E+02  0.45594000000E+02  0.51100000000E-03 0. -1.
         11   -1    0    0    0    0 -0.00000000000E+00 -0.00000000000E+00 -0.45593999997E+02  0.45594000000E+02  0.51100000000E-03 0.  1.
    9900012    2    1    2    0    0 -0.16262673888E+02  0.18071623866E+02 -0.37921694058E+02  0.46142322834E+02  0.10000046258E+02 0.  0.
         12    1    1    2    0    0  0.16262673888E+02 -0.18071623866E+02  0.37921694058E+02  0.45045677166E+02  0.00000000000E+00 0. -1.
         11    1    3    3    0    0 -0.20645089934E+01  0.41269816541E+01 -0.48321953531E+01  0.66816380588E+01  0.51100000000E-03 0. -1.
        -11    1    3    3    0    0 -0.92310950060E+01  0.53164397507E+01 -0.11439972933E+02  0.15631718638E+02  0.51100000000E-03 0.  1.
        -12    1    3    3    0    0 -0.49670698883E+01  0.86282024611E+01 -0.21649525772E+02  0.23828966137E+02  0.00000000000E+00 0.  1.
</event>
<event>
 7    1  0.1385632E-008  0.4614232E+02  0.7816164E-02  0.1320468E+00
        -11   -1    0    0    0    0  0.00000000000E+00  0.00000000000E+00  0.45593999997E+02  0.45594000000E+02  0.51100000000E-03 0.  1.
         11   -1    0    0    0    0 -0.00000000000E+00 -0.00000000000E+00 -0.45593999997E+02  0.45594000000E+02  0.51100000000E-03 0. -1.
    9900012    2    1    2    0    0  0.29370983266E+02  0.93074006128E+01  0.32860785627E+02  0.46142316564E+02  0.99999890863E+01 0.  0.
         12    1    1    2    0    0 -0.29370983266E+02 -0.93074006128E+01 -0.32860785627E+02  0.45045683436E+02  0.00000000000E+00 0. -1.
         11    1    3    3    0    0  0.54417010251E+01  0.12606666917E+00  0.21882612447E+01  0.58665569450E+01  0.51100000000E-03 0. -1.
        -11    1    3    3    0    0  0.12953461381E+02  0.70417320317E+01  0.19728561031E+02  0.24629134625E+02  0.51100000000E-03 0.  1.
        -12    1    3    3    0    0  0.10975820859E+02  0.21396019119E+01  0.10943963352E+02  0.15646624995E+02  0.00000000000E+00 0.  1.
</event>
<event>
 7    1  0.1385632E-008  0.4614232E+02  0.7816164E-02  0.1320468E+00
        -11   -1    0    0    0    0  0.00000000000E+00  0.00000000000E+00  0.45593999997E+02  0.45594000000E+02  0.51100000000E-03 0.  1.
         11   -1    0    0    0    0 -0.00000000000E+00 -0.00000000000E+00 -0.45593999997E+02  0.45594000000E+02  0.51100000000E-03 0. -1.
    9900012    2    1    2    0    0  0.22326884691E+02  0.18494994720E+01  0.39079445742E+02  0.46142317546E+02  0.99999980339E+01 0.  0.
         12    1    1    2    0    0 -0.22326884691E+02 -0.18494994720E+01 -0.39079445742E+02  0.45045682454E+02  0.00000000000E+00 0. -1.
         11    1    3    3    0    0  0.30382328879E+01 -0.16020675722E+01  0.99315442105E+01  0.10508713064E+02  0.51100000000E-03 0. -1.
        -11    1    3    3    0    0  0.12494190801E+02  0.51081270804E+01  0.18785390946E+02  0.23131983903E+02  0.51100000000E-03 0.  1.
        -12    1    3    3    0    0  0.67944610017E+01 -0.16565600363E+01  0.10362510586E+02  0.12501620579E+02  0.00000000000E+00 0.  1.
</event>
<event>
 7    1  0.1385632E-008  0.4614231E+02  0.7816164E-02  0.1320468E+00
        -11   -1    0    0    0    0  0.00000000000E+00  0.00000000000E+00  0.45593999997E+02  0.45594000000E+02  0.51100000000E-03 0. -1.
         11   -1    0    0    0    0 -0.00000000000E+00 -0.00000000000E+00 -0.45593999997E+02  0.45594000000E+02  0.51100000000E-03 0.  1.
    9900012    2    1    2    0    0  0.10426856160E+02  0.39487268137E+02 -0.19003949071E+02  0.46142314805E+02  0.99999730482E+01 0.  0.
         12    1    1    2    0    0 -0.10426856160E+02 -0.39487268137E+02  0.19003949071E+02  0.45045685195E+02  0.00000000000E+00 0. -1.
         11    1    3    3    0    0 -0.77988396444E+00  0.26800822269E+01  0.48556830129E+00  0.28331672343E+01  0.51100000000E-03 0. -1.
        -11    1    3    3    0    0  0.92375657957E+01  0.32036130210E+02 -0.15410660800E+02  0.36730569383E+02  0.51100000000E-03 0.  1.
        -12    1    3    3    0    0  0.19691743292E+01  0.47710557001E+01 -0.40788565726E+01  0.65785781878E+01  0.00000000000E+00 0.  1.
</event>
<event>
 7    1  0.1385632E-008  0.4614232E+02  0.7816164E-02  0.1320468E+00
        -11   -1    0    0    0    0  0.00000000000E+00  0.00000000000E+00  0.45593999997E+02  0.45594000000E+02  0.51100000000E-03 0.  1.
         11   -1    0    0    0    0 -0.00000000000E+00 -0.00000000000E+00 -0.45593999997E+02  0.45594000000E+02  0.51100000000E-03 0. -1.
    9900012    2    1    2    0    0 -0.12050296268E+00  0.16786407439E+02  0.41800904326E+02  0.46142316542E+02  0.99999888868E+01 0.  0.
         12    1    1    2    0    0  0.12050296268E+00 -0.16786407439E+02 -0.41800904326E+02  0.45045683458E+02  0.00000000000E+00 0. -1.
         11    1    3    3    0    0  0.59239330738E+00 -0.24922758899E+00  0.14176714840E+01  0.15565464720E+01  0.51100000000E-03 0. -1.
        -11    1    3    3    0    0 -0.56878028407E+00  0.24714777653E+01  0.15875151989E+02  0.16076447502E+02  0.51100000000E-03 0.  1.
        -12    1    3    3    0    0 -0.14411598598E+00  0.14564157263E+02  0.24508080853E+02  0.28509322568E+02  0.00000000000E+00 0.  1.
</event>
<event>
 7    1  0.1385632E-008  0.4614232E+02  0.7816164E-02  0.1320468E+00
        -11   -1    0    0    0    0  0.00000000000E+00  0.00000000000E+00  0.45593999997E+02  0.45594000000E+02  0.51100000000E-03 0.  1.
         11   -1    0    0    0    0 -0.00000000000E+00 -0.00000000000E+00 -0.45593999997E+02  0.45594000000E+02  0.51100000000E-03 0. -1.
    9900012    2    1    2    0    0 -0.15570070449E+02 -0.24465815332E+02  0.34468977379E+02  0.46142316354E+02  0.99999871643E+01 0.  0.
         12    1    1    2    0    0  0.15570070449E+02  0.24465815332E+02 -0.34468977379E+02  0.45045683646E+02  0.00000000000E+00 0. -1.
         11    1    3    3    0    0 -0.24077526421E+00 -0.44588063624E+01  0.22295531454E+01  0.49909752949E+01  0.51100000000E-03 0. -1.
        -11    1    3    3    0    0 -0.66275178620E+01 -0.92322836149E+01  0.17998834255E+02  0.21286547126E+02  0.51100000000E-03 0.  1.
        -12    1    3    3    0    0 -0.87017773233E+01 -0.10774725355E+02  0.14240589978E+02  0.19864793933E+02  0.00000000000E+00 0.  1.
</event>
<event>
 7    1  0.1385632E-008  0.4614232E+02  0.7816164E-02  0.1320468E+00
        -11   -1    0    0    0    0  0.00000000000E+00  0.00000000000E+00  0.45593999997E+02  0.45594000000E+02  0.51100000000E-03 0.  1.
         11   -1    0    0    0    0 -0.00000000000E+00 -0.00000000000E+00 -0.45593999997E+02  0.45594000000E+02  0.51100000000E-03 0. -1.
    9900012    2    1    2    0    0  0.25967177487E+02  0.13204869314E+02  0.34357686528E+02  0.46142317590E+02  0.99999984392E+01 0.  0.
         12    1    1    2    0    0 -0.25967177487E+02 -0.13204869314E+02 -0.34357686528E+02  0.45045682410E+02  0.00000000000E+00 0. -1.
         11    1    3    3    0    0  0.34874829827E+01  0.27000106715E+01  0.10361980927E+02  0.11261582667E+02  0.51100000000E-03 0. -1.
        -11    1    3    3    0    0  0.22319968454E+02  0.96947873198E+01  0.23786618758E+02  0.34029004175E+02  0.51100000000E-03 0.  1.
         12    1    3    3    0    0  0.15972605082E+00  0.81007132266E+00  0.20908684339E+00  0.85173074806E+00  0.00000000000E+00 0. -1.
</event>
<event>
 7    1  0.1385632E-008  0.4614232E+02  0.7816164E-02  0.1320468E+00
        -11   -1    0    0    0    0  0.00000000000E+00  0.00000000000E+00  0.45593999997E+02  0.45594000000E+02  0.51100000000E-03 0.  1.
         11   -1    0    0    0    0 -0.00000000000E+00 -0.00000000000E+00 -0.45593999997E+02  0.45594000000E+02  0.51100000000E-03 0. -1.
    9900012    2    1    2    0    0 -0.17474643638E+02 -0.23449132416E+02  0.34262051942E+02  0.46142321133E+02  0.10000030750E+02 0.  0.
         12    1    1    2    0    0  0.17474643638E+02  0.23449132416E+02 -0.34262051942E+02  0.45045678867E+02  0.00000000000E+00 0. -1.
         11    1    3    3    0    0 -0.11937646188E+02 -0.92939939438E+01  0.18567767959E+02  0.23950944181E+02  0.51100000000E-03 0. -1.
        -11    1    3    3    0    0 -0.59065720414E+01 -0.11204231672E+02  0.13370647950E+02  0.18417291535E+02  0.51100000000E-03 0.  1.
         12    1    3    3    0    0  0.36957459107E+00 -0.29509068000E+01  0.23236360333E+01  0.37740854171E+01  0.00000000000E+00 0. -1.
</event>
<event>
 7    1  0.1385632E-008  0.4614232E+02  0.7816164E-02  0.1320468E+00
        -11   -1    0    0    0    0  0.00000000000E+00  0.00000000000E+00  0.45593999997E+02  0.45594000000E+02  0.51100000000E-03 0.  1.
         11   -1    0    0    0    0 -0.00000000000E+00 -0.00000000000E+00 -0.45593999997E+02  0.45594000000E+02  0.51100000000E-03 0. -1.
    9900012    2    1    2    0    0  0.39144441466E+02 -0.90661999697E+00 -0.22271150859E+02  0.46142318541E+02  0.10000007114E+02 0.  0.
         12    1    1    2    0    0 -0.39144441466E+02  0.90661999697E+00  0.22271150859E+02  0.45045681459E+02  0.00000000000E+00 0. -1.
         11    1    3    3    0    0  0.16220414861E+02 -0.33441375382E+01 -0.11904626819E+02  0.20396206856E+02  0.51100000000E-03 0. -1.
        -11    1    3    3    0    0  0.21190420480E+02  0.28154467615E+01 -0.10755085583E+02  0.23929741469E+02  0.51100000000E-03 0.  1.
         12    1    3    3    0    0  0.17336061246E+01 -0.37792922029E+00  0.38856154356E+00  0.18163702167E+01  0.00000000000E+00 0. -1.
</event>
<event>
 7    1  0.1385632E-008  0.4614232E+02  0.7816164E-02  0.1320468E+00
        -11   -1    0    0    0    0  0.00000000000E+00  0.00000000000E+00  0.45593999997E+02  0.45594000000E+02  0.51100000000E-03 0.  1.
         11   -1    0    0    0    0 -0.00000000000E+00 -0.00000000000E+00 -0.45593999997E+02  0.45594000000E+02  0.51100000000E-03 0. -1.
    9900012    2    1    2    0    0  0.37906612899E+02 -0.54701817330E+01  0.23712428981E+02  0.46142317878E+02  0.10000001063E+02 0.  0.
         12    1    1    2    0    0 -0.37906612899E+02  0.54701817330E+01 -0.23712428981E+02  0.45045682122E+02  0.00000000000E+00 0. -1.
         11    1    3    3    0    0  0.28312070445E+01 -0.25193943603E+01  0.41948640239E+01  0.56533145775E+01  0.51100000000E-03 0. -1.
        -11    1    3    3    0    0  0.18730433690E+02 -0.33036800124E+01  0.89323573093E+01  0.21012626090E+02  0.51100000000E-03 0.  1.
         12    1    3    3    0    0  0.16344972165E+02  0.35289263962E+00  0.10585207648E+02  0.19476377210E+02  0.00000000000E+00 0. -1.
</event>
<event>
 7    1  0.1385632E-008  0.4614232E+02  0.7816164E-02  0.1320468E+00
        -11   -1    0    0    0    0  0.00000000000E+00  0.00000000000E+00  0.45593999997E+02  0.45594000000E+02  0.51100000000E-03 0. -1.
         11   -1    0    0    0    0 -0.00000000000E+00 -0.00000000000E+00 -0.45593999997E+02  0.45594000000E+02  0.51100000000E-03 0.  1.
    9900012    2    1    2    0    0  0.28080068721E-01 -0.20437382000E+02 -0.40142572482E+02  0.46142317666E+02  0.99999991319E+01 0.  0.
         12    1    1    2    0    0 -0.28080068721E-01  0.20437382000E+02  0.40142572482E+02  0.45045682334E+02  0.00000000000E+00 0. -1.
         11    1    3    3    0    0 -0.16148807616E+01 -0.11762702134E+02 -0.17087000275E+02  0.20807080045E+02  0.51100000000E-03 0. -1.
        -11    1    3    3    0    0  0.25155964778E+01 -0.39300590762E+01 -0.16797447676E+02  0.17433526283E+02  0.51100000000E-03 0.  1.
        -12    1    3    3    0    0 -0.87263564753E+00 -0.47446207899E+01 -0.62581245308E+01  0.79017113372E+01  0.00000000000E+00 0.  1.
</event>
<event>
 7    1  0.1385632E-008  0.4614232E+02  0.7816164E-02  0.1320468E+00
        -11   -1    0    0    0    0  0.00000000000E+00  0.00000000000E+00  0.45593999997E+02  0.45594000000E+02  0.51100000000E-03 0.  1.
         11   -1    0    0    0    0 -0.00000000000E+00 -0.00000000000E+00 -0.45593999997E+02  0.45594000000E+02  0.51100000000E-03 0. -1.
    9900012    2    1    2    0    0 -0.42602334823E+01  0.15698216471E+01  0.44816287349E+02  0.46142317176E+02  0.99999946657E+01 0.  0.
         12    1    1    2    0    0  0.42602334823E+01 -0.15698216471E+01 -0.44816287349E+02  0.45045682824E+02  0.00000000000E+00 0. -1.
         11    1    3    3    0    0  0.23938617363E+01  0.15016586088E+01  0.79285591868E+01  0.84171018545E+01  0.51100000000E-03 0. -1.
        -11    1    3    3    0    0 -0.46628917476E+01  0.71693079491E+00  0.14690875896E+02  0.15429788854E+02  0.51100000000E-03 0.  1.
         12    1    3    3    0    0 -0.19912034709E+01 -0.64876775662E+00  0.22196852266E+02  0.22295426468E+02  0.00000000000E+00 0. -1.
</event>
<event>
 7    1  0.1385632E-008  0.4614232E+02  0.7816164E-02  0.1320468E+00
        -11   -1    0    0    0    0  0.00000000000E+00  0.00000000000E+00  0.45593999997E+02  0.45594000000E+02  0.51100000000E-03 0.  1.
         11   -1    0    0    0    0 -0.00000000000E+00 -0.00000000000E+00 -0.45593999997E+02  0.45594000000E+02  0.51100000000E-03 0. -1.
    9900012    2    1    2    0    0 -0.41412458729E+01  0.31891264886E+02  0.31542206990E+02  0.46142317463E+02  0.99999972798E+01 0.  0.
         12    1    1    2    0    0  0.41412458729E+01 -0.31891264886E+02 -0.31542206990E+02  0.45045682537E+02  0.00000000000E+00 0. -1.
         11    1    3    3    0    0  0.11862539992E+00  0.25613794809E+01  0.19890823081E-01  0.25642021638E+01  0.51100000000E-03 0. -1.
        -11    1    3    3    0    0 -0.86461729573E+00  0.21918976127E+02  0.23211208546E+02  0.31936644783E+02  0.51100000000E-03 0.  1.
         12    1    3    3    0    0 -0.33952539771E+01  0.74109092786E+01  0.83111076207E+01  0.11641470517E+02  0.00000000000E+00 0. -1.
</event>
<event>
 7    1  0.1385632E-008  0.4614232E+02  0.7816164E-02  0.1320468E+00
        -11   -1    0    0    0    0  0.00000000000E+00  0.00000000000E+00  0.45593999997E+02  0.45594000000E+02  0.51100000000E-03 0.  1.
         11   -1    0    0    0    0 -0.00000000000E+00 -0.00000000000E+00 -0.45593999997E+02  0.45594000000E+02  0.51100000000E-03 0. -1.
    9900012    2    1    2    0    0  0.32186249898E+01 -0.42307387566E+02  0.15127423368E+02  0.46142317330E+02  0.99999960646E+01 0.  0.
         12    1    1    2    0    0 -0.32186249898E+01  0.42307387566E+02 -0.15127423368E+02  0.45045682670E+02  0.00000000000E+00 0. -1.
         11    1    3    3    0    0  0.29349315387E+01 -0.19393358161E+02  0.38875563286E+01  0.19995731004E+02  0.51100000000E-03 0. -1.
        -11    1    3    3    0    0 -0.16716766933E+01 -0.10836644410E+02  0.77391741778E+01  0.13420960556E+02  0.51100000000E-03 0.  1.
        -12    1    3    3    0    0  0.19553701443E+01 -0.12077384995E+02  0.35006928620E+01  0.12725625769E+02  0.00000000000E+00 0.  1.
</event>
<event>
 7    1  0.1406282E-008  0.4614232E+02  0.7816164E-02  0.1320468E+00
        -11   -1    0    0    0    0  0.00000000000E+00  0.00000000000E+00  0.45593999997E+02  0.45594000000E+02  0.51100000000E-03 0. -1.
         11   -1    0    0    0    0 -0.00000000000E+00 -0.00000000000E+00 -0.45593999997E+02  0.45594000000E+02  0.51100000000E-03 0.  1.
    9900012    2    1    2    0    0 -0.37601067862E+02  0.27072895710E+01 -0.24656515399E+02  0.46142317934E+02  0.10000001578E+02 0.  0.
         12    1    1    2    0    0  0.37601067862E+02 -0.27072895710E+01  0.24656515399E+02  0.45045682066E+02  0.00000000000E+00 0. -1.
         11    1    3    3    0    0 -0.41237373643E+01 -0.68249162201E+00 -0.14025504336E+01  0.44088720376E+01  0.51100000000E-03 0. -1.
        -11    1    3    3    0    0 -0.75724944677E+01 -0.17767990612E+01 -0.83182015198E+01  0.11388246755E+02  0.51100000000E-03 0.  1.
        -12    1    3    3    0    0 -0.25904836030E+02  0.51665802542E+01 -0.14935763446E+02  0.30345199142E+02  0.00000000000E+00 0.  1.
</event>
<event>
 7    1  0.1385632E-008  0.4614232E+02  0.7816164E-02  0.1320468E+00
        -11   -1    0    0    0    0  0.00000000000E+00  0.00000000000E+00  0.45593999997E+02  0.45594000000E+02  0.51100000000E-03 0.  1.
         11   -1    0    0    0    0 -0.00000000000E+00 -0.00000000000E+00 -0.45593999997E+02  0.45594000000E+02  0.51100000000E-03 0. -1.
    9900012    2    1    2    0    0 -0.38524305171E+02 -0.15444621853E+01  0.23293905699E+02  0.46142317687E+02  0.99999993206E+01 0.  0.
         12    1    1    2    0    0  0.38524305171E+02  0.15444621853E+01 -0.23293905699E+02  0.45045682313E+02  0.00000000000E+00 0. -1.
         11    1    3    3    0    0 -0.16192189213E+02 -0.36567493149E+01  0.12975258579E+02  0.21069317562E+02  0.51100000000E-03 0. -1.
        -11    1    3    3    0    0 -0.11486541499E+02 -0.10442004536E+01  0.57605354316E+01  0.12892430295E+02  0.51100000000E-03 0.  1.
         12    1    3    3    0    0 -0.10845574459E+02  0.31564875831E+01  0.45581116881E+01  0.12180569829E+02  0.00000000000E+00 0. -1.
</event>
<event>
 7    1  0.1385632E-008  0.4614232E+02  0.7816164E-02  0.1320468E+00
        -11   -1    0    0    0    0  0.00000000000E+00  0.00000000000E+00  0.45593999997E+02  0.45594000000E+02  0.51100000000E-03 0. -1.
         11   -1    0    0    0    0 -0.00000000000E+00 -0.00000000000E+00 -0.45593999997E+02  0.45594000000E+02  0.51100000000E-03 0.  1.
    9900012    2    1    2    0    0 -0.82382005240E+01  0.12788892457E+02 -0.42399172780E+02  0.46142316849E+02  0.99999916807E+01 0.  0.
         12    1    1    2    0    0  0.82382005240E+01 -0.12788892457E+02  0.42399172780E+02  0.45045683151E+02  0.00000000000E+00 0. -1.
         11    1    3    3    0    0 -0.15265850105E+01  0.19312473320E+01 -0.12165332272E+01  0.27459299710E+01  0.51100000000E-03 0. -1.
        -11    1    3    3    0    0 -0.59781505337E+01  0.11268155334E+02 -0.39609717617E+02  0.41612970795E+02  0.51100000000E-03 0.  1.
         12    1    3    3    0    0 -0.73346497989E+00 -0.41051020904E+00 -0.15729219353E+01  0.17834160824E+01  0.00000000000E+00 0. -1.
</event>
<event>
 7    1  0.1385632E-008  0.4614232E+02  0.7816164E-02  0.1320468E+00
        -11   -1    0    0    0    0  0.00000000000E+00  0.00000000000E+00  0.45593999997E+02  0.45594000000E+02  0.51100000000E-03 0.  1.
         11   -1    0    0    0    0 -0.00000000000E+00 -0.00000000000E+00 -0.45593999997E+02  0.45594000000E+02  0.51100000000E-03 0. -1.
    9900012    2    1    2    0    0  0.32891647682E+02 -0.98282328459E+01  0.29166055334E+02  0.46142318388E+02  0.10000005719E+02 0.  0.
         12    1    1    2    0    0 -0.32891647682E+02  0.98282328459E+01 -0.29166055334E+02  0.45045681612E+02  0.00000000000E+00 0. -1.
         11    1    3    3    0    0  0.81121491738E+01 -0.61422393627E+01  0.50620178513E+01  0.11364774243E+02  0.51100000000E-03 0. -1.
        -11    1    3    3    0    0  0.20117826459E+02 -0.32342403501E+01  0.19215921637E+02  0.28007836344E+02  0.51100000000E-03 0.  1.
         12    1    3    3    0    0  0.46616720498E+01 -0.45175313304E+00  0.48881158452E+01  0.67697078009E+01  0.00000000000E+00 0. -1.
</event>
<event>
 7    1  0.1385632E-008  0.4614232E+02  0.7816164E-02  0.1320468E+00
        -11   -1    0    0    0    0  0.00000000000E+00  0.00000000000E+00  0.45593999997E+02  0.45594000000E+02  0.51100000000E-03 0. -1.
         11   -1    0    0    0    0 -0.00000000000E+00 -0.00000000000E+00 -0.45593999997E+02  0.45594000000E+02  0.51100000000E-03 0.  1.
    9900012    2    1    2    0    0  0.13940652380E+01  0.47836294814E+01 -0.44769264364E+02  0.46142316959E+02  0.99999926884E+01 0.  0.
         12    1    1    2    0    0 -0.13940652380E+01 -0.47836294814E+01  0.44769264364E+02  0.45045683041E+02  0.00000000000E+00 0. -1.
         11    1    3    3    0    0  0.35800382537E+01  0.80742493803E+00 -0.69294939268E+01  0.78413324934E+01  0.51100000000E-03 0. -1.
        -11    1    3    3    0    0 -0.27513919847E+00  0.39848573981E+01 -0.27048479035E+02  0.27341817943E+02  0.51100000000E-03 0.  1.
         12    1    3    3    0    0 -0.19108338172E+01 -0.86528546820E-02 -0.10791291402E+02  0.10959166523E+02  0.00000000000E+00 0. -1.
</event>
<event>
 7    1  0.1385632E-008  0.4614232E+02  0.7816164E-02  0.1320468E+00
        -11   -1    0    0    0    0  0.00000000000E+00  0.00000000000E+00  0.45593999997E+02  0.45594000000E+02  0.51100000000E-03 0.  1.
         11   -1    0    0    0    0 -0.00000000000E+00 -0.00000000000E+00 -0.45593999997E+02  0.45594000000E+02  0.51100000000E-03 0. -1.
    9900012    2    1    2    0    0  0.32829430675E+02 -0.51256443026E+01  0.30414961589E+02  0.46142316118E+02  0.99999850184E+01 0.  0.
         12    1    1    2    0    0 -0.32829430675E+02  0.51256443026E+01 -0.30414961589E+02  0.45045683882E+02  0.00000000000E+00 0. -1.
         11    1    3    3    0    0  0.69508346892E+01  0.20741989367E+01  0.69238867504E+01  0.10027791985E+02  0.51100000000E-03 0. -1.
        -11    1    3    3    0    0  0.86686919656E+01 -0.47919403090E+01  0.10364849550E+02  0.14336632059E+02  0.51100000000E-03 0.  1.
        -12    1    3    3    0    0  0.17209904020E+02 -0.24079029303E+01  0.13126225288E+02  0.21777892074E+02  0.00000000000E+00 0.  1.
</event>
<event>
 7    1  0.1385632E-008  0.4614232E+02  0.7816164E-02  0.1320468E+00
        -11   -1    0    0    0    0  0.00000000000E+00  0.00000000000E+00  0.45593999997E+02  0.45594000000E+02  0.51100000000E-03 0.  1.
         11   -1    0    0    0    0 -0.00000000000E+00 -0.00000000000E+00 -0.45593999997E+02  0.45594000000E+02  0.51100000000E-03 0. -1.
    9900012    2    1    2    0    0 -0.32795143202E+02  0.21071517568E+02  0.22573947977E+02  0.46142318769E+02  0.10000009191E+02 0.  0.
         12    1    1    2    0    0  0.32795143202E+02 -0.21071517568E+02 -0.22573947977E+02  0.45045681231E+02  0.00000000000E+00 0. -1.
         11    1    3    3    0    0 -0.30918374738E+01  0.17837721667E+01 -0.82539427007E+00  0.36636836748E+01  0.51100000000E-03 0. -1.
        -11    1    3    3    0    0 -0.24317292026E+02  0.15708013047E+02  0.18368839879E+02  0.34285370701E+02  0.51100000000E-03 0.  1.
         12    1    3    3    0    0 -0.53860137022E+01  0.35797323549E+01  0.50305023687E+01  0.81932643930E+01  0.00000000000E+00 0. -1.
</event>
<event>
 7    1  0.1385632E-008  0.4614232E+02  0.7816164E-02  0.1320468E+00
        -11   -1    0    0    0    0  0.00000000000E+00  0.00000000000E+00  0.45593999997E+02  0.45594000000E+02  0.51100000000E-03 0. -1.
         11   -1    0    0    0    0 -0.00000000000E+00 -0.00000000000E+00 -0.45593999997E+02  0.45594000000E+02  0.51100000000E-03 0.  1.
    9900012    2    1    2    0    0  0.37145480001E+02  0.18540678957E+02  0.17480562281E+02  0.46142317429E+02  0.99999969675E+01 0.  0.
         12    1    1    2    0    0 -0.37145480001E+02 -0.18540678957E+02 -0.17480562281E+02  0.45045682571E+02  0.00000000000E+00 0. -1.
         11    1    3    3    0    0  0.48706734197E+01  0.17303232005E+01  0.31100752851E+01  0.60324163053E+01  0.51100000000E-03 0. -1.
        -11    1    3    3    0    0  0.14161777753E+02  0.12327784850E+02  0.77144491026E+01  0.20298841189E+02  0.51100000000E-03 0.  1.
        -12    1    3    3    0    0  0.18113028828E+02  0.44825709071E+01  0.66560378931E+01  0.19811059934E+02  0.00000000000E+00 0.  1.
</event>
<event>
 7    1  0.1385632E-008  0.4614232E+02  0.7816164E-02  0.1320468E+00
        -11   -1    0    0    0    0  0.00000000000E+00  0.00000000000E+00  0.45593999997E+02  0.45594000000E+02  0.51100000000E-03 0.  1.
         11   -1    0    0    0    0 -0.00000000000E+00 -0.00000000000E+00 -0.45593999997E+02  0.45594000000E+02  0.51100000000E-03 0. -1.
    9900012    2    1    2    0    0  0.24531598395E+02 -0.24795684667E+02  0.28504175785E+02  0.46142319462E+02  0.10000015512E+02 0.  0.
         12    1    1    2    0    0 -0.24531598395E+02  0.24795684667E+02 -0.28504175785E+02  0.45045680538E+02  0.00000000000E+00 0. -1.
         11    1    3    3    0    0  0.58270469494E+01 -0.53264600428E+01  0.35801212555E+01  0.86685016700E+01  0.51100000000E-03 0. -1.
        -11    1    3    3    0    0  0.66983436992E+01 -0.25643674819E+01  0.52276675866E+01  0.88753759105E+01  0.51100000000E-03 0.  1.
        -12    1    3    3    0    0  0.12006207747E+02 -0.16904857142E+02  0.19696386943E+02  0.28598441882E+02  0.00000000000E+00 0.  1.
</event>
<event>
 7    1  0.1385632E-008  0.4614232E+02  0.7816164E-02  0.1320468E+00
        -11   -1    0    0    0    0  0.00000000000E+00  0.00000000000E+00  0.45593999997E+02  0.45594000000E+02  0.51100000000E-03 0.  1.
         11   -1    0    0    0    0 -0.00000000000E+00 -0.00000000000E+00 -0.45593999997E+02  0.45594000000E+02  0.51100000000E-03 0. -1.
    9900012    2    1    2    0    0 -0.32886516096E+02 -0.10164004641E+02  0.29056561080E+02  0.46142315711E+02  0.99999813060E+01 0.  0.
         12    1    1    2    0    0  0.32886516096E+02  0.10164004641E+02 -0.29056561080E+02  0.45045684289E+02  0.00000000000E+00 0. -1.
         11    1    3    3    0    0 -0.39807344913E+01 -0.29203963152E+01  0.12596458061E+01  0.50952595170E+01  0.51100000000E-03 0. -1.
        -11    1    3    3    0    0 -0.21888359685E+02 -0.42001635751E+01  0.18198937155E+02  0.28773998290E+02  0.51100000000E-03 0.  1.
        -12    1    3    3    0    0 -0.70174219201E+01 -0.30434447506E+01  0.95979781190E+01  0.12273057905E+02  0.00000000000E+00 0.  1.
</event>
<event>
 7    1  0.1385632E-008  0.4614232E+02  0.7816164E-02  0.1320468E+00
        -11   -1    0    0    0    0  0.00000000000E+00  0.00000000000E+00  0.45593999997E+02  0.45594000000E+02  0.51100000000E-03 0.  1.
         11   -1    0    0    0    0 -0.00000000000E+00 -0.00000000000E+00 -0.45593999997E+02  0.45594000000E+02  0.51100000000E-03 0. -1.
    9900012    2    1    2    0    0  0.27707749907E+02  0.16853428054E+02  0.31262693805E+02  0.46142318009E+02  0.10000002261E+02 0.  0.
         12    1    1    2    0    0 -0.27707749907E+02 -0.16853428054E+02 -0.31262693805E+02  0.45045681991E+02  0.00000000000E+00 0. -1.
         11    1    3    3    0    0  0.15162421946E+02  0.82686516936E+01  0.11690941334E+02  0.20855400970E+02  0.51100000000E-03 0.  1.
        -11    1    3    3    0    0  0.12097317748E+02  0.72306609437E+01  0.15387773338E+02  0.20866507205E+02  0.51100000000E-03 0. -1.
         12    1    3    3    0    0  0.44801021342E+00  0.13541154164E+01  0.41839791331E+01  0.44204098337E+01  0.00000000000E+00 0. -1.
</event>
<event>
 7    1  0.1385632E-008  0.4614232E+02  0.7816164E-02  0.1320468E+00
        -11   -1    0    0    0    0  0.00000000000E+00  0.00000000000E+00  0.45593999997E+02  0.45594000000E+02  0.51100000000E-03 0.  1.
         11   -1    0    0    0    0 -0.00000000000E+00 -0.00000000000E+00 -0.45593999997E+02  0.45594000000E+02  0.51100000000E-03 0. -1.
    9900012    2    1    2    0    0  0.11522343311E+02 -0.42612429347E+02  0.89738402672E+01  0.46142319415E+02  0.10000015085E+02 0.  0.
         12    1    1    2    0    0 -0.11522343311E+02  0.42612429347E+02 -0.89738402672E+01  0.45045680585E+02  0.00000000000E+00 0. -1.
         11    1    3    3    0    0  0.65325801088E+01 -0.16016875562E+02  0.74468364023E+01  0.18832691744E+02  0.51100000000E-03 0. -1.
        -11    1    3    3    0    0  0.32139998763E+01 -0.16941689518E+02 -0.64677919971E+00  0.17255983383E+02  0.51100000000E-03 0.  1.
        -12    1    3    3    0    0  0.17757633261E+01 -0.96538642663E+01  0.21737830646E+01  0.10053644288E+02  0.00000000000E+00 0.  1.
</event>
<event>
 7    1  0.1385632E-008  0.4614232E+02  0.7816164E-02  0.1320468E+00
        -11   -1    0    0    0    0  0.00000000000E+00  0.00000000000E+00  0.45593999997E+02  0.45594000000E+02  0.51100000000E-03 0. -1.
         11   -1    0    0    0    0 -0.00000000000E+00 -0.00000000000E+00 -0.45593999997E+02  0.45594000000E+02  0.51100000000E-03 0.  1.
    9900012    2    1    2    0    0 -0.44951049942E+02 -0.19643354520E+01 -0.21582466306E+01  0.46142317264E+02  0.99999954627E+01 0.  0.
         12    1    1    2    0    0  0.44951049942E+02  0.19643354520E+01  0.21582466306E+01  0.45045682736E+02  0.00000000000E+00 0. -1.
         11    1    3    3    0    0 -0.79636183458E+01 -0.24949791367E+01 -0.14661861205E+01  0.84731245743E+01  0.51100000000E-03 0. -1.
        -11    1    3    3    0    0 -0.36498353664E+02  0.15491415645E+01 -0.60874634854E+00  0.36536286513E+02  0.51100000000E-03 0.  1.
        -12    1    3    3    0    0 -0.48907793237E+00 -0.10184978797E+01 -0.83314161514E-01  0.11329061764E+01  0.00000000000E+00 0.  1.
</event>
<event>
 7    1  0.1385632E-008  0.4614232E+02  0.7816164E-02  0.1320468E+00
        -11   -1    0    0    0    0  0.00000000000E+00  0.00000000000E+00  0.45593999997E+02  0.45594000000E+02  0.51100000000E-03 0.  1.
         11   -1    0    0    0    0 -0.00000000000E+00 -0.00000000000E+00 -0.45593999997E+02  0.45594000000E+02  0.51100000000E-03 0. -1.
    9900012    2    1    2    0    0 -0.17480476480E+02  0.66970667725E+01  0.40971888792E+02  0.46142318381E+02  0.10000005654E+02 0.  0.
         12    1    1    2    0    0  0.17480476480E+02 -0.66970667725E+01 -0.40971888792E+02  0.45045681619E+02  0.00000000000E+00 0. -1.
         11    1    3    3    0    0 -0.14789927323E+02  0.79292626359E+01  0.37047104959E+02  0.40670666853E+02  0.51100000000E-03 0.  1.
        -11    1    3    3    0    0 -0.13821080729E+01  0.40949973853E+00  0.26469268337E+01  0.30139898283E+01  0.51100000000E-03 0. -1.
         12    1    3    3    0    0 -0.13084410841E+01 -0.16416956019E+01  0.12778569993E+01  0.24576616998E+01  0.00000000000E+00 0. -1.
</event>
<event>
 7    1  0.1385632E-008  0.4614232E+02  0.7816164E-02  0.1320468E+00
        -11   -1    0    0    0    0  0.00000000000E+00  0.00000000000E+00  0.45593999997E+02  0.45594000000E+02  0.51100000000E-03 0.  1.
         11   -1    0    0    0    0 -0.00000000000E+00 -0.00000000000E+00 -0.45593999997E+02  0.45594000000E+02  0.51100000000E-03 0. -1.
    9900012    2    1    2    0    0  0.16668072705E+02  0.56950387477E+01  0.41459080756E+02  0.46142317730E+02  0.99999997169E+01 0.  0.
         12    1    1    2    0    0 -0.16668072705E+02 -0.56950387477E+01 -0.41459080756E+02  0.45045682270E+02  0.00000000000E+00 0. -1.
         11    1    3    3    0    0  0.17283665172E+01  0.26694177398E+01  0.19858637926E+01  0.37492262071E+01  0.51100000000E-03 0. -1.
        -11    1    3    3    0    0  0.85843759009E+01  0.23406569130E+01  0.26002033409E+02  0.27482283858E+02  0.51100000000E-03 0.  1.
         12    1    3    3    0    0  0.63553302867E+01  0.68496409480E+00  0.13471183554E+02  0.14910807665E+02  0.00000000000E+00 0. -1.
</event>
<event>
 7    1  0.1385632E-008  0.4614232E+02  0.7816164E-02  0.1320468E+00
        -11   -1    0    0    0    0  0.00000000000E+00  0.00000000000E+00  0.45593999997E+02  0.45594000000E+02  0.51100000000E-03 0. -1.
         11   -1    0    0    0    0 -0.00000000000E+00 -0.00000000000E+00 -0.45593999997E+02  0.45594000000E+02  0.51100000000E-03 0.  1.
    9900012    2    1    2    0    0 -0.12453487949E+02  0.39718571045E+02  0.17217993886E+02  0.46142316950E+02  0.99999926032E+01 0.  0.
         12    1    1    2    0    0  0.12453487949E+02 -0.39718571045E+02 -0.17217993886E+02  0.45045683050E+02  0.00000000000E+00 0. -1.
         11    1    3    3    0    0  0.28474155685E+00  0.76123575992E+01  0.58992477266E+00  0.76404893476E+01  0.51100000000E-03 0. -1.
        -11    1    3    3    0    0 -0.49749507825E+01  0.11405810941E+02  0.78615045213E+01  0.14718896430E+02  0.51100000000E-03 0.  1.
         12    1    3    3    0    0 -0.77632787237E+01  0.20700402505E+02  0.87665645924E+01  0.23782931172E+02  0.00000000000E+00 0. -1.
</event>
<event>
 7    1  0.1385632E-008  0.4614232E+02  0.7816164E-02  0.1320468E+00
        -11   -1    0    0    0    0  0.00000000000E+00  0.00000000000E+00  0.45593999997E+02  0.45594000000E+02  0.51100000000E-03 0.  1.
         11   -1    0    0    0    0 -0.00000000000E+00 -0.00000000000E+00 -0.45593999997E+02  0.45594000000E+02  0.51100000000E-03 0. -1.
    9900012    2    1    2    0    0  0.13884794687E+02 -0.42325728693E+02  0.66976599564E+01  0.46142317834E+02  0.10000000669E+02 0.  0.
         12    1    1    2    0    0 -0.13884794687E+02  0.42325728693E+02 -0.66976599564E+01  0.45045682166E+02  0.00000000000E+00 0. -1.
         11    1    3    3    0    0  0.66642296415E+01 -0.29345443419E+02  0.78966487599E+01  0.31111478076E+02  0.51100000000E-03 0.  1.
        -11    1    3    3    0    0  0.36757593705E+01 -0.56376326151E+01  0.31705661045E+00  0.67375539781E+01  0.51100000000E-03 0. -1.
         12    1    3    3    0    0  0.35448056754E+01 -0.73426526584E+01 -0.15160454139E+01  0.82932857804E+01  0.00000000000E+00 0. -1.
</event>
<event>
 7    1  0.1385632E-008  0.4614232E+02  0.7816164E-02  0.1320468E+00
        -11   -1    0    0    0    0  0.00000000000E+00  0.00000000000E+00  0.45593999997E+02  0.45594000000E+02  0.51100000000E-03 0.  1.
         11   -1    0    0    0    0 -0.00000000000E+00 -0.00000000000E+00 -0.45593999997E+02  0.45594000000E+02  0.51100000000E-03 0. -1.
    9900012    2    1    2    0    0  0.38436050514E+01 -0.15024142873E+02  0.42292024323E+02  0.46142317741E+02  0.99999998150E+01 0.  0.
         12    1    1    2    0    0 -0.38436050514E+01  0.15024142873E+02 -0.42292024323E+02  0.45045682259E+02  0.00000000000E+00 0. -1.
         11    1    3    3    0    0  0.17650796342E+01 -0.15659686213E+01  0.12217908962E+01  0.26571671181E+01  0.51100000000E-03 0. -1.
        -11    1    3    3    0    0 -0.51540831421E+00 -0.52243504392E+01  0.10805057846E+02  0.12012858051E+02  0.51100000000E-03 0.  1.
         12    1    3    3    0    0  0.25939337314E+01 -0.82338238126E+01  0.30265175581E+02  0.31472292571E+02  0.00000000000E+00 0. -1.
</event>
<event>
 7    1  0.1385632E-008  0.4614232E+02  0.7816164E-02  0.1320468E+00
        -11   -1    0    0    0    0  0.00000000000E+00  0.00000000000E+00  0.45593999997E+02  0.45594000000E+02  0.51100000000E-03 0.  1.
         11   -1    0    0    0    0 -0.00000000000E+00 -0.00000000000E+00 -0.45593999997E+02  0.45594000000E+02  0.51100000000E-03 0. -1.
    9900012    2    1    2    0    0  0.29614316135E+02  0.18762421154E+02  0.28285639522E+02  0.46142316845E+02  0.99999916487E+01 0.  0.
         12    1    1    2    0    0 -0.29614316135E+02 -0.18762421154E+02 -0.28285639522E+02  0.45045683155E+02  0.00000000000E+00 0. -1.
         11    1    3    3    0    0  0.17507002463E+02  0.16119541823E+02  0.16919005262E+02  0.29199101067E+02  0.51100000000E-03 0. -1.
        -11    1    3    3    0    0  0.72307925718E+01  0.24593845495E+01  0.76413072964E+01  0.10803819280E+02  0.51100000000E-03 0.  1.
         12    1    3    3    0    0  0.48765210999E+01  0.18349478221E+00  0.37253269637E+01  0.61393964980E+01  0.00000000000E+00 0. -1.
</event>
<event>
 7    1  0.1385632E-008  0.4614232E+02  0.7816164E-02  0.1320468E+00
        -11   -1    0    0    0    0  0.00000000000E+00  0.00000000000E+00  0.45593999997E+02  0.45594000000E+02  0.51100000000E-03 0.  1.
         11   -1    0    0    0    0 -0.00000000000E+00 -0.00000000000E+00 -0.45593999997E+02  0.45594000000E+02  0.51100000000E-03 0. -1.
    9900012    2    1    2    0    0  0.13558103509E+02  0.20512387349E+02  0.37742989787E+02  0.46142317814E+02  0.10000000480E+02 0.  0.
         12    1    1    2    0    0 -0.13558103509E+02 -0.20512387349E+02 -0.37742989787E+02  0.45045682186E+02  0.00000000000E+00 0. -1.
         11    1    3    3    0    0  0.24583067411E+01  0.17948139922E+01  0.66516147693E+01  0.73149578673E+01  0.51100000000E-03 0. -1.
        -11    1    3    3    0    0  0.88796819927E+01  0.17789277265E+02  0.23082996195E+02  0.30465256466E+02  0.51100000000E-03 0.  1.
        -12    1    3    3    0    0  0.22201147752E+01  0.92829609170E+00  0.80083788231E+01  0.83621034808E+01  0.00000000000E+00 0.  1.
</event>
<event>
 7    1  0.1385632E-008  0.4614232E+02  0.7816164E-02  0.1320468E+00
        -11   -1    0    0    0    0  0.00000000000E+00  0.00000000000E+00  0.45593999997E+02  0.45594000000E+02  0.51100000000E-03 0.  1.
         11   -1    0    0    0    0 -0.00000000000E+00 -0.00000000000E+00 -0.45593999997E+02  0.45594000000E+02  0.51100000000E-03 0. -1.
    9900012    2    1    2    0    0 -0.36983996259E+02 -0.23081062440E+02  0.11338521243E+02  0.46142317781E+02  0.10000000181E+02 0.  0.
         12    1    1    2    0    0  0.36983996259E+02  0.23081062440E+02 -0.11338521243E+02  0.45045682219E+02  0.00000000000E+00 0. -1.
         11    1    3    3    0    0 -0.19615025133E+01 -0.12832840937E+01 -0.10646651694E+01  0.25744557403E+01  0.51100000000E-03 0. -1.
        -11    1    3    3    0    0 -0.31411017967E+02 -0.21474378061E+02  0.10496714046E+02  0.39471280304E+02  0.51100000000E-03 0.  1.
        -12    1    3    3    0    0 -0.36114757783E+01 -0.32340028551E+00  0.19064723660E+01  0.40965817365E+01  0.00000000000E+00 0.  1.
</event>
<event>
 7    1  0.1385632E-008  0.4614232E+02  0.7816164E-02  0.1320468E+00
        -11   -1    0    0    0    0  0.00000000000E+00  0.00000000000E+00  0.45593999997E+02  0.45594000000E+02  0.51100000000E-03 0. -1.
         11   -1    0    0    0    0 -0.00000000000E+00 -0.00000000000E+00 -0.45593999997E+02  0.45594000000E+02  0.51100000000E-03 0.  1.
    9900012    2    1    2    0    0  0.30857220060E+02  0.30708799151E+02 -0.11572174701E+02  0.46142316495E+02  0.99999884552E+01 0.  0.
         12    1    1    2    0    0 -0.30857220060E+02 -0.30708799151E+02  0.11572174701E+02  0.45045683505E+02  0.00000000000E+00 0. -1.
         11    1    3    3    0    0  0.31569245507E+01  0.27795943635E+01  0.90372586256E+00  0.43022131677E+01  0.51100000000E-03 0. -1.
        -11    1    3    3    0    0  0.25306494336E+02  0.21962439216E+02 -0.10480388472E+02  0.35108488072E+02  0.51100000000E-03 0.  1.
        -12    1    3    3    0    0  0.23938011729E+01  0.59667655717E+01 -0.19955120919E+01  0.67316152558E+01  0.00000000000E+00 0.  1.
</event>
<event>
 7    1  0.1385632E-008  0.4614232E+02  0.7816164E-02  0.1320468E+00
        -11   -1    0    0    0    0  0.00000000000E+00  0.00000000000E+00  0.45593999997E+02  0.45594000000E+02  0.51100000000E-03 0.  1.
         11   -1    0    0    0    0 -0.00000000000E+00 -0.00000000000E+00 -0.45593999997E+02  0.45594000000E+02  0.51100000000E-03 0. -1.
    9900012    2    1    2    0    0 -0.28056800204E+02  0.21260690176E+02  0.28105381404E+02  0.46142318206E+02  0.10000004053E+02 0.  0.
         12    1    1    2    0    0  0.28056800204E+02 -0.21260690176E+02 -0.28105381404E+02  0.45045681794E+02  0.00000000000E+00 0. -1.
         11    1    3    3    0    0 -0.44675873053E+01  0.52262030988E+01  0.93703520907E+01  0.11622221549E+02  0.51100000000E-03 0. -1.
        -11    1    3    3    0    0 -0.17185930714E+02  0.12272449221E+02  0.11055025832E+02  0.23836585762E+02  0.51100000000E-03 0.  1.
        -12    1    3    3    0    0 -0.64032821856E+01  0.37620378567E+01  0.76800034807E+01  0.10683510895E+02  0.00000000000E+00 0.  1.
</event>
<event>
 7    1  0.1385632E-008  0.4614232E+02  0.7816164E-02  0.1320468E+00
        -11   -1    0    0    0    0  0.00000000000E+00  0.00000000000E+00  0.45593999997E+02  0.45594000000E+02  0.51100000000E-03 0.  1.
         11   -1    0    0    0    0 -0.00000000000E+00 -0.00000000000E+00 -0.45593999997E+02  0.45594000000E+02  0.51100000000E-03 0. -1.
    9900012    2    1    2    0    0  0.19487504761E+02  0.33138355281E+02  0.23477651326E+02  0.46142317140E+02  0.99999943376E+01 0.  0.
         12    1    1    2    0    0 -0.19487504761E+02 -0.33138355281E+02 -0.23477651326E+02  0.45045682860E+02  0.00000000000E+00 0. -1.
         11    1    3    3    0    0  0.45062666283E+01  0.67520255773E+01  0.29371426772E+01  0.86326760445E+01  0.51100000000E-03 0.  1.
        -11    1    3    3    0    0  0.15544420959E+02  0.25162392428E+02  0.20772686793E+02  0.36142489296E+02  0.51100000000E-03 0. -1.
         12    1    3    3    0    0 -0.56318282729E+00  0.12239372757E+01 -0.23217814424E+00  0.13671517994E+01  0.00000000000E+00 0. -1.
</event>
<event>
 7    1  0.1385632E-008  0.4614232E+02  0.7816164E-02  0.1320468E+00
        -11   -1    0    0    0    0  0.00000000000E+00  0.00000000000E+00  0.45593999997E+02  0.45594000000E+02  0.51100000000E-03 0. -1.
         11   -1    0    0    0    0 -0.00000000000E+00 -0.00000000000E+00 -0.45593999997E+02  0.45594000000E+02  0.51100000000E-03 0.  1.
    9900012    2    1    2    0    0  0.13924916300E+02 -0.65186304311E+01 -0.42340497182E+02  0.46142317207E+02  0.99999949486E+01 0.  0.
         12    1    1    2    0    0 -0.13924916300E+02  0.65186304311E+01  0.42340497182E+02  0.45045682793E+02  0.00000000000E+00 0. -1.
         11    1    3    3    0    0  0.44121857971E+01 -0.18245870021E+01 -0.36888732106E+01  0.60335965279E+01  0.51100000000E-03 0. -1.
        -11    1    3    3    0    0  0.53539321822E+01 -0.30101837532E+01 -0.24762002415E+02  0.25512400120E+02  0.51100000000E-03 0.  1.
         12    1    3    3    0    0  0.41587983209E+01 -0.16838596758E+01 -0.13889621557E+02  0.14596320559E+02  0.00000000000E+00 0. -1.
</event>
<event>
 7    1  0.1385632E-008  0.4614232E+02  0.7816164E-02  0.1320468E+00
        -11   -1    0    0    0    0  0.00000000000E+00  0.00000000000E+00  0.45593999997E+02  0.45594000000E+02  0.51100000000E-03 0.  1.
         11   -1    0    0    0    0 -0.00000000000E+00 -0.00000000000E+00 -0.45593999997E+02  0.45594000000E+02  0.51100000000E-03 0. -1.
    9900012    2    1    2    0    0 -0.52529022091E+01  0.11687256101E+02  0.43184819934E+02  0.46142316416E+02  0.99999877357E+01 0.  0.
         12    1    1    2    0    0  0.52529022091E+01 -0.11687256101E+02 -0.43184819934E+02  0.45045683584E+02  0.00000000000E+00 0. -1.
         11    1    3    3    0    0 -0.57859512250E+01  0.28534872029E+01  0.14532233031E+02  0.15899855909E+02  0.51100000000E-03 0. -1.
        -11    1    3    3    0    0  0.17394360823E+01  0.66994382405E+01  0.17405154604E+02  0.18730924101E+02  0.51100000000E-03 0.  1.
        -12    1    3    3    0    0 -0.12063870664E+01  0.21343306572E+01  0.11247432299E+02  0.11511536406E+02  0.00000000000E+00 0.  1.
</event>
<event>
 7    1  0.1385632E-008  0.4614232E+02  0.7816164E-02  0.1320468E+00
        -11   -1    0    0    0    0  0.00000000000E+00  0.00000000000E+00  0.45593999997E+02  0.45594000000E+02  0.51100000000E-03 0. -1.
         11   -1    0    0    0    0 -0.00000000000E+00 -0.00000000000E+00 -0.45593999997E+02  0.45594000000E+02  0.51100000000E-03 0.  1.
    9900012    2    1    2    0    0 -0.21133149208E+02 -0.11542328204E+02  0.38069387148E+02  0.46142316815E+02  0.99999913701E+01 0.  0.
         12    1    1    2    0    0  0.21133149208E+02  0.11542328204E+02 -0.38069387148E+02  0.45045683185E+02  0.00000000000E+00 0. -1.
         11    1    3    3    0    0 -0.52007517770E+01  0.12073287152E+01  0.10319698141E+02  0.11619020254E+02  0.51100000000E-03 0. -1.
        -11    1    3    3    0    0 -0.15613117141E+02 -0.12040924835E+02  0.26205943654E+02  0.32794889553E+02  0.51100000000E-03 0.  1.
         12    1    3    3    0    0 -0.31928028990E+00 -0.70873208446E+00  0.15437453526E+01  0.17284070079E+01  0.00000000000E+00 0. -1.
</event>
<event>
 7    1  0.1385632E-008  0.4614232E+02  0.7816164E-02  0.1320468E+00
        -11   -1    0    0    0    0  0.00000000000E+00  0.00000000000E+00  0.45593999997E+02  0.45594000000E+02  0.51100000000E-03 0.  1.
         11   -1    0    0    0    0 -0.00000000000E+00 -0.00000000000E+00 -0.45593999997E+02  0.45594000000E+02  0.51100000000E-03 0. -1.
    9900012    2    1    2    0    0 -0.18380495980E+02  0.28933817714E+01  0.41023153968E+02  0.46142318165E+02  0.10000003681E+02 0.  0.
         12    1    1    2    0    0  0.18380495980E+02 -0.28933817714E+01 -0.41023153968E+02  0.45045681835E+02  0.00000000000E+00 0. -1.
         11    1    3    3    0    0 -0.13582341772E+00  0.86870348780E+00  0.46271243287E+01  0.47099228831E+01  0.51100000000E-03 0. -1.
        -11    1    3    3    0    0 -0.17751321985E+02  0.26970613831E+01  0.36412040259E+02  0.40598278885E+02  0.51100000000E-03 0.  1.
        -12    1    3    3    0    0 -0.49335057675E+00 -0.67238309958E+00 -0.16010619566E-01  0.83411639723E+00  0.00000000000E+00 0.  1.
</event>
<event>
 7    1  0.1385632E-008  0.4614232E+02  0.7816164E-02  0.1320468E+00
        -11   -1    0    0    0    0  0.00000000000E+00  0.00000000000E+00  0.45593999997E+02  0.45594000000E+02  0.51100000000E-03 0. -1.
         11   -1    0    0    0    0 -0.00000000000E+00 -0.00000000000E+00 -0.45593999997E+02  0.45594000000E+02  0.51100000000E-03 0.  1.
    9900012    2    1    2    0    0 -0.26805504016E+02 -0.33025340787E+02 -0.14829204981E+02  0.46142317632E+02  0.99999988197E+01 0.  0.
         12    1    1    2    0    0  0.26805504016E+02  0.33025340787E+02  0.14829204981E+02  0.45045682368E+02  0.00000000000E+00 0. -1.
         11    1    3    3    0    0 -0.25132730709E+01 -0.12420910901E+01 -0.13446964379E+00  0.28066731465E+01  0.51100000000E-03 0. -1.
        -11    1    3    3    0    0 -0.15631015630E+02 -0.15771834008E+02 -0.10916979807E+02  0.24743885022E+02  0.51100000000E-03 0.  1.
        -12    1    3    3    0    0 -0.86612153147E+01 -0.16011415689E+02 -0.37777555308E+01  0.18591759463E+02  0.00000000000E+00 0.  1.
</event>
<event>
 7    1  0.1385632E-008  0.4614233E+02  0.7816164E-02  0.1320468E+00
        -11   -1    0    0    0    0  0.00000000000E+00  0.00000000000E+00  0.45593999997E+02  0.45594000000E+02  0.51100000000E-03 0.  1.
         11   -1    0    0    0    0 -0.00000000000E+00 -0.00000000000E+00 -0.45593999997E+02  0.45594000000E+02  0.51100000000E-03 0. -1.
    9900012    2    1    2    0    0  0.31961603245E+02 -0.98613298321E+01  0.30171557402E+02  0.46142325578E+02  0.10000071284E+02 0.  0.
         12    1    1    2    0    0 -0.31961603245E+02  0.98613298321E+01 -0.30171557402E+02  0.45045674422E+02  0.00000000000E+00 0. -1.
         11    1    3    3    0    0  0.13775235440E+02 -0.60395848995E+01  0.90929294892E+01  0.17575979749E+02  0.51100000000E-03 0. -1.
        -11    1    3    3    0    0  0.13125187096E+02 -0.39905472145E+01  0.18029643561E+02  0.22655309544E+02  0.51100000000E-03 0.  1.
        -12    1    3    3    0    0  0.50611807094E+01  0.16880228199E+00  0.30489843522E+01  0.59110362851E+01  0.00000000000E+00 0.  1.
</event>
<event>
 7    1  0.1385632E-008  0.4614232E+02  0.7816164E-02  0.1320468E+00
        -11   -1    0    0    0    0  0.00000000000E+00  0.00000000000E+00  0.45593999997E+02  0.45594000000E+02  0.51100000000E-03 0. -1.
         11   -1    0    0    0    0 -0.00000000000E+00 -0.00000000000E+00 -0.45593999997E+02  0.45594000000E+02  0.51100000000E-03 0.  1.
    9900012    2    1    2    0    0  0.43219122528E+02  0.12516499038E+02 -0.21350282185E+01  0.46142316014E+02  0.99999840704E+01 0.  0.
         12    1    1    2    0    0 -0.43219122528E+02 -0.12516499038E+02  0.21350282185E+01  0.45045683986E+02  0.00000000000E+00 0. -1.
         11    1    3    3    0    0  0.17649859602E+01 -0.65289616666E-02 -0.19324915890E+01  0.26172011901E+01  0.51100000000E-03 0. -1.
        -11    1    3    3    0    0  0.11240211324E+02  0.20728962791E+01  0.13983252463E+01  0.11514971270E+02  0.51100000000E-03 0.  1.
        -12    1    3    3    0    0  0.30213925244E+02  0.10450131720E+02 -0.16008618758E+01  0.32010143554E+02  0.00000000000E+00 0.  1.
</event>
<event>
 7    1  0.1385632E-008  0.4614231E+02  0.7816164E-02  0.1320468E+00
        -11   -1    0    0    0    0  0.00000000000E+00  0.00000000000E+00  0.45593999997E+02  0.45594000000E+02  0.51100000000E-03 0.  1.
         11   -1    0    0    0    0 -0.00000000000E+00 -0.00000000000E+00 -0.45593999997E+02  0.45594000000E+02  0.51100000000E-03 0. -1.
    9900012    2    1    2    0    0 -0.13471939425E+02 -0.15042166467E+02  0.40266039603E+02  0.46142313534E+02  0.99999614529E+01 0.  0.
         12    1    1    2    0    0  0.13471939425E+02  0.15042166467E+02 -0.40266039603E+02  0.45045686466E+02  0.00000000000E+00 0. -1.
         11    1    3    3    0    0  0.25213154895E+00  0.10395121881E+01  0.16230924805E+01  0.19438583715E+01  0.51100000000E-03 0. -1.
        -11    1    3    3    0    0 -0.74120528589E+00 -0.35158475414E+00  0.32245899321E+01  0.33273078617E+01  0.51100000000E-03 0.  1.
         12    1    3    3    0    0 -0.12982865688E+02 -0.15730093901E+02  0.35418357191E+02  0.40871147301E+02  0.00000000000E+00 0. -1.
</event>
<event>
 7    1  0.1385632E-008  0.4614231E+02  0.7816164E-02  0.1320468E+00
        -11   -1    0    0    0    0  0.00000000000E+00  0.00000000000E+00  0.45593999997E+02  0.45594000000E+02  0.51100000000E-03 0.  1.
         11   -1    0    0    0    0 -0.00000000000E+00 -0.00000000000E+00 -0.45593999997E+02  0.45594000000E+02  0.51100000000E-03 0. -1.
    9900012    2    1    2    0    0  0.22285417418E+02  0.11559338759E+01  0.39129758600E+02  0.46142311852E+02  0.99999461122E+01 0.  0.
         12    1    1    2    0    0 -0.22285417418E+02 -0.11559338759E+01 -0.39129758600E+02  0.45045688148E+02  0.00000000000E+00 0. -1.
         11    1    3    3    0    0  0.10964264246E+02 -0.17141655330E+01  0.14779587122E+02  0.18482144077E+02  0.51100000000E-03 0. -1.
        -11    1    3    3    0    0  0.17239025860E+01  0.28447749836E+01  0.85413858074E+01  0.91662345925E+01  0.51100000000E-03 0.  1.
        -12    1    3    3    0    0  0.95972505863E+01  0.25324425249E-01  0.15808785671E+02  0.18493933182E+02  0.00000000000E+00 0.  1.
</event>
<event>
 7    1  0.1385632E-008  0.4614232E+02  0.7816164E-02  0.1320468E+00
        -11   -1    0    0    0    0  0.00000000000E+00  0.00000000000E+00  0.45593999997E+02  0.45594000000E+02  0.51100000000E-03 0. -1.
         11   -1    0    0    0    0 -0.00000000000E+00 -0.00000000000E+00 -0.45593999997E+02  0.45594000000E+02  0.51100000000E-03 0.  1.
    9900012    2    1    2    0    0 -0.18761406524E+02  0.67859664124E+01 -0.40386553774E+02  0.46142318291E+02  0.10000004832E+02 0.  0.
         12    1    1    2    0    0  0.18761406524E+02 -0.67859664124E+01  0.40386553774E+02  0.45045681709E+02  0.00000000000E+00 0. -1.
         11    1    3    3    0    0 -0.46022515176E+01  0.26473387178E+01 -0.16660349702E+02  0.17485890706E+02  0.51100000000E-03 0. -1.
        -11    1    3    3    0    0 -0.52413934813E+00  0.18498119354E+01 -0.51696536090E+01  0.55156001442E+01  0.51100000000E-03 0.  1.
        -12    1    3    3    0    0 -0.13635015658E+02  0.22888157591E+01 -0.18556550463E+02  0.23140827441E+02  0.00000000000E+00 0.  1.
</event>
<event>
 7    1  0.1385632E-008  0.4614232E+02  0.7816164E-02  0.1320468E+00
        -11   -1    0    0    0    0  0.00000000000E+00  0.00000000000E+00  0.45593999997E+02  0.45594000000E+02  0.51100000000E-03 0. -1.
         11   -1    0    0    0    0 -0.00000000000E+00 -0.00000000000E+00 -0.45593999997E+02  0.45594000000E+02  0.51100000000E-03 0.  1.
    9900012    2    1    2    0    0  0.38408463908E+02  0.21245470419E+02 -0.10125878275E+02  0.46142317366E+02  0.99999963964E+01 0.  0.
         12    1    1    2    0    0 -0.38408463908E+02 -0.21245470419E+02  0.10125878275E+02  0.45045682634E+02  0.00000000000E+00 0. -1.
         11    1    3    3    0    0 -0.21254691018E+00  0.13928603613E+01  0.38937730997E+00  0.14617972246E+01  0.51100000000E-03 0. -1.
        -11    1    3    3    0    0  0.11896698686E+02  0.60533628672E+01 -0.33440497882E+01  0.13760716220E+02  0.51100000000E-03 0.  1.
         12    1    3    3    0    0  0.26724312132E+02  0.13799247191E+02 -0.71712057964E+01  0.30919803922E+02  0.00000000000E+00 0. -1.
</event>
<event>
 7    1  0.1385632E-008  0.4614232E+02  0.7816164E-02  0.1320468E+00
        -11   -1    0    0    0    0  0.00000000000E+00  0.00000000000E+00  0.45593999997E+02  0.45594000000E+02  0.51100000000E-03 0.  1.
         11   -1    0    0    0    0 -0.00000000000E+00 -0.00000000000E+00 -0.45593999997E+02  0.45594000000E+02  0.51100000000E-03 0. -1.
    9900012    2    1    2    0    0 -0.20713146428E+02 -0.43242198816E+00  0.39998649160E+02  0.46142319204E+02  0.10000013162E+02 0.  0.
         12    1    1    2    0    0  0.20713146428E+02  0.43242198816E+00 -0.39998649160E+02  0.45045680796E+02  0.00000000000E+00 0. -1.
         11    1    3    3    0    0 -0.63956610834E+01  0.28859893514E+01  0.91409889089E+01  0.11523501800E+02  0.51100000000E-03 0. -1.
        -11    1    3    3    0    0 -0.11561779222E+02 -0.19117985590E+01  0.28207828584E+02  0.30545233772E+02  0.51100000000E-03 0.  1.
        -12    1    3    3    0    0 -0.27557061232E+01 -0.14066127806E+01  0.26498316668E+01  0.40735836329E+01  0.00000000000E+00 0.  1.
</event>
<event>
 7    1  0.1385632E-008  0.4614232E+02  0.7816164E-02  0.1320468E+00
        -11   -1    0    0    0    0  0.00000000000E+00  0.00000000000E+00  0.45593999997E+02  0.45594000000E+02  0.51100000000E-03 0. -1.
         11   -1    0    0    0    0 -0.00000000000E+00 -0.00000000000E+00 -0.45593999997E+02  0.45594000000E+02  0.51100000000E-03 0.  1.
    9900012    2    1    2    0    0 -0.21010166620E+02  0.24726680378E+02 -0.31245442008E+02  0.46142317963E+02  0.10000001841E+02 0.  0.
         12    1    1    2    0    0  0.21010166620E+02 -0.24726680378E+02  0.31245442008E+02  0.45045682037E+02  0.00000000000E+00 0. -1.
         11    1    3    3    0    0 -0.11139707488E+02  0.13467354343E+02 -0.10222406043E+02  0.20247476423E+02  0.51100000000E-03 0. -1.
        -11    1    3    3    0    0 -0.64463911281E+01  0.61924048029E+01 -0.11292275511E+02  0.14401990220E+02  0.51100000000E-03 0.  1.
         12    1    3    3    0    0 -0.34240680043E+01  0.50669212321E+01 -0.97307604539E+01  0.11492851321E+02  0.00000000000E+00 0. -1.
</event>
<event>
 7    1  0.1385632E-008  0.4614232E+02  0.7816164E-02  0.1320468E+00
        -11   -1    0    0    0    0  0.00000000000E+00  0.00000000000E+00  0.45593999997E+02  0.45594000000E+02  0.51100000000E-03 0.  1.
         11   -1    0    0    0    0 -0.00000000000E+00 -0.00000000000E+00 -0.45593999997E+02  0.45594000000E+02  0.51100000000E-03 0. -1.
    9900012    2    1    2    0    0 -0.42215062063E+02 -0.27947075254E+01  0.15465815023E+02  0.46142319969E+02  0.10000020137E+02 0.  0.
         12    1    1    2    0    0  0.42215062063E+02  0.27947075254E+01 -0.15465815023E+02  0.45045680031E+02  0.00000000000E+00 0. -1.
         11    1    3    3    0    0 -0.14504468055E+02  0.12885349866E+01  0.62467006458E+01  0.15844910387E+02  0.51100000000E-03 0.  1.
        -11    1    3    3    0    0 -0.17454867160E+02  0.34567377521E+00  0.74735435603E+01  0.18990674857E+02  0.51100000000E-03 0. -1.
         12    1    3    3    0    0 -0.10255726848E+02 -0.44289162872E+01  0.17455708170E+01  0.11306734725E+02  0.00000000000E+00 0. -1.
</event>
<event>
 7    1  0.1385632E-008  0.4614231E+02  0.7816164E-02  0.1320468E+00
        -11   -1    0    0    0    0  0.00000000000E+00  0.00000000000E+00  0.45593999997E+02  0.45594000000E+02  0.51100000000E-03 0.  1.
         11   -1    0    0    0    0 -0.00000000000E+00 -0.00000000000E+00 -0.45593999997E+02  0.45594000000E+02  0.51100000000E-03 0. -1.
    9900012    2    1    2    0    0 -0.28941879441E+02 -0.86475189656E+01  0.33417088556E+02  0.46142314553E+02  0.99999707430E+01 0.  0.
         12    1    1    2    0    0  0.28941879441E+02  0.86475189656E+01 -0.33417088556E+02  0.45045685447E+02  0.00000000000E+00 0. -1.
         11    1    3    3    0    0 -0.15219010846E+02 -0.45849671754E+01  0.21132339679E+02  0.26442692671E+02  0.51100000000E-03 0. -1.
        -11    1    3    3    0    0 -0.66852368831E+00  0.75107197112E-01  0.31903716083E+01  0.32605269931E+01  0.51100000000E-03 0.  1.
         12    1    3    3    0    0 -0.13054344907E+02 -0.41376589873E+01  0.90943772693E+01  0.16439094889E+02  0.00000000000E+00 0. -1.
</event>
<event>
 7    1  0.1385632E-008  0.4614232E+02  0.7816164E-02  0.1320468E+00
        -11   -1    0    0    0    0  0.00000000000E+00  0.00000000000E+00  0.45593999997E+02  0.45594000000E+02  0.51100000000E-03 0. -1.
         11   -1    0    0    0    0 -0.00000000000E+00 -0.00000000000E+00 -0.45593999997E+02  0.45594000000E+02  0.51100000000E-03 0.  1.
    9900012    2    1    2    0    0 -0.43289157987E+02 -0.11783948956E+02 -0.40374147875E+01  0.46142319071E+02  0.10000011940E+02 0.  0.
         12    1    1    2    0    0  0.43289157987E+02  0.11783948956E+02  0.40374147875E+01  0.45045680929E+02  0.00000000000E+00 0. -1.
         11    1    3    3    0    0 -0.47190877173E+01 -0.20910737414E+01 -0.10768925060E+01  0.52727673954E+01  0.51100000000E-03 0. -1.
        -11    1    3    3    0    0 -0.18598839185E+02 -0.16250826160E+01 -0.47244410752E+01  0.19258194523E+02  0.51100000000E-03 0.  1.
        -12    1    3    3    0    0 -0.19971231084E+02 -0.80677925988E+01  0.17639187937E+01  0.21611357152E+02  0.00000000000E+00 0.  1.
</event>
<event>
 7    1  0.1385632E-008  0.4614232E+02  0.7816164E-02  0.1320468E+00
        -11   -1    0    0    0    0  0.00000000000E+00  0.00000000000E+00  0.45593999997E+02  0.45594000000E+02  0.51100000000E-03 0. -1.
         11   -1    0    0    0    0 -0.00000000000E+00 -0.00000000000E+00 -0.45593999997E+02  0.45594000000E+02  0.51100000000E-03 0.  1.
    9900012    2    1    2    0    0  0.31498974380E+02  0.21089538601E+02 -0.24334325348E+02  0.46142318569E+02  0.10000007370E+02 0.  0.
         12    1    1    2    0    0 -0.31498974380E+02 -0.21089538601E+02  0.24334325348E+02  0.45045681431E+02  0.00000000000E+00 0. -1.
         11    1    3    3    0    0  0.87141870099E+01  0.25842274539E+01 -0.94643324129E+01  0.13122075867E+02  0.51100000000E-03 0. -1.
        -11    1    3    3    0    0  0.18099891354E+02  0.14328239566E+02 -0.12884807658E+02  0.26437147818E+02  0.51100000000E-03 0.  1.
         12    1    3    3    0    0  0.46848960164E+01  0.41770715808E+01 -0.19851852773E+01  0.65830948847E+01  0.00000000000E+00 0. -1.
</event>
<event>
 7    1  0.1385632E-008  0.4614232E+02  0.7816164E-02  0.1320468E+00
        -11   -1    0    0    0    0  0.00000000000E+00  0.00000000000E+00  0.45593999997E+02  0.45594000000E+02  0.51100000000E-03 0.  1.
         11   -1    0    0    0    0 -0.00000000000E+00 -0.00000000000E+00 -0.45593999997E+02  0.45594000000E+02  0.51100000000E-03 0. -1.
    9900012    2    1    2    0    0 -0.34708844299E+02  0.19326220277E+02  0.21234568196E+02  0.46142317085E+02  0.99999938353E+01 0.  0.
         12    1    1    2    0    0  0.34708844299E+02 -0.19326220277E+02 -0.21234568196E+02  0.45045682915E+02  0.00000000000E+00 0. -1.
         11    1    3    3    0    0 -0.13918273329E+02  0.53339780282E+01  0.11320498954E+02  0.18716926855E+02  0.51100000000E-03 0. -1.
        -11    1    3    3    0    0 -0.16594386400E+02  0.11911429896E+02  0.59133156522E+01  0.21265538423E+02  0.51100000000E-03 0.  1.
        -12    1    3    3    0    0 -0.41961845695E+01  0.20808123533E+01  0.40007535904E+01  0.61598518068E+01  0.00000000000E+00 0.  1.
</event>
<event>
 7    1  0.1385632E-008  0.4614232E+02  0.7816164E-02  0.1320468E+00
        -11   -1    0    0    0    0  0.00000000000E+00  0.00000000000E+00  0.45593999997E+02  0.45594000000E+02  0.51100000000E-03 0.  1.
         11   -1    0    0    0    0 -0.00000000000E+00 -0.00000000000E+00 -0.45593999997E+02  0.45594000000E+02  0.51100000000E-03 0. -1.
    9900012    2    1    2    0    0 -0.36974225499E+02 -0.17357151648E+02  0.18993405163E+02  0.46142317585E+02  0.99999983930E+01 0.  0.
         12    1    1    2    0    0  0.36974225499E+02  0.17357151648E+02 -0.18993405163E+02  0.45045682415E+02  0.00000000000E+00 0. -1.
         11    1    3    3    0    0 -0.23459661509E+01  0.29392743774E+00  0.23637162924E+01  0.33432178350E+01  0.51100000000E-03 0. -1.
        -11    1    3    3    0    0 -0.30554625213E+01 -0.24774245479E+00 -0.72808919219E-01  0.30663543407E+01  0.51100000000E-03 0.  1.
        -12    1    3    3    0    0 -0.31572796827E+02 -0.17403336631E+02  0.16702497790E+02  0.39732745409E+02  0.00000000000E+00 0.  1.
</event>
<event>
 7    1  0.1385632E-008  0.4614232E+02  0.7816164E-02  0.1320468E+00
        -11   -1    0    0    0    0  0.00000000000E+00  0.00000000000E+00  0.45593999997E+02  0.45594000000E+02  0.51100000000E-03 0. -1.
         11   -1    0    0    0    0 -0.00000000000E+00 -0.00000000000E+00 -0.45593999997E+02  0.45594000000E+02  0.51100000000E-03 0.  1.
    9900012    2    1    2    0    0  0.82247367554E+01  0.75499505318E+01 -0.43640182666E+02  0.46142316623E+02  0.99999896247E+01 0.  0.
         12    1    1    2    0    0 -0.82247367554E+01 -0.75499505318E+01  0.43640182666E+02  0.45045683377E+02  0.00000000000E+00 0. -1.
         11    1    3    3    0    0 -0.15573006047E+01  0.99024335940E+00 -0.32644015382E+01  0.37499446327E+01  0.51100000000E-03 0. -1.
        -11    1    3    3    0    0  0.46977615400E+01  0.56195556705E+01 -0.28755858060E+02  0.29674024710E+02  0.51100000000E-03 0.  1.
        -12    1    3    3    0    0  0.50842758201E+01  0.94015150185E+00 -0.11619923068E+02  0.12718347281E+02  0.00000000000E+00 0.  1.
</event>
<event>
 7    1  0.1385632E-008  0.4614232E+02  0.7816164E-02  0.1320468E+00
        -11   -1    0    0    0    0  0.00000000000E+00  0.00000000000E+00  0.45593999997E+02  0.45594000000E+02  0.51100000000E-03 0. -1.
         11   -1    0    0    0    0 -0.00000000000E+00 -0.00000000000E+00 -0.45593999997E+02  0.45594000000E+02  0.51100000000E-03 0.  1.
    9900012    2    1    2    0    0  0.31651987295E+02  0.15972566300E+02 -0.27787448747E+02  0.46142317834E+02  0.10000000665E+02 0.  0.
         12    1    1    2    0    0 -0.31651987295E+02 -0.15972566300E+02  0.27787448747E+02  0.45045682166E+02  0.00000000000E+00 0. -1.
         11    1    3    3    0    0  0.14891572605E+02  0.52251481157E+01 -0.81431919822E+01  0.17758735411E+02  0.51100000000E-03 0. -1.
        -11    1    3    3    0    0  0.75131846062E+01  0.54891217767E+01 -0.59557164835E+01  0.11047577105E+02  0.51100000000E-03 0.  1.
         12    1    3    3    0    0  0.92472300835E+01  0.52582964071E+01 -0.13688540282E+02  0.17336005317E+02  0.00000000000E+00 0. -1.
</event>
<event>
 7    1  0.1385632E-008  0.4614232E+02  0.7816164E-02  0.1320468E+00
        -11   -1    0    0    0    0  0.00000000000E+00  0.00000000000E+00  0.45593999997E+02  0.45594000000E+02  0.51100000000E-03 0.  1.
         11   -1    0    0    0    0 -0.00000000000E+00 -0.00000000000E+00 -0.45593999997E+02  0.45594000000E+02  0.51100000000E-03 0. -1.
    9900012    2    1    2    0    0  0.22140485175E+01  0.44425089747E+02 -0.71149832743E+01  0.46142316557E+02  0.99999890179E+01 0.  0.
         12    1    1    2    0    0 -0.22140485175E+01 -0.44425089747E+02  0.71149832743E+01  0.45045683443E+02  0.00000000000E+00 0. -1.
         11    1    3    3    0    0 -0.11391870193E+01  0.13150166742E+02 -0.62828868831E+01  0.14618457519E+02  0.51100000000E-03 0.  1.
        -11    1    3    3    0    0  0.52272266449E+00  0.16131841411E+01  0.21278699803E+00  0.17090584030E+01  0.51100000000E-03 0. -1.
         12    1    3    3    0    0  0.28305128724E+01  0.29661738864E+02 -0.10448833893E+01  0.29814800634E+02  0.00000000000E+00 0. -1.
</event>
<event>
 7    1  0.1385632E-008  0.4614232E+02  0.7816164E-02  0.1320468E+00
        -11   -1    0    0    0    0  0.00000000000E+00  0.00000000000E+00  0.45593999997E+02  0.45594000000E+02  0.51100000000E-03 0.  1.
         11   -1    0    0    0    0 -0.00000000000E+00 -0.00000000000E+00 -0.45593999997E+02  0.45594000000E+02  0.51100000000E-03 0. -1.
    9900012    2    1    2    0    0 -0.73782288185E+01 -0.34700768347E+02  0.27758457621E+02  0.46142317035E+02  0.99999933752E+01 0.  0.
         12    1    1    2    0    0  0.73782288185E+01  0.34700768347E+02 -0.27758457621E+02  0.45045682965E+02  0.00000000000E+00 0. -1.
         11    1    3    3    0    0 -0.21823782518E+01 -0.39169630038E+01  0.16168659354E+01  0.47665112736E+01  0.51100000000E-03 0. -1.
        -11    1    3    3    0    0 -0.59095279841E+01 -0.18252917897E+02  0.18662140291E+02  0.26765033406E+02  0.51100000000E-03 0.  1.
        -12    1    3    3    0    0  0.71367741738E+00 -0.12530887446E+02  0.74794513942E+01  0.14610772355E+02  0.00000000000E+00 0.  1.
</event>
<event>
 7    1  0.1385632E-008  0.4614232E+02  0.7816164E-02  0.1320468E+00
        -11   -1    0    0    0    0  0.00000000000E+00  0.00000000000E+00  0.45593999997E+02  0.45594000000E+02  0.51100000000E-03 0. -1.
         11   -1    0    0    0    0 -0.00000000000E+00 -0.00000000000E+00 -0.45593999997E+02  0.45594000000E+02  0.51100000000E-03 0.  1.
    9900012    2    1    2    0    0  0.12950244049E+02  0.18098666626E+02 -0.39164306711E+02  0.46142317913E+02  0.10000001383E+02 0.  0.
         12    1    1    2    0    0 -0.12950244049E+02 -0.18098666626E+02  0.39164306711E+02  0.45045682087E+02  0.00000000000E+00 0. -1.
         11    1    3    3    0    0 -0.82557071288E-01  0.11433708420E+01 -0.14132113611E+01  0.18196920522E+01  0.51100000000E-03 0. -1.
        -11    1    3    3    0    0  0.51631150534E+01  0.58581385593E+01 -0.22840129839E+02  0.24138083514E+02  0.51100000000E-03 0.  1.
        -12    1    3    3    0    0  0.78696860669E+01  0.11097157225E+02 -0.14910965511E+02  0.20184542346E+02  0.00000000000E+00 0.  1.
</event>
<event>
 7    1  0.1385632E-008  0.4614232E+02  0.7816164E-02  0.1320468E+00
        -11   -1    0    0    0    0  0.00000000000E+00  0.00000000000E+00  0.45593999997E+02  0.45594000000E+02  0.51100000000E-03 0.  1.
         11   -1    0    0    0    0 -0.00000000000E+00 -0.00000000000E+00 -0.45593999997E+02  0.45594000000E+02  0.51100000000E-03 0. -1.
    9900012    2    1    2    0    0  0.31138460725E+02  0.25491924439E+01  0.32450136622E+02  0.46142317796E+02  0.10000000318E+02 0.  0.
         12    1    1    2    0    0 -0.31138460725E+02 -0.25491924439E+01 -0.32450136622E+02  0.45045682204E+02  0.00000000000E+00 0. -1.
         11    1    3    3    0    0  0.35969493292E+01 -0.12530788921E+01  0.28996052069E+01  0.47870619176E+01  0.51100000000E-03 0. -1.
        -11    1    3    3    0    0  0.60817875840E+00 -0.10359502034E+01  0.29813907990E+01  0.32143063923E+01  0.51100000000E-03 0.  1.
        -12    1    3    3    0    0  0.26933332637E+02  0.48382215394E+01  0.26569140616E+02  0.38140949486E+02  0.00000000000E+00 0.  1.
</event>
<event>
 7    1  0.1385632E-008  0.4614231E+02  0.7816164E-02  0.1320468E+00
        -11   -1    0    0    0    0  0.00000000000E+00  0.00000000000E+00  0.45593999997E+02  0.45594000000E+02  0.51100000000E-03 0.  1.
         11   -1    0    0    0    0 -0.00000000000E+00 -0.00000000000E+00 -0.45593999997E+02  0.45594000000E+02  0.51100000000E-03 0. -1.
    9900012    2    1    2    0    0 -0.33391016098E+02  0.11201978369E+02  0.28083271020E+02  0.46142307790E+02  0.99999090779E+01 0.  0.
         12    1    1    2    0    0  0.33391016098E+02 -0.11201978369E+02 -0.28083271020E+02  0.45045692210E+02  0.00000000000E+00 0. -1.
         11    1    3    3    0    0 -0.91347543942E+01  0.75415369914E+01  0.77140361607E+01  0.14135942564E+02  0.51100000000E-03 0. -1.
        -11    1    3    3    0    0 -0.11366389340E+02  0.94657965986E+00  0.10963383043E+02  0.15820448403E+02  0.51100000000E-03 0.  1.
        -12    1    3    3    0    0 -0.12889872365E+02  0.27138617182E+01  0.94058518164E+01  0.16185916823E+02  0.00000000000E+00 0.  1.
</event>
<event>
 7    1  0.1385632E-008  0.4614232E+02  0.7816164E-02  0.1320468E+00
        -11   -1    0    0    0    0  0.00000000000E+00  0.00000000000E+00  0.45593999997E+02  0.45594000000E+02  0.51100000000E-03 0.  1.
         11   -1    0    0    0    0 -0.00000000000E+00 -0.00000000000E+00 -0.45593999997E+02  0.45594000000E+02  0.51100000000E-03 0. -1.
    9900012    2    1    2    0    0  0.29749038525E+02  0.15461001350E+02  0.30084307700E+02  0.46142318457E+02  0.10000006342E+02 0.  0.
         12    1    1    2    0    0 -0.29749038525E+02 -0.15461001350E+02 -0.30084307700E+02  0.45045681543E+02  0.00000000000E+00 0. -1.
         11    1    3    3    0    0  0.23437340337E+02  0.11389993194E+02  0.21356199150E+02  0.33691662313E+02  0.51100000000E-03 0. -1.
        -11    1    3    3    0    0  0.51138631889E+01  0.51225570523E+01  0.76171946549E+01  0.10507799110E+02  0.51100000000E-03 0.  1.
        -12    1    3    3    0    0  0.11978349992E+01 -0.10515488969E+01  0.11109138954E+01  0.19428570331E+01  0.00000000000E+00 0.  1.
</event>
<event>
 7    1  0.1385632E-008  0.4614232E+02  0.7816164E-02  0.1320468E+00
        -11   -1    0    0    0    0  0.00000000000E+00  0.00000000000E+00  0.45593999997E+02  0.45594000000E+02  0.51100000000E-03 0. -1.
         11   -1    0    0    0    0 -0.00000000000E+00 -0.00000000000E+00 -0.45593999997E+02  0.45594000000E+02  0.51100000000E-03 0.  1.
    9900012    2    1    2    0    0  0.27191796205E+01 -0.26870813135E+02 -0.36051058858E+02  0.46142318951E+02  0.10000010854E+02 0.  0.
         12    1    1    2    0    0 -0.27191796205E+01  0.26870813135E+02  0.36051058858E+02  0.45045681049E+02  0.00000000000E+00 0. -1.
         11    1    3    3    0    0 -0.15120519042E+01 -0.53910403469E+01 -0.40706253685E+01  0.69223990159E+01  0.51100000000E-03 0. -1.
        -11    1    3    3    0    0  0.20646784478E+01 -0.72103581903E+01 -0.16096640214E+02  0.17758209053E+02  0.51100000000E-03 0.  1.
         12    1    3    3    0    0  0.21665530768E+01 -0.14269414597E+02 -0.15883793276E+02  0.21461710883E+02  0.00000000000E+00 0. -1.
</event>
<event>
 7    1  0.1385632E-008  0.4614232E+02  0.7816164E-02  0.1320468E+00
        -11   -1    0    0    0    0  0.00000000000E+00  0.00000000000E+00  0.45593999997E+02  0.45594000000E+02  0.51100000000E-03 0. -1.
         11   -1    0    0    0    0 -0.00000000000E+00 -0.00000000000E+00 -0.45593999997E+02  0.45594000000E+02  0.51100000000E-03 0.  1.
    9900012    2    1    2    0    0 -0.42118201280E+02 -0.87986904429E+01 -0.13332428002E+02  0.46142317976E+02  0.10000001957E+02 0.  0.
         12    1    1    2    0    0  0.42118201280E+02  0.87986904429E+01  0.13332428002E+02  0.45045682024E+02  0.00000000000E+00 0. -1.
         11    1    3    3    0    0 -0.11900694544E+02 -0.66424589021E+01 -0.49067482275E+01  0.14485336355E+02  0.51100000000E-03 0. -1.
        -11    1    3    3    0    0 -0.14640916067E+02 -0.16027760955E+01 -0.59051062715E+01  0.15868068402E+02  0.51100000000E-03 0.  1.
        -12    1    3    3    0    0 -0.15576590670E+02 -0.55345544532E+00 -0.25205735026E+01  0.15788913218E+02  0.00000000000E+00 0.  1.
</event>
<event>
 7    1  0.1385632E-008  0.4614232E+02  0.7816164E-02  0.1320468E+00
        -11   -1    0    0    0    0  0.00000000000E+00  0.00000000000E+00  0.45593999997E+02  0.45594000000E+02  0.51100000000E-03 0. -1.
         11   -1    0    0    0    0 -0.00000000000E+00 -0.00000000000E+00 -0.45593999997E+02  0.45594000000E+02  0.51100000000E-03 0.  1.
    9900012    2    1    2    0    0 -0.85453108264E+01 -0.10206338974E+02 -0.43033960803E+02  0.46142317912E+02  0.10000001377E+02 0.  0.
         12    1    1    2    0    0  0.85453108264E+01  0.10206338974E+02  0.43033960803E+02  0.45045682088E+02  0.00000000000E+00 0. -1.
         11    1    3    3    0    0 -0.29591499923E+01  0.55050064053E+00 -0.97015223801E+01  0.10157714132E+02  0.51100000000E-03 0. -1.
        -11    1    3    3    0    0 -0.20841817962E+01 -0.79276144517E+01 -0.26986257718E+02  0.28203705263E+02  0.51100000000E-03 0.  1.
         12    1    3    3    0    0 -0.35019790378E+01 -0.28292251631E+01 -0.63461807048E+01  0.77808985177E+01  0.00000000000E+00 0. -1.
</event>
<event>
 7    1  0.1385632E-008  0.4614232E+02  0.7816164E-02  0.1320468E+00
        -11   -1    0    0    0    0  0.00000000000E+00  0.00000000000E+00  0.45593999997E+02  0.45594000000E+02  0.51100000000E-03 0.  1.
         11   -1    0    0    0    0 -0.00000000000E+00 -0.00000000000E+00 -0.45593999997E+02  0.45594000000E+02  0.51100000000E-03 0. -1.
    9900012    2    1    2    0    0 -0.15591542559E+02  0.38797105831E+02  0.16757146765E+02  0.46142316656E+02  0.99999899194E+01 0.  0.
         12    1    1    2    0    0  0.15591542559E+02 -0.38797105831E+02 -0.16757146765E+02  0.45045683344E+02  0.00000000000E+00 0. -1.
         11    1    3    3    0    0  0.95270516362E+00  0.21839541403E+01  0.60617789702E+00  0.24586082892E+01  0.51100000000E-03 0. -1.
        -11    1    3    3    0    0 -0.14632402625E+02  0.35337809961E+02  0.15685399281E+02  0.41338840940E+02  0.51100000000E-03 0.  1.
         12    1    3    3    0    0 -0.19118450976E+01  0.12753417301E+01  0.46556958647E+00  0.23448674260E+01  0.00000000000E+00 0. -1.
</event>
<event>
 7    1  0.1385632E-008  0.4614232E+02  0.7816164E-02  0.1320468E+00
        -11   -1    0    0    0    0  0.00000000000E+00  0.00000000000E+00  0.45593999997E+02  0.45594000000E+02  0.51100000000E-03 0. -1.
         11   -1    0    0    0    0 -0.00000000000E+00 -0.00000000000E+00 -0.45593999997E+02  0.45594000000E+02  0.51100000000E-03 0.  1.
    9900012    2    1    2    0    0  0.30350035540E+02 -0.22999789306E+02 -0.24062385776E+02  0.46142319024E+02  0.10000011512E+02 0.  0.
         12    1    1    2    0    0 -0.30350035540E+02  0.22999789306E+02  0.24062385776E+02  0.45045680976E+02  0.00000000000E+00 0. -1.
         11    1    3    3    0    0  0.28241036026E+01 -0.17239473600E+01 -0.24922667123E+00  0.33180822553E+01  0.51100000000E-03 0. -1.
        -11    1    3    3    0    0  0.82119461527E+01 -0.32645522291E+01 -0.34927814505E+01  0.95022567527E+01  0.51100000000E-03 0.  1.
        -12    1    3    3    0    0  0.19313985785E+02 -0.18011289717E+02 -0.20320377654E+02  0.33321980016E+02  0.00000000000E+00 0.  1.
</event>
<event>
 7    1  0.1385632E-008  0.4614233E+02  0.7816164E-02  0.1320468E+00
        -11   -1    0    0    0    0  0.00000000000E+00  0.00000000000E+00  0.45593999997E+02  0.45594000000E+02  0.51100000000E-03 0.  1.
         11   -1    0    0    0    0 -0.00000000000E+00 -0.00000000000E+00 -0.45593999997E+02  0.45594000000E+02  0.51100000000E-03 0. -1.
    9900012    2    1    2    0    0 -0.18290096804E+02 -0.21460584045E+02  0.35128735080E+02  0.46142330542E+02  0.10000116542E+02 0.  0.
         12    1    1    2    0    0  0.18290096804E+02  0.21460584045E+02 -0.35128735080E+02  0.45045669458E+02  0.00000000000E+00 0. -1.
         11    1    3    3    0    0 -0.72585787989E+01 -0.51355613200E+01  0.56765446676E+01  0.10549128678E+02  0.51100000000E-03 0. -1.
        -11    1    3    3    0    0 -0.21484003034E+01 -0.13039048954E+01  0.42835813535E+01  0.49663730542E+01  0.51100000000E-03 0.  1.
         12    1    3    3    0    0 -0.88831177021E+01 -0.15021117829E+02  0.25168609059E+02  0.30626828809E+02  0.00000000000E+00 0. -1.
</event>
<event>
 7    1  0.1385632E-008  0.4614232E+02  0.7816164E-02  0.1320468E+00
        -11   -1    0    0    0    0  0.00000000000E+00  0.00000000000E+00  0.45593999997E+02  0.45594000000E+02  0.51100000000E-03 0.  1.
         11   -1    0    0    0    0 -0.00000000000E+00 -0.00000000000E+00 -0.45593999997E+02  0.45594000000E+02  0.51100000000E-03 0. -1.
    9900012    2    1    2    0    0  0.61166525886E+01  0.14177489635E+02  0.42316650870E+02  0.46142316610E+02  0.99999895061E+01 0.  0.
         12    1    1    2    0    0 -0.61166525886E+01 -0.14177489635E+02 -0.42316650870E+02  0.45045683390E+02  0.00000000000E+00 0. -1.
         11    1    3    3    0    0  0.83381320784E-01  0.62528672432E+00  0.32167286158E-01  0.63164145501E+00  0.51100000000E-03 0. -1.
        -11    1    3    3    0    0  0.32760750657E+01  0.25574379597E+01  0.47972976691E+01  0.63472215923E+01  0.51100000000E-03 0.  1.
        -12    1    3    3    0    0  0.27571962021E+01  0.10994764951E+02  0.37487185914E+02  0.39163453563E+02  0.00000000000E+00 0.  1.
</event>
<event>
 7    1  0.1385632E-008  0.4614232E+02  0.7816164E-02  0.1320468E+00
        -11   -1    0    0    0    0  0.00000000000E+00  0.00000000000E+00  0.45593999997E+02  0.45594000000E+02  0.51100000000E-03 0.  1.
         11   -1    0    0    0    0 -0.00000000000E+00 -0.00000000000E+00 -0.45593999997E+02  0.45594000000E+02  0.51100000000E-03 0. -1.
    9900012    2    1    2    0    0 -0.24774787817E+02  0.96942337823E+01  0.36350313182E+02  0.46142317094E+02  0.99999939213E+01 0.  0.
         12    1    1    2    0    0  0.24774787817E+02 -0.96942337823E+01 -0.36350313182E+02  0.45045682906E+02  0.00000000000E+00 0. -1.
         11    1    3    3    0    0 -0.14953166534E+01  0.86441941413E+00  0.80213303346E+00  0.19043661628E+01  0.51100000000E-03 0. -1.
        -11    1    3    3    0    0 -0.59458434902E+01  0.52695769672E+01  0.16039851686E+02  0.17899674259E+02  0.51100000000E-03 0.  1.
        -12    1    3    3    0    0 -0.17333627674E+02  0.35602374010E+01  0.19508328463E+02  0.26338276673E+02  0.00000000000E+00 0.  1.
</event>
<event>
 7    1  0.1385632E-008  0.4614232E+02  0.7816164E-02  0.1320468E+00
        -11   -1    0    0    0    0  0.00000000000E+00  0.00000000000E+00  0.45593999997E+02  0.45594000000E+02  0.51100000000E-03 0.  1.
         11   -1    0    0    0    0 -0.00000000000E+00 -0.00000000000E+00 -0.45593999997E+02  0.45594000000E+02  0.51100000000E-03 0. -1.
    9900012    2    1    2    0    0  0.44229356383E+02 -0.85314212432E+01 -0.30327452504E+00  0.46142322184E+02  0.10000040328E+02 0.  0.
         12    1    1    2    0    0 -0.44229356383E+02  0.85314212432E+01  0.30327452504E+00  0.45045677816E+02  0.00000000000E+00 0. -1.
         11    1    3    3    0    0  0.23237204512E+02 -0.83390566495E+01  0.13191227506E+01  0.24723422587E+02  0.51100000000E-03 0. -1.
        -11    1    3    3    0    0  0.71207897715E+01  0.19350954542E+00 -0.24094314777E+01  0.75198705588E+01  0.51100000000E-03 0.  1.
        -12    1    3    3    0    0  0.13871362100E+02 -0.38587413909E+00  0.78703420202E+00  0.13899029038E+02  0.00000000000E+00 0.  1.
</event>
<event>
 7    1  0.1385632E-008  0.4614232E+02  0.7816164E-02  0.1320468E+00
        -11   -1    0    0    0    0  0.00000000000E+00  0.00000000000E+00  0.45593999997E+02  0.45594000000E+02  0.51100000000E-03 0. -1.
         11   -1    0    0    0    0 -0.00000000000E+00 -0.00000000000E+00 -0.45593999997E+02  0.45594000000E+02  0.51100000000E-03 0.  1.
    9900012    2    1    2    0    0  0.14994244323E+02 -0.14836138321E+02 -0.39801697704E+02  0.46142317596E+02  0.99999984963E+01 0.  0.
         12    1    1    2    0    0 -0.14994244323E+02  0.14836138321E+02  0.39801697704E+02  0.45045682404E+02  0.00000000000E+00 0. -1.
         11    1    3    3    0    0  0.13911402990E+01  0.94538431396E+00 -0.57912144018E+01  0.60305213159E+01  0.51100000000E-03 0. -1.
        -11    1    3    3    0    0  0.95876931808E+01 -0.10448663802E+02 -0.26556328571E+02  0.30105431789E+02  0.51100000000E-03 0.  1.
         12    1    3    3    0    0  0.40154108437E+01 -0.53328588330E+01 -0.74541547310E+01  0.10006364491E+02  0.00000000000E+00 0. -1.
</event>
<event>
 7    1  0.1385632E-008  0.4614232E+02  0.7816164E-02  0.1320468E+00
        -11   -1    0    0    0    0  0.00000000000E+00  0.00000000000E+00  0.45593999997E+02  0.45594000000E+02  0.51100000000E-03 0.  1.
         11   -1    0    0    0    0 -0.00000000000E+00 -0.00000000000E+00 -0.45593999997E+02  0.45594000000E+02  0.51100000000E-03 0. -1.
    9900012    2    1    2    0    0  0.24488996636E+01 -0.15231012059E+02  0.42321772789E+02  0.46142319964E+02  0.10000020089E+02 0.  0.
         12    1    1    2    0    0 -0.24488996636E+01  0.15231012059E+02 -0.42321772789E+02  0.45045680036E+02  0.00000000000E+00 0. -1.
         11    1    3    3    0    0 -0.39680718486E+00  0.75431713293E+00  0.16543802987E+01  0.18610278646E+01  0.51100000000E-03 0. -1.
        -11    1    3    3    0    0  0.23366591300E+01 -0.25789830195E+01  0.43863596002E+01  0.55992213841E+01  0.51100000000E-03 0.  1.
        -12    1    3    3    0    0  0.50904771840E+00 -0.13406346173E+02  0.36281032890E+02  0.38682070715E+02  0.00000000000E+00 0.  1.
</event>
<event>
 7    1  0.1385632E-008  0.4614232E+02  0.7816164E-02  0.1320468E+00
        -11   -1    0    0    0    0  0.00000000000E+00  0.00000000000E+00  0.45593999997E+02  0.45594000000E+02  0.51100000000E-03 0.  1.
         11   -1    0    0    0    0 -0.00000000000E+00 -0.00000000000E+00 -0.45593999997E+02  0.45594000000E+02  0.51100000000E-03 0. -1.
    9900012    2    1    2    0    0  0.41594381309E+02 -0.10214457500E+02  0.13952977756E+02  0.46142319999E+02  0.10000020406E+02 0.  0.
         12    1    1    2    0    0 -0.41594381309E+02  0.10214457500E+02 -0.13952977756E+02  0.45045680001E+02  0.00000000000E+00 0. -1.
         11    1    3    3    0    0  0.22384701946E+02 -0.21512308669E+01  0.90929098954E+01  0.24256621489E+02  0.51100000000E-03 0. -1.
        -11    1    3    3    0    0  0.17628183893E+02 -0.57666126420E+01  0.40933594286E+01  0.18993743190E+02  0.51100000000E-03 0.  1.
        -12    1    3    3    0    0  0.15814954706E+01 -0.22966139913E+01  0.76670843252E+00  0.28919553193E+01  0.00000000000E+00 0.  1.
</event>
<event>
 7    1  0.1385632E-008  0.4614232E+02  0.7816164E-02  0.1320468E+00
        -11   -1    0    0    0    0  0.00000000000E+00  0.00000000000E+00  0.45593999997E+02  0.45594000000E+02  0.51100000000E-03 0. -1.
         11   -1    0    0    0    0 -0.00000000000E+00 -0.00000000000E+00 -0.45593999997E+02  0.45594000000E+02  0.51100000000E-03 0.  1.
    9900012    2    1    2    0    0 -0.44545579887E+02 -0.38807840336E+00 -0.66823848839E+01  0.46142316966E+02  0.99999927481E+01 0.  0.
         12    1    1    2    0    0  0.44545579887E+02  0.38807840336E+00  0.66823848839E+01  0.45045683034E+02  0.00000000000E+00 0. -1.
         11    1    3    3    0    0  0.19340032832E+00  0.13050009632E+00  0.55348176351E-01  0.23978666327E+00  0.51100000000E-03 0. -1.
        -11    1    3    3    0    0 -0.34150116877E+02 -0.34057403234E+01 -0.64686537773E+01  0.34923817544E+02  0.51100000000E-03 0.  1.
        -12    1    3    3    0    0 -0.10588863338E+02  0.28871618237E+01 -0.26907928296E+00  0.10978712759E+02  0.00000000000E+00 0.  1.
</event>
<event>
 7    1  0.1385632E-008  0.4614232E+02  0.7816164E-02  0.1320468E+00
        -11   -1    0    0    0    0  0.00000000000E+00  0.00000000000E+00  0.45593999997E+02  0.45594000000E+02  0.51100000000E-03 0.  1.
         11   -1    0    0    0    0 -0.00000000000E+00 -0.00000000000E+00 -0.45593999997E+02  0.45594000000E+02  0.51100000000E-03 0. -1.
    9900012    2    1    2    0    0  0.25103575190E+02 -0.14807571368E+02  0.34346177298E+02  0.46142317053E+02  0.99999935452E+01 0.  0.
         12    1    1    2    0    0 -0.25103575190E+02  0.14807571368E+02 -0.34346177298E+02  0.45045682947E+02  0.00000000000E+00 0. -1.
         11    1    3    3    0    0 -0.72278527632E-01 -0.79170944380E-01  0.81866342105E+00  0.82565264008E+00  0.51100000000E-03 0. -1.
        -11    1    3    3    0    0  0.11057136818E+02 -0.37211653921E+01  0.80341310320E+01  0.14165260612E+02  0.51100000000E-03 0.  1.
        -12    1    3    3    0    0  0.14118716900E+02 -0.11007235032E+02  0.25493382845E+02  0.31151403802E+02  0.00000000000E+00 0.  1.
</event>
<event>
 7    1  0.1385632E-008  0.4614232E+02  0.7816164E-02  0.1320468E+00
        -11   -1    0    0    0    0  0.00000000000E+00  0.00000000000E+00  0.45593999997E+02  0.45594000000E+02  0.51100000000E-03 0.  1.
         11   -1    0    0    0    0 -0.00000000000E+00 -0.00000000000E+00 -0.45593999997E+02  0.45594000000E+02  0.51100000000E-03 0. -1.
    9900012    2    1    2    0    0  0.37961578390E+02 -0.87749226466E+00  0.24233490137E+02  0.46142317956E+02  0.10000001781E+02 0.  0.
         12    1    1    2    0    0 -0.37961578390E+02  0.87749226466E+00 -0.24233490137E+02  0.45045682044E+02  0.00000000000E+00 0. -1.
         11    1    3    3    0    0  0.19400853380E+02 -0.40482741621E+01  0.97184965987E+01  0.22073305416E+02  0.51100000000E-03 0. -1.
        -11    1    3    3    0    0  0.18378163322E+02  0.26063746329E+01  0.14322569744E+02  0.23445385050E+02  0.51100000000E-03 0.  1.
         12    1    3    3    0    0  0.18256168745E+00  0.56440726449E+00  0.19242379447E+00  0.62362749027E+00  0.00000000000E+00 0. -1.
</event>
<event>
 7    1  0.1385632E-008  0.4614232E+02  0.7816164E-02  0.1320468E+00
        -11   -1    0    0    0    0  0.00000000000E+00  0.00000000000E+00  0.45593999997E+02  0.45594000000E+02  0.51100000000E-03 0.  1.
         11   -1    0    0    0    0 -0.00000000000E+00 -0.00000000000E+00 -0.45593999997E+02  0.45594000000E+02  0.51100000000E-03 0. -1.
    9900012    2    1    2    0    0 -0.13676551004E+02  0.17826076617E+02  0.39042239236E+02  0.46142317637E+02  0.99999988718E+01 0.  0.
         12    1    1    2    0    0  0.13676551004E+02 -0.17826076617E+02 -0.39042239236E+02  0.45045682363E+02  0.00000000000E+00 0. -1.
         11    1    3    3    0    0 -0.67336168949E+01  0.79260497923E+01  0.96380858217E+01  0.14179441469E+02  0.51100000000E-03 0. -1.
        -11    1    3    3    0    0 -0.18009470468E+01  0.29740467913E+01  0.12641837552E+02  0.13111232648E+02  0.51100000000E-03 0.  1.
         12    1    3    3    0    0 -0.51419870627E+01  0.69259800339E+01  0.16762315862E+02  0.18851643521E+02  0.00000000000E+00 0. -1.
</event>
<event>
 7    1  0.1385632E-008  0.4614232E+02  0.7816164E-02  0.1320468E+00
        -11   -1    0    0    0    0  0.00000000000E+00  0.00000000000E+00  0.45593999997E+02  0.45594000000E+02  0.51100000000E-03 0.  1.
         11   -1    0    0    0    0 -0.00000000000E+00 -0.00000000000E+00 -0.45593999997E+02  0.45594000000E+02  0.51100000000E-03 0. -1.
    9900012    2    1    2    0    0  0.35634185906E+01 -0.58176272323E+01  0.44526068455E+02  0.46142317513E+02  0.99999977362E+01 0.  0.
         12    1    1    2    0    0 -0.35634185906E+01  0.58176272323E+01 -0.44526068455E+02  0.45045682487E+02  0.00000000000E+00 0. -1.
         11    1    3    3    0    0  0.17847949618E+01  0.77171541516E+00  0.26549812562E+02  0.26620923821E+02  0.51100000000E-03 0. -1.
        -11    1    3    3    0    0 -0.57447228352E+00 -0.33489626662E+01  0.10557041871E+02  0.11090387850E+02  0.51100000000E-03 0.  1.
         12    1    3    3    0    0  0.23530959123E+01 -0.32403799812E+01  0.74192140219E+01  0.84310058414E+01  0.00000000000E+00 0. -1.
</event>
<event>
 7    1  0.1385632E-008  0.4614232E+02  0.7816164E-02  0.1320468E+00
        -11   -1    0    0    0    0  0.00000000000E+00  0.00000000000E+00  0.45593999997E+02  0.45594000000E+02  0.51100000000E-03 0.  1.
         11   -1    0    0    0    0 -0.00000000000E+00 -0.00000000000E+00 -0.45593999997E+02  0.45594000000E+02  0.51100000000E-03 0. -1.
    9900012    2    1    2    0    0  0.32741600258E+02  0.21273747499E+02  0.22461715675E+02  0.46142318840E+02  0.10000009838E+02 0.  0.
         12    1    1    2    0    0 -0.32741600258E+02 -0.21273747499E+02 -0.22461715675E+02  0.45045681160E+02  0.00000000000E+00 0. -1.
         11    1    3    3    0    0  0.58167131612E+01  0.80018375040E+01  0.35427613138E+01  0.10507840569E+02  0.51100000000E-03 0. -1.
        -11    1    3    3    0    0  0.10826109084E+02  0.45130000876E+01  0.90811866223E+01  0.14833737170E+02  0.51100000000E-03 0.  1.
        -12    1    3    3    0    0  0.16098778012E+02  0.87589099077E+01  0.98377677390E+01  0.20800741101E+02  0.00000000000E+00 0.  1.
</event>
<event>
 7    1  0.1385632E-008  0.4614232E+02  0.7816164E-02  0.1320468E+00
        -11   -1    0    0    0    0  0.00000000000E+00  0.00000000000E+00  0.45593999997E+02  0.45594000000E+02  0.51100000000E-03 0.  1.
         11   -1    0    0    0    0 -0.00000000000E+00 -0.00000000000E+00 -0.45593999997E+02  0.45594000000E+02  0.51100000000E-03 0. -1.
    9900012    2    1    2    0    0 -0.19129943724E+02 -0.37580308555E+02  0.15839166031E+02  0.46142317426E+02  0.99999969466E+01 0.  0.
         12    1    1    2    0    0  0.19129943724E+02  0.37580308555E+02 -0.15839166031E+02  0.45045682574E+02  0.00000000000E+00 0. -1.
         11    1    3    3    0    0 -0.21725391704E+01 -0.79692450090E+00  0.17778302091E+01  0.29181664827E+01  0.51100000000E-03 0. -1.
        -11    1    3    3    0    0 -0.62231481774E+01 -0.82137213908E+01  0.44714192293E+01  0.11233271229E+02  0.51100000000E-03 0.  1.
         12    1    3    3    0    0 -0.10734256376E+02 -0.28569662663E+02  0.95899165923E+01  0.31990879714E+02  0.00000000000E+00 0. -1.
</event>
<event>
 7    1  0.1385632E-008  0.4614232E+02  0.7816164E-02  0.1320468E+00
        -11   -1    0    0    0    0  0.00000000000E+00  0.00000000000E+00  0.45593999997E+02  0.45594000000E+02  0.51100000000E-03 0.  1.
         11   -1    0    0    0    0 -0.00000000000E+00 -0.00000000000E+00 -0.45593999997E+02  0.45594000000E+02  0.51100000000E-03 0. -1.
    9900012    2    1    2    0    0 -0.32200931178E+02 -0.17792158113E+02  0.25993319284E+02  0.46142317561E+02  0.99999981717E+01 0.  0.
         12    1    1    2    0    0  0.32200931178E+02  0.17792158113E+02 -0.25993319284E+02  0.45045682439E+02  0.00000000000E+00 0. -1.
         11    1    3    3    0    0 -0.55656865199E+01 -0.40684444408E+01  0.49564702549E+01  0.84909189287E+01  0.51100000000E-03 0.  1.
        -11    1    3    3    0    0 -0.25938798832E+01 -0.87392468892E+00  0.58209388881E+01  0.64323624750E+01  0.51100000000E-03 0. -1.
        -12    1    3    3    0    0 -0.24041364775E+02 -0.12849788983E+02  0.15215910141E+02  0.31219036157E+02  0.00000000000E+00 0.  1.
</event>
<event>
 7    1  0.1385632E-008  0.4614232E+02  0.7816164E-02  0.1320468E+00
        -11   -1    0    0    0    0  0.00000000000E+00  0.00000000000E+00  0.45593999997E+02  0.45594000000E+02  0.51100000000E-03 0.  1.
         11   -1    0    0    0    0 -0.00000000000E+00 -0.00000000000E+00 -0.45593999997E+02  0.45594000000E+02  0.51100000000E-03 0. -1.
    9900012    2    1    2    0    0  0.12301901177E+02 -0.95960369831E+01  0.42257458690E+02  0.46142317484E+02  0.99999974749E+01 0.  0.
         12    1    1    2    0    0 -0.12301901177E+02  0.95960369831E+01 -0.42257458690E+02  0.45045682516E+02  0.00000000000E+00 0. -1.
         11    1    3    3    0    0  0.63914642050E+00 -0.86658089615E+00  0.13295058735E+00  0.10849639239E+01  0.51100000000E-03 0. -1.
        -11    1    3    3    0    0  0.28004475877E+01 -0.61542138241E+01  0.17771081891E+02  0.19013895085E+02  0.51100000000E-03 0.  1.
         12    1    3    3    0    0  0.88623071685E+01 -0.25752422628E+01  0.24353426212E+02  0.26043458475E+02  0.00000000000E+00 0. -1.
</event>
<event>
 7    1  0.1385632E-008  0.4614232E+02  0.7816164E-02  0.1320468E+00
        -11   -1    0    0    0    0  0.00000000000E+00  0.00000000000E+00  0.45593999997E+02  0.45594000000E+02  0.51100000000E-03 0.  1.
         11   -1    0    0    0    0 -0.00000000000E+00 -0.00000000000E+00 -0.45593999997E+02  0.45594000000E+02  0.51100000000E-03 0. -1.
    9900012    2    1    2    0    0  0.21007268396E+01  0.15064701827E+01  0.44971444143E+02  0.46142319919E+02  0.10000019679E+02 0.  0.
         12    1    1    2    0    0 -0.21007268396E+01 -0.15064701827E+01 -0.44971444143E+02  0.45045680081E+02  0.00000000000E+00 0. -1.
         11    1    3    3    0    0 -0.15645980564E+00 -0.21151280498E+01  0.30481697618E+01  0.37134331145E+01  0.51100000000E-03 0. -1.
        -11    1    3    3    0    0  0.26600136298E+01  0.41121928584E+00  0.28253137481E+02  0.28381059733E+02  0.51100000000E-03 0.  1.
         12    1    3    3    0    0 -0.40282698457E+00  0.32103789467E+01  0.13670136900E+02  0.14047827072E+02  0.00000000000E+00 0. -1.
</event>
<event>
 7    1  0.1385632E-008  0.4614232E+02  0.7816164E-02  0.1320468E+00
        -11   -1    0    0    0    0  0.00000000000E+00  0.00000000000E+00  0.45593999997E+02  0.45594000000E+02  0.51100000000E-03 0.  1.
         11   -1    0    0    0    0 -0.00000000000E+00 -0.00000000000E+00 -0.45593999997E+02  0.45594000000E+02  0.51100000000E-03 0. -1.
    9900012    2    1    2    0    0  0.12744570006E+02 -0.42704279928E+02  0.65600223372E+01  0.46142317833E+02  0.10000000654E+02 0.  0.
         12    1    1    2    0    0 -0.12744570006E+02  0.42704279928E+02 -0.65600223372E+01  0.45045682167E+02  0.00000000000E+00 0. -1.
         11    1    3    3    0    0  0.32843560383E+01 -0.59181379846E+01 -0.51074320366E+00  0.67876513370E+01  0.51100000000E-03 0. -1.
        -11    1    3    3    0    0  0.61403857756E+01 -0.27498074209E+02  0.84027144569E+01  0.29401599160E+02  0.51100000000E-03 0.  1.
        -12    1    3    3    0    0  0.33198281925E+01 -0.92880677345E+01 -0.13319489160E+01  0.99530673354E+01  0.00000000000E+00 0.  1.
</event>
<event>
 7    1  0.1385632E-008  0.4614232E+02  0.7816164E-02  0.1320468E+00
        -11   -1    0    0    0    0  0.00000000000E+00  0.00000000000E+00  0.45593999997E+02  0.45594000000E+02  0.51100000000E-03 0.  1.
         11   -1    0    0    0    0 -0.00000000000E+00 -0.00000000000E+00 -0.45593999997E+02  0.45594000000E+02  0.51100000000E-03 0. -1.
    9900012    2    1    2    0    0  0.17774419069E+02 -0.38277882068E+02 -0.15747613856E+02  0.46142316844E+02  0.99999916367E+01 0.  0.
         12    1    1    2    0    0 -0.17774419069E+02  0.38277882068E+02  0.15747613856E+02  0.45045683156E+02  0.00000000000E+00 0. -1.
         11    1    3    3    0    0  0.18318940326E+01 -0.20543261478E+01  0.85510627247E+00  0.28822384819E+01  0.51100000000E-03 0.  1.
        -11    1    3    3    0    0  0.14838422089E+02 -0.35706610589E+02 -0.15655126026E+02  0.41715989512E+02  0.51100000000E-03 0. -1.
        -12    1    3    3    0    0  0.11041029471E+01 -0.51694533145E+00 -0.94759410246E+00  0.15440888500E+01  0.00000000000E+00 0.  1.
</event>
<event>
 7    1  0.1385632E-008  0.4614232E+02  0.7816164E-02  0.1320468E+00
        -11   -1    0    0    0    0  0.00000000000E+00  0.00000000000E+00  0.45593999997E+02  0.45594000000E+02  0.51100000000E-03 0.  1.
         11   -1    0    0    0    0 -0.00000000000E+00 -0.00000000000E+00 -0.45593999997E+02  0.45594000000E+02  0.51100000000E-03 0. -1.
    9900012    2    1    2    0    0 -0.29071682241E+02  0.21831986454E+02  0.26595398201E+02  0.46142317118E+02  0.99999941360E+01 0.  0.
         12    1    1    2    0    0  0.29071682241E+02 -0.21831986454E+02 -0.26595398201E+02  0.45045682882E+02  0.00000000000E+00 0. -1.
         11    1    3    3    0    0 -0.17645545619E+00  0.11911700037E+01  0.30240271136E+01  0.32549597156E+01  0.51100000000E-03 0. -1.
        -11    1    3    3    0    0 -0.87818552985E+01  0.60613333707E+01  0.97784687355E+01  0.14473396139E+02  0.51100000000E-03 0.  1.
         12    1    3    3    0    0 -0.20113371487E+02  0.14579483079E+02  0.13792902351E+02  0.28413961264E+02  0.00000000000E+00 0. -1.
</event>
<event>
 7    1  0.1458643E-008  0.4614232E+02  0.7816164E-02  0.1320468E+00
        -11   -1    0    0    0    0  0.00000000000E+00  0.00000000000E+00  0.45593999997E+02  0.45594000000E+02  0.51100000000E-03 0. -1.
         11   -1    0    0    0    0 -0.00000000000E+00 -0.00000000000E+00 -0.45593999997E+02  0.45594000000E+02  0.51100000000E-03 0.  1.
    9900012    2    1    2    0    0 -0.14850350902E+02 -0.39001474954E+02 -0.16954808119E+02  0.46142317756E+02  0.99999999559E+01 0.  0.
         12    1    1    2    0    0  0.14850350902E+02  0.39001474954E+02  0.16954808119E+02  0.45045682244E+02  0.00000000000E+00 0. -1.
         11    1    3    3    0    0 -0.13354712329E+01 -0.22118268412E+01  0.51441326536E+00  0.26344416217E+01  0.51100000000E-03 0. -1.
        -11    1    3    3    0    0 -0.14194228570E+02 -0.35590195433E+02 -0.16088804380E+02  0.41557042271E+02  0.51100000000E-03 0.  1.
        -12    1    3    3    0    0  0.67934890079E+00 -0.11994526794E+01 -0.13804170044E+01  0.19508338640E+01  0.00000000000E+00 0.  1.
</event>
<event>
 7    1  0.1385632E-008  0.4614232E+02  0.7816164E-02  0.1320468E+00
        -11   -1    0    0    0    0  0.00000000000E+00  0.00000000000E+00  0.45593999997E+02  0.45594000000E+02  0.51100000000E-03 0.  1.
         11   -1    0    0    0    0 -0.00000000000E+00 -0.00000000000E+00 -0.45593999997E+02  0.45594000000E+02  0.51100000000E-03 0. -1.
    9900012    2    1    2    0    0 -0.49927180647E+01  0.12934869455E+02  0.42858786566E+02  0.46142315774E+02  0.99999818802E+01 0.  0.
         12    1    1    2    0    0  0.49927180647E+01 -0.12934869455E+02 -0.42858786566E+02  0.45045684226E+02  0.00000000000E+00 0. -1.
         11    1    3    3    0    0 -0.29479235168E+00 -0.15018528576E+01  0.29663408339E+01  0.33379099359E+01  0.51100000000E-03 0. -1.
        -11    1    3    3    0    0  0.26442345919E+00  0.34793023052E+01  0.89612046507E+01  0.96165822073E+01  0.51100000000E-03 0.  1.
         12    1    3    3    0    0 -0.49623491722E+01  0.10957420007E+02  0.30931241081E+02  0.33187823631E+02  0.00000000000E+00 0. -1.
</event>
<event>
 7    1  0.1385632E-008  0.4614232E+02  0.7816164E-02  0.1320468E+00
        -11   -1    0    0    0    0  0.00000000000E+00  0.00000000000E+00  0.45593999997E+02  0.45594000000E+02  0.51100000000E-03 0. -1.
         11   -1    0    0    0    0 -0.00000000000E+00 -0.00000000000E+00 -0.45593999997E+02  0.45594000000E+02  0.51100000000E-03 0.  1.
    9900012    2    1    2    0    0 -0.15378199605E+01  0.44990214170E+02 -0.16215194128E+01  0.46142316672E+02  0.99999900647E+01 0.  0.
         12    1    1    2    0    0  0.15378199605E+01 -0.44990214170E+02  0.16215194128E+01  0.45045683328E+02  0.00000000000E+00 0. -1.
         11    1    3    3    0    0  0.20969220536E+01  0.70284877183E+01  0.21644288143E+01  0.76473180958E+01  0.51100000000E-03 0. -1.
        -11    1    3    3    0    0 -0.42507283677E+01  0.29719170215E+02 -0.24403200952E+01  0.30120639640E+02  0.51100000000E-03 0.  1.
         12    1    3    3    0    0  0.61598635362E+00  0.82425562370E+01 -0.13456281319E+01  0.83743589353E+01  0.00000000000E+00 0. -1.
</event>
<event>
 7    1  0.1385632E-008  0.4614232E+02  0.7816164E-02  0.1320468E+00
        -11   -1    0    0    0    0  0.00000000000E+00  0.00000000000E+00  0.45593999997E+02  0.45594000000E+02  0.51100000000E-03 0. -1.
         11   -1    0    0    0    0 -0.00000000000E+00 -0.00000000000E+00 -0.45593999997E+02  0.45594000000E+02  0.51100000000E-03 0.  1.
    9900012    2    1    2    0    0 -0.27979271388E+02 -0.32351428021E+02  0.14130071203E+02  0.46142318358E+02  0.10000005441E+02 0.  0.
         12    1    1    2    0    0  0.27979271388E+02  0.32351428021E+02 -0.14130071203E+02  0.45045681642E+02  0.00000000000E+00 0. -1.
         11    1    3    3    0    0 -0.26879226136E+01 -0.73407890238E+01  0.65637545485E+00  0.78449308771E+01  0.51100000000E-03 0. -1.
        -11    1    3    3    0    0 -0.87105525530E+01 -0.11638966537E+02  0.59248032594E+01  0.15698489155E+02  0.51100000000E-03 0.  1.
         12    1    3    3    0    0 -0.16580796221E+02 -0.13371672460E+02  0.75488924887E+01  0.22598898325E+02  0.00000000000E+00 0. -1.
</event>
<event>
 7    1  0.1385632E-008  0.4614232E+02  0.7816164E-02  0.1320468E+00
        -11   -1    0    0    0    0  0.00000000000E+00  0.00000000000E+00  0.45593999997E+02  0.45594000000E+02  0.51100000000E-03 0. -1.
         11   -1    0    0    0    0 -0.00000000000E+00 -0.00000000000E+00 -0.45593999997E+02  0.45594000000E+02  0.51100000000E-03 0.  1.
    9900012    2    1    2    0    0  0.37164059570E+02 -0.18394896539E+02  0.17594711593E+02  0.46142318537E+02  0.10000007074E+02 0.  0.
         12    1    1    2    0    0 -0.37164059570E+02  0.18394896539E+02 -0.17594711593E+02  0.45045681463E+02  0.00000000000E+00 0. -1.
         11    1    3    3    0    0  0.15235844435E+02 -0.39698876456E+01  0.10535031133E+02  0.18944071495E+02  0.51100000000E-03 0. -1.
        -11    1    3    3    0    0  0.17766318815E+02 -0.11423622480E+02  0.53416581943E+01  0.21787027042E+02  0.51100000000E-03 0.  1.
         12    1    3    3    0    0  0.41618963201E+01 -0.30013864135E+01  0.17180222665E+01  0.54112200002E+01  0.00000000000E+00 0. -1.
</event>
<event>
 7    1  0.1385632E-008  0.4614231E+02  0.7816164E-02  0.1320468E+00
        -11   -1    0    0    0    0  0.00000000000E+00  0.00000000000E+00  0.45593999997E+02  0.45594000000E+02  0.51100000000E-03 0. -1.
         11   -1    0    0    0    0 -0.00000000000E+00 -0.00000000000E+00 -0.45593999997E+02  0.45594000000E+02  0.51100000000E-03 0.  1.
    9900012    2    1    2    0    0  0.34218027156E+02  0.29120292485E+02 -0.32014893221E+01  0.46142308189E+02  0.99999127123E+01 0.  0.
         12    1    1    2    0    0 -0.34218027156E+02 -0.29120292485E+02  0.32014893221E+01  0.45045691811E+02  0.00000000000E+00 0. -1.
         11    1    3    3    0    0  0.12677856434E+02  0.52775919814E+01 -0.90591567298E+00  0.13762329176E+02  0.51100000000E-03 0. -1.
        -11    1    3    3    0    0  0.18224184853E+02  0.18734145207E+02 -0.27064203194E+01  0.26275726848E+02  0.51100000000E-03 0.  1.
         12    1    3    3    0    0  0.33159858690E+01  0.51085552971E+01  0.41084667027E+00  0.61042521649E+01  0.00000000000E+00 0. -1.
</event>
<event>
 7    1  0.1385632E-008  0.4614232E+02  0.7816164E-02  0.1320468E+00
        -11   -1    0    0    0    0  0.00000000000E+00  0.00000000000E+00  0.45593999997E+02  0.45594000000E+02  0.51100000000E-03 0.  1.
         11   -1    0    0    0    0 -0.00000000000E+00 -0.00000000000E+00 -0.45593999997E+02  0.45594000000E+02  0.51100000000E-03 0. -1.
    9900012    2    1    2    0    0 -0.21140715928E+02  0.21342274795E+02  0.33566217919E+02  0.46142317091E+02  0.99999938883E+01 0.  0.
         12    1    1    2    0    0  0.21140715928E+02 -0.21342274795E+02 -0.33566217919E+02  0.45045682909E+02  0.00000000000E+00 0. -1.
         11    1    3    3    0    0 -0.54287086195E+00 -0.48223845244E+00  0.13019312140E+01  0.14907339953E+01  0.51100000000E-03 0. -1.
        -11    1    3    3    0    0 -0.11510760603E+02  0.86039819826E+01  0.19079863768E+02  0.23886550971E+02  0.51100000000E-03 0.  1.
        -12    1    3    3    0    0 -0.90870844626E+01  0.13220531264E+02  0.13184422937E+02  0.20765032124E+02  0.00000000000E+00 0.  1.
</event>
<event>
 7    1  0.1385632E-008  0.4614232E+02  0.7816164E-02  0.1320468E+00
        -11   -1    0    0    0    0  0.00000000000E+00  0.00000000000E+00  0.45593999997E+02  0.45594000000E+02  0.51100000000E-03 0.  1.
         11   -1    0    0    0    0 -0.00000000000E+00 -0.00000000000E+00 -0.45593999997E+02  0.45594000000E+02  0.51100000000E-03 0. -1.
    9900012    2    1    2    0    0 -0.29161706413E+02  0.30980172449E+01  0.34192260888E+02  0.46142317228E+02  0.99999951387E+01 0.  0.
         12    1    1    2    0    0  0.29161706413E+02 -0.30980172449E+01 -0.34192260888E+02  0.45045682772E+02  0.00000000000E+00 0. -1.
         11    1    3    3    0    0 -0.77530236982E+01  0.43149742635E+01  0.10785336287E+02  0.13966096751E+02  0.51100000000E-03 0. -1.
        -11    1    3    3    0    0 -0.20297032433E+02  0.16244246055E+00  0.21278532128E+02  0.29407003298E+02  0.51100000000E-03 0.  1.
         12    1    3    3    0    0 -0.11116502815E+01 -0.13793994792E+01  0.21283924723E+01  0.27692171796E+01  0.00000000000E+00 0. -1.
</event>
<event>
 7    1  0.1385632E-008  0.4614232E+02  0.7816164E-02  0.1320468E+00
        -11   -1    0    0    0    0  0.00000000000E+00  0.00000000000E+00  0.45593999997E+02  0.45594000000E+02  0.51100000000E-03 0. -1.
         11   -1    0    0    0    0 -0.00000000000E+00 -0.00000000000E+00 -0.45593999997E+02  0.45594000000E+02  0.51100000000E-03 0.  1.
    9900012    2    1    2    0    0 -0.39533021604E+02 -0.14510794594E+02 -0.15990328134E+02  0.46142317069E+02  0.99999936906E+01 0.  0.
         12    1    1    2    0    0  0.39533021604E+02  0.14510794594E+02  0.15990328134E+02  0.45045682931E+02  0.00000000000E+00 0. -1.
         11    1    3    3    0    0 -0.91826061209E+01 -0.70695043940E+01 -0.51317766285E+01  0.12674118477E+02  0.51100000000E-03 0.  1.
        -11    1    3    3    0    0 -0.16667614914E+02 -0.23785295878E+01 -0.78283328371E+01  0.18567433457E+02  0.51100000000E-03 0. -1.
        -12    1    3    3    0    0 -0.13682800569E+02 -0.50627606121E+01 -0.30302186688E+01  0.14900765135E+02  0.00000000000E+00 0.  1.
</event>
<event>
 7    1  0.1385632E-008  0.4614232E+02  0.7816164E-02  0.1320468E+00
        -11   -1    0    0    0    0  0.00000000000E+00  0.00000000000E+00  0.45593999997E+02  0.45594000000E+02  0.51100000000E-03 0.  1.
         11   -1    0    0    0    0 -0.00000000000E+00 -0.00000000000E+00 -0.45593999997E+02  0.45594000000E+02  0.51100000000E-03 0. -1.
    9900012    2    1    2    0    0  0.10352850892E+02  0.36257995052E+02  0.24643249273E+02  0.46142318059E+02  0.10000002716E+02 0.  0.
         12    1    1    2    0    0 -0.10352850892E+02 -0.36257995052E+02 -0.24643249273E+02  0.45045681941E+02  0.00000000000E+00 0. -1.
         11    1    3    3    0    0  0.46746887508E+01  0.25933444931E+02  0.17065484338E+02  0.31394697592E+02  0.51100000000E-03 0. -1.
        -11    1    3    3    0    0  0.27573043667E+01  0.88684798451E+01  0.63959583694E+01  0.11276566226E+02  0.51100000000E-03 0.  1.
         12    1    3    3    0    0  0.29208577742E+01  0.14560702764E+01  0.11818065650E+01  0.34710542410E+01  0.00000000000E+00 0. -1.
</event>
<event>
 7    1  0.1385632E-008  0.4614232E+02  0.7816164E-02  0.1320468E+00
        -11   -1    0    0    0    0  0.00000000000E+00  0.00000000000E+00  0.45593999997E+02  0.45594000000E+02  0.51100000000E-03 0.  1.
         11   -1    0    0    0    0 -0.00000000000E+00 -0.00000000000E+00 -0.45593999997E+02  0.45594000000E+02  0.51100000000E-03 0. -1.
    9900012    2    1    2    0    0 -0.24335087301E+01  0.76797457429E+01  0.44319443285E+02  0.46142317493E+02  0.99999975567E+01 0.  0.
         12    1    1    2    0    0  0.24335087301E+01 -0.76797457429E+01 -0.44319443285E+02  0.45045682507E+02  0.00000000000E+00 0. -1.
         11    1    3    3    0    0 -0.26823915749E+01  0.43922381867E+01  0.81047212567E+01  0.96007024618E+01  0.51100000000E-03 0. -1.
        -11    1    3    3    0    0  0.29997243894E+00  0.40089981752E+01  0.26887243390E+02  0.27186134466E+02  0.51100000000E-03 0.  1.
         12    1    3    3    0    0 -0.51089594124E-01 -0.72149061902E+00  0.93274786384E+01  0.93554805655E+01  0.00000000000E+00 0. -1.
</event>
<event>
 7    1  0.1385632E-008  0.4614232E+02  0.7816164E-02  0.1320468E+00
        -11   -1    0    0    0    0  0.00000000000E+00  0.00000000000E+00  0.45593999997E+02  0.45594000000E+02  0.51100000000E-03 0. -1.
         11   -1    0    0    0    0 -0.00000000000E+00 -0.00000000000E+00 -0.45593999997E+02  0.45594000000E+02  0.51100000000E-03 0.  1.
    9900012    2    1    2    0    0  0.13347094462E+02  0.33202610008E+02 -0.27359737855E+02  0.46142317661E+02  0.99999990881E+01 0.  0.
         12    1    1    2    0    0 -0.13347094462E+02 -0.33202610008E+02  0.27359737855E+02  0.45045682339E+02  0.00000000000E+00 0. -1.
         11    1    3    3    0    0  0.15794853652E+01  0.10387958738E+02 -0.37042409215E+01  0.11141178655E+02  0.51100000000E-03 0. -1.
        -11    1    3    3    0    0  0.11478540544E+02  0.21828262982E+02 -0.21980596601E+02  0.33035989240E+02  0.51100000000E-03 0.  1.
        -12    1    3    3    0    0  0.28906855251E+00  0.98638828789E+00 -0.16749003319E+01  0.19651497664E+01  0.00000000000E+00 0.  1.
</event>
<event>
 7    1  0.1385632E-008  0.4614232E+02  0.7816164E-02  0.1320468E+00
        -11   -1    0    0    0    0  0.00000000000E+00  0.00000000000E+00  0.45593999997E+02  0.45594000000E+02  0.51100000000E-03 0.  1.
         11   -1    0    0    0    0 -0.00000000000E+00 -0.00000000000E+00 -0.45593999997E+02  0.45594000000E+02  0.51100000000E-03 0. -1.
    9900012    2    1    2    0    0  0.23977699293E+02  0.23033265260E+02  0.30391645032E+02  0.46142318080E+02  0.10000002906E+02 0.  0.
         12    1    1    2    0    0 -0.23977699293E+02 -0.23033265260E+02 -0.30391645032E+02  0.45045681920E+02  0.00000000000E+00 0. -1.
         11    1    3    3    0    0  0.36407726231E+01  0.43807709041E+01  0.10685255765E+02  0.12108718761E+02  0.51100000000E-03 0. -1.
        -11    1    3    3    0    0  0.11632090450E+02  0.11923142245E+02  0.10529956285E+02  0.19706517420E+02  0.51100000000E-03 0.  1.
         12    1    3    3    0    0  0.87048362202E+01  0.67293521113E+01  0.91764329820E+01  0.14327081899E+02  0.00000000000E+00 0. -1.
</event>
<event>
 7    1  0.1385632E-008  0.4614232E+02  0.7816164E-02  0.1320468E+00
        -11   -1    0    0    0    0  0.00000000000E+00  0.00000000000E+00  0.45593999997E+02  0.45594000000E+02  0.51100000000E-03 0. -1.
         11   -1    0    0    0    0 -0.00000000000E+00 -0.00000000000E+00 -0.45593999997E+02  0.45594000000E+02  0.51100000000E-03 0.  1.
    9900012    2    1    2    0    0  0.34657610170E+02 -0.68475671527E+01 -0.27947707003E+02  0.46142318239E+02  0.10000004355E+02 0.  0.
         12    1    1    2    0    0 -0.34657610170E+02  0.68475671527E+01  0.27947707003E+02  0.45045681761E+02  0.00000000000E+00 0. -1.
         11    1    3    3    0    0  0.22386152968E+02 -0.62235031244E+01 -0.23001275009E+02  0.32694502415E+02  0.51100000000E-03 0. -1.
        -11    1    3    3    0    0  0.78815095059E+01  0.70430086284E+00 -0.33251553188E+01  0.85831748177E+01  0.51100000000E-03 0.  1.
         12    1    3    3    0    0  0.43899476964E+01 -0.13283648911E+01 -0.16212766751E+01  0.48646410061E+01  0.00000000000E+00 0. -1.
</event>
<event>
 7    1  0.1385632E-008  0.4614232E+02  0.7816164E-02  0.1320468E+00
        -11   -1    0    0    0    0  0.00000000000E+00  0.00000000000E+00  0.45593999997E+02  0.45594000000E+02  0.51100000000E-03 0.  1.
         11   -1    0    0    0    0 -0.00000000000E+00 -0.00000000000E+00 -0.45593999997E+02  0.45594000000E+02  0.51100000000E-03 0. -1.
    9900012    2    1    2    0    0 -0.49377478582E+00 -0.38174035344E+02  0.23908418748E+02  0.46142320129E+02  0.10000021595E+02 0.  0.
         12    1    1    2    0    0  0.49377478582E+00  0.38174035344E+02 -0.23908418748E+02  0.45045679871E+02  0.00000000000E+00 0. -1.
         11    1    3    3    0    0  0.36174334986E+01 -0.24987201931E+02  0.12843981815E+02  0.28326912196E+02  0.51100000000E-03 0. -1.
        -11    1    3    3    0    0 -0.15827634122E+01 -0.82303756904E+01  0.62071717115E+01  0.10429439340E+02  0.51100000000E-03 0.  1.
         12    1    3    3    0    0 -0.25284448723E+01 -0.49564577229E+01  0.48572652218E+01  0.73859685936E+01  0.00000000000E+00 0. -1.
</event>
<event>
 7    1  0.1385632E-008  0.4614231E+02  0.7816164E-02  0.1320468E+00
        -11   -1    0    0    0    0  0.00000000000E+00  0.00000000000E+00  0.45593999997E+02  0.45594000000E+02  0.51100000000E-03 0.  1.
         11   -1    0    0    0    0 -0.00000000000E+00 -0.00000000000E+00 -0.45593999997E+02  0.45594000000E+02  0.51100000000E-03 0. -1.
    9900012    2    1    2    0    0  0.11072072787E+02 -0.37822765217E+02  0.21816541368E+02  0.46142313839E+02  0.99999642354E+01 0.  0.
         12    1    1    2    0    0 -0.11072072787E+02  0.37822765217E+02 -0.21816541368E+02  0.45045686161E+02  0.00000000000E+00 0. -1.
         11    1    3    3    0    0  0.17298841109E+01 -0.18797698962E+02  0.10028098021E+02  0.21375423632E+02  0.51100000000E-03 0.  1.
        -11    1    3    3    0    0  0.37438696609E+01 -0.75187707446E+01  0.19416224559E+01  0.86208103778E+01  0.51100000000E-03 0. -1.
        -12    1    3    3    0    0  0.55983190151E+01 -0.11506295511E+02  0.98468208914E+01  0.16146079829E+02  0.00000000000E+00 0.  1.
</event>
<event>
 7    1  0.1385632E-008  0.4614232E+02  0.7816164E-02  0.1320468E+00
        -11   -1    0    0    0    0  0.00000000000E+00  0.00000000000E+00  0.45593999997E+02  0.45594000000E+02  0.51100000000E-03 0. -1.
         11   -1    0    0    0    0 -0.00000000000E+00 -0.00000000000E+00 -0.45593999997E+02  0.45594000000E+02  0.51100000000E-03 0.  1.
    9900012    2    1    2    0    0 -0.41860769541E+02 -0.13932697123E+02 -0.90922742681E+01  0.46142317331E+02  0.99999960807E+01 0.  0.
         12    1    1    2    0    0  0.41860769541E+02  0.13932697123E+02  0.90922742681E+01  0.45045682669E+02  0.00000000000E+00 0. -1.
         11    1    3    3    0    0 -0.15319891412E+02 -0.76627329852E+01 -0.20513682706E+01  0.17251801695E+02  0.51100000000E-03 0. -1.
        -11    1    3    3    0    0 -0.15274491783E+02 -0.68387142059E+01 -0.39934126403E+01  0.17205390318E+02  0.51100000000E-03 0.  1.
         12    1    3    3    0    0 -0.11266386346E+02  0.56875006781E+00 -0.30474933571E+01  0.11685125318E+02  0.00000000000E+00 0. -1.
</event>
<event>
 7    1  0.1385632E-008  0.4614232E+02  0.7816164E-02  0.1320468E+00
        -11   -1    0    0    0    0  0.00000000000E+00  0.00000000000E+00  0.45593999997E+02  0.45594000000E+02  0.51100000000E-03 0.  1.
         11   -1    0    0    0    0 -0.00000000000E+00 -0.00000000000E+00 -0.45593999997E+02  0.45594000000E+02  0.51100000000E-03 0. -1.
    9900012    2    1    2    0    0 -0.24245472689E+02 -0.37247140373E+02  0.73430996391E+01  0.46142317363E+02  0.99999963738E+01 0.  0.
         12    1    1    2    0    0  0.24245472689E+02  0.37247140373E+02 -0.73430996391E+01  0.45045682637E+02  0.00000000000E+00 0. -1.
         11    1    3    3    0    0 -0.83352232235E+01 -0.11126168352E+02 -0.89474526106E+00  0.13930834064E+02  0.51100000000E-03 0. -1.
        -11    1    3    3    0    0 -0.12596330060E+02 -0.16090144374E+02  0.68752429276E+01  0.21559898945E+02  0.51100000000E-03 0.  1.
         12    1    3    3    0    0 -0.33139194055E+01 -0.10030827647E+02  0.13626019725E+01  0.10651584354E+02  0.00000000000E+00 0. -1.
</event>
<event>
 7    1  0.1385632E-008  0.4614232E+02  0.7816164E-02  0.1320468E+00
        -11   -1    0    0    0    0  0.00000000000E+00  0.00000000000E+00  0.45593999997E+02  0.45594000000E+02  0.51100000000E-03 0.  1.
         11   -1    0    0    0    0 -0.00000000000E+00 -0.00000000000E+00 -0.45593999997E+02  0.45594000000E+02  0.51100000000E-03 0. -1.
    9900012    2    1    2    0    0  0.23327122648E+02  0.19838377957E+02  0.33036306917E+02  0.46142318012E+02  0.10000002292E+02 0.  0.
         12    1    1    2    0    0 -0.23327122648E+02 -0.19838377957E+02 -0.33036306917E+02  0.45045681988E+02  0.00000000000E+00 0. -1.
         11    1    3    3    0    0  0.29967076267E+01  0.22565976988E+01  0.73686226503E+01  0.82685603219E+01  0.51100000000E-03 0. -1.
        -11    1    3    3    0    0  0.11718441986E+02  0.89196151974E+01  0.18729925924E+02  0.23826278418E+02  0.51100000000E-03 0.  1.
         12    1    3    3    0    0  0.86119730351E+01  0.86621650609E+01  0.69377583425E+01  0.14047479273E+02  0.00000000000E+00 0. -1.
</event>
<event>
 7    1  0.2117292E-008  0.4614232E+02  0.7816164E-02  0.1320468E+00
        -11   -1    0    0    0    0  0.00000000000E+00  0.00000000000E+00  0.45593999997E+02  0.45594000000E+02  0.51100000000E-03 0.  1.
         11   -1    0    0    0    0 -0.00000000000E+00 -0.00000000000E+00 -0.45593999997E+02  0.45594000000E+02  0.51100000000E-03 0. -1.
    9900012    2    1    2    0    0 -0.59882132087E+01  0.40923032185E+02  0.17848252607E+02  0.46142318944E+02  0.10000010790E+02 0.  0.
         12    1    1    2    0    0  0.59882132087E+01 -0.40923032185E+02 -0.17848252607E+02  0.45045681056E+02  0.00000000000E+00 0. -1.
         11    1    3    3    0    0 -0.98780362741E+00  0.28867067266E+00  0.13806851207E+01  0.17220274177E+01  0.51100000000E-03 0. -1.
        -11    1    3    3    0    0 -0.38138209878E+01  0.39157420275E+02  0.15978349662E+02  0.42463589713E+02  0.51100000000E-03 0.  1.
        -12    1    3    3    0    0 -0.11865885935E+01  0.14769412367E+01  0.48921782473E+00  0.19567018135E+01  0.00000000000E+00 0.  1.
</event>
<event>
 7    1  0.1385632E-008  0.4614232E+02  0.7816164E-02  0.1320468E+00
        -11   -1    0    0    0    0  0.00000000000E+00  0.00000000000E+00  0.45593999997E+02  0.45594000000E+02  0.51100000000E-03 0.  1.
         11   -1    0    0    0    0 -0.00000000000E+00 -0.00000000000E+00 -0.45593999997E+02  0.45594000000E+02  0.51100000000E-03 0. -1.
    9900012    2    1    2    0    0  0.15892398665E+02 -0.42143548029E+02 -0.68313061021E+00  0.46142316042E+02  0.99999843254E+01 0.  0.
         12    1    1    2    0    0 -0.15892398665E+02  0.42143548029E+02  0.68313061021E+00  0.45045683958E+02  0.00000000000E+00 0. -1.
         11    1    3    3    0    0 -0.14473739885E+00 -0.38707155194E+01 -0.80964329605E+00  0.39571340734E+01  0.51100000000E-03 0. -1.
        -11    1    3    3    0    0 -0.70202562697E+00 -0.33147805134E+01 -0.47509427934E+00  0.34214506672E+01  0.51100000000E-03 0.  1.
         12    1    3    3    0    0  0.16739161691E+02 -0.34958051996E+02  0.60160696518E+00  0.38763731302E+02  0.00000000000E+00 0. -1.
</event>
<event>
 7    1  0.1385632E-008  0.4614232E+02  0.7816164E-02  0.1320468E+00
        -11   -1    0    0    0    0  0.00000000000E+00  0.00000000000E+00  0.45593999997E+02  0.45594000000E+02  0.51100000000E-03 0.  1.
         11   -1    0    0    0    0 -0.00000000000E+00 -0.00000000000E+00 -0.45593999997E+02  0.45594000000E+02  0.51100000000E-03 0. -1.
    9900012    2    1    2    0    0  0.36306756939E+02 -0.44708146001E+01  0.26285826983E+02  0.46142317823E+02  0.10000000569E+02 0.  0.
         12    1    1    2    0    0 -0.36306756939E+02  0.44708146001E+01 -0.26285826983E+02  0.45045682177E+02  0.00000000000E+00 0. -1.
         11    1    3    3    0    0  0.16932885332E+02  0.16401204235E+01  0.81562054876E+01  0.18866273848E+02  0.51100000000E-03 0. -1.
        -11    1    3    3    0    0  0.13169238194E+02 -0.35402154992E+01  0.12787098601E+02  0.18694166237E+02  0.51100000000E-03 0.  1.
         12    1    3    3    0    0  0.62046334123E+01 -0.25707195245E+01  0.53425228938E+01  0.85818777389E+01  0.00000000000E+00 0. -1.
</event>
<event>
 7    1  0.1385632E-008  0.4614232E+02  0.7816164E-02  0.1320468E+00
        -11   -1    0    0    0    0  0.00000000000E+00  0.00000000000E+00  0.45593999997E+02  0.45594000000E+02  0.51100000000E-03 0.  1.
         11   -1    0    0    0    0 -0.00000000000E+00 -0.00000000000E+00 -0.45593999997E+02  0.45594000000E+02  0.51100000000E-03 0. -1.
    9900012    2    1    2    0    0  0.11541634913E+02 -0.79267852505E+00  0.43534767951E+02  0.46142315454E+02  0.99999789583E+01 0.  0.
         12    1    1    2    0    0 -0.11541634913E+02  0.79267852505E+00 -0.43534767951E+02  0.45045684546E+02  0.00000000000E+00 0. -1.
         11    1    3    3    0    0  0.55012603523E+00 -0.18288848476E+01  0.36765180515E+01  0.41429752213E+01  0.51100000000E-03 0. -1.
        -11    1    3    3    0    0  0.12871410187E+01 -0.75450849125E+00  0.75888865980E+00  0.16738958523E+01  0.51100000000E-03 0.  1.
        -12    1    3    3    0    0  0.97043678588E+01  0.17907148138E+01  0.39099361240E+02  0.40325444380E+02  0.00000000000E+00 0.  1.
</event>
<event>
 7    1  0.1385632E-008  0.4614231E+02  0.7816164E-02  0.1320468E+00
        -11   -1    0    0    0    0  0.00000000000E+00  0.00000000000E+00  0.45593999997E+02  0.45594000000E+02  0.51100000000E-03 0. -1.
         11   -1    0    0    0    0 -0.00000000000E+00 -0.00000000000E+00 -0.45593999997E+02  0.45594000000E+02  0.51100000000E-03 0.  1.
    9900012    2    1    2    0    0  0.27846620213E+02 -0.27952863753E+02 -0.21732872236E+02  0.46142305589E+02  0.99998890080E+01 0.  0.
         12    1    1    2    0    0 -0.27846620213E+02  0.27952863753E+02  0.21732872236E+02  0.45045694411E+02  0.00000000000E+00 0. -1.
         11    1    3    3    0    0  0.56445003389E+00 -0.13871480358E+01 -0.21420309763E+01  0.26136335777E+01  0.51100000000E-03 0. -1.
        -11    1    3    3    0    0  0.64714193150E+01 -0.43155099274E+01 -0.10095192812E+01  0.78435976009E+01  0.51100000000E-03 0.  1.
        -12    1    3    3    0    0  0.20810750864E+02 -0.22250205790E+02 -0.18581321978E+02  0.35685074411E+02  0.00000000000E+00 0.  1.
</event>
<event>
 7    1  0.1385632E-008  0.4614232E+02  0.7816164E-02  0.1320468E+00
        -11   -1    0    0    0    0  0.00000000000E+00  0.00000000000E+00  0.45593999997E+02  0.45594000000E+02  0.51100000000E-03 0.  1.
         11   -1    0    0    0    0 -0.00000000000E+00 -0.00000000000E+00 -0.45593999997E+02  0.45594000000E+02  0.51100000000E-03 0. -1.
    9900012    2    1    2    0    0  0.34780315196E+02  0.20322143530E+02  0.20160697883E+02  0.46142316723E+02  0.99999905341E+01 0.  0.
         12    1    1    2    0    0 -0.34780315196E+02 -0.20322143530E+02 -0.20160697883E+02  0.45045683277E+02  0.00000000000E+00 0. -1.
         11    1    3    3    0    0 -0.73502542604E-01 -0.34800582811E+00 -0.46428945524E+00  0.58487232755E+00  0.51100000000E-03 0. -1.
        -11    1    3    3    0    0  0.25340762677E+02  0.16441456379E+02  0.15075972980E+02  0.33760342156E+02  0.51100000000E-03 0.  1.
         12    1    3    3    0    0  0.95130550614E+01  0.42286929795E+01  0.55490143579E+01  0.11797102240E+02  0.00000000000E+00 0. -1.
</event>
<event>
 7    1  0.1385632E-008  0.4614232E+02  0.7816164E-02  0.1320468E+00
        -11   -1    0    0    0    0  0.00000000000E+00  0.00000000000E+00  0.45593999997E+02  0.45594000000E+02  0.51100000000E-03 0.  1.
         11   -1    0    0    0    0 -0.00000000000E+00 -0.00000000000E+00 -0.45593999997E+02  0.45594000000E+02  0.51100000000E-03 0. -1.
    9900012    2    1    2    0    0 -0.14387522984E+02 -0.40980492928E+02 -0.11946207688E+02  0.46142317673E+02  0.99999991926E+01 0.  0.
         12    1    1    2    0    0  0.14387522984E+02  0.40980492928E+02  0.11946207688E+02  0.45045682327E+02  0.00000000000E+00 0. -1.
         11    1    3    3    0    0 -0.11841793496E+01 -0.91547948568E+01 -0.29348389804E+01  0.96863734031E+01  0.51100000000E-03 0. -1.
        -11    1    3    3    0    0 -0.69360886778E+01 -0.97277784237E+01 -0.49205905605E+00  0.11957471371E+02  0.51100000000E-03 0.  1.
        -12    1    3    3    0    0 -0.62672549563E+01 -0.22097919647E+02 -0.85193096515E+01  0.24498472899E+02  0.00000000000E+00 0.  1.
</event>
<event>
 7    1  0.1385632E-008  0.4614232E+02  0.7816164E-02  0.1320468E+00
        -11   -1    0    0    0    0  0.00000000000E+00  0.00000000000E+00  0.45593999997E+02  0.45594000000E+02  0.51100000000E-03 0. -1.
         11   -1    0    0    0    0 -0.00000000000E+00 -0.00000000000E+00 -0.45593999997E+02  0.45594000000E+02  0.51100000000E-03 0.  1.
    9900012    2    1    2    0    0 -0.20061082170E+01 -0.44893439551E+02  0.31093538464E+01  0.46142318007E+02  0.10000002238E+02 0.  0.
         12    1    1    2    0    0  0.20061082170E+01  0.44893439551E+02 -0.31093538464E+01  0.45045681993E+02  0.00000000000E+00 0. -1.
         11    1    3    3    0    0  0.81227073068E+00 -0.56204865696E+00 -0.94282090888E+00  0.13655013585E+01  0.51100000000E-03 0. -1.
        -11    1    3    3    0    0 -0.19112924316E+01 -0.21419816197E+02  0.38474276237E+01  0.21846378745E+02  0.51100000000E-03 0.  1.
        -12    1    3    3    0    0 -0.90708651601E+00 -0.22911574697E+02  0.20474713161E+00  0.22930437903E+02  0.00000000000E+00 0.  1.
</event>
<event>
 7    1  0.1385632E-008  0.4614232E+02  0.7816164E-02  0.1320468E+00
        -11   -1    0    0    0    0  0.00000000000E+00  0.00000000000E+00  0.45593999997E+02  0.45594000000E+02  0.51100000000E-03 0.  1.
         11   -1    0    0    0    0 -0.00000000000E+00 -0.00000000000E+00 -0.45593999997E+02  0.45594000000E+02  0.51100000000E-03 0. -1.
    9900012    2    1    2    0    0  0.27997414487E+02  0.34728614845E+02 -0.62595001141E+01  0.46142320421E+02  0.10000024257E+02 0.  0.
         12    1    1    2    0    0 -0.27997414487E+02 -0.34728614845E+02  0.62595001141E+01  0.45045679579E+02  0.00000000000E+00 0. -1.
         11    1    3    3    0    0  0.53996298313E+01  0.25710161606E+01 -0.10412765185E+01  0.60704516687E+01  0.51100000000E-03 0. -1.
        -11    1    3    3    0    0  0.38373693645E+01  0.63818769276E+01 -0.32677474708E+01  0.81321541152E+01  0.51100000000E-03 0.  1.
         12    1    3    3    0    0  0.18760415291E+02  0.25775721757E+02 -0.19504761248E+01  0.31939714637E+02  0.00000000000E+00 0. -1.
</event>
<event>
 7    1  0.1385632E-008  0.4614231E+02  0.7816164E-02  0.1320468E+00
        -11   -1    0    0    0    0  0.00000000000E+00  0.00000000000E+00  0.45593999997E+02  0.45594000000E+02  0.51100000000E-03 0.  1.
         11   -1    0    0    0    0 -0.00000000000E+00 -0.00000000000E+00 -0.45593999997E+02  0.45594000000E+02  0.51100000000E-03 0. -1.
    9900012    2    1    2    0    0  0.38460770760E+02 -0.23315260814E+02  0.25063400715E+01  0.46142311918E+02  0.99999467157E+01 0.  0.
         12    1    1    2    0    0 -0.38460770760E+02  0.23315260814E+02 -0.25063400715E+01  0.45045688082E+02  0.00000000000E+00 0. -1.
         11    1    3    3    0    0  0.23923893505E+02 -0.15313976640E+02 -0.14666832367E+01  0.28443307138E+02  0.51100000000E-03 0. -1.
        -11    1    3    3    0    0  0.32936839687E+01 -0.30136336410E+01  0.29621945811E+01  0.53576990215E+01  0.51100000000E-03 0.  1.
        -12    1    3    3    0    0  0.11243193286E+02 -0.49876505329E+01  0.10108287271E+01  0.12341305758E+02  0.00000000000E+00 0.  1.
</event>
<event>
 7    1  0.1385632E-008  0.4614232E+02  0.7816164E-02  0.1320468E+00
        -11   -1    0    0    0    0  0.00000000000E+00  0.00000000000E+00  0.45593999997E+02  0.45594000000E+02  0.51100000000E-03 0.  1.
         11   -1    0    0    0    0 -0.00000000000E+00 -0.00000000000E+00 -0.45593999997E+02  0.45594000000E+02  0.51100000000E-03 0. -1.
    9900012    2    1    2    0    0  0.27278513291E+01 -0.22327473755E+02  0.39027634088E+02  0.46142317858E+02  0.10000000882E+02 0.  0.
         12    1    1    2    0    0 -0.27278513291E+01  0.22327473755E+02 -0.39027634088E+02  0.45045682142E+02  0.00000000000E+00 0. -1.
         11    1    3    3    0    0  0.14919835317E+01 -0.31927661931E+01  0.12964778328E+01  0.37550800065E+01  0.51100000000E-03 0. -1.
        -11    1    3    3    0    0 -0.50794515018E+00 -0.80271802054E+01  0.16856352148E+02  0.18676997573E+02  0.51100000000E-03 0.  1.
         12    1    3    3    0    0  0.17438129475E+01 -0.11107527356E+02  0.20874804107E+02  0.23710240279E+02  0.00000000000E+00 0. -1.
</event>
<event>
 7    1  0.1385632E-008  0.4614232E+02  0.7816164E-02  0.1320468E+00
        -11   -1    0    0    0    0  0.00000000000E+00  0.00000000000E+00  0.45593999997E+02  0.45594000000E+02  0.51100000000E-03 0.  1.
         11   -1    0    0    0    0 -0.00000000000E+00 -0.00000000000E+00 -0.45593999997E+02  0.45594000000E+02  0.51100000000E-03 0. -1.
    9900012    2    1    2    0    0 -0.11395165134E+01  0.19038077269E+00  0.45030862620E+02  0.46142319507E+02  0.10000015924E+02 0.  0.
         12    1    1    2    0    0  0.11395165134E+01 -0.19038077269E+00 -0.45030862620E+02  0.45045680493E+02  0.00000000000E+00 0. -1.
         11    1    3    3    0    0 -0.16095194705E+01  0.10741774846E+01  0.18802809437E+02  0.18902117690E+02  0.51100000000E-03 0.  1.
        -11    1    3    3    0    0 -0.13503887751E+01  0.46999958935E-01  0.51505082650E+00  0.14460416505E+01  0.51100000000E-03 0. -1.
        -12    1    3    3    0    0  0.18203917322E+01 -0.93079667085E+00  0.25713002357E+02  0.25794160167E+02  0.00000000000E+00 0.  1.
</event>
<event>
 7    1  0.1385632E-008  0.4614232E+02  0.7816164E-02  0.1320468E+00
        -11   -1    0    0    0    0  0.00000000000E+00  0.00000000000E+00  0.45593999997E+02  0.45594000000E+02  0.51100000000E-03 0.  1.
         11   -1    0    0    0    0 -0.00000000000E+00 -0.00000000000E+00 -0.45593999997E+02  0.45594000000E+02  0.51100000000E-03 0. -1.
    9900012    2    1    2    0    0  0.22720278516E+02  0.32444695753E+02  0.21453296788E+02  0.46142320059E+02  0.10000020951E+02 0.  0.
         12    1    1    2    0    0 -0.22720278516E+02 -0.32444695753E+02 -0.21453296788E+02  0.45045679941E+02  0.00000000000E+00 0. -1.
         11    1    3    3    0    0  0.44937084351E+01  0.34879966202E+01  0.65632953730E+01  0.86854120418E+01  0.51100000000E-03 0. -1.
        -11    1    3    3    0    0  0.16379543482E+02  0.24050997116E+02  0.13166469461E+02  0.31938939013E+02  0.51100000000E-03 0.  1.
         12    1    3    3    0    0  0.18470265988E+01  0.49057020167E+01  0.17235319538E+01  0.55179690040E+01  0.00000000000E+00 0. -1.
</event>
<event>
 7    1  0.1385632E-008  0.4614232E+02  0.7816164E-02  0.1320468E+00
        -11   -1    0    0    0    0  0.00000000000E+00  0.00000000000E+00  0.45593999997E+02  0.45594000000E+02  0.51100000000E-03 0.  1.
         11   -1    0    0    0    0 -0.00000000000E+00 -0.00000000000E+00 -0.45593999997E+02  0.45594000000E+02  0.51100000000E-03 0. -1.
    9900012    2    1    2    0    0 -0.12124734152E+01 -0.31565446524E+01  0.44918588823E+02  0.46142317768E+02  0.10000000059E+02 0.  0.
         12    1    1    2    0    0  0.12124734152E+01  0.31565446524E+01 -0.44918588823E+02  0.45045682232E+02  0.00000000000E+00 0. -1.
         11    1    3    3    0    0  0.20535179304E+01 -0.21537914863E+00  0.21987040692E+01  0.30162267675E+01  0.51100000000E-03 0. -1.
        -11    1    3    3    0    0 -0.32428179117E+00 -0.21499885451E+01  0.28539065811E+02  0.28621772955E+02  0.51100000000E-03 0.  1.
        -12    1    3    3    0    0 -0.29417095544E+01 -0.79117695865E+00  0.14180818943E+02  0.14504318045E+02  0.00000000000E+00 0.  1.
</event>
<event>
 7    1  0.1385632E-008  0.4614232E+02  0.7816164E-02  0.1320468E+00
        -11   -1    0    0    0    0  0.00000000000E+00  0.00000000000E+00  0.45593999997E+02  0.45594000000E+02  0.51100000000E-03 0. -1.
         11   -1    0    0    0    0 -0.00000000000E+00 -0.00000000000E+00 -0.45593999997E+02  0.45594000000E+02  0.51100000000E-03 0.  1.
    9900012    2    1    2    0    0  0.19508928455E+02 -0.52165990050E+01 -0.40265398840E+02  0.46142317206E+02  0.99999949383E+01 0.  0.
         12    1    1    2    0    0 -0.19508928455E+02  0.52165990050E+01  0.40265398840E+02  0.45045682794E+02  0.00000000000E+00 0. -1.
         11    1    3    3    0    0  0.99223612931E-01 -0.13548459600E+00 -0.77952025731E-01  0.18514367543E+00  0.51100000000E-03 0. -1.
        -11    1    3    3    0    0  0.20355287585E+02 -0.56893900526E+01 -0.37539245981E+02  0.43080179677E+02  0.51100000000E-03 0.  1.
        -12    1    3    3    0    0 -0.94558274382E+00  0.60827564365E+00 -0.26482008331E+01  0.28769938541E+01  0.00000000000E+00 0.  1.
</event>
<event>
 7    1  0.1385632E-008  0.4614232E+02  0.7816164E-02  0.1320468E+00
        -11   -1    0    0    0    0  0.00000000000E+00  0.00000000000E+00  0.45593999997E+02  0.45594000000E+02  0.51100000000E-03 0.  1.
         11   -1    0    0    0    0 -0.00000000000E+00 -0.00000000000E+00 -0.45593999997E+02  0.45594000000E+02  0.51100000000E-03 0. -1.
    9900012    2    1    2    0    0  0.34662897226E+02  0.26750100545E+02  0.10584368819E+02  0.46142321111E+02  0.10000030550E+02 0.  0.
         12    1    1    2    0    0 -0.34662897226E+02 -0.26750100545E+02 -0.10584368819E+02  0.45045678889E+02  0.00000000000E+00 0. -1.
         11    1    3    3    0    0  0.20396609725E+02  0.20315228967E+02  0.41834347576E+01  0.29090055739E+02  0.51100000000E-03 0. -1.
        -11    1    3    3    0    0  0.11588149386E+02  0.45436774565E+01  0.43513668684E+01  0.13185772822E+02  0.51100000000E-03 0.  1.
         12    1    3    3    0    0  0.26781381140E+01  0.18911941216E+01  0.20495671932E+01  0.38664925505E+01  0.00000000000E+00 0. -1.
</event>
<event>
 7    1  0.1385632E-008  0.4614232E+02  0.7816164E-02  0.1320468E+00
        -11   -1    0    0    0    0  0.00000000000E+00  0.00000000000E+00  0.45593999997E+02  0.45594000000E+02  0.51100000000E-03 0.  1.
         11   -1    0    0    0    0 -0.00000000000E+00 -0.00000000000E+00 -0.45593999997E+02  0.45594000000E+02  0.51100000000E-03 0. -1.
    9900012    2    1    2    0    0 -0.24538268973E+01  0.32436379844E+02  0.31160447223E+02  0.46142317910E+02  0.10000001362E+02 0.  0.
         12    1    1    2    0    0  0.24538268973E+01 -0.32436379844E+02 -0.31160447223E+02  0.45045682090E+02  0.00000000000E+00 0. -1.
         11    1    3    3    0    0  0.16105214729E+01  0.20017410732E+01  0.55386350040E+01  0.61055077355E+01  0.51100000000E-03 0. -1.
        -11    1    3    3    0    0 -0.27343105349E+01  0.14722883108E+02  0.13239999807E+02  0.19988430060E+02  0.51100000000E-03 0.  1.
         12    1    3    3    0    0 -0.13300378353E+01  0.15711755662E+02  0.12381812412E+02  0.20048380115E+02  0.00000000000E+00 0. -1.
</event>
<event>
 7    1  0.1385632E-008  0.4614232E+02  0.7816164E-02  0.1320468E+00
        -11   -1    0    0    0    0  0.00000000000E+00  0.00000000000E+00  0.45593999997E+02  0.45594000000E+02  0.51100000000E-03 0.  1.
         11   -1    0    0    0    0 -0.00000000000E+00 -0.00000000000E+00 -0.45593999997E+02  0.45594000000E+02  0.51100000000E-03 0. -1.
    9900012    2    1    2    0    0  0.10241140694E+02  0.70160907421E+01  0.43301351669E+02  0.46142317095E+02  0.99999939282E+01 0.  0.
         12    1    1    2    0    0 -0.10241140694E+02 -0.70160907421E+01 -0.43301351669E+02  0.45045682905E+02  0.00000000000E+00 0. -1.
         11    1    3    3    0    0  0.23166523728E+01 -0.14042777912E+01  0.89248941797E+01  0.93269829372E+01  0.51100000000E-03 0. -1.
        -11    1    3    3    0    0  0.63081676851E+01  0.36881713901E+01  0.26471061465E+02  0.27461112197E+02  0.51100000000E-03 0.  1.
        -12    1    3    3    0    0  0.16163206366E+01  0.47321971432E+01  0.79053960237E+01  0.93542219609E+01  0.00000000000E+00 0.  1.
</event>
<event>
 7    1  0.1385632E-008  0.4614232E+02  0.7816164E-02  0.1320468E+00
        -11   -1    0    0    0    0  0.00000000000E+00  0.00000000000E+00  0.45593999997E+02  0.45594000000E+02  0.51100000000E-03 0.  1.
         11   -1    0    0    0    0 -0.00000000000E+00 -0.00000000000E+00 -0.45593999997E+02  0.45594000000E+02  0.51100000000E-03 0. -1.
    9900012    2    1    2    0    0 -0.21661939139E+02  0.28268241903E+02  0.27582249984E+02  0.46142316280E+02  0.99999864981E+01 0.  0.
         12    1    1    2    0    0  0.21661939139E+02 -0.28268241903E+02 -0.27582249984E+02  0.45045683720E+02  0.00000000000E+00 0. -1.
         11    1    3    3    0    0 -0.12341117491E+02  0.10104991431E+02  0.15242656293E+02  0.22062470484E+02  0.51100000000E-03 0. -1.
        -11    1    3    3    0    0 -0.61637253735E+01  0.11732939622E+02  0.97859134017E+01  0.16474752927E+02  0.51100000000E-03 0.  1.
         12    1    3    3    0    0 -0.31570962751E+01  0.64303108510E+01  0.25536802897E+01  0.76050928695E+01  0.00000000000E+00 0. -1.
</event>
<event>
 7    1  0.1385632E-008  0.4614232E+02  0.7816164E-02  0.1320468E+00
        -11   -1    0    0    0    0  0.00000000000E+00  0.00000000000E+00  0.45593999997E+02  0.45594000000E+02  0.51100000000E-03 0. -1.
         11   -1    0    0    0    0 -0.00000000000E+00 -0.00000000000E+00 -0.45593999997E+02  0.45594000000E+02  0.51100000000E-03 0.  1.
    9900012    2    1    2    0    0 -0.37604598953E+02 -0.21890936904E+02 -0.11653088339E+02  0.46142318200E+02  0.10000004006E+02 0.  0.
         12    1    1    2    0    0  0.37604598953E+02  0.21890936904E+02  0.11653088339E+02  0.45045681800E+02  0.00000000000E+00 0. -1.
         11    1    3    3    0    0 -0.17409818723E+02 -0.53082804525E+01 -0.62013143387E+01  0.19228518641E+02  0.51100000000E-03 0. -1.
        -11    1    3    3    0    0 -0.73650573342E+01 -0.81468813860E+01 -0.27740628323E+01  0.11327452084E+02  0.51100000000E-03 0.  1.
         12    1    3    3    0    0 -0.12829722896E+02 -0.84357750655E+01 -0.26777111683E+01  0.15586347476E+02  0.00000000000E+00 0. -1.
</event>
<event>
 7    1  0.1385632E-008  0.4614232E+02  0.7816164E-02  0.1320468E+00
        -11   -1    0    0    0    0  0.00000000000E+00  0.00000000000E+00  0.45593999997E+02  0.45594000000E+02  0.51100000000E-03 0.  1.
         11   -1    0    0    0    0 -0.00000000000E+00 -0.00000000000E+00 -0.45593999997E+02  0.45594000000E+02  0.51100000000E-03 0. -1.
    9900012    2    1    2    0    0  0.24437006997E+02  0.34235338465E+02  0.16121040890E+02  0.46142315743E+02  0.99999815961E+01 0.  0.
         12    1    1    2    0    0 -0.24437006997E+02 -0.34235338465E+02 -0.16121040890E+02  0.45045684257E+02  0.00000000000E+00 0. -1.
         11    1    3    3    0    0  0.37648161013E+01  0.72249391621E+01  0.52711380057E+01  0.97035293739E+01  0.51100000000E-03 0. -1.
        -11    1    3    3    0    0  0.17515420607E+02  0.23497760024E+02  0.11847852551E+02  0.31611806268E+02  0.51100000000E-03 0.  1.
        -12    1    3    3    0    0  0.31567702892E+01  0.35126392791E+01 -0.99794966614E+00  0.48269801015E+01  0.00000000000E+00 0.  1.
</event>
<event>
 7    1  0.1385632E-008  0.4614232E+02  0.7816164E-02  0.1320468E+00
        -11   -1    0    0    0    0  0.00000000000E+00  0.00000000000E+00  0.45593999997E+02  0.45594000000E+02  0.51100000000E-03 0. -1.
         11   -1    0    0    0    0 -0.00000000000E+00 -0.00000000000E+00 -0.45593999997E+02  0.45594000000E+02  0.51100000000E-03 0.  1.
    9900012    2    1    2    0    0 -0.14756294782E+02  0.42017335369E+02  0.67755998505E+01  0.46142318070E+02  0.10000002817E+02 0.  0.
         12    1    1    2    0    0  0.14756294782E+02 -0.42017335369E+02 -0.67755998505E+01  0.45045681930E+02  0.00000000000E+00 0. -1.
         11    1    3    3    0    0 -0.14036496599E+02  0.34654461417E+02  0.81793995248E+01  0.38273456987E+02  0.51100000000E-03 0.  1.
        -11    1    3    3    0    0 -0.69732308707E+00  0.68493191459E+01 -0.19127427595E+01  0.71454893027E+01  0.51100000000E-03 0. -1.
        -12    1    3    3    0    0 -0.22475095857E-01  0.51355480618E+00  0.50894308525E+00  0.72337178056E+00  0.00000000000E+00 0.  1.
</event>
<event>
 7    1  0.1385632E-008  0.4614232E+02  0.7816164E-02  0.1320468E+00
        -11   -1    0    0    0    0  0.00000000000E+00  0.00000000000E+00  0.45593999997E+02  0.45594000000E+02  0.51100000000E-03 0. -1.
         11   -1    0    0    0    0 -0.00000000000E+00 -0.00000000000E+00 -0.45593999997E+02  0.45594000000E+02  0.51100000000E-03 0.  1.
    9900012    2    1    2    0    0 -0.28858100545E+02  0.20830958501E+02 -0.27611495985E+02  0.46142317525E+02  0.99999978485E+01 0.  0.
         12    1    1    2    0    0  0.28858100545E+02 -0.20830958501E+02  0.27611495985E+02  0.45045682475E+02  0.00000000000E+00 0. -1.
         11    1    3    3    0    0 -0.34123635874E+01  0.31649963086E+01 -0.81118723787E+01  0.93522136757E+01  0.51100000000E-03 0. -1.
        -11    1    3    3    0    0 -0.21336058073E+02  0.16311294975E+02 -0.17160968327E+02  0.31871375120E+02  0.51100000000E-03 0.  1.
        -12    1    3    3    0    0 -0.41096788843E+01  0.13546672172E+01 -0.23386552795E+01  0.49187287298E+01  0.00000000000E+00 0.  1.
</event>
<event>
 7    1  0.1385632E-008  0.4614232E+02  0.7816164E-02  0.1320468E+00
        -11   -1    0    0    0    0  0.00000000000E+00  0.00000000000E+00  0.45593999997E+02  0.45594000000E+02  0.51100000000E-03 0.  1.
         11   -1    0    0    0    0 -0.00000000000E+00 -0.00000000000E+00 -0.45593999997E+02  0.45594000000E+02  0.51100000000E-03 0. -1.
    9900012    2    1    2    0    0  0.21846306135E+01  0.33300620934E+02  0.30255735655E+02  0.46142317571E+02  0.99999982631E+01 0.  0.
         12    1    1    2    0    0 -0.21846306135E+01 -0.33300620934E+02 -0.30255735655E+02  0.45045682429E+02  0.00000000000E+00 0. -1.
         11    1    3    3    0    0  0.21980500774E+01  0.29069058538E+01  0.26429393374E+01  0.45018501072E+01  0.51100000000E-03 0. -1.
        -11    1    3    3    0    0  0.31742301099E+01  0.11697652729E+02  0.12252340786E+02  0.17234577777E+02  0.51100000000E-03 0.  1.
         12    1    3    3    0    0 -0.31876495738E+01  0.18696062351E+02  0.15360455532E+02  0.24405889687E+02  0.00000000000E+00 0. -1.
</event>
<event>
 7    1  0.1385632E-008  0.4614232E+02  0.7816164E-02  0.1320468E+00
        -11   -1    0    0    0    0  0.00000000000E+00  0.00000000000E+00  0.45593999997E+02  0.45594000000E+02  0.51100000000E-03 0.  1.
         11   -1    0    0    0    0 -0.00000000000E+00 -0.00000000000E+00 -0.45593999997E+02  0.45594000000E+02  0.51100000000E-03 0. -1.
    9900012    2    1    2    0    0 -0.26569846723E+02 -0.26486121174E+02  0.24932754126E+02  0.46142316544E+02  0.99999889014E+01 0.  0.
         12    1    1    2    0    0  0.26569846723E+02  0.26486121174E+02 -0.24932754126E+02  0.45045683456E+02  0.00000000000E+00 0. -1.
         11    1    3    3    0    0 -0.20294721938E+02 -0.18988496274E+02  0.21840167760E+02  0.35347300566E+02  0.51100000000E-03 0. -1.
        -11    1    3    3    0    0 -0.54034012196E+01 -0.40324839783E+01  0.23912891476E+01  0.71537357950E+01  0.51100000000E-03 0.  1.
         12    1    3    3    0    0 -0.87172356461E+00 -0.34651409214E+01  0.70129721903E+00  0.36412801825E+01  0.00000000000E+00 0. -1.
</event>
<event>
 7    1  0.1385632E-008  0.4614232E+02  0.7816164E-02  0.1320468E+00
        -11   -1    0    0    0    0  0.00000000000E+00  0.00000000000E+00  0.45593999997E+02  0.45594000000E+02  0.51100000000E-03 0.  1.
         11   -1    0    0    0    0 -0.00000000000E+00 -0.00000000000E+00 -0.45593999997E+02  0.45594000000E+02  0.51100000000E-03 0. -1.
    9900012    2    1    2    0    0 -0.17660120265E+02 -0.40440831202E+02 -0.90428300262E+01  0.46142318176E+02  0.10000003787E+02 0.  0.
         12    1    1    2    0    0  0.17660120265E+02  0.40440831202E+02  0.90428300262E+01  0.45045681824E+02  0.00000000000E+00 0. -1.
         11    1    3    3    0    0 -0.63475911301E+01 -0.13250737102E+02  0.14907955769E+01  0.14768087846E+02  0.51100000000E-03 0.  1.
        -11    1    3    3    0    0 -0.65614996613E+01 -0.15624194423E+02 -0.73515914310E+01  0.18471995724E+02  0.51100000000E-03 0. -1.
        -12    1    3    3    0    0 -0.47510294739E+01 -0.11565899676E+02 -0.31820341721E+01  0.12902234607E+02  0.00000000000E+00 0.  1.
</event>
<event>
 7    1  0.1385632E-008  0.4614232E+02  0.7816164E-02  0.1320468E+00
        -11   -1    0    0    0    0  0.00000000000E+00  0.00000000000E+00  0.45593999997E+02  0.45594000000E+02  0.51100000000E-03 0.  1.
         11   -1    0    0    0    0 -0.00000000000E+00 -0.00000000000E+00 -0.45593999997E+02  0.45594000000E+02  0.51100000000E-03 0. -1.
    9900012    2    1    2    0    0 -0.31268401917E+02 -0.12116542161E+02  0.30076402214E+02  0.46142317382E+02  0.99999965404E+01 0.  0.
         12    1    1    2    0    0  0.31268401917E+02  0.12116542161E+02 -0.30076402214E+02  0.45045682618E+02  0.00000000000E+00 0. -1.
         11    1    3    3    0    0 -0.36656788505E+01 -0.41762402259E+01  0.45156431454E+01  0.71602525889E+01  0.51100000000E-03 0. -1.
        -11    1    3    3    0    0 -0.17918079157E+01  0.14875833707E+00  0.46533377353E-01  0.17985745094E+01  0.51100000000E-03 0.  1.
        -12    1    3    3    0    0 -0.25810915151E+02 -0.80890602723E+01  0.25514225692E+02  0.37183490283E+02  0.00000000000E+00 0.  1.
</event>
<event>
 7    1  0.1385632E-008  0.4614232E+02  0.7816164E-02  0.1320468E+00
        -11   -1    0    0    0    0  0.00000000000E+00  0.00000000000E+00  0.45593999997E+02  0.45594000000E+02  0.51100000000E-03 0. -1.
         11   -1    0    0    0    0 -0.00000000000E+00 -0.00000000000E+00 -0.45593999997E+02  0.45594000000E+02  0.51100000000E-03 0.  1.
    9900012    2    1    2    0    0  0.19253885709E+02 -0.32789253262E+02 -0.24150903950E+02  0.46142318676E+02  0.10000008341E+02 0.  0.
         12    1    1    2    0    0 -0.19253885709E+02  0.32789253262E+02  0.24150903950E+02  0.45045681324E+02  0.00000000000E+00 0. -1.
         11    1    3    3    0    0  0.15830973153E+01 -0.49795437616E+01 -0.35023667868E+01  0.62903598111E+01  0.51100000000E-03 0. -1.
        -11    1    3    3    0    0  0.41810596513E+01 -0.98070265061E+01 -0.11168619589E+02  0.15440113098E+02  0.51100000000E-03 0.  1.
        -12    1    3    3    0    0  0.13489728742E+02 -0.18002682994E+02 -0.94799175751E+01  0.24411845767E+02  0.00000000000E+00 0.  1.
</event>
<event>
 7    1  0.1385632E-008  0.4614232E+02  0.7816164E-02  0.1320468E+00
        -11   -1    0    0    0    0  0.00000000000E+00  0.00000000000E+00  0.45593999997E+02  0.45594000000E+02  0.51100000000E-03 0. -1.
         11   -1    0    0    0    0 -0.00000000000E+00 -0.00000000000E+00 -0.45593999997E+02  0.45594000000E+02  0.51100000000E-03 0.  1.
    9900012    2    1    2    0    0  0.19009119712E+01  0.14747600512E+02 -0.42520680466E+02  0.46142318137E+02  0.10000003426E+02 0.  0.
         12    1    1    2    0    0 -0.19009119712E+01 -0.14747600512E+02  0.42520680466E+02  0.45045681863E+02  0.00000000000E+00 0. -1.
         11    1    3    3    0    0 -0.13571532267E+01  0.15492812747E+01 -0.28711854968E+01  0.35335313451E+01  0.51100000000E-03 0. -1.
        -11    1    3    3    0    0  0.49437610403E+01  0.47172099114E+01 -0.20177949177E+02  0.21303578944E+02  0.51100000000E-03 0.  1.
        -12    1    3    3    0    0 -0.16856958425E+01  0.84811093263E+01 -0.19471545793E+02  0.21305207848E+02  0.00000000000E+00 0.  1.
</event>
<event>
 7    1  0.1385632E-008  0.4614232E+02  0.7816164E-02  0.1320468E+00
        -11   -1    0    0    0    0  0.00000000000E+00  0.00000000000E+00  0.45593999997E+02  0.45594000000E+02  0.51100000000E-03 0. -1.
         11   -1    0    0    0    0 -0.00000000000E+00 -0.00000000000E+00 -0.45593999997E+02  0.45594000000E+02  0.51100000000E-03 0.  1.
    9900012    2    1    2    0    0 -0.14202561645E+02  0.42571902622E+02 -0.38773299186E+01  0.46142319437E+02  0.10000015280E+02 0.  0.
         12    1    1    2    0    0  0.14202561645E+02 -0.42571902622E+02  0.38773299186E+01  0.45045680563E+02  0.00000000000E+00 0. -1.
         11    1    3    3    0    0 -0.28595964129E+01  0.42418815437E+01  0.15941394578E+01  0.53583702324E+01  0.51100000000E-03 0. -1.
        -11    1    3    3    0    0 -0.54678089556E+01  0.27563134130E+02 -0.28780571591E+01  0.28247239000E+02  0.51100000000E-03 0.  1.
         12    1    3    3    0    0 -0.58751562765E+01  0.10766886948E+02 -0.25934122172E+01  0.12536710205E+02  0.00000000000E+00 0. -1.
</event>
<event>
 7    1  0.1385632E-008  0.4614232E+02  0.7816164E-02  0.1320468E+00
        -11   -1    0    0    0    0  0.00000000000E+00  0.00000000000E+00  0.45593999997E+02  0.45594000000E+02  0.51100000000E-03 0.  1.
         11   -1    0    0    0    0 -0.00000000000E+00 -0.00000000000E+00 -0.45593999997E+02  0.45594000000E+02  0.51100000000E-03 0. -1.
    9900012    2    1    2    0    0 -0.17960621684E+02  0.39040112994E+02  0.13505525089E+02  0.46142316946E+02  0.99999925654E+01 0.  0.
         12    1    1    2    0    0  0.17960621684E+02 -0.39040112994E+02 -0.13505525089E+02  0.45045683054E+02  0.00000000000E+00 0. -1.
         11    1    3    3    0    0 -0.29614030317E+01  0.15349713911E+02  0.60792400219E+01  0.16773216286E+02  0.51100000000E-03 0. -1.
        -11    1    3    3    0    0 -0.14369002596E+02  0.23164042600E+02  0.79509308312E+01  0.28394689760E+02  0.51100000000E-03 0.  1.
        -12    1    3    3    0    0 -0.63021605649E+00  0.52635648288E+00 -0.52464576418E+00  0.97441090039E+00  0.00000000000E+00 0.  1.
</event>
<event>
 7    1  0.1385632E-008  0.4614232E+02  0.7816164E-02  0.1320468E+00
        -11   -1    0    0    0    0  0.00000000000E+00  0.00000000000E+00  0.45593999997E+02  0.45594000000E+02  0.51100000000E-03 0.  1.
         11   -1    0    0    0    0 -0.00000000000E+00 -0.00000000000E+00 -0.45593999997E+02  0.45594000000E+02  0.51100000000E-03 0. -1.
    9900012    2    1    2    0    0  0.14320833527E+02  0.38927261463E+02  0.17569734335E+02  0.46142317382E+02  0.99999965431E+01 0.  0.
         12    1    1    2    0    0 -0.14320833527E+02 -0.38927261463E+02 -0.17569734335E+02  0.45045682618E+02  0.00000000000E+00 0. -1.
         11    1    3    3    0    0  0.45546869153E+01  0.15932381905E+02  0.10666941043E+02  0.19707095106E+02  0.51100000000E-03 0. -1.
        -11    1    3    3    0    0  0.87077909982E+01  0.21651726237E+02  0.76640633019E+01  0.24563402445E+02  0.51100000000E-03 0.  1.
         12    1    3    3    0    0  0.10583556138E+01  0.13431533215E+01 -0.76127001048E+00  0.18718198308E+01  0.00000000000E+00 0. -1.
</event>
<event>
 7    1  0.1385632E-008  0.4614232E+02  0.7816164E-02  0.1320468E+00
        -11   -1    0    0    0    0  0.00000000000E+00  0.00000000000E+00  0.45593999997E+02  0.45594000000E+02  0.51100000000E-03 0.  1.
         11   -1    0    0    0    0 -0.00000000000E+00 -0.00000000000E+00 -0.45593999997E+02  0.45594000000E+02  0.51100000000E-03 0. -1.
    9900012    2    1    2    0    0  0.20205154237E+02  0.39713004441E+02 -0.66138082456E+01  0.46142318309E+02  0.10000005000E+02 0.  0.
         12    1    1    2    0    0 -0.20205154237E+02 -0.39713004441E+02  0.66138082456E+01  0.45045681691E+02  0.00000000000E+00 0. -1.
         11    1    3    3    0    0  0.20988485792E+01  0.23286239592E+01  0.13782741195E+01  0.34245137920E+01  0.51100000000E-03 0. -1.
        -11    1    3    3    0    0  0.46545677069E+01  0.60883833254E+01  0.25949658609E+00  0.76681647605E+01  0.51100000000E-03 0.  1.
         12    1    3    3    0    0  0.13451737951E+02  0.31295997156E+02 -0.82515789512E+01  0.35049639757E+02  0.00000000000E+00 0. -1.
</event>
<event>
 7    1  0.1385632E-008  0.4614232E+02  0.7816164E-02  0.1320468E+00
        -11   -1    0    0    0    0  0.00000000000E+00  0.00000000000E+00  0.45593999997E+02  0.45594000000E+02  0.51100000000E-03 0.  1.
         11   -1    0    0    0    0 -0.00000000000E+00 -0.00000000000E+00 -0.45593999997E+02  0.45594000000E+02  0.51100000000E-03 0. -1.
    9900012    2    1    2    0    0  0.89573696500E+01 -0.35450552350E+02  0.26308504496E+02  0.46142317168E+02  0.99999945936E+01 0.  0.
         12    1    1    2    0    0 -0.89573696500E+01  0.35450552350E+02 -0.26308504496E+02  0.45045682832E+02  0.00000000000E+00 0. -1.
         11    1    3    3    0    0  0.37629329635E+01 -0.95778734119E+01  0.40802752581E+01  0.11069957996E+02  0.51100000000E-03 0. -1.
        -11    1    3    3    0    0  0.20897506110E+01 -0.95729509070E+01  0.12338528930E+02  0.15755879636E+02  0.51100000000E-03 0.  1.
        -12    1    3    3    0    0  0.31046860756E+01 -0.16299728031E+02  0.98897003081E+01  0.19316479537E+02  0.00000000000E+00 0.  1.
</event>
<event>
 7    1  0.1385632E-008  0.4614232E+02  0.7816164E-02  0.1320468E+00
        -11   -1    0    0    0    0  0.00000000000E+00  0.00000000000E+00  0.45593999997E+02  0.45594000000E+02  0.51100000000E-03 0.  1.
         11   -1    0    0    0    0 -0.00000000000E+00 -0.00000000000E+00 -0.45593999997E+02  0.45594000000E+02  0.51100000000E-03 0. -1.
    9900012    2    1    2    0    0  0.12560358086E+02  0.18060998091E+02  0.39308412779E+02  0.46142316938E+02  0.99999924961E+01 0.  0.
         12    1    1    2    0    0 -0.12560358086E+02 -0.18060998091E+02 -0.39308412779E+02  0.45045683062E+02  0.00000000000E+00 0. -1.
         11    1    3    3    0    0  0.59304119392E+01  0.91388414997E+01  0.13400587650E+02  0.17270320187E+02  0.51100000000E-03 0. -1.
        -11    1    3    3    0    0 -0.75060969001E+00  0.34124047603E+01  0.81613923067E+01  0.88778514179E+01  0.51100000000E-03 0.  1.
        -12    1    3    3    0    0  0.73805558365E+01  0.55097518309E+01  0.17746432822E+02  0.19994145333E+02  0.00000000000E+00 0.  1.
</event>
<event>
 7    1  0.1385632E-008  0.4614232E+02  0.7816164E-02  0.1320468E+00
        -11   -1    0    0    0    0  0.00000000000E+00  0.00000000000E+00  0.45593999997E+02  0.45594000000E+02  0.51100000000E-03 0. -1.
         11   -1    0    0    0    0 -0.00000000000E+00 -0.00000000000E+00 -0.45593999997E+02  0.45594000000E+02  0.51100000000E-03 0.  1.
    9900012    2    1    2    0    0 -0.25222435212E+01 -0.29788419150E+02 -0.33695723147E+02  0.46142318895E+02  0.10000010341E+02 0.  0.
         12    1    1    2    0    0  0.25222435212E+01  0.29788419150E+02  0.33695723147E+02  0.45045681105E+02  0.00000000000E+00 0. -1.
         11    1    3    3    0    0  0.19369678282E+01 -0.17759434013E+02 -0.20519613480E+02  0.27206688120E+02  0.51100000000E-03 0. -1.
        -11    1    3    3    0    0 -0.42125679100E+01 -0.12265129108E+02 -0.13296534060E+02  0.18573554822E+02  0.51100000000E-03 0.  1.
        -12    1    3    3    0    0 -0.24664343931E+00  0.23614397130E+00  0.12042439394E+00  0.36207595334E+00  0.00000000000E+00 0.  1.
</event>
<event>
 7    1  0.1385632E-008  0.4614230E+02  0.7816164E-02  0.1320468E+00
        -11   -1    0    0    0    0  0.00000000000E+00  0.00000000000E+00  0.45593999997E+02  0.45594000000E+02  0.51100000000E-03 0. -1.
         11   -1    0    0    0    0 -0.00000000000E+00 -0.00000000000E+00 -0.45593999997E+02  0.45594000000E+02  0.51100000000E-03 0.  1.
    9900012    2    1    2    0    0 -0.12943184004E+02 -0.40086825774E+02 -0.15957291161E+02  0.46142303713E+02  0.99998718954E+01 0.  0.
         12    1    1    2    0    0  0.12943184004E+02  0.40086825774E+02  0.15957291161E+02  0.45045696287E+02  0.00000000000E+00 0. -1.
         11    1    3    3    0    0 -0.68300382323E+01 -0.14163951081E+02 -0.10542781375E+02  0.18931908828E+02  0.51100000000E-03 0. -1.
        -11    1    3    3    0    0 -0.38983964169E+01 -0.16197742130E+02 -0.40287787089E+01  0.17140460988E+02  0.51100000000E-03 0.  1.
         12    1    3    3    0    0 -0.22147493552E+01 -0.97251325634E+01 -0.13857310772E+01  0.10069933898E+02  0.00000000000E+00 0. -1.
</event>
<event>
 7    1  0.1385632E-008  0.4614232E+02  0.7816164E-02  0.1320468E+00
        -11   -1    0    0    0    0  0.00000000000E+00  0.00000000000E+00  0.45593999997E+02  0.45594000000E+02  0.51100000000E-03 0.  1.
         11   -1    0    0    0    0 -0.00000000000E+00 -0.00000000000E+00 -0.45593999997E+02  0.45594000000E+02  0.51100000000E-03 0. -1.
    9900012    2    1    2    0    0  0.42653123176E+02 -0.78705474347E+01  0.12160554143E+02  0.46142317513E+02  0.99999977402E+01 0.  0.
         12    1    1    2    0    0 -0.42653123176E+02  0.78705474347E+01 -0.12160554143E+02  0.45045682487E+02  0.00000000000E+00 0. -1.
         11    1    3    3    0    0  0.14439218558E+02 -0.16422053749E+01  0.29604867139E+01  0.14830790704E+02  0.51100000000E-03 0. -1.
        -11    1    3    3    0    0  0.25563595326E+01 -0.22761299527E+01  0.31588962627E+01  0.46577212756E+01  0.51100000000E-03 0.  1.
        -12    1    3    3    0    0  0.25657545086E+02 -0.39522121071E+01  0.60411711664E+01  0.26653805533E+02  0.00000000000E+00 0.  1.
</event>
<event>
 7    1  0.1385632E-008  0.4614232E+02  0.7816164E-02  0.1320468E+00
        -11   -1    0    0    0    0  0.00000000000E+00  0.00000000000E+00  0.45593999997E+02  0.45594000000E+02  0.51100000000E-03 0.  1.
         11   -1    0    0    0    0 -0.00000000000E+00 -0.00000000000E+00 -0.45593999997E+02  0.45594000000E+02  0.51100000000E-03 0. -1.
    9900012    2    1    2    0    0  0.11514617376E+02 -0.36084132374E+02  0.24381600474E+02  0.46142318030E+02  0.10000002452E+02 0.  0.
         12    1    1    2    0    0 -0.11514617376E+02  0.36084132374E+02 -0.24381600474E+02  0.45045681970E+02  0.00000000000E+00 0. -1.
         11    1    3    3    0    0  0.62588971956E+01 -0.26625755994E+02  0.20730215689E+02  0.34319768635E+02  0.51100000000E-03 0. -1.
        -11    1    3    3    0    0  0.50765432871E+01 -0.67469778497E+01  0.21288217509E+01  0.87077485126E+01  0.51100000000E-03 0.  1.
        -12    1    3    3    0    0  0.17917689294E+00 -0.27113985300E+01  0.15225630336E+01  0.31148008827E+01  0.00000000000E+00 0.  1.
</event>
<event>
 7    1  0.1385632E-008  0.4614232E+02  0.7816164E-02  0.1320468E+00
        -11   -1    0    0    0    0  0.00000000000E+00  0.00000000000E+00  0.45593999997E+02  0.45594000000E+02  0.51100000000E-03 0.  1.
         11   -1    0    0    0    0 -0.00000000000E+00 -0.00000000000E+00 -0.45593999997E+02  0.45594000000E+02  0.51100000000E-03 0. -1.
    9900012    2    1    2    0    0 -0.34875180252E+02  0.28503411310E+02  0.62514263137E+00  0.46142318107E+02  0.10000003150E+02 0.  0.
         12    1    1    2    0    0  0.34875180252E+02 -0.28503411310E+02 -0.62514263137E+00  0.45045681893E+02  0.00000000000E+00 0. -1.
         11    1    3    3    0    0 -0.37985524841E+00  0.29867043328E+01 -0.53227195482E+00  0.30574509769E+01  0.51100000000E-03 0. -1.
        -11    1    3    3    0    0 -0.32927872788E+02  0.24835669188E+02  0.48041664377E+00  0.41246649207E+02  0.51100000000E-03 0.  1.
        -12    1    3    3    0    0 -0.15674522155E+01  0.68103778990E+00  0.67699794243E+00  0.18382179232E+01  0.00000000000E+00 0.  1.
</event>
<event>
 7    1  0.1385632E-008  0.4614232E+02  0.7816164E-02  0.1320468E+00
        -11   -1    0    0    0    0  0.00000000000E+00  0.00000000000E+00  0.45593999997E+02  0.45594000000E+02  0.51100000000E-03 0.  1.
         11   -1    0    0    0    0 -0.00000000000E+00 -0.00000000000E+00 -0.45593999997E+02  0.45594000000E+02  0.51100000000E-03 0. -1.
    9900012    2    1    2    0    0 -0.40123384728E+02 -0.18710726010E+01  0.20389373254E+02  0.46142318116E+02  0.10000003235E+02 0.  0.
         12    1    1    2    0    0  0.40123384728E+02  0.18710726010E+01 -0.20389373254E+02  0.45045681884E+02  0.00000000000E+00 0. -1.
         11    1    3    3    0    0 -0.42305415850E+00  0.52470402524E+00  0.14453096115E+01  0.15947442646E+01  0.51100000000E-03 0. -1.
        -11    1    3    3    0    0 -0.35122212279E+02 -0.15869336137E+01  0.14235697375E+02  0.37930768957E+02  0.51100000000E-03 0.  1.
        -12    1    3    3    0    0 -0.45781182912E+01 -0.80884301248E+00  0.47083662671E+01  0.66168048945E+01  0.00000000000E+00 0.  1.
</event>
<event>
 7    1  0.1385632E-008  0.4614231E+02  0.7816164E-02  0.1320468E+00
        -11   -1    0    0    0    0  0.00000000000E+00  0.00000000000E+00  0.45593999997E+02  0.45594000000E+02  0.51100000000E-03 0.  1.
         11   -1    0    0    0    0 -0.00000000000E+00 -0.00000000000E+00 -0.45593999997E+02  0.45594000000E+02  0.51100000000E-03 0. -1.
    9900012    2    1    2    0    0 -0.24295193982E+02 -0.35564325776E+02 -0.13192271420E+02  0.46142314927E+02  0.99999741520E+01 0.  0.
         12    1    1    2    0    0  0.24295193982E+02  0.35564325776E+02  0.13192271420E+02  0.45045685073E+02  0.00000000000E+00 0. -1.
         11    1    3    3    0    0 -0.14495088702E+02 -0.23103064936E+02 -0.46964675460E+01  0.27675187688E+02  0.51100000000E-03 0.  1.
        -11    1    3    3    0    0 -0.80716346672E+01 -0.71117483685E+01 -0.59797801329E+01  0.12307965785E+02  0.51100000000E-03 0. -1.
         12    1    3    3    0    0 -0.17284706120E+01 -0.53495124721E+01 -0.25160237411E+01  0.61591614536E+01  0.00000000000E+00 0. -1.
</event>
<event>
 7    1  0.1385632E-008  0.4614232E+02  0.7816164E-02  0.1320468E+00
        -11   -1    0    0    0    0  0.00000000000E+00  0.00000000000E+00  0.45593999997E+02  0.45594000000E+02  0.51100000000E-03 0.  1.
         11   -1    0    0    0    0 -0.00000000000E+00 -0.00000000000E+00 -0.45593999997E+02  0.45594000000E+02  0.51100000000E-03 0. -1.
    9900012    2    1    2    0    0  0.13356867682E+02  0.41492032501E+02 -0.11363047540E+02  0.46142317357E+02  0.99999963171E+01 0.  0.
         12    1    1    2    0    0 -0.13356867682E+02 -0.41492032501E+02  0.11363047540E+02  0.45045682643E+02  0.00000000000E+00 0. -1.
         11    1    3    3    0    0 -0.49345054683E+00  0.51487023459E+00  0.26045547654E+00  0.75922468151E+00  0.51100000000E-03 0. -1.
        -11    1    3    3    0    0  0.10651497942E+02  0.37177291148E+02 -0.11736608089E+02  0.40414766549E+02  0.51100000000E-03 0.  1.
        -12    1    3    3    0    0  0.31988202868E+01  0.37998711185E+01  0.11310507204E+00  0.49683261267E+01  0.00000000000E+00 0.  1.
</event>
<event>
 7    1  0.1385632E-008  0.4614232E+02  0.7816164E-02  0.1320468E+00
        -11   -1    0    0    0    0  0.00000000000E+00  0.00000000000E+00  0.45593999997E+02  0.45594000000E+02  0.51100000000E-03 0.  1.
         11   -1    0    0    0    0 -0.00000000000E+00 -0.00000000000E+00 -0.45593999997E+02  0.45594000000E+02  0.51100000000E-03 0. -1.
    9900012    2    1    2    0    0  0.27841628750E+02  0.31074456243E+02 -0.16980444126E+02  0.46142316467E+02  0.99999882019E+01 0.  0.
         12    1    1    2    0    0 -0.27841628750E+02 -0.31074456243E+02  0.16980444126E+02  0.45045683533E+02  0.00000000000E+00 0. -1.
         11    1    3    3    0    0  0.81170820502E+01  0.65589040537E+01 -0.81672226183E+01  0.13251783614E+02  0.51100000000E-03 0. -1.
        -11    1    3    3    0    0  0.18780853881E+02  0.21679843062E+02 -0.76744037209E+01  0.29692297662E+02  0.51100000000E-03 0.  1.
        -12    1    3    3    0    0  0.94369281781E+00  0.28357091268E+01 -0.11388177873E+01  0.31982351913E+01  0.00000000000E+00 0.  1.
</event>
<event>
 7    1  0.1385632E-008  0.4614232E+02  0.7816164E-02  0.1320468E+00
        -11   -1    0    0    0    0  0.00000000000E+00  0.00000000000E+00  0.45593999997E+02  0.45594000000E+02  0.51100000000E-03 0.  1.
         11   -1    0    0    0    0 -0.00000000000E+00 -0.00000000000E+00 -0.45593999997E+02  0.45594000000E+02  0.51100000000E-03 0. -1.
    9900012    2    1    2    0    0  0.15697557339E+02  0.37680927268E+02  0.19048567187E+02  0.46142317654E+02  0.99999990198E+01 0.  0.
         12    1    1    2    0    0 -0.15697557339E+02 -0.37680927268E+02 -0.19048567187E+02  0.45045682346E+02  0.00000000000E+00 0. -1.
         11    1    3    3    0    0  0.70980266579E+00  0.42041784751E+01 -0.27588147167E+00  0.42725925762E+01  0.51100000000E-03 0. -1.
        -11    1    3    3    0    0  0.40377614193E+01  0.14930669929E+02  0.98747470251E+01  0.18350450972E+02  0.51100000000E-03 0.  1.
        -12    1    3    3    0    0  0.10949993254E+02  0.18546078864E+02  0.94497016340E+01  0.23519274105E+02  0.00000000000E+00 0.  1.
</event>
<event>
 7    1  0.1385632E-008  0.4614232E+02  0.7816164E-02  0.1320468E+00
        -11   -1    0    0    0    0  0.00000000000E+00  0.00000000000E+00  0.45593999997E+02  0.45594000000E+02  0.51100000000E-03 0.  1.
         11   -1    0    0    0    0 -0.00000000000E+00 -0.00000000000E+00 -0.45593999997E+02  0.45594000000E+02  0.51100000000E-03 0. -1.
    9900012    2    1    2    0    0  0.78643742783E+01 -0.22965153070E+02  0.37945580524E+02  0.46142315194E+02  0.99999765896E+01 0.  0.
         12    1    1    2    0    0 -0.78643742783E+01  0.22965153070E+02 -0.37945580524E+02  0.45045684806E+02  0.00000000000E+00 0. -1.
         11    1    3    3    0    0  0.53314853024E+00 -0.16189814451E+01 -0.27858972484E-01  0.17047359497E+01  0.51100000000E-03 0. -1.
        -11    1    3    3    0    0  0.78496693845E+01 -0.21070339375E+02  0.36804807231E+02  0.43129692167E+02  0.51100000000E-03 0.  1.
        -12    1    3    3    0    0 -0.51844363643E+00 -0.27583224990E+00  0.11686322661E+01  0.13078870775E+01  0.00000000000E+00 0.  1.
</event>
<event>
 7    1  0.1385632E-008  0.4614232E+02  0.7816164E-02  0.1320468E+00
        -11   -1    0    0    0    0  0.00000000000E+00  0.00000000000E+00  0.45593999997E+02  0.45594000000E+02  0.51100000000E-03 0.  1.
         11   -1    0    0    0    0 -0.00000000000E+00 -0.00000000000E+00 -0.45593999997E+02  0.45594000000E+02  0.51100000000E-03 0. -1.
    9900012    2    1    2    0    0  0.24786084066E+02 -0.32723268720E+02  0.18545920630E+02  0.46142318175E+02  0.10000003774E+02 0.  0.
         12    1    1    2    0    0 -0.24786084066E+02  0.32723268720E+02 -0.18545920630E+02  0.45045681825E+02  0.00000000000E+00 0. -1.
         11    1    3    3    0    0  0.52428692094E+01 -0.11375494661E+02  0.74139357019E+01  0.14555273930E+02  0.51100000000E-03 0. -1.
        -11    1    3    3    0    0  0.10182116841E+02 -0.12520043535E+02  0.31409638253E+01  0.16440579293E+02  0.51100000000E-03 0.  1.
        -12    1    3    3    0    0  0.93610980158E+01 -0.88277305243E+01  0.79910211023E+01  0.15146464952E+02  0.00000000000E+00 0.  1.
</event>
<event>
 7    1  0.1385632E-008  0.4614232E+02  0.7816164E-02  0.1320468E+00
        -11   -1    0    0    0    0  0.00000000000E+00  0.00000000000E+00  0.45593999997E+02  0.45594000000E+02  0.51100000000E-03 0.  1.
         11   -1    0    0    0    0 -0.00000000000E+00 -0.00000000000E+00 -0.45593999997E+02  0.45594000000E+02  0.51100000000E-03 0. -1.
    9900012    2    1    2    0    0 -0.14299994955E+02  0.40396945744E+02  0.13882017332E+02  0.46142317783E+02  0.10000000201E+02 0.  0.
         12    1    1    2    0    0  0.14299994955E+02 -0.40396945744E+02 -0.13882017332E+02  0.45045682217E+02  0.00000000000E+00 0. -1.
         11    1    3    3    0    0 -0.54785112321E+01  0.66620131489E+01  0.37640200514E+01  0.94108634951E+01  0.51100000000E-03 0. -1.
        -11    1    3    3    0    0 -0.18253731026E+01  0.17969743098E+02  0.50882119075E+01  0.18765221945E+02  0.51100000000E-03 0.  1.
         12    1    3    3    0    0 -0.69961106208E+01  0.15765189497E+02  0.50297853734E+01  0.17966232343E+02  0.00000000000E+00 0. -1.
</event>
<event>
 7    1  0.1385632E-008  0.4614233E+02  0.7816164E-02  0.1320468E+00
        -11   -1    0    0    0    0  0.00000000000E+00  0.00000000000E+00  0.45593999997E+02  0.45594000000E+02  0.51100000000E-03 0.  1.
         11   -1    0    0    0    0 -0.00000000000E+00 -0.00000000000E+00 -0.45593999997E+02  0.45594000000E+02  0.51100000000E-03 0. -1.
    9900012    2    1    2    0    0 -0.32223573670E+02  0.31471180973E+02  0.56453807940E+00  0.46142327232E+02  0.10000086362E+02 0.  0.
         12    1    1    2    0    0  0.32223573670E+02 -0.31471180973E+02 -0.56453807940E+00  0.45045672768E+02  0.00000000000E+00 0. -1.
         11    1    3    3    0    0  0.40490959637E+00  0.10005790709E+01  0.91588989533E+00  0.14156146438E+01  0.51100000000E-03 0. -1.
        -11    1    3    3    0    0 -0.99393064208E+01  0.10988213773E+02  0.12235776009E+00  0.14817072104E+02  0.51100000000E-03 0.  1.
         12    1    3    3    0    0 -0.22689176846E+02  0.19482388129E+02 -0.47370957603E+00  0.29909640484E+02  0.00000000000E+00 0. -1.
</event>
<event>
 7    1  0.1385632E-008  0.4614232E+02  0.7816164E-02  0.1320468E+00
        -11   -1    0    0    0    0  0.00000000000E+00  0.00000000000E+00  0.45593999997E+02  0.45594000000E+02  0.51100000000E-03 0. -1.
         11   -1    0    0    0    0 -0.00000000000E+00 -0.00000000000E+00 -0.45593999997E+02  0.45594000000E+02  0.51100000000E-03 0.  1.
    9900012    2    1    2    0    0 -0.23639615175E+02  0.37434327092E+02 -0.83038099516E+01  0.46142317519E+02  0.99999977924E+01 0.  0.
         12    1    1    2    0    0  0.23639615175E+02 -0.37434327092E+02  0.83038099516E+01  0.45045682481E+02  0.00000000000E+00 0. -1.
         11    1    3    3    0    0 -0.27891671733E+01  0.47347698284E+01  0.17279371191E+00  0.54979411398E+01  0.51100000000E-03 0.  1.
        -11    1    3    3    0    0 -0.96510056995E+01  0.82601505379E+01 -0.10093435607E+01  0.12743263813E+02  0.51100000000E-03 0. -1.
        -12    1    3    3    0    0 -0.11199442302E+02  0.24439406726E+02 -0.74672601028E+01  0.27901112566E+02  0.00000000000E+00 0.  1.
</event>
<event>
 7    1  0.1385632E-008  0.4614232E+02  0.7816164E-02  0.1320468E+00
        -11   -1    0    0    0    0  0.00000000000E+00  0.00000000000E+00  0.45593999997E+02  0.45594000000E+02  0.51100000000E-03 0. -1.
         11   -1    0    0    0    0 -0.00000000000E+00 -0.00000000000E+00 -0.45593999997E+02  0.45594000000E+02  0.51100000000E-03 0.  1.
    9900012    2    1    2    0    0  0.12267509462E+02  0.38471743390E+02 -0.19963632602E+02  0.46142318137E+02  0.10000003425E+02 0.  0.
         12    1    1    2    0    0 -0.12267509462E+02 -0.38471743390E+02  0.19963632602E+02  0.45045681863E+02  0.00000000000E+00 0. -1.
         11    1    3    3    0    0  0.49018836058E+01  0.25209367793E+02 -0.10618936985E+02  0.27790331239E+02  0.51100000000E-03 0. -1.
        -11    1    3    3    0    0  0.63488825593E+01  0.12296488364E+02 -0.97067206865E+01  0.16903619807E+02  0.51100000000E-03 0.  1.
         12    1    3    3    0    0  0.10167432970E+01  0.96588723289E+00  0.36202506939E+00  0.14483670907E+01  0.00000000000E+00 0. -1.
</event>
<event>
 7    1  0.1385632E-008  0.4614231E+02  0.7816164E-02  0.1320468E+00
        -11   -1    0    0    0    0  0.00000000000E+00  0.00000000000E+00  0.45593999997E+02  0.45594000000E+02  0.51100000000E-03 0.  1.
         11   -1    0    0    0    0 -0.00000000000E+00 -0.00000000000E+00 -0.45593999997E+02  0.45594000000E+02  0.51100000000E-03 0. -1.
    9900012    2    1    2    0    0  0.38383363920E+02 -0.54564150128E+01  0.22935972048E+02  0.46142313143E+02  0.99999578912E+01 0.  0.
         12    1    1    2    0    0 -0.38383363920E+02  0.54564150128E+01 -0.22935972048E+02  0.45045686857E+02  0.00000000000E+00 0. -1.
         11    1    3    3    0    0  0.14859019813E+01 -0.16018399498E+01  0.65043220542E+00  0.22796618692E+01  0.51100000000E-03 0. -1.
        -11    1    3    3    0    0  0.13290125793E+02 -0.18297381546E+01  0.12121707568E+02  0.18080685273E+02  0.51100000000E-03 0.  1.
        -12    1    3    3    0    0  0.23607336145E+02 -0.20248369084E+01  0.10163832275E+02  0.25781966002E+02  0.00000000000E+00 0.  1.
</event>
<event>
 7    1  0.1385632E-008  0.4614232E+02  0.7816164E-02  0.1320468E+00
        -11   -1    0    0    0    0  0.00000000000E+00  0.00000000000E+00  0.45593999997E+02  0.45594000000E+02  0.51100000000E-03 0.  1.
         11   -1    0    0    0    0 -0.00000000000E+00 -0.00000000000E+00 -0.45593999997E+02  0.45594000000E+02  0.51100000000E-03 0. -1.
    9900012    2    1    2    0    0  0.87103132627E+01  0.36392005808E+02  0.25077197592E+02  0.46142317821E+02  0.10000000550E+02 0.  0.
         12    1    1    2    0    0 -0.87103132627E+01 -0.36392005808E+02 -0.25077197592E+02  0.45045682179E+02  0.00000000000E+00 0. -1.
         11    1    3    3    0    0  0.31143476695E+01  0.74607387130E+01  0.48316883417E+01  0.94184391511E+01  0.51100000000E-03 0. -1.
        -11    1    3    3    0    0  0.21077073518E+01  0.25662048370E+02  0.15891758669E+02  0.30257745301E+02  0.51100000000E-03 0.  1.
        -12    1    3    3    0    0  0.34882582414E+01  0.32692187250E+01  0.43537505806E+01  0.64661333693E+01  0.00000000000E+00 0.  1.
</event>
<event>
 7    1  0.1385632E-008  0.4614232E+02  0.7816164E-02  0.1320468E+00
        -11   -1    0    0    0    0  0.00000000000E+00  0.00000000000E+00  0.45593999997E+02  0.45594000000E+02  0.51100000000E-03 0.  1.
         11   -1    0    0    0    0 -0.00000000000E+00 -0.00000000000E+00 -0.45593999997E+02  0.45594000000E+02  0.51100000000E-03 0. -1.
    9900012    2    1    2    0    0  0.43485517521E+02  0.10246164147E+02  0.57566477430E+01  0.46142321994E+02  0.10000038598E+02 0.  0.
         12    1    1    2    0    0 -0.43485517521E+02 -0.10246164147E+02 -0.57566477430E+01  0.45045678006E+02  0.00000000000E+00 0. -1.
         11    1    3    3    0    0  0.18235459840E+02  0.51534773572E+01 -0.19565566190E+01  0.19050418329E+02  0.51100000000E-03 0. -1.
        -11    1    3    3    0    0  0.31165880765E+01  0.15000907926E+01  0.18145326432E+01  0.39058830755E+01  0.51100000000E-03 0.  1.
         12    1    3    3    0    0  0.22133469604E+02  0.35925959973E+01  0.58986717188E+01  0.23186020589E+02  0.00000000000E+00 0. -1.
</event>
<event>
 7    1  0.1385632E-008  0.4614232E+02  0.7816164E-02  0.1320468E+00
        -11   -1    0    0    0    0  0.00000000000E+00  0.00000000000E+00  0.45593999997E+02  0.45594000000E+02  0.51100000000E-03 0.  1.
         11   -1    0    0    0    0 -0.00000000000E+00 -0.00000000000E+00 -0.45593999997E+02  0.45594000000E+02  0.51100000000E-03 0. -1.
    9900012    2    1    2    0    0  0.43913931834E+01 -0.16451846449E+02  0.41703308654E+02  0.46142317206E+02  0.99999949367E+01 0.  0.
         12    1    1    2    0    0 -0.43913931834E+01  0.16451846449E+02 -0.41703308654E+02  0.45045682794E+02  0.00000000000E+00 0. -1.
         11    1    3    3    0    0  0.56463137982E+00  0.67292532217E+00  0.88011536329E+01  0.88448822838E+01  0.51100000000E-03 0. -1.
        -11    1    3    3    0    0  0.66456324527E+00 -0.33722036827E+01  0.71150845995E+01  0.79017612659E+01  0.51100000000E-03 0.  1.
         12    1    3    3    0    0  0.31621985583E+01 -0.13752568088E+02  0.25787070422E+02  0.29395673656E+02  0.00000000000E+00 0. -1.
</event>
<event>
 7    1  0.1385632E-008  0.4614232E+02  0.7816164E-02  0.1320468E+00
        -11   -1    0    0    0    0  0.00000000000E+00  0.00000000000E+00  0.45593999997E+02  0.45594000000E+02  0.51100000000E-03 0.  1.
         11   -1    0    0    0    0 -0.00000000000E+00 -0.00000000000E+00 -0.45593999997E+02  0.45594000000E+02  0.51100000000E-03 0. -1.
    9900012    2    1    2    0    0 -0.39333043732E+02  0.65183122676E+01  0.20965132405E+02  0.46142317623E+02  0.99999987398E+01 0.  0.
         12    1    1    2    0    0  0.39333043732E+02 -0.65183122676E+01 -0.20965132405E+02  0.45045682377E+02  0.00000000000E+00 0. -1.
         11    1    3    3    0    0 -0.26251111371E+01 -0.17735052532E+01  0.25239215243E+01  0.40505196565E+01  0.51100000000E-03 0. -1.
        -11    1    3    3    0    0 -0.19171604322E+02  0.23195064049E+01  0.94809459953E+01  0.21513225222E+02  0.51100000000E-03 0.  1.
         12    1    3    3    0    0 -0.17536328274E+02  0.59723111159E+01  0.89602648851E+01  0.20578572745E+02  0.00000000000E+00 0. -1.
</event>
<event>
 7    1  0.1385632E-008  0.4614232E+02  0.7816164E-02  0.1320468E+00
        -11   -1    0    0    0    0  0.00000000000E+00  0.00000000000E+00  0.45593999997E+02  0.45594000000E+02  0.51100000000E-03 0. -1.
         11   -1    0    0    0    0 -0.00000000000E+00 -0.00000000000E+00 -0.45593999997E+02  0.45594000000E+02  0.51100000000E-03 0.  1.
    9900012    2    1    2    0    0  0.28875185836E+01  0.38743385190E+02 -0.22797497792E+02  0.46142316909E+02  0.99999922327E+01 0.  0.
         12    1    1    2    0    0 -0.28875185836E+01 -0.38743385190E+02  0.22797497792E+02  0.45045683091E+02  0.00000000000E+00 0. -1.
         11    1    3    3    0    0  0.10275491709E+00  0.15409613026E+02 -0.14095017305E+02  0.20883875246E+02  0.51100000000E-03 0. -1.
        -11    1    3    3    0    0  0.26517953005E+01  0.14228374524E+02 -0.40335159197E+01  0.15024909678E+02  0.51100000000E-03 0.  1.
        -12    1    3    3    0    0  0.13296836597E+00  0.91053976395E+01 -0.46689645674E+01  0.10233531985E+02  0.00000000000E+00 0.  1.
</event>
<event>
 7    1  0.1385632E-008  0.4614232E+02  0.7816164E-02  0.1320468E+00
        -11   -1    0    0    0    0  0.00000000000E+00  0.00000000000E+00  0.45593999997E+02  0.45594000000E+02  0.51100000000E-03 0.  1.
         11   -1    0    0    0    0 -0.00000000000E+00 -0.00000000000E+00 -0.45593999997E+02  0.45594000000E+02  0.51100000000E-03 0. -1.
    9900012    2    1    2    0    0 -0.23915882319E+01 -0.44255093844E+02  0.80548320550E+01  0.46142319354E+02  0.10000014527E+02 0.  0.
         12    1    1    2    0    0  0.23915882319E+01  0.44255093844E+02 -0.80548320550E+01  0.45045680646E+02  0.00000000000E+00 0. -1.
         11    1    3    3    0    0 -0.21902236957E+01 -0.20377594588E+02  0.69271840207E+01  0.21633985295E+02  0.51100000000E-03 0. -1.
        -11    1    3    3    0    0  0.15778235490E+01 -0.78318568394E+01 -0.15658052050E+01  0.81412072142E+01  0.51100000000E-03 0.  1.
        -12    1    3    3    0    0 -0.17791880851E+01 -0.16045642417E+02  0.26934532394E+01  0.16367126845E+02  0.00000000000E+00 0.  1.
</event>
<event>
 7    1  0.1385632E-008  0.4614232E+02  0.7816164E-02  0.1320468E+00
        -11   -1    0    0    0    0  0.00000000000E+00  0.00000000000E+00  0.45593999997E+02  0.45594000000E+02  0.51100000000E-03 0.  1.
         11   -1    0    0    0    0 -0.00000000000E+00 -0.00000000000E+00 -0.45593999997E+02  0.45594000000E+02  0.51100000000E-03 0. -1.
    9900012    2    1    2    0    0 -0.11284975669E+02  0.25792082564E+02  0.35164345062E+02  0.46142319159E+02  0.10000012744E+02 0.  0.
         12    1    1    2    0    0  0.11284975669E+02 -0.25792082564E+02 -0.35164345062E+02  0.45045680841E+02  0.00000000000E+00 0. -1.
         11    1    3    3    0    0 -0.15049213859E+01  0.15305600066E+02  0.18429459172E+02  0.24003565306E+02  0.51100000000E-03 0. -1.
        -11    1    3    3    0    0 -0.65261239406E+01  0.68981478144E+01  0.12547379398E+02  0.15735674976E+02  0.51100000000E-03 0.  1.
         12    1    3    3    0    0 -0.32539303420E+01  0.35883346838E+01  0.41875064918E+01  0.64030788760E+01  0.00000000000E+00 0. -1.
</event>
<event>
 7    1  0.1385632E-008  0.4614232E+02  0.7816164E-02  0.1320468E+00
        -11   -1    0    0    0    0  0.00000000000E+00  0.00000000000E+00  0.45593999997E+02  0.45594000000E+02  0.51100000000E-03 0. -1.
         11   -1    0    0    0    0 -0.00000000000E+00 -0.00000000000E+00 -0.45593999997E+02  0.45594000000E+02  0.51100000000E-03 0.  1.
    9900012    2    1    2    0    0  0.35877136162E+02 -0.23151895070E+02  0.14350412283E+02  0.46142317885E+02  0.10000001130E+02 0.  0.
         12    1    1    2    0    0 -0.35877136162E+02  0.23151895070E+02 -0.14350412283E+02  0.45045682115E+02  0.00000000000E+00 0. -1.
         11    1    3    3    0    0  0.82275583926E+01 -0.41748314303E+01  0.18290968910E+01  0.94057179563E+01  0.51100000000E-03 0. -1.
        -11    1    3    3    0    0  0.30663055534E+01  0.58191621031E+00  0.12120509633E+01  0.33481224621E+01  0.51100000000E-03 0.  1.
        -12    1    3    3    0    0  0.24583272216E+02 -0.19558979850E+02  0.11309264429E+02  0.33388477467E+02  0.00000000000E+00 0.  1.
</event>
<event>
 7    1  0.1385632E-008  0.4614232E+02  0.7816164E-02  0.1320468E+00
        -11   -1    0    0    0    0  0.00000000000E+00  0.00000000000E+00  0.45593999997E+02  0.45594000000E+02  0.51100000000E-03 0.  1.
         11   -1    0    0    0    0 -0.00000000000E+00 -0.00000000000E+00 -0.45593999997E+02  0.45594000000E+02  0.51100000000E-03 0. -1.
    9900012    2    1    2    0    0  0.25750068644E+02 -0.34590432607E+02  0.13021112382E+02  0.46142318400E+02  0.10000005825E+02 0.  0.
         12    1    1    2    0    0 -0.25750068644E+02  0.34590432607E+02 -0.13021112382E+02  0.45045681600E+02  0.00000000000E+00 0. -1.
         11    1    3    3    0    0  0.87531867065E+01 -0.51629683138E+01  0.26184587423E+01  0.10494324455E+02  0.51100000000E-03 0. -1.
        -11    1    3    3    0    0  0.95077010291E+01 -0.15233223048E+02  0.41939793809E+01  0.18440090201E+02  0.51100000000E-03 0.  1.
        -12    1    3    3    0    0  0.74891809089E+01 -0.14194241245E+02  0.62086742590E+01  0.17207903744E+02  0.00000000000E+00 0.  1.
</event>
<event>
 7    1  0.1385632E-008  0.4614232E+02  0.7816164E-02  0.1320468E+00
        -11   -1    0    0    0    0  0.00000000000E+00  0.00000000000E+00  0.45593999997E+02  0.45594000000E+02  0.51100000000E-03 0.  1.
         11   -1    0    0    0    0 -0.00000000000E+00 -0.00000000000E+00 -0.45593999997E+02  0.45594000000E+02  0.51100000000E-03 0. -1.
    9900012    2    1    2    0    0 -0.44981246504E+02 -0.15529073761E+01 -0.18410304333E+01  0.46142318171E+02  0.10000003740E+02 0.  0.
         12    1    1    2    0    0  0.44981246504E+02  0.15529073761E+01  0.18410304333E+01  0.45045681829E+02  0.00000000000E+00 0. -1.
         11    1    3    3    0    0 -0.19448090864E+01 -0.20582556028E+01 -0.23649111641E+00  0.28415887841E+01  0.51100000000E-03 0. -1.
        -11    1    3    3    0    0 -0.25096945961E+02 -0.13904278418E+01 -0.23566965810E+01  0.25245672999E+02  0.51100000000E-03 0.  1.
         12    1    3    3    0    0 -0.17939491457E+02  0.18957760685E+01  0.75215726418E+00  0.18055056388E+02  0.00000000000E+00 0. -1.
</event>
<event>
 7    1  0.1385632E-008  0.4614232E+02  0.7816164E-02  0.1320468E+00
        -11   -1    0    0    0    0  0.00000000000E+00  0.00000000000E+00  0.45593999997E+02  0.45594000000E+02  0.51100000000E-03 0.  1.
         11   -1    0    0    0    0 -0.00000000000E+00 -0.00000000000E+00 -0.45593999997E+02  0.45594000000E+02  0.51100000000E-03 0. -1.
    9900012    2    1    2    0    0  0.25561967913E+02 -0.36815073812E+02  0.45110632586E+01  0.46142317021E+02  0.99999932516E+01 0.  0.
         12    1    1    2    0    0 -0.25561967913E+02  0.36815073812E+02 -0.45110632586E+01  0.45045682979E+02  0.00000000000E+00 0. -1.
         11    1    3    3    0    0  0.33916902980E+01 -0.31064413241E+01 -0.55115885107E+00  0.46322043476E+01  0.51100000000E-03 0. -1.
        -11    1    3    3    0    0  0.12796335604E+02 -0.24106564640E+02  0.37157058611E+00  0.27294884660E+02  0.51100000000E-03 0.  1.
        -12    1    3    3    0    0  0.93739420102E+01 -0.96020678474E+01  0.46906515236E+01  0.14215228013E+02  0.00000000000E+00 0.  1.
</event>
<event>
 7    1  0.1385632E-008  0.4614232E+02  0.7816164E-02  0.1320468E+00
        -11   -1    0    0    0    0  0.00000000000E+00  0.00000000000E+00  0.45593999997E+02  0.45594000000E+02  0.51100000000E-03 0.  1.
         11   -1    0    0    0    0 -0.00000000000E+00 -0.00000000000E+00 -0.45593999997E+02  0.45594000000E+02  0.51100000000E-03 0. -1.
    9900012    2    1    2    0    0  0.22923782356E+02 -0.98649994733E+01  0.37500606233E+02  0.46142317854E+02  0.10000000851E+02 0.  0.
         12    1    1    2    0    0 -0.22923782356E+02  0.98649994733E+01 -0.37500606233E+02  0.45045682146E+02  0.00000000000E+00 0. -1.
         11    1    3    3    0    0  0.10563789530E+02 -0.57609210653E+01  0.23346904130E+02  0.26265182152E+02  0.51100000000E-03 0.  1.
        -11    1    3    3    0    0  0.42602095506E+01  0.79716095304E+00  0.31304514667E+01  0.53464546802E+01  0.51100000000E-03 0. -1.
        -12    1    3    3    0    0  0.80997832753E+01 -0.49012393610E+01  0.11023250636E+02  0.14530681022E+02  0.00000000000E+00 0.  1.
</event>
<event>
 7    1  0.1385632E-008  0.4614232E+02  0.7816164E-02  0.1320468E+00
        -11   -1    0    0    0    0  0.00000000000E+00  0.00000000000E+00  0.45593999997E+02  0.45594000000E+02  0.51100000000E-03 0. -1.
         11   -1    0    0    0    0 -0.00000000000E+00 -0.00000000000E+00 -0.45593999997E+02  0.45594000000E+02  0.51100000000E-03 0.  1.
    9900012    2    1    2    0    0 -0.11029787962E+02 -0.39907656988E+02  0.17743623037E+02  0.46142317996E+02  0.10000002139E+02 0.  0.
         12    1    1    2    0    0  0.11029787962E+02  0.39907656988E+02 -0.17743623037E+02  0.45045682004E+02  0.00000000000E+00 0. -1.
         11    1    3    3    0    0 -0.11557267649E+01 -0.12895335933E+01  0.21842847430E+01  0.27874184011E+01  0.51100000000E-03 0. -1.
        -11    1    3    3    0    0 -0.72826034750E+01 -0.26421328391E+02  0.14040109883E+02  0.30793629099E+02  0.51100000000E-03 0.  1.
        -12    1    3    3    0    0 -0.25914577221E+01 -0.12196795004E+02  0.15192284111E+01  0.12561270496E+02  0.00000000000E+00 0.  1.
</event>
<event>
 7    1  0.1385632E-008  0.4614232E+02  0.7816164E-02  0.1320468E+00
        -11   -1    0    0    0    0  0.00000000000E+00  0.00000000000E+00  0.45593999997E+02  0.45594000000E+02  0.51100000000E-03 0. -1.
         11   -1    0    0    0    0 -0.00000000000E+00 -0.00000000000E+00 -0.45593999997E+02  0.45594000000E+02  0.51100000000E-03 0.  1.
    9900012    2    1    2    0    0  0.31901911592E+02  0.31737613263E+02 -0.20261960580E+01  0.46142317307E+02  0.99999958556E+01 0.  0.
         12    1    1    2    0    0 -0.31901911592E+02 -0.31737613263E+02  0.20261960580E+01  0.45045682693E+02  0.00000000000E+00 0. -1.
         11    1    3    3    0    0  0.47495404377E+01  0.68098913054E+01  0.27211952676E+00  0.83070333608E+01  0.51100000000E-03 0. -1.
        -11    1    3    3    0    0  0.51659856369E+01  0.97609314410E+01 -0.24675844211E+00  0.11046451022E+02  0.51100000000E-03 0.  1.
        -12    1    3    3    0    0  0.21986385518E+02  0.15166790516E+02 -0.20515571427E+01  0.26788832924E+02  0.00000000000E+00 0.  1.
</event>
<event>
 7    1  0.1385632E-008  0.4614232E+02  0.7816164E-02  0.1320468E+00
        -11   -1    0    0    0    0  0.00000000000E+00  0.00000000000E+00  0.45593999997E+02  0.45594000000E+02  0.51100000000E-03 0.  1.
         11   -1    0    0    0    0 -0.00000000000E+00 -0.00000000000E+00 -0.45593999997E+02  0.45594000000E+02  0.51100000000E-03 0. -1.
    9900012    2    1    2    0    0 -0.43190917473E+02  0.12728689543E+02  0.12800613129E+01  0.46142318225E+02  0.10000004229E+02 0.  0.
         12    1    1    2    0    0  0.43190917473E+02 -0.12728689543E+02 -0.12800613129E+01  0.45045681775E+02  0.00000000000E+00 0. -1.
         11    1    3    3    0    0 -0.47053424102E+01  0.29465600388E+01 -0.22086463500E+01  0.59749964201E+01  0.51100000000E-03 0. -1.
        -11    1    3    3    0    0 -0.11803474447E+02  0.38931537885E+01  0.32302465594E+01  0.12841851445E+02  0.51100000000E-03 0.  1.
         12    1    3    3    0    0 -0.26682100615E+02  0.58889757158E+01  0.25846110344E+00  0.27325470359E+02  0.00000000000E+00 0. -1.
</event>
<event>
 7    1  0.1385632E-008  0.4614232E+02  0.7816164E-02  0.1320468E+00
        -11   -1    0    0    0    0  0.00000000000E+00  0.00000000000E+00  0.45593999997E+02  0.45594000000E+02  0.51100000000E-03 0. -1.
         11   -1    0    0    0    0 -0.00000000000E+00 -0.00000000000E+00 -0.45593999997E+02  0.45594000000E+02  0.51100000000E-03 0.  1.
    9900012    2    1    2    0    0  0.39262067502E+02  0.13442215952E+02  0.17518858399E+02  0.46142317479E+02  0.99999974252E+01 0.  0.
         12    1    1    2    0    0 -0.39262067502E+02 -0.13442215952E+02 -0.17518858399E+02  0.45045682521E+02  0.00000000000E+00 0. -1.
         11    1    3    3    0    0  0.12336880444E+02  0.45017315732E+01  0.95318180623E+01  0.16227130432E+02  0.51100000000E-03 0. -1.
        -11    1    3    3    0    0  0.11330011289E+02  0.60739031960E+01  0.49206754849E+01  0.13764973786E+02  0.51100000000E-03 0.  1.
        -12    1    3    3    0    0  0.15595175769E+02  0.28665811830E+01  0.30663648513E+01  0.16150213260E+02  0.00000000000E+00 0.  1.
</event>
<event>
 7    1  0.1385632E-008  0.4614232E+02  0.7816164E-02  0.1320468E+00
        -11   -1    0    0    0    0  0.00000000000E+00  0.00000000000E+00  0.45593999997E+02  0.45594000000E+02  0.51100000000E-03 0.  1.
         11   -1    0    0    0    0 -0.00000000000E+00 -0.00000000000E+00 -0.45593999997E+02  0.45594000000E+02  0.51100000000E-03 0. -1.
    9900012    2    1    2    0    0 -0.30689009720E+02 -0.85343859727E+01  0.31850628025E+02  0.46142316887E+02  0.99999920289E+01 0.  0.
         12    1    1    2    0    0  0.30689009720E+02  0.85343859727E+01 -0.31850628025E+02  0.45045683113E+02  0.00000000000E+00 0. -1.
         11    1    3    3    0    0 -0.27627464338E+00 -0.53379351846E+00  0.73797040230E+00  0.95176876117E+00  0.51100000000E-03 0. -1.
        -11    1    3    3    0    0 -0.18156537427E+02 -0.37635751185E-01  0.16965855709E+02  0.24849578025E+02  0.51100000000E-03 0.  1.
        -12    1    3    3    0    0 -0.12256197650E+02 -0.79629567031E+01  0.14146801913E+02  0.20340970101E+02  0.00000000000E+00 0.  1.
</event>
<event>
 7    1  0.1385632E-008  0.4614232E+02  0.7816164E-02  0.1320468E+00
        -11   -1    0    0    0    0  0.00000000000E+00  0.00000000000E+00  0.45593999997E+02  0.45594000000E+02  0.51100000000E-03 0.  1.
         11   -1    0    0    0    0 -0.00000000000E+00 -0.00000000000E+00 -0.45593999997E+02  0.45594000000E+02  0.51100000000E-03 0. -1.
    9900012    2    1    2    0    0  0.28397636803E+02  0.11956876118E+02  0.32859106623E+02  0.46142317071E+02  0.99999937083E+01 0.  0.
         12    1    1    2    0    0 -0.28397636803E+02 -0.11956876118E+02 -0.32859106623E+02  0.45045682929E+02  0.00000000000E+00 0. -1.
         11    1    3    3    0    0  0.12813921972E+01 -0.10701683617E+01  0.85490804243E+00  0.18756583664E+01  0.51100000000E-03 0. -1.
        -11    1    3    3    0    0  0.26862577695E+02  0.13034471343E+02  0.30283952320E+02  0.42527794347E+02  0.51100000000E-03 0.  1.
        -12    1    3    3    0    0  0.25366691092E+00 -0.74268638119E-02  0.17202462603E+01  0.17388643582E+01  0.00000000000E+00 0.  1.
</event>
<event>
 7    1  0.1385632E-008  0.4614232E+02  0.7816164E-02  0.1320468E+00
        -11   -1    0    0    0    0  0.00000000000E+00  0.00000000000E+00  0.45593999997E+02  0.45594000000E+02  0.51100000000E-03 0.  1.
         11   -1    0    0    0    0 -0.00000000000E+00 -0.00000000000E+00 -0.45593999997E+02  0.45594000000E+02  0.51100000000E-03 0. -1.
    9900012    2    1    2    0    0  0.40526824297E+02  0.12566125205E+02  0.15125557040E+02  0.46142318009E+02  0.10000002257E+02 0.  0.
         12    1    1    2    0    0 -0.40526824297E+02 -0.12566125205E+02 -0.15125557040E+02  0.45045681991E+02  0.00000000000E+00 0. -1.
         11    1    3    3    0    0  0.66365746366E+01  0.32311339546E+01  0.23624679817E+01  0.77502003049E+01  0.51100000000E-03 0. -1.
        -11    1    3    3    0    0  0.26533607828E+02  0.39452521163E+01  0.11495751382E+02  0.29184750448E+02  0.51100000000E-03 0.  1.
        -12    1    3    3    0    0  0.73566418330E+01  0.53897391341E+01  0.12673376758E+01  0.92073672555E+01  0.00000000000E+00 0.  1.
</event>
<event>
 7    1  0.1385632E-008  0.4614232E+02  0.7816164E-02  0.1320468E+00
        -11   -1    0    0    0    0  0.00000000000E+00  0.00000000000E+00  0.45593999997E+02  0.45594000000E+02  0.51100000000E-03 0. -1.
         11   -1    0    0    0    0 -0.00000000000E+00 -0.00000000000E+00 -0.45593999997E+02  0.45594000000E+02  0.51100000000E-03 0.  1.
    9900012    2    1    2    0    0  0.18207523294E+02 -0.24065205987E+02 -0.33443465098E+02  0.46142318726E+02  0.10000008801E+02 0.  0.
         12    1    1    2    0    0 -0.18207523294E+02  0.24065205987E+02  0.33443465098E+02  0.45045681274E+02  0.00000000000E+00 0. -1.
         11    1    3    3    0    0  0.11455405790E+02 -0.19583950553E+02 -0.28997009263E+02  0.36818256171E+02  0.51100000000E-03 0.  1.
        -11    1    3    3    0    0  0.34099387074E+01 -0.15343685509E+01 -0.19778419725E+01  0.42301096874E+01  0.51100000000E-03 0. -1.
        -12    1    3    3    0    0  0.33421787972E+01 -0.29468868832E+01 -0.24686138623E+01  0.50939528674E+01  0.00000000000E+00 0.  1.
</event>
<event>
 7    1  0.1385632E-008  0.4614232E+02  0.7816164E-02  0.1320468E+00
        -11   -1    0    0    0    0  0.00000000000E+00  0.00000000000E+00  0.45593999997E+02  0.45594000000E+02  0.51100000000E-03 0.  1.
         11   -1    0    0    0    0 -0.00000000000E+00 -0.00000000000E+00 -0.45593999997E+02  0.45594000000E+02  0.51100000000E-03 0. -1.
    9900012    2    1    2    0    0 -0.14852146516E+02  0.17732953778E+02  0.38653196494E+02  0.46142317576E+02  0.99999983095E+01 0.  0.
         12    1    1    2    0    0  0.14852146516E+02 -0.17732953778E+02 -0.38653196494E+02  0.45045682424E+02  0.00000000000E+00 0. -1.
         11    1    3    3    0    0  0.50185549673E+00 -0.46907222848E+00  0.88342224465E-01  0.69259822760E+00  0.51100000000E-03 0. -1.
        -11    1    3    3    0    0 -0.39566013533E+01  0.26545499558E+01  0.81293293149E+01  0.94227026435E+01  0.51100000000E-03 0.  1.
         12    1    3    3    0    0 -0.11397400660E+02  0.15547476051E+02  0.30435524955E+02  0.36027016705E+02  0.00000000000E+00 0. -1.
</event>
<event>
 7    1  0.1385632E-008  0.4614232E+02  0.7816164E-02  0.1320468E+00
        -11   -1    0    0    0    0  0.00000000000E+00  0.00000000000E+00  0.45593999997E+02  0.45594000000E+02  0.51100000000E-03 0.  1.
         11   -1    0    0    0    0 -0.00000000000E+00 -0.00000000000E+00 -0.45593999997E+02  0.45594000000E+02  0.51100000000E-03 0. -1.
    9900012    2    1    2    0    0  0.26267057452E+02  0.29006155043E+02  0.22311389952E+02  0.46142318086E+02  0.10000002959E+02 0.  0.
         12    1    1    2    0    0 -0.26267057452E+02 -0.29006155043E+02 -0.22311389952E+02  0.45045681914E+02  0.00000000000E+00 0. -1.
         11    1    3    3    0    0  0.18973287267E+00 -0.42784761812E+00  0.99030012085E+00  0.10953295111E+01  0.51100000000E-03 0. -1.
        -11    1    3    3    0    0  0.38880932579E+00  0.71242763425E+00  0.15212528915E+01  0.17242205331E+01  0.51100000000E-03 0.  1.
         12    1    3    3    0    0  0.25688515253E+02  0.28721575027E+02  0.19799836940E+02  0.43322768041E+02  0.00000000000E+00 0. -1.
</event>
<event>
 7    1  0.1385632E-008  0.4614232E+02  0.7816164E-02  0.1320468E+00
        -11   -1    0    0    0    0  0.00000000000E+00  0.00000000000E+00  0.45593999997E+02  0.45594000000E+02  0.51100000000E-03 0.  1.
         11   -1    0    0    0    0 -0.00000000000E+00 -0.00000000000E+00 -0.45593999997E+02  0.45594000000E+02  0.51100000000E-03 0. -1.
    9900012    2    1    2    0    0  0.21292675816E+02  0.12005486983E+02  0.37836540315E+02  0.46142317143E+02  0.99999943592E+01 0.  0.
         12    1    1    2    0    0 -0.21292675816E+02 -0.12005486983E+02 -0.37836540315E+02  0.45045682857E+02  0.00000000000E+00 0. -1.
         11    1    3    3    0    0  0.78358501779E+01  0.10590802932E+01  0.14214075164E+02  0.16265366031E+02  0.51100000000E-03 0.  1.
        -11    1    3    3    0    0  0.33841759326E+01  0.61397247233E+01  0.10819929933E+02  0.12892623877E+02  0.51100000000E-03 0. -1.
        -12    1    3    3    0    0  0.10072649706E+02  0.48066819667E+01  0.12802535217E+02  0.16984327235E+02  0.00000000000E+00 0.  1.
</event>
<event>
 7    1  0.1385632E-008  0.4614232E+02  0.7816164E-02  0.1320468E+00
        -11   -1    0    0    0    0  0.00000000000E+00  0.00000000000E+00  0.45593999997E+02  0.45594000000E+02  0.51100000000E-03 0.  1.
         11   -1    0    0    0    0 -0.00000000000E+00 -0.00000000000E+00 -0.45593999997E+02  0.45594000000E+02  0.51100000000E-03 0. -1.
    9900012    2    1    2    0    0 -0.22844732737E+02 -0.26462960755E+02  0.28406749190E+02  0.46142317573E+02  0.99999982887E+01 0.  0.
         12    1    1    2    0    0  0.22844732737E+02  0.26462960755E+02 -0.28406749190E+02  0.45045682427E+02  0.00000000000E+00 0. -1.
         11    1    3    3    0    0 -0.73775497290E+01 -0.61817709479E+01  0.44762684093E+01  0.10615060583E+02  0.51100000000E-03 0. -1.
        -11    1    3    3    0    0 -0.26327185470E+01 -0.44430417189E+01  0.85567702877E+01  0.99945057247E+01  0.51100000000E-03 0.  1.
        -12    1    3    3    0    0 -0.12834464461E+02 -0.15838148088E+02  0.15373710493E+02  0.25532751265E+02  0.00000000000E+00 0.  1.
</event>
<event>
 7    1  0.1385632E-008  0.4614232E+02  0.7816164E-02  0.1320468E+00
        -11   -1    0    0    0    0  0.00000000000E+00  0.00000000000E+00  0.45593999997E+02  0.45594000000E+02  0.51100000000E-03 0.  1.
         11   -1    0    0    0    0 -0.00000000000E+00 -0.00000000000E+00 -0.45593999997E+02  0.45594000000E+02  0.51100000000E-03 0. -1.
    9900012    2    1    2    0    0  0.39300296792E+01 -0.42809996053E+02  0.13452604709E+02  0.46142317979E+02  0.10000001984E+02 0.  0.
         12    1    1    2    0    0 -0.39300296792E+01  0.42809996053E+02 -0.13452604709E+02  0.45045682021E+02  0.00000000000E+00 0. -1.
         11    1    3    3    0    0  0.37795482597E+00 -0.31923769550E+01  0.34832337596E+01  0.47399407336E+01  0.51100000000E-03 0. -1.
        -11    1    3    3    0    0  0.34642626039E+00 -0.22749930428E+02  0.80099631441E+01  0.24121336105E+02  0.51100000000E-03 0.  1.
         12    1    3    3    0    0  0.32056485928E+01 -0.16867688669E+02  0.19594078055E+01  0.17281041140E+02  0.00000000000E+00 0. -1.
</event>
<event>
 7    1  0.1385632E-008  0.4614232E+02  0.7816164E-02  0.1320468E+00
        -11   -1    0    0    0    0  0.00000000000E+00  0.00000000000E+00  0.45593999997E+02  0.45594000000E+02  0.51100000000E-03 0.  1.
         11   -1    0    0    0    0 -0.00000000000E+00 -0.00000000000E+00 -0.45593999997E+02  0.45594000000E+02  0.51100000000E-03 0. -1.
    9900012    2    1    2    0    0  0.32609519485E+02 -0.23952909687E+02  0.19798759057E+02  0.46142317591E+02  0.99999984512E+01 0.  0.
         12    1    1    2    0    0 -0.32609519485E+02  0.23952909687E+02 -0.19798759057E+02  0.45045682409E+02  0.00000000000E+00 0. -1.
         11    1    3    3    0    0  0.29728643206E+01 -0.27493438628E+01  0.24872535974E+00  0.40569296901E+01  0.51100000000E-03 0. -1.
        -11    1    3    3    0    0  0.23731757486E+02 -0.13899062708E+02  0.17075694893E+02  0.32372204340E+02  0.51100000000E-03 0.  1.
        -12    1    3    3    0    0  0.59048976786E+01 -0.73045031163E+01  0.24743388036E+01  0.97131835608E+01  0.00000000000E+00 0.  1.
</event>
<event>
 7    1  0.1385632E-008  0.4614232E+02  0.7816164E-02  0.1320468E+00
        -11   -1    0    0    0    0  0.00000000000E+00  0.00000000000E+00  0.45593999997E+02  0.45594000000E+02  0.51100000000E-03 0.  1.
         11   -1    0    0    0    0 -0.00000000000E+00 -0.00000000000E+00 -0.45593999997E+02  0.45594000000E+02  0.51100000000E-03 0. -1.
    9900012    2    1    2    0    0 -0.34752927928E+02 -0.28401929292E+02  0.38311621074E+01  0.46142318851E+02  0.10000009938E+02 0.  0.
         12    1    1    2    0    0  0.34752927928E+02  0.28401929292E+02 -0.38311621074E+01  0.45045681149E+02  0.00000000000E+00 0. -1.
         11    1    3    3    0    0 -0.57039892592E+01 -0.53260323888E+01  0.32132605601E+01  0.84396183660E+01  0.51100000000E-03 0.  1.
        -11    1    3    3    0    0 -0.15580316426E+02 -0.85040752117E+01  0.16931836126E+01  0.17830659723E+02  0.51100000000E-03 0. -1.
        -12    1    3    3    0    0 -0.13468622243E+02 -0.14571821691E+02 -0.10752820653E+01  0.19872040762E+02  0.00000000000E+00 0.  1.
</event>
<event>
 7    1  0.1385632E-008  0.4614232E+02  0.7816164E-02  0.1320468E+00
        -11   -1    0    0    0    0  0.00000000000E+00  0.00000000000E+00  0.45593999997E+02  0.45594000000E+02  0.51100000000E-03 0.  1.
         11   -1    0    0    0    0 -0.00000000000E+00 -0.00000000000E+00 -0.45593999997E+02  0.45594000000E+02  0.51100000000E-03 0. -1.
    9900012    2    1    2    0    0 -0.31575708989E+02 -0.23936860742E+02  0.21426962656E+02  0.46142318420E+02  0.10000006012E+02 0.  0.
         12    1    1    2    0    0  0.31575708989E+02  0.23936860742E+02 -0.21426962656E+02  0.45045681580E+02  0.00000000000E+00 0. -1.
         11    1    3    3    0    0 -0.22576385456E+02 -0.12006457313E+02  0.11879998603E+02  0.28195435172E+02  0.51100000000E-03 0.  1.
        -11    1    3    3    0    0 -0.19477452141E+01 -0.24935559200E+01  0.77046813103E+00  0.32565555342E+01  0.51100000000E-03 0. -1.
         12    1    3    3    0    0 -0.70515783191E+01 -0.94368475087E+01  0.87764959217E+01  0.14690327714E+02  0.00000000000E+00 0. -1.
</event>
<event>
 7    1  0.1385632E-008  0.4614232E+02  0.7816164E-02  0.1320468E+00
        -11   -1    0    0    0    0  0.00000000000E+00  0.00000000000E+00  0.45593999997E+02  0.45594000000E+02  0.51100000000E-03 0. -1.
         11   -1    0    0    0    0 -0.00000000000E+00 -0.00000000000E+00 -0.45593999997E+02  0.45594000000E+02  0.51100000000E-03 0.  1.
    9900012    2    1    2    0    0 -0.50370167130E+01 -0.20974960827E+02 -0.39544815984E+02  0.46142323290E+02  0.10000050413E+02 0.  0.
         12    1    1    2    0    0  0.50370167130E+01  0.20974960827E+02  0.39544815984E+02  0.45045676710E+02  0.00000000000E+00 0. -1.
         11    1    3    3    0    0 -0.21745019917E+01 -0.79430863925E+00 -0.10801671523E+01  0.25546323541E+01  0.51100000000E-03 0. -1.
        -11    1    3    3    0    0 -0.24384194089E+00 -0.23955769736E+01 -0.62302028801E+01  0.66793469828E+01  0.51100000000E-03 0.  1.
         12    1    3    3    0    0 -0.26186727803E+01 -0.17785075214E+02 -0.32234445952E+02  0.36908343953E+02  0.00000000000E+00 0. -1.
</event>
<event>
 7    1  0.1385632E-008  0.4614232E+02  0.7816164E-02  0.1320468E+00
        -11   -1    0    0    0    0  0.00000000000E+00  0.00000000000E+00  0.45593999997E+02  0.45594000000E+02  0.51100000000E-03 0.  1.
         11   -1    0    0    0    0 -0.00000000000E+00 -0.00000000000E+00 -0.45593999997E+02  0.45594000000E+02  0.51100000000E-03 0. -1.
    9900012    2    1    2    0    0 -0.11174965559E+02 -0.57919667720E+01  0.43251436065E+02  0.46142318120E+02  0.10000003276E+02 0.  0.
         12    1    1    2    0    0  0.11174965559E+02  0.57919667720E+01 -0.43251436065E+02  0.45045681880E+02  0.00000000000E+00 0. -1.
         11    1    3    3    0    0 -0.64186086267E+01 -0.70247203839E+01  0.23682031089E+02  0.25522222276E+02  0.51100000000E-03 0.  1.
        -11    1    3    3    0    0 -0.22481553587E+00  0.18609101389E+01  0.68973778470E+01  0.71475415351E+01  0.51100000000E-03 0. -1.
        -12    1    3    3    0    0 -0.45315413965E+01 -0.62815652701E+00  0.12672027129E+02  0.13472554309E+02  0.00000000000E+00 0.  1.
</event>
<event>
 7    1  0.1385632E-008  0.4614232E+02  0.7816164E-02  0.1320468E+00
        -11   -1    0    0    0    0  0.00000000000E+00  0.00000000000E+00  0.45593999997E+02  0.45594000000E+02  0.51100000000E-03 0.  1.
         11   -1    0    0    0    0 -0.00000000000E+00 -0.00000000000E+00 -0.45593999997E+02  0.45594000000E+02  0.51100000000E-03 0. -1.
    9900012    2    1    2    0    0  0.56431671508E+01 -0.23374216840E+02  0.38090866769E+02  0.46142317859E+02  0.10000000890E+02 0.  0.
         12    1    1    2    0    0 -0.56431671508E+01  0.23374216840E+02 -0.38090866769E+02  0.45045682141E+02  0.00000000000E+00 0. -1.
         11    1    3    3    0    0  0.44592511015E+01 -0.28171550979E+01  0.59725251549E+01  0.79682080934E+01  0.51100000000E-03 0. -1.
        -11    1    3    3    0    0  0.97796824547E+00 -0.19257858414E+02  0.30558103803E+02  0.36133353579E+02  0.51100000000E-03 0.  1.
         12    1    3    3    0    0  0.20594780389E+00 -0.12992033273E+01  0.15602378113E+01  0.20407561862E+01  0.00000000000E+00 0. -1.
</event>
<event>
 7    1  0.1385632E-008  0.4614232E+02  0.7816164E-02  0.1320468E+00
        -11   -1    0    0    0    0  0.00000000000E+00  0.00000000000E+00  0.45593999997E+02  0.45594000000E+02  0.51100000000E-03 0.  1.
         11   -1    0    0    0    0 -0.00000000000E+00 -0.00000000000E+00 -0.45593999997E+02  0.45594000000E+02  0.51100000000E-03 0. -1.
    9900012    2    1    2    0    0  0.43210052849E+02  0.65745614056E+01  0.10898621297E+02  0.46142317953E+02  0.10000001748E+02 0.  0.
         12    1    1    2    0    0 -0.43210052849E+02 -0.65745614056E+01 -0.10898621297E+02  0.45045682047E+02  0.00000000000E+00 0. -1.
         11    1    3    3    0    0  0.13121253274E+01 -0.10771380517E+01 -0.62255537864E-02  0.16976272488E+01  0.51100000000E-03 0. -1.
        -11    1    3    3    0    0  0.26888806054E+02  0.37411664663E+01  0.39017318979E+01  0.27426770310E+02  0.51100000000E-03 0.  1.
         12    1    3    3    0    0  0.15009121468E+02  0.39105329910E+01  0.70031149527E+01  0.17017920394E+02  0.00000000000E+00 0. -1.
</event>
<event>
 7    1  0.1385632E-008  0.4614232E+02  0.7816164E-02  0.1320468E+00
        -11   -1    0    0    0    0  0.00000000000E+00  0.00000000000E+00  0.45593999997E+02  0.45594000000E+02  0.51100000000E-03 0. -1.
         11   -1    0    0    0    0 -0.00000000000E+00 -0.00000000000E+00 -0.45593999997E+02  0.45594000000E+02  0.51100000000E-03 0.  1.
    9900012    2    1    2    0    0 -0.25921512387E+02 -0.36775010631E+02 -0.21879975931E+01  0.46142317135E+02  0.99999942920E+01 0.  0.
         12    1    1    2    0    0  0.25921512387E+02  0.36775010631E+02  0.21879975931E+01  0.45045682865E+02  0.00000000000E+00 0. -1.
         11    1    3    3    0    0 -0.16528287445E+02 -0.23023498575E+02  0.22999624036E+01  0.28435112094E+02  0.51100000000E-03 0. -1.
        -11    1    3    3    0    0 -0.86314023204E+01 -0.10477051932E+02 -0.46294959187E+01  0.14342313479E+02  0.51100000000E-03 0.  1.
         12    1    3    3    0    0 -0.76182262163E+00 -0.32744601238E+01  0.14153592199E+00  0.33648915623E+01  0.00000000000E+00 0. -1.
</event>
<event>
 7    1  0.1385632E-008  0.4614232E+02  0.7816164E-02  0.1320468E+00
        -11   -1    0    0    0    0  0.00000000000E+00  0.00000000000E+00  0.45593999997E+02  0.45594000000E+02  0.51100000000E-03 0.  1.
         11   -1    0    0    0    0 -0.00000000000E+00 -0.00000000000E+00 -0.45593999997E+02  0.45594000000E+02  0.51100000000E-03 0. -1.
    9900012    2    1    2    0    0  0.55903806991E+01  0.32706249970E+02  0.30465759791E+02  0.46142315822E+02  0.99999823162E+01 0.  0.
         12    1    1    2    0    0 -0.55903806991E+01 -0.32706249970E+02 -0.30465759791E+02  0.45045684178E+02  0.00000000000E+00 0. -1.
         11    1    3    3    0    0 -0.18144775984E+01  0.11078379266E+02  0.12604307734E+02  0.16878725954E+02  0.51100000000E-03 0.  1.
        -11    1    3    3    0    0  0.58099490000E+01  0.12725621185E+02  0.12431944253E+02  0.18714972084E+02  0.51100000000E-03 0. -1.
         12    1    3    3    0    0  0.15949092975E+01  0.89022495183E+01  0.54295078034E+01  0.10548617783E+02  0.00000000000E+00 0. -1.
</event>
<event>
 7    1  0.1385632E-008  0.4614232E+02  0.7816164E-02  0.1320468E+00
        -11   -1    0    0    0    0  0.00000000000E+00  0.00000000000E+00  0.45593999997E+02  0.45594000000E+02  0.51100000000E-03 0.  1.
         11   -1    0    0    0    0 -0.00000000000E+00 -0.00000000000E+00 -0.45593999997E+02  0.45594000000E+02  0.51100000000E-03 0. -1.
    9900012    2    1    2    0    0 -0.11694885140E+02  0.46781991252E+01  0.43248787847E+02  0.46142317235E+02  0.99999952042E+01 0.  0.
         12    1    1    2    0    0  0.11694885140E+02 -0.46781991252E+01 -0.43248787847E+02  0.45045682765E+02  0.00000000000E+00 0. -1.
         11    1    3    3    0    0 -0.11116050644E+02  0.52450664383E+01  0.27143134499E+02  0.29796426875E+02  0.51100000000E-03 0. -1.
        -11    1    3    3    0    0  0.99227112305E+00 -0.69808988117E+00  0.66744563943E+01  0.67838263454E+01  0.51100000000E-03 0.  1.
        -12    1    3    3    0    0 -0.15711056197E+01  0.13122256805E+00  0.94311969542E+01  0.95620640147E+01  0.00000000000E+00 0.  1.
</event>
<event>
 7    1  0.1385632E-008  0.4614232E+02  0.7816164E-02  0.1320468E+00
        -11   -1    0    0    0    0  0.00000000000E+00  0.00000000000E+00  0.45593999997E+02  0.45594000000E+02  0.51100000000E-03 0.  1.
         11   -1    0    0    0    0 -0.00000000000E+00 -0.00000000000E+00 -0.45593999997E+02  0.45594000000E+02  0.51100000000E-03 0. -1.
    9900012    2    1    2    0    0  0.11901381946E+02 -0.36777653217E+02 -0.23127360315E+02  0.46142318037E+02  0.10000002517E+02 0.  0.
         12    1    1    2    0    0 -0.11901381946E+02  0.36777653217E+02  0.23127360315E+02  0.45045681963E+02  0.00000000000E+00 0. -1.
         11    1    3    3    0    0  0.32346460963E+01 -0.70398863291E+01 -0.23679661283E+01  0.81012467399E+01  0.51100000000E-03 0. -1.
        -11    1    3    3    0    0  0.43066693257E+01 -0.25208237815E+02 -0.16162898303E+02  0.30252965743E+02  0.51100000000E-03 0.  1.
        -12    1    3    3    0    0  0.43600665240E+01 -0.45295290721E+01 -0.45964958841E+01  0.77881055541E+01  0.00000000000E+00 0.  1.
</event>
<event>
 7    1  0.1385632E-008  0.4614232E+02  0.7816164E-02  0.1320468E+00
        -11   -1    0    0    0    0  0.00000000000E+00  0.00000000000E+00  0.45593999997E+02  0.45594000000E+02  0.51100000000E-03 0.  1.
         11   -1    0    0    0    0 -0.00000000000E+00 -0.00000000000E+00 -0.45593999997E+02  0.45594000000E+02  0.51100000000E-03 0. -1.
    9900012    2    1    2    0    0 -0.38349596441E+02  0.17243696598E+02  0.16157871029E+02  0.46142318567E+02  0.10000007351E+02 0.  0.
         12    1    1    2    0    0  0.38349596441E+02 -0.17243696598E+02 -0.16157871029E+02  0.45045681433E+02  0.00000000000E+00 0. -1.
         11    1    3    3    0    0 -0.19072561247E+02  0.62211683625E+01  0.76112330919E+01  0.21456849670E+02  0.51100000000E-03 0. -1.
        -11    1    3    3    0    0 -0.18885372191E+02  0.86873890525E+01  0.75455185176E+01  0.22114765685E+02  0.51100000000E-03 0.  1.
         12    1    3    3    0    0 -0.39166300258E+00  0.23351391834E+01  0.10011194192E+01  0.25707032122E+01  0.00000000000E+00 0. -1.
</event>
<event>
 7    1  0.1385632E-008  0.4614232E+02  0.7816164E-02  0.1320468E+00
        -11   -1    0    0    0    0  0.00000000000E+00  0.00000000000E+00  0.45593999997E+02  0.45594000000E+02  0.51100000000E-03 0.  1.
         11   -1    0    0    0    0 -0.00000000000E+00 -0.00000000000E+00 -0.45593999997E+02  0.45594000000E+02  0.51100000000E-03 0. -1.
    9900012    2    1    2    0    0 -0.37240613717E+02 -0.19237339313E+02  0.16497726155E+02  0.46142317608E+02  0.99999986037E+01 0.  0.
         12    1    1    2    0    0  0.37240613717E+02  0.19237339313E+02 -0.16497726155E+02  0.45045682392E+02  0.00000000000E+00 0. -1.
         11    1    3    3    0    0 -0.92059473897E+01 -0.22906556988E+01  0.14588736554E+01  0.95981708401E+01  0.51100000000E-03 0. -1.
        -11    1    3    3    0    0 -0.22284846637E+02 -0.13656221039E+02  0.14520755889E+02  0.29899149061E+02  0.51100000000E-03 0.  1.
        -12    1    3    3    0    0 -0.57498196905E+01 -0.32904625752E+01  0.51809661068E+00  0.66449977073E+01  0.00000000000E+00 0.  1.
</event>
<event>
 7    1  0.1385632E-008  0.4614232E+02  0.7816164E-02  0.1320468E+00
        -11   -1    0    0    0    0  0.00000000000E+00  0.00000000000E+00  0.45593999997E+02  0.45594000000E+02  0.51100000000E-03 0. -1.
         11   -1    0    0    0    0 -0.00000000000E+00 -0.00000000000E+00 -0.45593999997E+02  0.45594000000E+02  0.51100000000E-03 0.  1.
    9900012    2    1    2    0    0 -0.32426825776E+02  0.24236037990E+02  0.19754212331E+02  0.46142317941E+02  0.10000001642E+02 0.  0.
         12    1    1    2    0    0  0.32426825776E+02 -0.24236037990E+02 -0.19754212331E+02  0.45045682059E+02  0.00000000000E+00 0. -1.
         11    1    3    3    0    0 -0.43367184882E+01  0.34678712932E+01 -0.19324553482E+00  0.55561319864E+01  0.51100000000E-03 0. -1.
        -11    1    3    3    0    0 -0.15780336558E+01  0.26803484777E+01  0.79118592263E+00  0.32094288598E+01  0.51100000000E-03 0.  1.
         12    1    3    3    0    0 -0.26512073632E+02  0.18087818219E+02  0.19156271943E+02  0.37376757095E+02  0.00000000000E+00 0. -1.
</event>
<event>
 7    1  0.1385632E-008  0.4614231E+02  0.7816164E-02  0.1320468E+00
        -11   -1    0    0    0    0  0.00000000000E+00  0.00000000000E+00  0.45593999997E+02  0.45594000000E+02  0.51100000000E-03 0.  1.
         11   -1    0    0    0    0 -0.00000000000E+00 -0.00000000000E+00 -0.45593999997E+02  0.45594000000E+02  0.51100000000E-03 0. -1.
    9900012    2    1    2    0    0 -0.72778890946E+01 -0.23410091181E+02  0.37790395210E+02  0.46142311983E+02  0.99999473109E+01 0.  0.
         12    1    1    2    0    0  0.72778890946E+01  0.23410091181E+02 -0.37790395210E+02  0.45045688017E+02  0.00000000000E+00 0. -1.
         11    1    3    3    0    0  0.19312376065E+01 -0.38753377103E+01  0.72457997163E+01  0.84409439550E+01  0.51100000000E-03 0. -1.
        -11    1    3    3    0    0 -0.42292975326E+01 -0.14069396720E+02  0.19654366338E+02  0.24538316937E+02  0.51100000000E-03 0.  1.
         12    1    3    3    0    0 -0.49798291685E+01 -0.54653567504E+01  0.10890229156E+02  0.13163051091E+02  0.00000000000E+00 0. -1.
</event>
<event>
 7    1  0.1385632E-008  0.4614232E+02  0.7816164E-02  0.1320468E+00
        -11   -1    0    0    0    0  0.00000000000E+00  0.00000000000E+00  0.45593999997E+02  0.45594000000E+02  0.51100000000E-03 0.  1.
         11   -1    0    0    0    0 -0.00000000000E+00 -0.00000000000E+00 -0.45593999997E+02  0.45594000000E+02  0.51100000000E-03 0. -1.
    9900012    2    1    2    0    0  0.44494805921E+02  0.45752007268E+01  0.53285333389E+01  0.46142317819E+02  0.10000000525E+02 0.  0.
         12    1    1    2    0    0 -0.44494805921E+02 -0.45752007268E+01 -0.53285333389E+01  0.45045682181E+02  0.00000000000E+00 0. -1.
         11    1    3    3    0    0  0.11972104691E+02 -0.27069535031E+00 -0.15521626512E+01  0.12075337506E+02  0.51100000000E-03 0. -1.
        -11    1    3    3    0    0  0.19004752956E+02  0.47147109683E+01  0.19517601752E+01  0.19677868341E+02  0.51100000000E-03 0.  1.
        -12    1    3    3    0    0  0.13517948274E+02  0.13118510881E+00  0.49289358149E+01  0.14389111972E+02  0.00000000000E+00 0.  1.
</event>
<event>
 7    1  0.1385632E-008  0.4614232E+02  0.7816164E-02  0.1320468E+00
        -11   -1    0    0    0    0  0.00000000000E+00  0.00000000000E+00  0.45593999997E+02  0.45594000000E+02  0.51100000000E-03 0.  1.
         11   -1    0    0    0    0 -0.00000000000E+00 -0.00000000000E+00 -0.45593999997E+02  0.45594000000E+02  0.51100000000E-03 0. -1.
    9900012    2    1    2    0    0  0.11637981551E+01  0.42129216592E+02 -0.15902458152E+02  0.46142317720E+02  0.99999996237E+01 0.  0.
         12    1    1    2    0    0 -0.11637981551E+01 -0.42129216592E+02  0.15902458152E+02  0.45045682280E+02  0.00000000000E+00 0. -1.
         11    1    3    3    0    0  0.89855766625E+00  0.58583770915E+01 -0.18198640050E+01  0.61999913938E+01  0.51100000000E-03 0. -1.
        -11    1    3    3    0    0  0.43693149420E-01  0.14754748469E+01 -0.31343014018E+01  0.34645029447E+01  0.51100000000E-03 0.  1.
        -12    1    3    3    0    0  0.22154733942E+00  0.34795364654E+02 -0.10948292746E+02  0.36477823381E+02  0.00000000000E+00 0.  1.
</event>
<event>
 7    1  0.1385632E-008  0.4614232E+02  0.7816164E-02  0.1320468E+00
        -11   -1    0    0    0    0  0.00000000000E+00  0.00000000000E+00  0.45593999997E+02  0.45594000000E+02  0.51100000000E-03 0.  1.
         11   -1    0    0    0    0 -0.00000000000E+00 -0.00000000000E+00 -0.45593999997E+02  0.45594000000E+02  0.51100000000E-03 0. -1.
    9900012    2    1    2    0    0  0.41815366528E+02  0.10066830303E+02  0.13388338652E+02  0.46142316943E+02  0.99999925366E+01 0.  0.
         12    1    1    2    0    0 -0.41815366528E+02 -0.10066830303E+02 -0.13388338652E+02  0.45045683057E+02  0.00000000000E+00 0. -1.
         11    1    3    3    0    0  0.39238577143E+02  0.98496591908E+01  0.12280361645E+02  0.42278706281E+02  0.51100000000E-03 0.  1.
        -11    1    3    3    0    0 -0.45560496437E+00  0.24554628238E+00  0.59397795192E+00  0.78783178969E+00  0.51100000000E-03 0. -1.
        -12    1    3    3    0    0  0.30323943495E+01 -0.28375169735E-01  0.51399905430E+00  0.30757788719E+01  0.00000000000E+00 0.  1.
</event>
<event>
 7    1  0.1385632E-008  0.4614232E+02  0.7816164E-02  0.1320468E+00
        -11   -1    0    0    0    0  0.00000000000E+00  0.00000000000E+00  0.45593999997E+02  0.45594000000E+02  0.51100000000E-03 0.  1.
         11   -1    0    0    0    0 -0.00000000000E+00 -0.00000000000E+00 -0.45593999997E+02  0.45594000000E+02  0.51100000000E-03 0. -1.
    9900012    2    1    2    0    0 -0.65362006286E+01  0.25637297536E+02  0.36457105729E+02  0.46142317612E+02  0.99999986437E+01 0.  0.
         12    1    1    2    0    0  0.65362006286E+01 -0.25637297536E+02 -0.36457105729E+02  0.45045682388E+02  0.00000000000E+00 0. -1.
         11    1    3    3    0    0 -0.33848724459E+01  0.10238457875E+02  0.21240144389E+02  0.23820728685E+02  0.51100000000E-03 0. -1.
        -11    1    3    3    0    0 -0.36752796286E+01  0.12042478036E+02  0.13682529847E+02  0.18594100701E+02  0.51100000000E-03 0.  1.
         12    1    3    3    0    0  0.52395144589E+00  0.33563616247E+01  0.15344314929E+01  0.37274882266E+01  0.00000000000E+00 0. -1.
</event>
<event>
 7    1  0.1385632E-008  0.4614232E+02  0.7816164E-02  0.1320468E+00
        -11   -1    0    0    0    0  0.00000000000E+00  0.00000000000E+00  0.45593999997E+02  0.45594000000E+02  0.51100000000E-03 0.  1.
         11   -1    0    0    0    0 -0.00000000000E+00 -0.00000000000E+00 -0.45593999997E+02  0.45594000000E+02  0.51100000000E-03 0. -1.
    9900012    2    1    2    0    0  0.11012119180E+02  0.43642941673E+02 -0.17720937352E+01  0.46142318266E+02  0.10000004601E+02 0.  0.
         12    1    1    2    0    0 -0.11012119180E+02 -0.43642941673E+02  0.17720937352E+01  0.45045681734E+02  0.00000000000E+00 0. -1.
         11    1    3    3    0    0  0.28493381919E+01  0.29065955450E+01 -0.95172680681E+00  0.41800490392E+01  0.51100000000E-03 0. -1.
        -11    1    3    3    0    0  0.58797838573E+01  0.37686105073E+02 -0.87008877248E+00  0.38151951831E+02  0.51100000000E-03 0.  1.
        -12    1    3    3    0    0  0.22829971308E+01  0.30502410551E+01  0.49721844066E-01  0.38103173956E+01  0.00000000000E+00 0.  1.
</event>
<event>
 7    1  0.1385632E-008  0.4614232E+02  0.7816164E-02  0.1320468E+00
        -11   -1    0    0    0    0  0.00000000000E+00  0.00000000000E+00  0.45593999997E+02  0.45594000000E+02  0.51100000000E-03 0.  1.
         11   -1    0    0    0    0 -0.00000000000E+00 -0.00000000000E+00 -0.45593999997E+02  0.45594000000E+02  0.51100000000E-03 0. -1.
    9900012    2    1    2    0    0  0.98754007193E+01  0.68476607436E+01  0.43413125966E+02  0.46142317597E+02  0.99999984994E+01 0.  0.
         12    1    1    2    0    0 -0.98754007193E+01 -0.68476607436E+01 -0.43413125966E+02  0.45045682403E+02  0.00000000000E+00 0. -1.
         11    1    3    3    0    0  0.12641120818E+01  0.19693396121E+01  0.15418219056E+01  0.28024084130E+01  0.51100000000E-03 0. -1.
        -11    1    3    3    0    0  0.38973972972E+01  0.39022749833E+01  0.30452170105E+02  0.30947570504E+02  0.51100000000E-03 0.  1.
         12    1    3    3    0    0  0.47138913402E+01  0.97604614817E+00  0.11419133956E+02  0.12392338680E+02  0.00000000000E+00 0. -1.
</event>
<event>
 7    1  0.1385632E-008  0.4614232E+02  0.7816164E-02  0.1320468E+00
        -11   -1    0    0    0    0  0.00000000000E+00  0.00000000000E+00  0.45593999997E+02  0.45594000000E+02  0.51100000000E-03 0.  1.
         11   -1    0    0    0    0 -0.00000000000E+00 -0.00000000000E+00 -0.45593999997E+02  0.45594000000E+02  0.51100000000E-03 0. -1.
    9900012    2    1    2    0    0 -0.37106493323E+02 -0.26778076612E+01  0.25397854085E+02  0.46142317713E+02  0.99999995598E+01 0.  0.
         12    1    1    2    0    0  0.37106493323E+02  0.26778076612E+01 -0.25397854085E+02  0.45045682287E+02  0.00000000000E+00 0. -1.
         11    1    3    3    0    0 -0.15941867378E+02 -0.21198365297E+01  0.14743313195E+02  0.21817472967E+02  0.51100000000E-03 0. -1.
        -11    1    3    3    0    0 -0.17446453366E+02  0.16805981469E+01  0.85591050641E+01  0.19505420399E+02  0.51100000000E-03 0.  1.
        -12    1    3    3    0    0 -0.37181725786E+01 -0.22385692784E+01  0.20954358262E+01  0.48194243474E+01  0.00000000000E+00 0.  1.
</event>
<event>
 7    1  0.1385632E-008  0.4614232E+02  0.7816164E-02  0.1320468E+00
        -11   -1    0    0    0    0  0.00000000000E+00  0.00000000000E+00  0.45593999997E+02  0.45594000000E+02  0.51100000000E-03 0.  1.
         11   -1    0    0    0    0 -0.00000000000E+00 -0.00000000000E+00 -0.45593999997E+02  0.45594000000E+02  0.51100000000E-03 0. -1.
    9900012    2    1    2    0    0  0.31246010218E+01  0.34936674057E+02  0.28262680395E+02  0.46142318422E+02  0.10000006027E+02 0.  0.
         12    1    1    2    0    0 -0.31246010218E+01 -0.34936674057E+02 -0.28262680395E+02  0.45045681578E+02  0.00000000000E+00 0. -1.
         11    1    3    3    0    0  0.23889935301E+01  0.70180227995E+01  0.78052495159E+01  0.10764843444E+02  0.51100000000E-03 0. -1.
        -11    1    3    3    0    0 -0.32127123380E+01  0.15221835863E+02  0.10588453487E+02  0.18818638503E+02  0.51100000000E-03 0.  1.
        -12    1    3    3    0    0  0.39483198297E+01  0.12696815395E+02  0.98689773920E+01  0.16558836475E+02  0.00000000000E+00 0.  1.
</event>
<event>
 7    1  0.1385632E-008  0.4614232E+02  0.7816164E-02  0.1320468E+00
        -11   -1    0    0    0    0  0.00000000000E+00  0.00000000000E+00  0.45593999997E+02  0.45594000000E+02  0.51100000000E-03 0.  1.
         11   -1    0    0    0    0 -0.00000000000E+00 -0.00000000000E+00 -0.45593999997E+02  0.45594000000E+02  0.51100000000E-03 0. -1.
    9900012    2    1    2    0    0 -0.22222556146E+02  0.54013883755E+00  0.39178817448E+02  0.46142317762E+02  0.10000000011E+02 0.  0.
         12    1    1    2    0    0  0.22222556146E+02 -0.54013883755E+00 -0.39178817448E+02  0.45045682238E+02  0.00000000000E+00 0. -1.
         11    1    3    3    0    0 -0.29594864804E+01  0.20696532397E-01  0.10976521931E+01  0.31565533692E+01  0.51100000000E-03 0. -1.
        -11    1    3    3    0    0 -0.10767913770E+02  0.25901845427E+01  0.23600828110E+02  0.26070215010E+02  0.51100000000E-03 0.  1.
        -12    1    3    3    0    0 -0.84951558950E+01 -0.20707422375E+01  0.14480337146E+02  0.16915549384E+02  0.00000000000E+00 0.  1.
</event>
<event>
 7    1  0.1385632E-008  0.4614232E+02  0.7816164E-02  0.1320468E+00
        -11   -1    0    0    0    0  0.00000000000E+00  0.00000000000E+00  0.45593999997E+02  0.45594000000E+02  0.51100000000E-03 0.  1.
         11   -1    0    0    0    0 -0.00000000000E+00 -0.00000000000E+00 -0.45593999997E+02  0.45594000000E+02  0.51100000000E-03 0. -1.
    9900012    2    1    2    0    0 -0.16166351107E+02 -0.33406266714E+02  0.25530059148E+02  0.46142317809E+02  0.10000000440E+02 0.  0.
         12    1    1    2    0    0  0.16166351107E+02  0.33406266714E+02 -0.25530059148E+02  0.45045682191E+02  0.00000000000E+00 0. -1.
         11    1    3    3    0    0 -0.17657767211E+01 -0.17412849553E+01  0.23096990898E+00  0.24906601704E+01  0.51100000000E-03 0. -1.
        -11    1    3    3    0    0 -0.71013584009E+01 -0.87488482263E+01  0.10566775992E+02  0.15447601482E+02  0.51100000000E-03 0.  1.
        -12    1    3    3    0    0 -0.72992159847E+01 -0.22916133533E+02  0.14732313248E+02  0.28204056157E+02  0.00000000000E+00 0.  1.
</event>
<event>
 7    1  0.1385632E-008  0.4614232E+02  0.7816164E-02  0.1320468E+00
        -11   -1    0    0    0    0  0.00000000000E+00  0.00000000000E+00  0.45593999997E+02  0.45594000000E+02  0.51100000000E-03 0.  1.
         11   -1    0    0    0    0 -0.00000000000E+00 -0.00000000000E+00 -0.45593999997E+02  0.45594000000E+02  0.51100000000E-03 0. -1.
    9900012    2    1    2    0    0  0.41221870977E+02  0.15515527341E+02  0.94413570415E+01  0.46142318095E+02  0.10000003042E+02 0.  0.
         12    1    1    2    0    0 -0.41221870977E+02 -0.15515527341E+02 -0.94413570415E+01  0.45045681905E+02  0.00000000000E+00 0. -1.
         11    1    3    3    0    0  0.75587876558E+01  0.23153126675E+01  0.41912151272E+01  0.89477498891E+01  0.51100000000E-03 0. -1.
        -11    1    3    3    0    0  0.13407652220E+01  0.69231388549E+00  0.18244918156E+01  0.23676402900E+01  0.51100000000E-03 0.  1.
        -12    1    3    3    0    0  0.32322318100E+02  0.12507900788E+02  0.34256500987E+01  0.34826927916E+02  0.00000000000E+00 0.  1.
</event>
<event>
 7    1  0.1385632E-008  0.4614232E+02  0.7816164E-02  0.1320468E+00
        -11   -1    0    0    0    0  0.00000000000E+00  0.00000000000E+00  0.45593999997E+02  0.45594000000E+02  0.51100000000E-03 0.  1.
         11   -1    0    0    0    0 -0.00000000000E+00 -0.00000000000E+00 -0.45593999997E+02  0.45594000000E+02  0.51100000000E-03 0. -1.
    9900012    2    1    2    0    0 -0.33722710314E+02  0.62964788552E+01  0.29193263631E+02  0.46142317873E+02  0.10000001022E+02 0.  0.
         12    1    1    2    0    0  0.33722710314E+02 -0.62964788552E+01 -0.29193263631E+02  0.45045682127E+02  0.00000000000E+00 0. -1.
         11    1    3    3    0    0 -0.47372379786E+01  0.33289443144E+01  0.51464374454E+01  0.77465548829E+01  0.51100000000E-03 0. -1.
        -11    1    3    3    0    0 -0.14132671724E+02  0.41156693899E+01  0.91701641260E+01  0.17342521585E+02  0.51100000000E-03 0.  1.
         12    1    3    3    0    0 -0.14852800611E+02 -0.11481348491E+01  0.14876662059E+02  0.21053241405E+02  0.00000000000E+00 0. -1.
</event>
<event>
 7    1  0.1385632E-008  0.4614232E+02  0.7816164E-02  0.1320468E+00
        -11   -1    0    0    0    0  0.00000000000E+00  0.00000000000E+00  0.45593999997E+02  0.45594000000E+02  0.51100000000E-03 0.  1.
         11   -1    0    0    0    0 -0.00000000000E+00 -0.00000000000E+00 -0.45593999997E+02  0.45594000000E+02  0.51100000000E-03 0. -1.
    9900012    2    1    2    0    0  0.42193103768E+02  0.92138592580E+01 -0.12804698819E+02  0.46142317412E+02  0.99999968143E+01 0.  0.
         12    1    1    2    0    0 -0.42193103768E+02 -0.92138592580E+01  0.12804698819E+02  0.45045682588E+02  0.00000000000E+00 0. -1.
         11    1    3    3    0    0  0.11577143697E+02  0.53637925665E+01 -0.65245537984E+00  0.12776001924E+02  0.51100000000E-03 0. -1.
        -11    1    3    3    0    0  0.19307812183E+02  0.17988967736E+01 -0.58270103683E+01  0.20248004618E+02  0.51100000000E-03 0.  1.
         12    1    3    3    0    0  0.11308147888E+02  0.20511699179E+01 -0.63252330711E+01  0.13118310870E+02  0.00000000000E+00 0. -1.
</event>
<event>
 7    1  0.1385632E-008  0.4614232E+02  0.7816164E-02  0.1320468E+00
        -11   -1    0    0    0    0  0.00000000000E+00  0.00000000000E+00  0.45593999997E+02  0.45594000000E+02  0.51100000000E-03 0.  1.
         11   -1    0    0    0    0 -0.00000000000E+00 -0.00000000000E+00 -0.45593999997E+02  0.45594000000E+02  0.51100000000E-03 0. -1.
    9900012    2    1    2    0    0 -0.49256900634E+01 -0.38829397144E+02  0.22296389461E+02  0.46142317764E+02  0.10000000025E+02 0.  0.
         12    1    1    2    0    0  0.49256900634E+01  0.38829397144E+02 -0.22296389461E+02  0.45045682236E+02  0.00000000000E+00 0. -1.
         11    1    3    3    0    0  0.13044841305E+01 -0.35587722026E+01  0.53867298696E+00  0.38284079308E+01  0.51100000000E-03 0. -1.
        -11    1    3    3    0    0  0.92803368807E+00 -0.69840369406E+01  0.52807002603E+01  0.88047608721E+01  0.51100000000E-03 0.  1.
        -12    1    3    3    0    0 -0.71582078819E+01 -0.28286588001E+02  0.16477016213E+02  0.33509148961E+02  0.00000000000E+00 0.  1.
</event>
<event>
 7    1  0.1385632E-008  0.4614232E+02  0.7816164E-02  0.1320468E+00
        -11   -1    0    0    0    0  0.00000000000E+00  0.00000000000E+00  0.45593999997E+02  0.45594000000E+02  0.51100000000E-03 0. -1.
         11   -1    0    0    0    0 -0.00000000000E+00 -0.00000000000E+00 -0.45593999997E+02  0.45594000000E+02  0.51100000000E-03 0.  1.
    9900012    2    1    2    0    0 -0.26601234931E+02  0.17495283415E+02 -0.31865388325E+02  0.46142316359E+02  0.99999872127E+01 0.  0.
         12    1    1    2    0    0  0.26601234931E+02 -0.17495283415E+02  0.31865388325E+02  0.45045683641E+02  0.00000000000E+00 0. -1.
         11    1    3    3    0    0 -0.89423739908E+01  0.46217680869E+01 -0.42641040709E+01  0.10932034423E+02  0.51100000000E-03 0. -1.
        -11    1    3    3    0    0 -0.33169255288E+01  0.24478660586E+01 -0.55948219310E+01  0.69495378196E+01  0.51100000000E-03 0.  1.
         12    1    3    3    0    0 -0.14341935411E+02  0.10425649269E+02 -0.22006462323E+02  0.28260744116E+02  0.00000000000E+00 0. -1.
</event>
<event>
 7    1  0.1385632E-008  0.4614232E+02  0.7816164E-02  0.1320468E+00
        -11   -1    0    0    0    0  0.00000000000E+00  0.00000000000E+00  0.45593999997E+02  0.45594000000E+02  0.51100000000E-03 0.  1.
         11   -1    0    0    0    0 -0.00000000000E+00 -0.00000000000E+00 -0.45593999997E+02  0.45594000000E+02  0.51100000000E-03 0. -1.
    9900012    2    1    2    0    0  0.90239434485E+01 -0.13936826075E+02  0.41874176845E+02  0.46142319154E+02  0.10000012704E+02 0.  0.
         12    1    1    2    0    0 -0.90239434485E+01  0.13936826075E+02 -0.41874176845E+02  0.45045680846E+02  0.00000000000E+00 0. -1.
         11    1    3    3    0    0  0.11294980814E+01 -0.24701227881E+01  0.13803233308E+02  0.14067925310E+02  0.51100000000E-03 0. -1.
        -11    1    3    3    0    0  0.51375052205E+01 -0.20044765391E+01  0.12260503337E+02  0.13443653834E+02  0.51100000000E-03 0.  1.
        -12    1    3    3    0    0  0.27569401466E+01 -0.94622267478E+01  0.15810440201E+02  0.18630740010E+02  0.00000000000E+00 0.  1.
</event>
<event>
 7    1  0.1385632E-008  0.4614232E+02  0.7816164E-02  0.1320468E+00
        -11   -1    0    0    0    0  0.00000000000E+00  0.00000000000E+00  0.45593999997E+02  0.45594000000E+02  0.51100000000E-03 0.  1.
         11   -1    0    0    0    0 -0.00000000000E+00 -0.00000000000E+00 -0.45593999997E+02  0.45594000000E+02  0.51100000000E-03 0. -1.
    9900012    2    1    2    0    0 -0.37651684944E+02 -0.19406526482E+02  0.15324844205E+02  0.46142317642E+02  0.99999989114E+01 0.  0.
         12    1    1    2    0    0  0.37651684944E+02  0.19406526482E+02 -0.15324844205E+02  0.45045682358E+02  0.00000000000E+00 0. -1.
         11    1    3    3    0    0 -0.20766142381E+02 -0.11699155287E+02  0.10368780272E+02  0.25992585643E+02  0.51100000000E-03 0. -1.
        -11    1    3    3    0    0 -0.82541128555E+01 -0.66771853709E+01  0.12144217837E+01  0.10685972302E+02  0.51100000000E-03 0.  1.
         12    1    3    3    0    0 -0.86314297069E+01 -0.10301858243E+01  0.37416421491E+01  0.94637596963E+01  0.00000000000E+00 0. -1.
</event>
<event>
 7    1  0.1385632E-008  0.4614232E+02  0.7816164E-02  0.1320468E+00
        -11   -1    0    0    0    0  0.00000000000E+00  0.00000000000E+00  0.45593999997E+02  0.45594000000E+02  0.51100000000E-03 0.  1.
         11   -1    0    0    0    0 -0.00000000000E+00 -0.00000000000E+00 -0.45593999997E+02  0.45594000000E+02  0.51100000000E-03 0. -1.
    9900012    2    1    2    0    0 -0.68116927556E+00 -0.27966554445E+02  0.35306110279E+02  0.46142316720E+02  0.99999905052E+01 0.  0.
         12    1    1    2    0    0  0.68116927556E+00  0.27966554445E+02 -0.35306110279E+02  0.45045683280E+02  0.00000000000E+00 0. -1.
         11    1    3    3    0    0 -0.20737012112E+01 -0.29710504339E+01  0.26359062743E+01  0.44805557180E+01  0.51100000000E-03 0. -1.
        -11    1    3    3    0    0 -0.22773562151E+01 -0.12072219720E+02  0.13502591164E+02  0.18254994076E+02  0.51100000000E-03 0.  1.
        -12    1    3    3    0    0  0.36698881507E+01 -0.12923284291E+02  0.19167612842E+02  0.23406766926E+02  0.00000000000E+00 0.  1.
</event>
<event>
 7    1  0.1385632E-008  0.4614232E+02  0.7816164E-02  0.1320468E+00
        -11   -1    0    0    0    0  0.00000000000E+00  0.00000000000E+00  0.45593999997E+02  0.45594000000E+02  0.51100000000E-03 0.  1.
         11   -1    0    0    0    0 -0.00000000000E+00 -0.00000000000E+00 -0.45593999997E+02  0.45594000000E+02  0.51100000000E-03 0. -1.
    9900012    2    1    2    0    0  0.55313149505E+01 -0.34488024663E+02  0.28444580978E+02  0.46142317884E+02  0.10000001121E+02 0.  0.
         12    1    1    2    0    0 -0.55313149505E+01  0.34488024663E+02 -0.28444580978E+02  0.45045682116E+02  0.00000000000E+00 0. -1.
         11    1    3    3    0    0 -0.18763001718E+01 -0.16483682441E+01  0.19017411056E+01  0.31391463325E+01  0.51100000000E-03 0. -1.
        -11    1    3    3    0    0  0.39349937091E+01 -0.10687675570E+02  0.96890183261E+01  0.14952847921E+02  0.51100000000E-03 0.  1.
        -12    1    3    3    0    0  0.34726214133E+01 -0.22151980849E+02  0.16853821547E+02  0.28050323630E+02  0.00000000000E+00 0.  1.
</event>
<event>
 7    1  0.1385632E-008  0.4614232E+02  0.7816164E-02  0.1320468E+00
        -11   -1    0    0    0    0  0.00000000000E+00  0.00000000000E+00  0.45593999997E+02  0.45594000000E+02  0.51100000000E-03 0. -1.
         11   -1    0    0    0    0 -0.00000000000E+00 -0.00000000000E+00 -0.45593999997E+02  0.45594000000E+02  0.51100000000E-03 0.  1.
    9900012    2    1    2    0    0  0.24410393141E+02  0.22630649646E+02 -0.30349627601E+02  0.46142317719E+02  0.99999996121E+01 0.  0.
         12    1    1    2    0    0 -0.24410393141E+02 -0.22630649646E+02  0.30349627601E+02  0.45045682281E+02  0.00000000000E+00 0. -1.
         11    1    3    3    0    0  0.45985833623E+01  0.69603119298E+01 -0.94800538876E+01  0.12627918794E+02  0.51100000000E-03 0. -1.
        -11    1    3    3    0    0  0.14578584204E+02  0.71899317271E+01 -0.12680178469E+02  0.20615944361E+02  0.51100000000E-03 0.  1.
        -12    1    3    3    0    0  0.52332255746E+01  0.84804059895E+01 -0.81893952444E+01  0.12898454564E+02  0.00000000000E+00 0.  1.
</event>
<event>
 7    1  0.1385632E-008  0.4614232E+02  0.7816164E-02  0.1320468E+00
        -11   -1    0    0    0    0  0.00000000000E+00  0.00000000000E+00  0.45593999997E+02  0.45594000000E+02  0.51100000000E-03 0.  1.
         11   -1    0    0    0    0 -0.00000000000E+00 -0.00000000000E+00 -0.45593999997E+02  0.45594000000E+02  0.51100000000E-03 0. -1.
    9900012    2    1    2    0    0  0.10125034139E+02  0.39979654222E+02  0.18116958559E+02  0.46142320347E+02  0.10000023577E+02 0.  0.
         12    1    1    2    0    0 -0.10125034139E+02 -0.39979654222E+02 -0.18116958559E+02  0.45045679653E+02  0.00000000000E+00 0. -1.
         11    1    3    3    0    0  0.82562543973E+01  0.29159525454E+02  0.92211500279E+01  0.31677646212E+02  0.51100000000E-03 0. -1.
        -11    1    3    3    0    0  0.89283892913E+00  0.80195451217E+01  0.47372833138E+01  0.93569289176E+01  0.51100000000E-03 0.  1.
         12    1    3    3    0    0  0.97594081298E+00  0.28005836455E+01  0.41585252171E+01  0.51077452175E+01  0.00000000000E+00 0. -1.
</event>
<event>
 7    1  0.1512310E-008  0.4614232E+02  0.7816164E-02  0.1320468E+00
        -11   -1    0    0    0    0  0.00000000000E+00  0.00000000000E+00  0.45593999997E+02  0.45594000000E+02  0.51100000000E-03 0.  1.
         11   -1    0    0    0    0 -0.00000000000E+00 -0.00000000000E+00 -0.45593999997E+02  0.45594000000E+02  0.51100000000E-03 0. -1.
    9900012    2    1    2    0    0 -0.14348276087E+02  0.23128803316E+02  0.35892881305E+02  0.46142317655E+02  0.99999990355E+01 0.  0.
         12    1    1    2    0    0  0.14348276087E+02 -0.23128803316E+02 -0.35892881305E+02  0.45045682345E+02  0.00000000000E+00 0. -1.
         11    1    3    3    0    0 -0.14162594426E+01  0.73250523169E+00  0.37469052766E+00  0.16379096361E+01  0.51100000000E-03 0. -1.
        -11    1    3    3    0    0 -0.13538573616E+02  0.20737733487E+02  0.34490814047E+02  0.42461309679E+02  0.51100000000E-03 0.  1.
        -12    1    3    3    0    0  0.60655697142E+00  0.16585645974E+01  0.10273767304E+01  0.20430983406E+01  0.00000000000E+00 0.  1.
</event>
<event>
 7    1  0.1385632E-008  0.4614232E+02  0.7816164E-02  0.1320468E+00
        -11   -1    0    0    0    0  0.00000000000E+00  0.00000000000E+00  0.45593999997E+02  0.45594000000E+02  0.51100000000E-03 0. -1.
         11   -1    0    0    0    0 -0.00000000000E+00 -0.00000000000E+00 -0.45593999997E+02  0.45594000000E+02  0.51100000000E-03 0.  1.
    9900012    2    1    2    0    0  0.22945280185E+02 -0.36689992725E+02 -0.12508878685E+02  0.46142317689E+02  0.99999993443E+01 0.  0.
         12    1    1    2    0    0 -0.22945280185E+02  0.36689992725E+02  0.12508878685E+02  0.45045682311E+02  0.00000000000E+00 0. -1.
         11    1    3    3    0    0  0.32764716174E+00 -0.16686133918E+01  0.10006244084E+01  0.19730364370E+01  0.51100000000E-03 0. -1.
        -11    1    3    3    0    0  0.19750563898E+02 -0.32038144708E+02 -0.10566968236E+02  0.39092049174E+02  0.51100000000E-03 0.  1.
         12    1    3    3    0    0  0.28670691250E+01 -0.29832346244E+01 -0.29425348572E+01  0.50772320784E+01  0.00000000000E+00 0. -1.
</event>
<event>
 7    1  0.1385632E-008  0.4614231E+02  0.7816164E-02  0.1320468E+00
        -11   -1    0    0    0    0  0.00000000000E+00  0.00000000000E+00  0.45593999997E+02  0.45594000000E+02  0.51100000000E-03 0.  1.
         11   -1    0    0    0    0 -0.00000000000E+00 -0.00000000000E+00 -0.45593999997E+02  0.45594000000E+02  0.51100000000E-03 0. -1.
    9900012    2    1    2    0    0  0.98952250304E+01  0.43568415421E+02  0.57438395523E+01  0.46142312154E+02  0.99999488683E+01 0.  0.
         12    1    1    2    0    0 -0.98952250304E+01 -0.43568415421E+02 -0.57438395523E+01  0.45045687846E+02  0.00000000000E+00 0. -1.
         11    1    3    3    0    0  0.19530152925E+01  0.11371230369E+02 -0.14885962691E+01  0.11633360132E+02  0.51100000000E-03 0. -1.
        -11    1    3    3    0    0  0.57179367544E+01  0.11937035582E+02  0.43023390161E+01  0.13917533563E+02  0.51100000000E-03 0.  1.
        -12    1    3    3    0    0  0.22242729835E+01  0.20260149470E+02  0.29300968053E+01  0.20591418459E+02  0.00000000000E+00 0.  1.
</event>
<event>
 7    1  0.1385632E-008  0.4614232E+02  0.7816164E-02  0.1320468E+00
        -11   -1    0    0    0    0  0.00000000000E+00  0.00000000000E+00  0.45593999997E+02  0.45594000000E+02  0.51100000000E-03 0.  1.
         11   -1    0    0    0    0 -0.00000000000E+00 -0.00000000000E+00 -0.45593999997E+02  0.45594000000E+02  0.51100000000E-03 0. -1.
    9900012    2    1    2    0    0 -0.21630737579E+02 -0.21229768461E+02  0.33324490887E+02  0.46142316855E+02  0.99999917358E+01 0.  0.
         12    1    1    2    0    0  0.21630737579E+02  0.21229768461E+02 -0.33324490887E+02  0.45045683145E+02  0.00000000000E+00 0. -1.
         11    1    3    3    0    0 -0.43663348387E+01 -0.80975190667E+01  0.12487660429E+02  0.15510524111E+02  0.51100000000E-03 0. -1.
        -11    1    3    3    0    0 -0.49372404297E+01 -0.71981444434E+01  0.71992127606E+01  0.11314516831E+02  0.51100000000E-03 0.  1.
         12    1    3    3    0    0 -0.12327162311E+02 -0.59341049508E+01  0.13637617697E+02  0.19317275912E+02  0.00000000000E+00 0. -1.
</event>
<event>
 7    1  0.1385632E-008  0.4614232E+02  0.7816164E-02  0.1320468E+00
        -11   -1    0    0    0    0  0.00000000000E+00  0.00000000000E+00  0.45593999997E+02  0.45594000000E+02  0.51100000000E-03 0.  1.
         11   -1    0    0    0    0 -0.00000000000E+00 -0.00000000000E+00 -0.45593999997E+02  0.45594000000E+02  0.51100000000E-03 0. -1.
    9900012    2    1    2    0    0  0.13486668168E+02 -0.10006411000E+02  0.41798265337E+02  0.46142318025E+02  0.10000002405E+02 0.  0.
         12    1    1    2    0    0 -0.13486668168E+02  0.10006411000E+02 -0.41798265337E+02  0.45045681975E+02  0.00000000000E+00 0. -1.
         11    1    3    3    0    0 -0.84239989510E+00 -0.41653919091E+00  0.67539273346E+01  0.68189938542E+01  0.51100000000E-03 0. -1.
        -11    1    3    3    0    0  0.70390754146E+01 -0.37800201160E+01  0.11522089811E+02  0.14021258454E+02  0.51100000000E-03 0.  1.
         12    1    3    3    0    0  0.72899926486E+01 -0.58098516933E+01  0.23522248192E+02  0.25302065717E+02  0.00000000000E+00 0. -1.
</event>
<event>
 7    1  0.1385632E-008  0.4614232E+02  0.7816164E-02  0.1320468E+00
        -11   -1    0    0    0    0  0.00000000000E+00  0.00000000000E+00  0.45593999997E+02  0.45594000000E+02  0.51100000000E-03 0. -1.
         11   -1    0    0    0    0 -0.00000000000E+00 -0.00000000000E+00 -0.45593999997E+02  0.45594000000E+02  0.51100000000E-03 0.  1.
    9900012    2    1    2    0    0 -0.12029834464E+02  0.40123105537E+02 -0.16569038963E+02  0.46142316885E+02  0.99999920115E+01 0.  0.
         12    1    1    2    0    0  0.12029834464E+02 -0.40123105537E+02  0.16569038963E+02  0.45045683115E+02  0.00000000000E+00 0. -1.
         11    1    3    3    0    0 -0.62863534249E+01  0.29604921345E+02 -0.85953195101E+01  0.31461867792E+02  0.51100000000E-03 0. -1.
        -11    1    3    3    0    0 -0.30752934342E+01  0.80609596530E+01 -0.48744542537E+01  0.99094300929E+01  0.51100000000E-03 0.  1.
         12    1    3    3    0    0 -0.26681876045E+01  0.24572245392E+01 -0.30992651988E+01  0.47710190004E+01  0.00000000000E+00 0. -1.
</event>
<event>
 7    1  0.1385632E-008  0.4614232E+02  0.7816164E-02  0.1320468E+00
        -11   -1    0    0    0    0  0.00000000000E+00  0.00000000000E+00  0.45593999997E+02  0.45594000000E+02  0.51100000000E-03 0. -1.
         11   -1    0    0    0    0 -0.00000000000E+00 -0.00000000000E+00 -0.45593999997E+02  0.45594000000E+02  0.51100000000E-03 0.  1.
    9900012    2    1    2    0    0 -0.41223817612E+02 -0.17067766968E+02 -0.61969170888E+01  0.46142316642E+02  0.99999897988E+01 0.  0.
         12    1    1    2    0    0  0.41223817612E+02  0.17067766968E+02  0.61969170888E+01  0.45045683358E+02  0.00000000000E+00 0. -1.
         11    1    3    3    0    0 -0.16475255272E+02 -0.37356314467E+01 -0.14947633475E+01  0.16959460378E+02  0.51100000000E-03 0. -1.
        -11    1    3    3    0    0 -0.18230688597E+02 -0.12768411832E+02 -0.37768417424E+01  0.22575537231E+02  0.51100000000E-03 0.  1.
        -12    1    3    3    0    0 -0.65178737421E+01 -0.56372368893E+00 -0.92531199886E+00  0.66073190335E+01  0.00000000000E+00 0.  1.
</event>
<event>
 7    1  0.1385632E-008  0.4614232E+02  0.7816164E-02  0.1320468E+00
        -11   -1    0    0    0    0  0.00000000000E+00  0.00000000000E+00  0.45593999997E+02  0.45594000000E+02  0.51100000000E-03 0.  1.
         11   -1    0    0    0    0 -0.00000000000E+00 -0.00000000000E+00 -0.45593999997E+02  0.45594000000E+02  0.51100000000E-03 0. -1.
    9900012    2    1    2    0    0 -0.17609060136E+02  0.41459930004E+02 -0.32971143108E+00  0.46142317583E+02  0.99999983760E+01 0.  0.
         12    1    1    2    0    0  0.17609060136E+02 -0.41459930004E+02  0.32971143108E+00  0.45045682417E+02  0.00000000000E+00 0. -1.
         11    1    3    3    0    0 -0.61277020746E+00  0.11263851921E+01  0.87157368829E+00  0.15504424798E+01  0.51100000000E-03 0. -1.
        -11    1    3    3    0    0 -0.13194135830E+02  0.21789309577E+02 -0.26294754671E+01  0.25608072431E+02  0.51100000000E-03 0.  1.
        -12    1    3    3    0    0 -0.38021540988E+01  0.18544235235E+02  0.14281903477E+01  0.18983802672E+02  0.00000000000E+00 0.  1.
</event>
<event>
 7    1  0.1385632E-008  0.4614232E+02  0.7816164E-02  0.1320468E+00
        -11   -1    0    0    0    0  0.00000000000E+00  0.00000000000E+00  0.45593999997E+02  0.45594000000E+02  0.51100000000E-03 0.  1.
         11   -1    0    0    0    0 -0.00000000000E+00 -0.00000000000E+00 -0.45593999997E+02  0.45594000000E+02  0.51100000000E-03 0. -1.
    9900012    2    1    2    0    0 -0.10368208405E+02  0.25848174563E+02  0.35404598427E+02  0.46142318037E+02  0.10000002517E+02 0.  0.
         12    1    1    2    0    0  0.10368208405E+02 -0.25848174563E+02 -0.35404598427E+02  0.45045681963E+02  0.00000000000E+00 0. -1.
         11    1    3    3    0    0  0.96406929566E+00  0.37343630687E+01  0.34759735336E+01  0.51920409670E+01  0.51100000000E-03 0. -1.
        -11    1    3    3    0    0 -0.69646217194E+01  0.79286933602E+01  0.16109209719E+02  0.19258161182E+02  0.51100000000E-03 0.  1.
        -12    1    3    3    0    0 -0.43676559811E+01  0.14185118134E+02  0.15819415174E+02  0.21692115888E+02  0.00000000000E+00 0.  1.
</event>
<event>
 7    1  0.1385632E-008  0.4614232E+02  0.7816164E-02  0.1320468E+00
        -11   -1    0    0    0    0  0.00000000000E+00  0.00000000000E+00  0.45593999997E+02  0.45594000000E+02  0.51100000000E-03 0.  1.
         11   -1    0    0    0    0 -0.00000000000E+00 -0.00000000000E+00 -0.45593999997E+02  0.45594000000E+02  0.51100000000E-03 0. -1.
    9900012    2    1    2    0    0 -0.39187580183E+02 -0.24804445560E+01  0.22074746360E+02  0.46142317936E+02  0.10000001592E+02 0.  0.
         12    1    1    2    0    0  0.39187580183E+02  0.24804445560E+01 -0.22074746360E+02  0.45045682064E+02  0.00000000000E+00 0. -1.
         11    1    3    3    0    0 -0.37274271783E+01  0.10259115929E+01 -0.52220030488E+00  0.39011410363E+01  0.51100000000E-03 0. -1.
        -11    1    3    3    0    0 -0.25187179896E+02 -0.28236862453E+01  0.17052078758E+02  0.30547350546E+02  0.51100000000E-03 0.  1.
         12    1    3    3    0    0 -0.10272973108E+02 -0.68266990361E+00  0.55448679067E+01  0.11693826353E+02  0.00000000000E+00 0. -1.
</event>
<event>
 7    1  0.1385632E-008  0.4614232E+02  0.7816164E-02  0.1320468E+00
        -11   -1    0    0    0    0  0.00000000000E+00  0.00000000000E+00  0.45593999997E+02  0.45594000000E+02  0.51100000000E-03 0.  1.
         11   -1    0    0    0    0 -0.00000000000E+00 -0.00000000000E+00 -0.45593999997E+02  0.45594000000E+02  0.51100000000E-03 0. -1.
    9900012    2    1    2    0    0 -0.41499167264E+02  0.16138762032E+02 -0.68171019837E+01  0.46142318708E+02  0.10000008637E+02 0.  0.
         12    1    1    2    0    0  0.41499167264E+02 -0.16138762032E+02  0.68171019837E+01  0.45045681292E+02  0.00000000000E+00 0. -1.
         11    1    3    3    0    0 -0.68977247381E+01  0.11950734541E+01 -0.11926169289E+01  0.71013479371E+01  0.51100000000E-03 0. -1.
        -11    1    3    3    0    0 -0.25097337597E+02  0.13025927249E+02 -0.98760530966E+00  0.28293577003E+02  0.51100000000E-03 0.  1.
        -12    1    3    3    0    0 -0.95041049296E+01  0.19177613291E+01 -0.46368797451E+01  0.10747393768E+02  0.00000000000E+00 0.  1.
</event>
<event>
 7    1  0.1385632E-008  0.4614232E+02  0.7816164E-02  0.1320468E+00
        -11   -1    0    0    0    0  0.00000000000E+00  0.00000000000E+00  0.45593999997E+02  0.45594000000E+02  0.51100000000E-03 0.  1.
         11   -1    0    0    0    0 -0.00000000000E+00 -0.00000000000E+00 -0.45593999997E+02  0.45594000000E+02  0.51100000000E-03 0. -1.
    9900012    2    1    2    0    0 -0.23051285193E+02  0.15977976616E+01  0.38667801089E+02  0.46142317105E+02  0.99999940167E+01 0.  0.
         12    1    1    2    0    0  0.23051285193E+02 -0.15977976616E+01 -0.38667801089E+02  0.45045682895E+02  0.00000000000E+00 0. -1.
         11    1    3    3    0    0 -0.49548803369E+01  0.15344709446E+01  0.63447881391E+01  0.81952289183E+01  0.51100000000E-03 0. -1.
        -11    1    3    3    0    0 -0.14894110832E+02  0.27759300608E+01  0.21188326456E+02  0.26047754288E+02  0.51100000000E-03 0.  1.
        -12    1    3    3    0    0 -0.32022940248E+01 -0.27126033438E+01  0.11134686494E+02  0.11899333899E+02  0.00000000000E+00 0.  1.
</event>
<event>
 7    1  0.1385632E-008  0.4614232E+02  0.7816164E-02  0.1320468E+00
        -11   -1    0    0    0    0  0.00000000000E+00  0.00000000000E+00  0.45593999997E+02  0.45594000000E+02  0.51100000000E-03 0.  1.
         11   -1    0    0    0    0 -0.00000000000E+00 -0.00000000000E+00 -0.45593999997E+02  0.45594000000E+02  0.51100000000E-03 0. -1.
    9900012    2    1    2    0    0  0.34336954917E+02  0.15031731355E+02  0.24982675728E+02  0.46142317554E+02  0.99999981089E+01 0.  0.
         12    1    1    2    0    0 -0.34336954917E+02 -0.15031731355E+02 -0.24982675728E+02  0.45045682446E+02  0.00000000000E+00 0. -1.
         11    1    3    3    0    0  0.23372207546E+02  0.13393043625E+02  0.13765052377E+02  0.30250791234E+02  0.51100000000E-03 0. -1.
        -11    1    3    3    0    0  0.10407993858E+02  0.12899699665E+01  0.99145035523E+01  0.14432177230E+02  0.51100000000E-03 0.  1.
         12    1    3    3    0    0  0.55675351395E+00  0.34871776352E+00  0.13031197990E+01  0.14593490893E+01  0.00000000000E+00 0. -1.
</event>
<event>
 7    1  0.1385632E-008  0.4614232E+02  0.7816164E-02  0.1320468E+00
        -11   -1    0    0    0    0  0.00000000000E+00  0.00000000000E+00  0.45593999997E+02  0.45594000000E+02  0.51100000000E-03 0.  1.
         11   -1    0    0    0    0 -0.00000000000E+00 -0.00000000000E+00 -0.45593999997E+02  0.45594000000E+02  0.51100000000E-03 0. -1.
    9900012    2    1    2    0    0 -0.15573532562E+02 -0.36613412290E+02  0.21119583264E+02  0.46142315709E+02  0.99999812872E+01 0.  0.
         12    1    1    2    0    0  0.15573532562E+02  0.36613412290E+02 -0.21119583264E+02  0.45045684291E+02  0.00000000000E+00 0. -1.
         11    1    3    3    0    0 -0.69354409521E+00 -0.15001012976E+01 -0.39623922795E+00  0.16995037811E+01  0.51100000000E-03 0. -1.
        -11    1    3    3    0    0 -0.19548273942E+01 -0.13563898046E+02  0.87311167715E+01  0.16249094765E+02  0.51100000000E-03 0.  1.
        -12    1    3    3    0    0 -0.12925161073E+02 -0.21549412946E+02  0.12784705721E+02  0.28193717163E+02  0.00000000000E+00 0.  1.
</event>
<event>
 7    1  0.1385632E-008  0.4614231E+02  0.7816164E-02  0.1320468E+00
        -11   -1    0    0    0    0  0.00000000000E+00  0.00000000000E+00  0.45593999997E+02  0.45594000000E+02  0.51100000000E-03 0.  1.
         11   -1    0    0    0    0 -0.00000000000E+00 -0.00000000000E+00 -0.45593999997E+02  0.45594000000E+02  0.51100000000E-03 0. -1.
    9900012    2    1    2    0    0  0.39171725996E+02  0.16352345096E+02 -0.15076155990E+02  0.46142314445E+02  0.99999697619E+01 0.  0.
         12    1    1    2    0    0 -0.39171725996E+02 -0.16352345096E+02  0.15076155990E+02  0.45045685555E+02  0.00000000000E+00 0. -1.
         11    1    3    3    0    0  0.12236618068E+02  0.77892891723E+01 -0.32627496399E+01  0.14867864104E+02  0.51100000000E-03 0. -1.
        -11    1    3    3    0    0  0.17220923442E+02  0.78588437373E+01 -0.98501920315E+01  0.21338882642E+02  0.51100000000E-03 0.  1.
         12    1    3    3    0    0  0.97141844867E+01  0.70421218658E+00 -0.19632143186E+01  0.99355676993E+01  0.00000000000E+00 0. -1.
</event>
<event>
 7    1  0.1529941E-008  0.4614232E+02  0.7816164E-02  0.1320468E+00
        -11   -1    0    0    0    0  0.00000000000E+00  0.00000000000E+00  0.45593999997E+02  0.45594000000E+02  0.51100000000E-03 0.  1.
         11   -1    0    0    0    0 -0.00000000000E+00 -0.00000000000E+00 -0.45593999997E+02  0.45594000000E+02  0.51100000000E-03 0. -1.
    9900012    2    1    2    0    0  0.16969327803E+02 -0.33613051807E+02  0.24724849671E+02  0.46142317309E+02  0.99999958749E+01 0.  0.
         12    1    1    2    0    0 -0.16969327803E+02  0.33613051807E+02 -0.24724849671E+02  0.45045682691E+02  0.00000000000E+00 0. -1.
         11    1    3    3    0    0 -0.56110339165E+00 -0.29505348242E+00 -0.62698452200E-01  0.63704390009E+00  0.51100000000E-03 0. -1.
        -11    1    3    3    0    0  0.10589941493E+02 -0.25793614617E+02  0.19066198718E+02  0.33778356231E+02  0.51100000000E-03 0.  1.
        -12    1    3    3    0    0  0.69404897019E+01 -0.75243837070E+01  0.57213494051E+01  0.11726917177E+02  0.00000000000E+00 0.  1.
</event>
<event>
 7    1  0.1385632E-008  0.4614232E+02  0.7816164E-02  0.1320468E+00
        -11   -1    0    0    0    0  0.00000000000E+00  0.00000000000E+00  0.45593999997E+02  0.45594000000E+02  0.51100000000E-03 0.  1.
         11   -1    0    0    0    0 -0.00000000000E+00 -0.00000000000E+00 -0.45593999997E+02  0.45594000000E+02  0.51100000000E-03 0. -1.
    9900012    2    1    2    0    0  0.28850172888E+02 -0.10738542356E+02  0.32885631243E+02  0.46142317523E+02  0.99999978269E+01 0.  0.
         12    1    1    2    0    0 -0.28850172888E+02  0.10738542356E+02 -0.32885631243E+02  0.45045682477E+02  0.00000000000E+00 0. -1.
         11    1    3    3    0    0  0.11923657018E+02 -0.57872652312E+01  0.79315005483E+01  0.15445864714E+02  0.51100000000E-03 0. -1.
        -11    1    3    3    0    0  0.12790560913E+02 -0.49061270503E+01  0.20013371576E+02  0.24252908551E+02  0.51100000000E-03 0.  1.
         12    1    3    3    0    0  0.41359549574E+01 -0.45150074513E-01  0.49407591186E+01  0.64435442582E+01  0.00000000000E+00 0. -1.
</event>
<event>
 7    1  0.1385632E-008  0.4614232E+02  0.7816164E-02  0.1320468E+00
        -11   -1    0    0    0    0  0.00000000000E+00  0.00000000000E+00  0.45593999997E+02  0.45594000000E+02  0.51100000000E-03 0.  1.
         11   -1    0    0    0    0 -0.00000000000E+00 -0.00000000000E+00 -0.45593999997E+02  0.45594000000E+02  0.51100000000E-03 0. -1.
    9900012    2    1    2    0    0 -0.24029161131E+02 -0.25509150797E+02  0.28301875116E+02  0.46142317697E+02  0.99999994181E+01 0.  0.
         12    1    1    2    0    0  0.24029161131E+02  0.25509150797E+02 -0.28301875116E+02  0.45045682303E+02  0.00000000000E+00 0. -1.
         11    1    3    3    0    0 -0.79822559023E+01 -0.62767819508E+01  0.45455483513E+01  0.11125484755E+02  0.51100000000E-03 0. -1.
        -11    1    3    3    0    0 -0.58302732931E-01 -0.27525566443E+01  0.28733941239E+01  0.39794925984E+01  0.51100000000E-03 0.  1.
        -12    1    3    3    0    0 -0.15988602496E+02 -0.16479812202E+02  0.20882932640E+02  0.31037340344E+02  0.00000000000E+00 0.  1.
</event>
<event>
 7    1  0.1385632E-008  0.4614232E+02  0.7816164E-02  0.1320468E+00
        -11   -1    0    0    0    0  0.00000000000E+00  0.00000000000E+00  0.45593999997E+02  0.45594000000E+02  0.51100000000E-03 0. -1.
         11   -1    0    0    0    0 -0.00000000000E+00 -0.00000000000E+00 -0.45593999997E+02  0.45594000000E+02  0.51100000000E-03 0.  1.
    9900012    2    1    2    0    0  0.14799193055E+02 -0.42176708938E+02 -0.55877133320E+01  0.46142318385E+02  0.10000005685E+02 0.  0.
         12    1    1    2    0    0 -0.14799193055E+02  0.42176708938E+02  0.55877133320E+01  0.45045681615E+02  0.00000000000E+00 0. -1.
         11    1    3    3    0    0  0.11583359727E+02 -0.31041654595E+02 -0.80203459864E+01  0.34089360401E+02  0.51100000000E-03 0. -1.
        -11    1    3    3    0    0  0.22009699069E+01 -0.37376681656E+01  0.95631145336E+00  0.44417298099E+01  0.51100000000E-03 0.  1.
         12    1    3    3    0    0  0.10148634217E+01 -0.73973861775E+01  0.14763212010E+01  0.76112281737E+01  0.00000000000E+00 0. -1.
</event>
<event>
 7    1  0.1385632E-008  0.4614231E+02  0.7816164E-02  0.1320468E+00
        -11   -1    0    0    0    0  0.00000000000E+00  0.00000000000E+00  0.45593999997E+02  0.45594000000E+02  0.51100000000E-03 0.  1.
         11   -1    0    0    0    0 -0.00000000000E+00 -0.00000000000E+00 -0.45593999997E+02  0.45594000000E+02  0.51100000000E-03 0. -1.
    9900012    2    1    2    0    0 -0.77463302063E+01  0.30966206666E+01  0.44266457138E+02  0.46142312984E+02  0.99999564355E+01 0.  0.
         12    1    1    2    0    0  0.77463302063E+01 -0.30966206666E+01 -0.44266457138E+02  0.45045687016E+02  0.00000000000E+00 0. -1.
         11    1    3    3    0    0 -0.55485301189E+00  0.50813990692E+00  0.22592637990E+00  0.78556414128E+00  0.51100000000E-03 0. -1.
        -11    1    3    3    0    0 -0.18024403104E+01 -0.70044519060E+00  0.17833251737E+01  0.26305253228E+01  0.51100000000E-03 0.  1.
        -12    1    3    3    0    0 -0.53890368841E+01  0.32889259502E+01  0.42257205584E+02  0.42726223520E+02  0.00000000000E+00 0.  1.
</event>
<event>
 7    1  0.1385632E-008  0.4614232E+02  0.7816164E-02  0.1320468E+00
        -11   -1    0    0    0    0  0.00000000000E+00  0.00000000000E+00  0.45593999997E+02  0.45594000000E+02  0.51100000000E-03 0.  1.
         11   -1    0    0    0    0 -0.00000000000E+00 -0.00000000000E+00 -0.45593999997E+02  0.45594000000E+02  0.51100000000E-03 0. -1.
    9900012    2    1    2    0    0 -0.16495624756E+02  0.30718545592E+02  0.28519795890E+02  0.46142318331E+02  0.10000005201E+02 0.  0.
         12    1    1    2    0    0  0.16495624756E+02 -0.30718545592E+02 -0.28519795890E+02  0.45045681669E+02  0.00000000000E+00 0. -1.
         11    1    3    3    0    0 -0.13149862261E+01  0.50561535525E+01  0.12665344795E+01  0.53756848280E+01  0.51100000000E-03 0. -1.
        -11    1    3    3    0    0 -0.14841427106E+02  0.21949207203E+02  0.22772608545E+02  0.34937477808E+02  0.51100000000E-03 0.  1.
        -12    1    3    3    0    0 -0.33921142355E+00  0.37131848372E+01  0.44806528651E+01  0.58291556955E+01  0.00000000000E+00 0.  1.
</event>
<event>
 7    1  0.1385632E-008  0.4614232E+02  0.7816164E-02  0.1320468E+00
        -11   -1    0    0    0    0  0.00000000000E+00  0.00000000000E+00  0.45593999997E+02  0.45594000000E+02  0.51100000000E-03 0.  1.
         11   -1    0    0    0    0 -0.00000000000E+00 -0.00000000000E+00 -0.45593999997E+02  0.45594000000E+02  0.51100000000E-03 0. -1.
    9900012    2    1    2    0    0 -0.15148589923E+02  0.40795806470E+02 -0.11633389936E+02  0.46142319146E+02  0.10000012631E+02 0.  0.
         12    1    1    2    0    0  0.15148589923E+02 -0.40795806470E+02  0.11633389936E+02  0.45045680854E+02  0.00000000000E+00 0. -1.
         11    1    3    3    0    0 -0.54889450293E+01  0.92534539523E+01 -0.23037639449E+01  0.11002829461E+02  0.51100000000E-03 0. -1.
        -11    1    3    3    0    0 -0.62745638590E+01  0.13656307187E+02 -0.76356570984E+01  0.16857287361E+02  0.51100000000E-03 0.  1.
         12    1    3    3    0    0 -0.33850810348E+01  0.17886045331E+02 -0.16939688924E+01  0.18282202323E+02  0.00000000000E+00 0. -1.
</event>
<event>
 7    1  0.1385632E-008  0.4614232E+02  0.7816164E-02  0.1320468E+00
        -11   -1    0    0    0    0  0.00000000000E+00  0.00000000000E+00  0.45593999997E+02  0.45594000000E+02  0.51100000000E-03 0. -1.
         11   -1    0    0    0    0 -0.00000000000E+00 -0.00000000000E+00 -0.45593999997E+02  0.45594000000E+02  0.51100000000E-03 0.  1.
    9900012    2    1    2    0    0 -0.32320884218E+02  0.30609186432E+02 -0.68957318227E+01  0.46142323536E+02  0.10000052663E+02 0.  0.
         12    1    1    2    0    0  0.32320884218E+02 -0.30609186432E+02  0.68957318227E+01  0.45045676464E+02  0.00000000000E+00 0. -1.
         11    1    3    3    0    0 -0.17587146929E+01  0.37305573009E+01 -0.38366755523E+00  0.41421414993E+01  0.51100000000E-03 0. -1.
        -11    1    3    3    0    0 -0.18703630441E+02  0.20967753255E+02 -0.27809408192E+01  0.28234838415E+02  0.51100000000E-03 0.  1.
        -12    1    3    3    0    0 -0.11858539084E+02  0.59108758769E+01 -0.37311234482E+01  0.13765343622E+02  0.00000000000E+00 0.  1.
</event>
<event>
 7    1  0.1385632E-008  0.4614232E+02  0.7816164E-02  0.1320468E+00
        -11   -1    0    0    0    0  0.00000000000E+00  0.00000000000E+00  0.45593999997E+02  0.45594000000E+02  0.51100000000E-03 0.  1.
         11   -1    0    0    0    0 -0.00000000000E+00 -0.00000000000E+00 -0.45593999997E+02  0.45594000000E+02  0.51100000000E-03 0. -1.
    9900012    2    1    2    0    0  0.53861922642E+01  0.25348800127E+02  0.36844820157E+02  0.46142317550E+02  0.99999980754E+01 0.  0.
         12    1    1    2    0    0 -0.53861922642E+01 -0.25348800127E+02 -0.36844820157E+02  0.45045682450E+02  0.00000000000E+00 0. -1.
         11    1    3    3    0    0  0.10548657111E+01  0.41351141941E+01  0.21359081462E+01  0.47722127925E+01  0.51100000000E-03 0. -1.
        -11    1    3    3    0    0  0.18125166411E+01  0.61522659853E+01  0.15885968676E+02  0.17131829860E+02  0.51100000000E-03 0.  1.
         12    1    3    3    0    0  0.25188099120E+01  0.15061419948E+02  0.18822943335E+02  0.24238274897E+02  0.00000000000E+00 0. -1.
</event>
<event>
 7    1  0.1385632E-008  0.4614232E+02  0.7816164E-02  0.1320468E+00
        -11   -1    0    0    0    0  0.00000000000E+00  0.00000000000E+00  0.45593999997E+02  0.45594000000E+02  0.51100000000E-03 0.  1.
         11   -1    0    0    0    0 -0.00000000000E+00 -0.00000000000E+00 -0.45593999997E+02  0.45594000000E+02  0.51100000000E-03 0. -1.
    9900012    2    1    2    0    0  0.73684884048E+01 -0.22658257106E+02  0.38228552738E+02  0.46142317844E+02  0.10000000754E+02 0.  0.
         12    1    1    2    0    0 -0.73684884048E+01  0.22658257106E+02 -0.38228552738E+02  0.45045682156E+02  0.00000000000E+00 0. -1.
         11    1    3    3    0    0  0.55004290084E+01 -0.13694978067E+02  0.15713404735E+02  0.21557324328E+02  0.51100000000E-03 0. -1.
        -11    1    3    3    0    0  0.12447982680E+01 -0.90656008423E+01  0.21724455719E+02  0.23573006128E+02  0.51100000000E-03 0.  1.
         12    1    3    3    0    0  0.62326112835E+00  0.10232180357E+00  0.79069228379E+00  0.10119873879E+01  0.00000000000E+00 0. -1.
</event>
<event>
 7    1  0.1385632E-008  0.4614232E+02  0.7816164E-02  0.1320468E+00
        -11   -1    0    0    0    0  0.00000000000E+00  0.00000000000E+00  0.45593999997E+02  0.45594000000E+02  0.51100000000E-03 0.  1.
         11   -1    0    0    0    0 -0.00000000000E+00 -0.00000000000E+00 -0.45593999997E+02  0.45594000000E+02  0.51100000000E-03 0. -1.
    9900012    2    1    2    0    0  0.66129777648E+01 -0.29167335538E+02  0.33684545702E+02  0.46142317006E+02  0.99999931100E+01 0.  0.
         12    1    1    2    0    0 -0.66129777648E+01  0.29167335538E+02 -0.33684545702E+02  0.45045682994E+02  0.00000000000E+00 0. -1.
         11    1    3    3    0    0  0.42011905959E+00 -0.94492136419E+01  0.55542875100E+01  0.10968785187E+02  0.51100000000E-03 0. -1.
        -11    1    3    3    0    0  0.36876814051E+01 -0.16215561672E+02  0.20344789593E+02  0.26276489460E+02  0.51100000000E-03 0.  1.
         12    1    3    3    0    0  0.25051773001E+01 -0.35025602238E+01  0.77854685992E+01  0.88970423589E+01  0.00000000000E+00 0. -1.
</event>
<event>
 7    1  0.1385632E-008  0.4614232E+02  0.7816164E-02  0.1320468E+00
        -11   -1    0    0    0    0  0.00000000000E+00  0.00000000000E+00  0.45593999997E+02  0.45594000000E+02  0.51100000000E-03 0.  1.
         11   -1    0    0    0    0 -0.00000000000E+00 -0.00000000000E+00 -0.45593999997E+02  0.45594000000E+02  0.51100000000E-03 0. -1.
    9900012    2    1    2    0    0 -0.37732571945E+02 -0.10561503126E+01  0.24581516838E+02  0.46142318641E+02  0.10000008025E+02 0.  0.
         12    1    1    2    0    0  0.37732571945E+02  0.10561503126E+01 -0.24581516838E+02  0.45045681359E+02  0.00000000000E+00 0. -1.
         11    1    3    3    0    0 -0.65305163983E+01  0.16328798134E+01  0.44038478839E+01  0.80441169409E+01  0.51100000000E-03 0. -1.
        -11    1    3    3    0    0 -0.73020282140E+01 -0.39604785057E+01  0.63601192429E+01  0.10462128038E+02  0.51100000000E-03 0.  1.
        -12    1    3    3    0    0 -0.23900027332E+02  0.12714483796E+01  0.13817549711E+02  0.27636073663E+02  0.00000000000E+00 0.  1.
</event>
<event>
 7    1  0.1385632E-008  0.4614232E+02  0.7816164E-02  0.1320468E+00
        -11   -1    0    0    0    0  0.00000000000E+00  0.00000000000E+00  0.45593999997E+02  0.45594000000E+02  0.51100000000E-03 0. -1.
         11   -1    0    0    0    0 -0.00000000000E+00 -0.00000000000E+00 -0.45593999997E+02  0.45594000000E+02  0.51100000000E-03 0.  1.
    9900012    2    1    2    0    0 -0.12491605298E+02  0.75708412803E+01 -0.42611685055E+02  0.46142317145E+02  0.99999943809E+01 0.  0.
         12    1    1    2    0    0  0.12491605298E+02 -0.75708412803E+01  0.42611685055E+02  0.45045682855E+02  0.00000000000E+00 0. -1.
         11    1    3    3    0    0 -0.40120768233E+01  0.68060330072E+01 -0.21158452064E+02  0.22585370038E+02  0.51100000000E-03 0. -1.
        -11    1    3    3    0    0 -0.35878615432E+01 -0.70321498863E+00 -0.14348922687E+02  0.14807391543E+02  0.51100000000E-03 0.  1.
         12    1    3    3    0    0 -0.48916669316E+01  0.14680232618E+01 -0.71043103040E+01  0.87495555637E+01  0.00000000000E+00 0. -1.
</event>
<event>
 7    1  0.1385632E-008  0.4614232E+02  0.7816164E-02  0.1320468E+00
        -11   -1    0    0    0    0  0.00000000000E+00  0.00000000000E+00  0.45593999997E+02  0.45594000000E+02  0.51100000000E-03 0.  1.
         11   -1    0    0    0    0 -0.00000000000E+00 -0.00000000000E+00 -0.45593999997E+02  0.45594000000E+02  0.51100000000E-03 0. -1.
    9900012    2    1    2    0    0  0.35252263784E+02  0.22589134129E+02  0.16616931031E+02  0.46142317859E+02  0.10000000895E+02 0.  0.
         12    1    1    2    0    0 -0.35252263784E+02 -0.22589134129E+02 -0.16616931031E+02  0.45045682141E+02  0.00000000000E+00 0. -1.
         11    1    3    3    0    0  0.39585727763E+01  0.53540361660E+01 -0.79738944905E-01  0.66590059508E+01  0.51100000000E-03 0. -1.
        -11    1    3    3    0    0  0.22673364558E+02  0.11818769892E+02  0.12661933825E+02  0.28532251061E+02  0.51100000000E-03 0.  1.
         12    1    3    3    0    0  0.86203264502E+01  0.54163280717E+01  0.40347361503E+01  0.10951060848E+02  0.00000000000E+00 0. -1.
</event>
<event>
 7    1  0.1385632E-008  0.4614232E+02  0.7816164E-02  0.1320468E+00
        -11   -1    0    0    0    0  0.00000000000E+00  0.00000000000E+00  0.45593999997E+02  0.45594000000E+02  0.51100000000E-03 0.  1.
         11   -1    0    0    0    0 -0.00000000000E+00 -0.00000000000E+00 -0.45593999997E+02  0.45594000000E+02  0.51100000000E-03 0. -1.
    9900012    2    1    2    0    0  0.13928748707E+00  0.24606056999E+02  0.37731100985E+02  0.46142318480E+02  0.10000006556E+02 0.  0.
         12    1    1    2    0    0 -0.13928748707E+00 -0.24606056999E+02 -0.37731100985E+02  0.45045681520E+02  0.00000000000E+00 0. -1.
         11    1    3    3    0    0  0.33042754076E+01  0.12405771272E+02  0.14194441478E+02  0.19139058649E+02  0.51100000000E-03 0. -1.
        -11    1    3    3    0    0  0.18687240659E+00  0.23720275342E+01  0.77542262877E+01  0.81110703055E+01  0.51100000000E-03 0.  1.
        -12    1    3    3    0    0 -0.33518603272E+01  0.98282581919E+01  0.15782433219E+02  0.18892189525E+02  0.00000000000E+00 0.  1.
</event>
<event>
 7    1  0.1385632E-008  0.4614232E+02  0.7816164E-02  0.1320468E+00
        -11   -1    0    0    0    0  0.00000000000E+00  0.00000000000E+00  0.45593999997E+02  0.45594000000E+02  0.51100000000E-03 0.  1.
         11   -1    0    0    0    0 -0.00000000000E+00 -0.00000000000E+00 -0.45593999997E+02  0.45594000000E+02  0.51100000000E-03 0. -1.
    9900012    2    1    2    0    0 -0.27029830896E+02  0.20669634264E+02  0.29517248487E+02  0.46142317664E+02  0.99999991145E+01 0.  0.
         12    1    1    2    0    0  0.27029830896E+02 -0.20669634264E+02 -0.29517248487E+02  0.45045682336E+02  0.00000000000E+00 0. -1.
         11    1    3    3    0    0 -0.21959354821E+01  0.89404888044E+00 -0.36862282791E+00  0.23994455802E+01  0.51100000000E-03 0. -1.
        -11    1    3    3    0    0 -0.10279373832E+01  0.59265701019E+00  0.21879710894E+01  0.24889988639E+01  0.51100000000E-03 0.  1.
         12    1    3    3    0    0 -0.23805958031E+02  0.19182928373E+02  0.27697900225E+02  0.41253873220E+02  0.00000000000E+00 0. -1.
</event>
<event>
 7    1  0.1385632E-008  0.4614232E+02  0.7816164E-02  0.1320468E+00
        -11   -1    0    0    0    0  0.00000000000E+00  0.00000000000E+00  0.45593999997E+02  0.45594000000E+02  0.51100000000E-03 0.  1.
         11   -1    0    0    0    0 -0.00000000000E+00 -0.00000000000E+00 -0.45593999997E+02  0.45594000000E+02  0.51100000000E-03 0. -1.
    9900012    2    1    2    0    0 -0.38370971830E+02 -0.98886829891E+01  0.21424190867E+02  0.46142317801E+02  0.10000000368E+02 0.  0.
         12    1    1    2    0    0  0.38370971830E+02  0.98886829891E+01 -0.21424190867E+02  0.45045682199E+02  0.00000000000E+00 0. -1.
         11    1    3    3    0    0  0.17556048873E-01  0.33131571502E+00 -0.33346109924E+00  0.47039864338E+00  0.51100000000E-03 0. -1.
        -11    1    3    3    0    0 -0.22592113576E+02 -0.50546018042E+01  0.95139700579E+01  0.25029347210E+02  0.51100000000E-03 0.  1.
         12    1    3    3    0    0 -0.15796414302E+02 -0.51653968999E+01  0.12243681909E+02  0.20642571948E+02  0.00000000000E+00 0. -1.
</event>
<event>
 7    1  0.1385632E-008  0.4614232E+02  0.7816164E-02  0.1320468E+00
        -11   -1    0    0    0    0  0.00000000000E+00  0.00000000000E+00  0.45593999997E+02  0.45594000000E+02  0.51100000000E-03 0. -1.
         11   -1    0    0    0    0 -0.00000000000E+00 -0.00000000000E+00 -0.45593999997E+02  0.45594000000E+02  0.51100000000E-03 0.  1.
    9900012    2    1    2    0    0  0.20793991732E+01  0.31894098583E+02 -0.31742023302E+02  0.46142317980E+02  0.10000001995E+02 0.  0.
         12    1    1    2    0    0 -0.20793991732E+01 -0.31894098583E+02  0.31742023302E+02  0.45045682020E+02  0.00000000000E+00 0. -1.
         11    1    3    3    0    0 -0.19611042344E+01  0.22080747703E+01 -0.11308810174E+01  0.31623434579E+01  0.51100000000E-03 0. -1.
        -11    1    3    3    0    0 -0.34306511900E+00  0.53154592001E+01 -0.42621462732E+01  0.68218539488E+01  0.51100000000E-03 0.  1.
         12    1    3    3    0    0  0.43835685266E+01  0.24370564613E+02 -0.26348996011E+02  0.36158120573E+02  0.00000000000E+00 0. -1.
</event>
<event>
 7    1  0.1385632E-008  0.4614232E+02  0.7816164E-02  0.1320468E+00
        -11   -1    0    0    0    0  0.00000000000E+00  0.00000000000E+00  0.45593999997E+02  0.45594000000E+02  0.51100000000E-03 0.  1.
         11   -1    0    0    0    0 -0.00000000000E+00 -0.00000000000E+00 -0.45593999997E+02  0.45594000000E+02  0.51100000000E-03 0. -1.
    9900012    2    1    2    0    0  0.19282611248E+02  0.17711294171E+02  0.36655210379E+02  0.46142317791E+02  0.10000000272E+02 0.  0.
         12    1    1    2    0    0 -0.19282611248E+02 -0.17711294171E+02 -0.36655210379E+02  0.45045682209E+02  0.00000000000E+00 0. -1.
         11    1    3    3    0    0  0.21131248996E+01  0.27429421839E+01  0.27915752865E+01  0.44476872087E+01  0.51100000000E-03 0. -1.
        -11    1    3    3    0    0  0.49999152026E+01  0.98083863692E+01  0.13545681071E+02  0.17455345059E+02  0.51100000000E-03 0.  1.
        -12    1    3    3    0    0  0.12169571146E+02  0.51599656182E+01  0.20317954021E+02  0.24239285523E+02  0.00000000000E+00 0.  1.
</event>
<event>
 7    1  0.1385632E-008  0.4614232E+02  0.7816164E-02  0.1320468E+00
        -11   -1    0    0    0    0  0.00000000000E+00  0.00000000000E+00  0.45593999997E+02  0.45594000000E+02  0.51100000000E-03 0.  1.
         11   -1    0    0    0    0 -0.00000000000E+00 -0.00000000000E+00 -0.45593999997E+02  0.45594000000E+02  0.51100000000E-03 0. -1.
    9900012    2    1    2    0    0  0.29906138048E+02 -0.73493165707E+01  0.32874365452E+02  0.46142318177E+02  0.10000003792E+02 0.  0.
         12    1    1    2    0    0 -0.29906138048E+02  0.73493165707E+01 -0.32874365452E+02  0.45045681823E+02  0.00000000000E+00 0. -1.
         11    1    3    3    0    0  0.19545341936E+00 -0.16804199918E+01  0.38267635606E+01  0.41840331019E+01  0.51100000000E-03 0. -1.
        -11    1    3    3    0    0  0.21315077180E+02 -0.44148015660E+01  0.21597551570E+02  0.30663940095E+02  0.51100000000E-03 0.  1.
         12    1    3    3    0    0  0.83956074488E+01 -0.12540950129E+01  0.74500503218E+01  0.11294344980E+02  0.00000000000E+00 0. -1.
</event>
<event>
 7    1  0.1385632E-008  0.4614231E+02  0.7816164E-02  0.1320468E+00
        -11   -1    0    0    0    0  0.00000000000E+00  0.00000000000E+00  0.45593999997E+02  0.45594000000E+02  0.51100000000E-03 0. -1.
         11   -1    0    0    0    0 -0.00000000000E+00 -0.00000000000E+00 -0.45593999997E+02  0.45594000000E+02  0.51100000000E-03 0.  1.
    9900012    2    1    2    0    0 -0.24377207443E+02 -0.35094154625E+02 -0.14257134906E+02  0.46142314000E+02  0.99999656987E+01 0.  0.
         12    1    1    2    0    0  0.24377207443E+02  0.35094154625E+02  0.14257134906E+02  0.45045686000E+02  0.00000000000E+00 0. -1.
         11    1    3    3    0    0 -0.33735647733E+01 -0.11039489813E+01 -0.34220329528E+00  0.35660546813E+01  0.51100000000E-03 0. -1.
        -11    1    3    3    0    0 -0.78159460555E+01 -0.17032938643E+02 -0.58870513009E+01  0.19643507447E+02  0.51100000000E-03 0.  1.
        -12    1    3    3    0    0 -0.13187696614E+02 -0.16957267001E+02 -0.80278803099E+01  0.22932751871E+02  0.00000000000E+00 0.  1.
</event>
<event>
 7    1  0.1385632E-008  0.4614232E+02  0.7816164E-02  0.1320468E+00
        -11   -1    0    0    0    0  0.00000000000E+00  0.00000000000E+00  0.45593999997E+02  0.45594000000E+02  0.51100000000E-03 0. -1.
         11   -1    0    0    0    0 -0.00000000000E+00 -0.00000000000E+00 -0.45593999997E+02  0.45594000000E+02  0.51100000000E-03 0.  1.
    9900012    2    1    2    0    0  0.33116347310E+02  0.15720213657E+02 -0.26178153374E+02  0.46142319955E+02  0.10000020010E+02 0.  0.
         12    1    1    2    0    0 -0.33116347310E+02 -0.15720213657E+02  0.26178153374E+02  0.45045680045E+02  0.00000000000E+00 0. -1.
         11    1    3    3    0    0  0.21423209009E+02  0.54135595649E+01 -0.17528874085E+02  0.28204998464E+02  0.51100000000E-03 0. -1.
        -11    1    3    3    0    0  0.60444765994E+01  0.64791909803E+01 -0.43343382666E+01  0.98641827634E+01  0.51100000000E-03 0.  1.
         12    1    3    3    0    0  0.56486617022E+01  0.38274631118E+01 -0.43149410222E+01  0.80731387281E+01  0.00000000000E+00 0. -1.
</event>
<event>
 7    1  0.1385632E-008  0.4614232E+02  0.7816164E-02  0.1320468E+00
        -11   -1    0    0    0    0  0.00000000000E+00  0.00000000000E+00  0.45593999997E+02  0.45594000000E+02  0.51100000000E-03 0.  1.
         11   -1    0    0    0    0 -0.00000000000E+00 -0.00000000000E+00 -0.45593999997E+02  0.45594000000E+02  0.51100000000E-03 0. -1.
    9900012    2    1    2    0    0  0.77100099113E+01 -0.32412993362E+02  0.30316119353E+02  0.46142317808E+02  0.10000000426E+02 0.  0.
         12    1    1    2    0    0 -0.77100099113E+01  0.32412993362E+02 -0.30316119353E+02  0.45045682192E+02  0.00000000000E+00 0. -1.
         11    1    3    3    0    0 -0.22762195736E+00 -0.39008045093E+01  0.69825700511E+01  0.80015231272E+01  0.51100000000E-03 0. -1.
        -11    1    3    3    0    0  0.22548123948E+01 -0.58888494648E+01  0.81647926245E+01  0.10316325209E+02  0.51100000000E-03 0.  1.
         12    1    3    3    0    0  0.56828194739E+01 -0.22623339388E+02  0.15168756678E+02  0.27824469472E+02  0.00000000000E+00 0. -1.
</event>
<event>
 7    1  0.1385632E-008  0.4614232E+02  0.7816164E-02  0.1320468E+00
        -11   -1    0    0    0    0  0.00000000000E+00  0.00000000000E+00  0.45593999997E+02  0.45594000000E+02  0.51100000000E-03 0. -1.
         11   -1    0    0    0    0 -0.00000000000E+00 -0.00000000000E+00 -0.45593999997E+02  0.45594000000E+02  0.51100000000E-03 0.  1.
    9900012    2    1    2    0    0  0.36805408332E+01  0.32376226824E+01 -0.44778174402E+02  0.46142317807E+02  0.10000000416E+02 0.  0.
         12    1    1    2    0    0 -0.36805408332E+01 -0.32376226824E+01  0.44778174402E+02  0.45045682193E+02  0.00000000000E+00 0. -1.
         11    1    3    3    0    0 -0.10432723270E+01  0.34783605332E+01 -0.25388181247E+02  0.25646581769E+02  0.51100000000E-03 0.  1.
        -11    1    3    3    0    0  0.54757282749E+01  0.59442930659E+00 -0.15677694594E+02  0.16617071173E+02  0.51100000000E-03 0. -1.
        -12    1    3    3    0    0 -0.75191511469E+00 -0.83516715736E+00 -0.37122985615E+01  0.38786648644E+01  0.00000000000E+00 0.  1.
</event>
<event>
 7    1  0.1385632E-008  0.4614232E+02  0.7816164E-02  0.1320468E+00
        -11   -1    0    0    0    0  0.00000000000E+00  0.00000000000E+00  0.45593999997E+02  0.45594000000E+02  0.51100000000E-03 0.  1.
         11   -1    0    0    0    0 -0.00000000000E+00 -0.00000000000E+00 -0.45593999997E+02  0.45594000000E+02  0.51100000000E-03 0. -1.
    9900012    2    1    2    0    0 -0.33326637509E+02  0.26477792691E+02  0.14743646823E+02  0.46142318796E+02  0.10000009440E+02 0.  0.
         12    1    1    2    0    0  0.33326637509E+02 -0.26477792691E+02 -0.14743646823E+02  0.45045681204E+02  0.00000000000E+00 0. -1.
         11    1    3    3    0    0 -0.10664806000E+02  0.98742392376E+01  0.23225737727E+01  0.14718459048E+02  0.51100000000E-03 0. -1.
        -11    1    3    3    0    0 -0.38833402345E+01  0.63884344715E+01  0.36105290004E+01  0.83023096966E+01  0.51100000000E-03 0.  1.
        -12    1    3    3    0    0 -0.18778491274E+02  0.10215118982E+02  0.88105440496E+01  0.23121550052E+02  0.00000000000E+00 0.  1.
</event>
<event>
 7    1  0.1385632E-008  0.4614232E+02  0.7816164E-02  0.1320468E+00
        -11   -1    0    0    0    0  0.00000000000E+00  0.00000000000E+00  0.45593999997E+02  0.45594000000E+02  0.51100000000E-03 0.  1.
         11   -1    0    0    0    0 -0.00000000000E+00 -0.00000000000E+00 -0.45593999997E+02  0.45594000000E+02  0.51100000000E-03 0. -1.
    9900012    2    1    2    0    0 -0.21220679917E+02 -0.34145980749E+02  0.20318668356E+02  0.46142317174E+02  0.99999946505E+01 0.  0.
         12    1    1    2    0    0  0.21220679917E+02  0.34145980749E+02 -0.20318668356E+02  0.45045682826E+02  0.00000000000E+00 0. -1.
         11    1    3    3    0    0  0.77925268944E+00 -0.34322638545E+01  0.12866486772E+01  0.37474171106E+01  0.51100000000E-03 0. -1.
        -11    1    3    3    0    0 -0.79963774636E+01 -0.90483200651E+01  0.56068057377E+01  0.13313542706E+02  0.51100000000E-03 0.  1.
         12    1    3    3    0    0 -0.14003555143E+02 -0.21665396830E+02  0.13425213941E+02  0.29081357358E+02  0.00000000000E+00 0. -1.
</event>
<event>
 7    1  0.1385632E-008  0.4614232E+02  0.7816164E-02  0.1320468E+00
        -11   -1    0    0    0    0  0.00000000000E+00  0.00000000000E+00  0.45593999997E+02  0.45594000000E+02  0.51100000000E-03 0. -1.
         11   -1    0    0    0    0 -0.00000000000E+00 -0.00000000000E+00 -0.45593999997E+02  0.45594000000E+02  0.51100000000E-03 0.  1.
    9900012    2    1    2    0    0 -0.40391199913E+02  0.54512244801E+01  0.19181986087E+02  0.46142317976E+02  0.10000001962E+02 0.  0.
         12    1    1    2    0    0  0.40391199913E+02 -0.54512244801E+01 -0.19181986087E+02  0.45045682024E+02  0.00000000000E+00 0. -1.
         11    1    3    3    0    0 -0.63921664420E+01 -0.26431710368E+00  0.82089726127E+00  0.64500796839E+01  0.51100000000E-03 0.  1.
        -11    1    3    3    0    0 -0.17312719936E+02  0.60879490769E+01  0.77976984046E+01  0.19939846945E+02  0.51100000000E-03 0. -1.
         12    1    3    3    0    0 -0.16686313535E+02 -0.37240749316E+00  0.10563390421E+02  0.19752391347E+02  0.00000000000E+00 0. -1.
</event>
<event>
 7    1  0.1385632E-008  0.4614232E+02  0.7816164E-02  0.1320468E+00
        -11   -1    0    0    0    0  0.00000000000E+00  0.00000000000E+00  0.45593999997E+02  0.45594000000E+02  0.51100000000E-03 0.  1.
         11   -1    0    0    0    0 -0.00000000000E+00 -0.00000000000E+00 -0.45593999997E+02  0.45594000000E+02  0.51100000000E-03 0. -1.
    9900012    2    1    2    0    0  0.21891332752E+02  0.27256719256E+02  0.28406942789E+02  0.46142316601E+02  0.99999894200E+01 0.  0.
         12    1    1    2    0    0 -0.21891332752E+02 -0.27256719256E+02 -0.28406942789E+02  0.45045683399E+02  0.00000000000E+00 0. -1.
         11    1    3    3    0    0 -0.53770128538E+00  0.17500098234E+01  0.20509786870E+00  0.18422058656E+01  0.51100000000E-03 0. -1.
        -11    1    3    3    0    0  0.19256221087E+02  0.20013362674E+02  0.22029709370E+02  0.35449186610E+02  0.51100000000E-03 0.  1.
        -12    1    3    3    0    0  0.31728129499E+01  0.54933467582E+01  0.61721355504E+01  0.88509241254E+01  0.00000000000E+00 0.  1.
</event>
<event>
 7    1  0.1385632E-008  0.4614232E+02  0.7816164E-02  0.1320468E+00
        -11   -1    0    0    0    0  0.00000000000E+00  0.00000000000E+00  0.45593999997E+02  0.45594000000E+02  0.51100000000E-03 0. -1.
         11   -1    0    0    0    0 -0.00000000000E+00 -0.00000000000E+00 -0.45593999997E+02  0.45594000000E+02  0.51100000000E-03 0.  1.
    9900012    2    1    2    0    0 -0.28089477343E+02 -0.25924898328E+02  0.23832630860E+02  0.46142318915E+02  0.10000010518E+02 0.  0.
         12    1    1    2    0    0  0.28089477343E+02  0.25924898328E+02 -0.23832630860E+02  0.45045681085E+02  0.00000000000E+00 0. -1.
         11    1    3    3    0    0 -0.65406883473E+01 -0.38139087524E+01  0.89619401350E+01  0.11732130040E+02  0.51100000000E-03 0. -1.
        -11    1    3    3    0    0 -0.18596860256E+02 -0.17413434130E+02  0.12470749771E+02  0.28365304506E+02  0.51100000000E-03 0.  1.
         12    1    3    3    0    0 -0.29519287390E+01 -0.46975554463E+01  0.23999409544E+01  0.60448843691E+01  0.00000000000E+00 0. -1.
</event>
<event>
 7    1  0.1385632E-008  0.4614232E+02  0.7816164E-02  0.1320468E+00
        -11   -1    0    0    0    0  0.00000000000E+00  0.00000000000E+00  0.45593999997E+02  0.45594000000E+02  0.51100000000E-03 0.  1.
         11   -1    0    0    0    0 -0.00000000000E+00 -0.00000000000E+00 -0.45593999997E+02  0.45594000000E+02  0.51100000000E-03 0. -1.
    9900012    2    1    2    0    0 -0.26003021218E+02 -0.86135353533E+01  0.35759800553E+02  0.46142318306E+02  0.10000004967E+02 0.  0.
         12    1    1    2    0    0  0.26003021218E+02  0.86135353533E+01 -0.35759800553E+02  0.45045681694E+02  0.00000000000E+00 0. -1.
         11    1    3    3    0    0 -0.87817412833E+01 -0.12009186274E+01  0.11743881178E+02  0.14713256978E+02  0.51100000000E-03 0. -1.
        -11    1    3    3    0    0 -0.16585128989E+02 -0.50789659092E+01  0.22995706388E+02  0.28803904438E+02  0.51100000000E-03 0.  1.
         12    1    3    3    0    0 -0.63615094529E+00 -0.23336508167E+01  0.10202129859E+01  0.26251568898E+01  0.00000000000E+00 0. -1.
</event>
<event>
 7    1  0.1385632E-008  0.4614232E+02  0.7816164E-02  0.1320468E+00
        -11   -1    0    0    0    0  0.00000000000E+00  0.00000000000E+00  0.45593999997E+02  0.45594000000E+02  0.51100000000E-03 0.  1.
         11   -1    0    0    0    0 -0.00000000000E+00 -0.00000000000E+00 -0.45593999997E+02  0.45594000000E+02  0.51100000000E-03 0. -1.
    9900012    2    1    2    0    0 -0.50603420783E+01  0.12576101985E+02  0.42957516825E+02  0.46142315913E+02  0.99999831479E+01 0.  0.
         12    1    1    2    0    0  0.50603420783E+01 -0.12576101985E+02 -0.42957516825E+02  0.45045684087E+02  0.00000000000E+00 0. -1.
         11    1    3    3    0    0 -0.20605494546E+01  0.27054750321E+01  0.26078137314E+01  0.42855748649E+01  0.51100000000E-03 0. -1.
        -11    1    3    3    0    0 -0.40656545795E+01  0.79986861088E+01  0.32101201668E+02  0.33331601753E+02  0.51100000000E-03 0.  1.
         12    1    3    3    0    0  0.10658619558E+01  0.18719408438E+01  0.82485014259E+01  0.85251392953E+01  0.00000000000E+00 0. -1.
</event>
<event>
 7    1  0.1385632E-008  0.4614232E+02  0.7816164E-02  0.1320468E+00
        -11   -1    0    0    0    0  0.00000000000E+00  0.00000000000E+00  0.45593999997E+02  0.45594000000E+02  0.51100000000E-03 0.  1.
         11   -1    0    0    0    0 -0.00000000000E+00 -0.00000000000E+00 -0.45593999997E+02  0.45594000000E+02  0.51100000000E-03 0. -1.
    9900012    2    1    2    0    0  0.11629613567E+02 -0.39172632129E+02 -0.18957068520E+02  0.46142318004E+02  0.10000002212E+02 0.  0.
         12    1    1    2    0    0 -0.11629613567E+02  0.39172632129E+02  0.18957068520E+02  0.45045681996E+02  0.00000000000E+00 0. -1.
         11    1    3    3    0    0 -0.65485075343E-01  0.28309275271E-01  0.26721933714E+00  0.27657936550E+00  0.51100000000E-03 0. -1.
        -11    1    3    3    0    0  0.41139919343E+01 -0.47525770937E+01 -0.39793137241E+01  0.74395468035E+01  0.51100000000E-03 0.  1.
        -12    1    3    3    0    0  0.75811067084E+01 -0.34448364310E+02 -0.15244974134E+02  0.38426191835E+02  0.00000000000E+00 0.  1.
</event>
<event>
 7    1  0.1385632E-008  0.4614232E+02  0.7816164E-02  0.1320468E+00
        -11   -1    0    0    0    0  0.00000000000E+00  0.00000000000E+00  0.45593999997E+02  0.45594000000E+02  0.51100000000E-03 0.  1.
         11   -1    0    0    0    0 -0.00000000000E+00 -0.00000000000E+00 -0.45593999997E+02  0.45594000000E+02  0.51100000000E-03 0. -1.
    9900012    2    1    2    0    0 -0.16498455542E+02 -0.29457319480E+02  0.29819134552E+02  0.46142317724E+02  0.99999996645E+01 0.  0.
         12    1    1    2    0    0  0.16498455542E+02  0.29457319480E+02 -0.29819134552E+02  0.45045682276E+02  0.00000000000E+00 0. -1.
         11    1    3    3    0    0 -0.53240274061E+01 -0.39638111911E+01  0.40430001495E+01  0.77719313848E+01  0.51100000000E-03 0. -1.
        -11    1    3    3    0    0 -0.11127147682E+02 -0.21441677932E+02  0.20274184155E+02  0.31537303491E+02  0.51100000000E-03 0.  1.
         12    1    3    3    0    0 -0.47280453742E-01 -0.40518303574E+01  0.55019502478E+01  0.68330828486E+01  0.00000000000E+00 0. -1.
</event>
<event>
 7    1  0.1385632E-008  0.4614232E+02  0.7816164E-02  0.1320468E+00
        -11   -1    0    0    0    0  0.00000000000E+00  0.00000000000E+00  0.45593999997E+02  0.45594000000E+02  0.51100000000E-03 0.  1.
         11   -1    0    0    0    0 -0.00000000000E+00 -0.00000000000E+00 -0.45593999997E+02  0.45594000000E+02  0.51100000000E-03 0. -1.
    9900012    2    1    2    0    0  0.36251545092E+02  0.34024688465E+01  0.26520976371E+02  0.46142317593E+02  0.99999984684E+01 0.  0.
         12    1    1    2    0    0 -0.36251545092E+02 -0.34024688465E+01 -0.26520976371E+02  0.45045682407E+02  0.00000000000E+00 0. -1.
         11    1    3    3    0    0  0.73203626924E+01  0.17395009861E+01  0.55305503258E+01  0.93381240512E+01  0.51100000000E-03 0. -1.
        -11    1    3    3    0    0  0.12619544673E+02  0.57825402386E+00  0.14458467409E+02  0.19199858478E+02  0.51100000000E-03 0.  1.
        -12    1    3    3    0    0  0.16311637727E+02  0.10847138365E+01  0.65319586360E+01  0.17604335064E+02  0.00000000000E+00 0.  1.
</event>
<event>
 7    1  0.1385632E-008  0.4614232E+02  0.7816164E-02  0.1320468E+00
        -11   -1    0    0    0    0  0.00000000000E+00  0.00000000000E+00  0.45593999997E+02  0.45594000000E+02  0.51100000000E-03 0. -1.
         11   -1    0    0    0    0 -0.00000000000E+00 -0.00000000000E+00 -0.45593999997E+02  0.45594000000E+02  0.51100000000E-03 0.  1.
    9900012    2    1    2    0    0 -0.41819983513E+02  0.15485136222E+02 -0.63571186368E+01  0.46142318495E+02  0.10000006695E+02 0.  0.
         12    1    1    2    0    0  0.41819983513E+02 -0.15485136222E+02  0.63571186368E+01  0.45045681505E+02  0.00000000000E+00 0. -1.
         11    1    3    3    0    0 -0.10876917663E+02  0.21460239495E+01 -0.39343482437E+01  0.11764006673E+02  0.51100000000E-03 0. -1.
        -11    1    3    3    0    0 -0.47372150865E+01  0.46558369625E+01  0.21479383696E+00  0.66456121803E+01  0.51100000000E-03 0.  1.
        -12    1    3    3    0    0 -0.26205850764E+02  0.86832753096E+01 -0.26375642300E+01  0.27732699642E+02  0.00000000000E+00 0.  1.
</event>
<event>
 7    1  0.1385632E-008  0.4614232E+02  0.7816164E-02  0.1320468E+00
        -11   -1    0    0    0    0  0.00000000000E+00  0.00000000000E+00  0.45593999997E+02  0.45594000000E+02  0.51100000000E-03 0.  1.
         11   -1    0    0    0    0 -0.00000000000E+00 -0.00000000000E+00 -0.45593999997E+02  0.45594000000E+02  0.51100000000E-03 0. -1.
    9900012    2    1    2    0    0 -0.27249266569E+02  0.31574795916E+02 -0.17018313195E+02  0.46142320410E+02  0.10000024157E+02 0.  0.
         12    1    1    2    0    0  0.27249266569E+02 -0.31574795916E+02  0.17018313195E+02  0.45045679590E+02  0.00000000000E+00 0. -1.
         11    1    3    3    0    0  0.90333894621E-01  0.30565462167E+01 -0.16459446452E+01  0.34727178151E+01  0.51100000000E-03 0. -1.
        -11    1    3    3    0    0 -0.22180260162E+02  0.25524301357E+02 -0.12528881235E+02  0.36061430447E+02  0.51100000000E-03 0.  1.
         12    1    3    3    0    0 -0.51593403023E+01  0.29939483417E+01 -0.28434873156E+01  0.66081721483E+01  0.00000000000E+00 0. -1.
</event>
<event>
 7    1  0.1385632E-008  0.4614232E+02  0.7816164E-02  0.1320468E+00
        -11   -1    0    0    0    0  0.00000000000E+00  0.00000000000E+00  0.45593999997E+02  0.45594000000E+02  0.51100000000E-03 0. -1.
         11   -1    0    0    0    0 -0.00000000000E+00 -0.00000000000E+00 -0.45593999997E+02  0.45594000000E+02  0.51100000000E-03 0.  1.
    9900012    2    1    2    0    0 -0.38368552347E+02 -0.10499143920E+02 -0.21136121890E+02  0.46142317846E+02  0.10000000770E+02 0.  0.
         12    1    1    2    0    0  0.38368552347E+02  0.10499143920E+02  0.21136121890E+02  0.45045682154E+02  0.00000000000E+00 0. -1.
         11    1    3    3    0    0 -0.55861721037E+01 -0.35752671201E+01 -0.39644221548E+01  0.77268685142E+01  0.51100000000E-03 0. -1.
        -11    1    3    3    0    0 -0.56970188418E+01  0.16870470749E+01 -0.30889571642E+01  0.66965519590E+01  0.51100000000E-03 0.  1.
         12    1    3    3    0    0 -0.27085361401E+02 -0.86109238746E+01 -0.14082742571E+02  0.31718897372E+02  0.00000000000E+00 0. -1.
</event>
<event>
 7    1  0.1385632E-008  0.4614232E+02  0.7816164E-02  0.1320468E+00
        -11   -1    0    0    0    0  0.00000000000E+00  0.00000000000E+00  0.45593999997E+02  0.45594000000E+02  0.51100000000E-03 0.  1.
         11   -1    0    0    0    0 -0.00000000000E+00 -0.00000000000E+00 -0.45593999997E+02  0.45594000000E+02  0.51100000000E-03 0. -1.
    9900012    2    1    2    0    0 -0.27344250429E+02 -0.13032190554E+02  0.33340180466E+02  0.46142315904E+02  0.99999830689E+01 0.  0.
         12    1    1    2    0    0  0.27344250429E+02  0.13032190554E+02 -0.33340180466E+02  0.45045684096E+02  0.00000000000E+00 0. -1.
         11    1    3    3    0    0 -0.19709112692E+01 -0.25890205532E+01  0.58376989439E+01  0.66832812208E+01  0.51100000000E-03 0. -1.
        -11    1    3    3    0    0 -0.41330898495E+01 -0.18904240037E+01  0.87601433393E+01  0.98689536529E+01  0.51100000000E-03 0.  1.
         12    1    3    3    0    0 -0.21240249310E+02 -0.85527459973E+01  0.18742338183E+02  0.29590081031E+02  0.00000000000E+00 0. -1.
</event>
<event>
 7    1  0.1385632E-008  0.4614232E+02  0.7816164E-02  0.1320468E+00
        -11   -1    0    0    0    0  0.00000000000E+00  0.00000000000E+00  0.45593999997E+02  0.45594000000E+02  0.51100000000E-03 0. -1.
         11   -1    0    0    0    0 -0.00000000000E+00 -0.00000000000E+00 -0.45593999997E+02  0.45594000000E+02  0.51100000000E-03 0.  1.
    9900012    2    1    2    0    0 -0.22836516915E+02  0.28062358254E+02 -0.26834885049E+02  0.46142317508E+02  0.99999976932E+01 0.  0.
         12    1    1    2    0    0  0.22836516915E+02 -0.28062358254E+02  0.26834885049E+02  0.45045682492E+02  0.00000000000E+00 0. -1.
         11    1    3    3    0    0 -0.67053590465E+01  0.99279072112E+01 -0.66687159346E+01  0.13711198125E+02  0.51100000000E-03 0. -1.
        -11    1    3    3    0    0 -0.94317659467E+01  0.65716792153E+01 -0.12674472810E+02  0.17111032635E+02  0.51100000000E-03 0.  1.
        -12    1    3    3    0    0 -0.66993919220E+01  0.11562771827E+02 -0.74916963045E+01  0.15320086748E+02  0.00000000000E+00 0.  1.
</event>
<event>
 7    1  0.1385632E-008  0.4614232E+02  0.7816164E-02  0.1320468E+00
        -11   -1    0    0    0    0  0.00000000000E+00  0.00000000000E+00  0.45593999997E+02  0.45594000000E+02  0.51100000000E-03 0.  1.
         11   -1    0    0    0    0 -0.00000000000E+00 -0.00000000000E+00 -0.45593999997E+02  0.45594000000E+02  0.51100000000E-03 0. -1.
    9900012    2    1    2    0    0 -0.19135425439E+02 -0.40581011528E+02  0.40162792226E+01  0.46142317608E+02  0.99999986019E+01 0.  0.
         12    1    1    2    0    0  0.19135425439E+02  0.40581011528E+02 -0.40162792226E+01  0.45045682392E+02  0.00000000000E+00 0. -1.
         11    1    3    3    0    0 -0.30817122904E+01 -0.43506437009E+01 -0.22374494869E+01  0.57819747250E+01  0.51100000000E-03 0. -1.
        -11    1    3    3    0    0 -0.12260178605E+02 -0.26227119635E+02  0.26542609961E+01  0.29072648408E+02  0.51100000000E-03 0.  1.
         12    1    3    3    0    0 -0.37935345439E+01 -0.10003248193E+02  0.35994677134E+01  0.11287694475E+02  0.00000000000E+00 0. -1.
</event>
<event>
 7    1  0.1385632E-008  0.4614232E+02  0.7816164E-02  0.1320468E+00
        -11   -1    0    0    0    0  0.00000000000E+00  0.00000000000E+00  0.45593999997E+02  0.45594000000E+02  0.51100000000E-03 0. -1.
         11   -1    0    0    0    0 -0.00000000000E+00 -0.00000000000E+00 -0.45593999997E+02  0.45594000000E+02  0.51100000000E-03 0.  1.
    9900012    2    1    2    0    0 -0.11181629193E+02 -0.41693199671E+02 -0.12874846700E+02  0.46142318656E+02  0.10000008159E+02 0.  0.
         12    1    1    2    0    0  0.11181629193E+02  0.41693199671E+02  0.12874846700E+02  0.45045681344E+02  0.00000000000E+00 0. -1.
         11    1    3    3    0    0 -0.26177074854E+01 -0.41337513645E+01  0.86349747062E+00  0.49684928264E+01  0.51100000000E-03 0. -1.
        -11    1    3    3    0    0 -0.42316437620E+01 -0.15153149272E+02 -0.79619455852E+01  0.17632847744E+02  0.51100000000E-03 0.  1.
         12    1    3    3    0    0 -0.43322779457E+01 -0.22406299034E+02 -0.57763985857E+01  0.23540978086E+02  0.00000000000E+00 0. -1.
</event>
<event>
 7    1  0.1385632E-008  0.4614232E+02  0.7816164E-02  0.1320468E+00
        -11   -1    0    0    0    0  0.00000000000E+00  0.00000000000E+00  0.45593999997E+02  0.45594000000E+02  0.51100000000E-03 0.  1.
         11   -1    0    0    0    0 -0.00000000000E+00 -0.00000000000E+00 -0.45593999997E+02  0.45594000000E+02  0.51100000000E-03 0. -1.
    9900012    2    1    2    0    0 -0.94083762125E-01  0.34449364099E+02  0.29023196764E+02  0.46142317755E+02  0.99999999421E+01 0.  0.
         12    1    1    2    0    0  0.94083762125E-01 -0.34449364099E+02 -0.29023196764E+02  0.45045682245E+02  0.00000000000E+00 0. -1.
         11    1    3    3    0    0  0.71423781623E+00  0.11198410207E+01  0.30971790064E+01  0.33699699745E+01  0.51100000000E-03 0. -1.
        -11    1    3    3    0    0 -0.23080692857E+01  0.30498343868E+02  0.21853260164E+02  0.37590439510E+02  0.51100000000E-03 0.  1.
         12    1    3    3    0    0  0.14997477074E+01  0.28311792099E+01  0.40727575937E+01  0.51819082703E+01  0.00000000000E+00 0. -1.
</event>
<event>
 7    1  0.1385632E-008  0.4614232E+02  0.7816164E-02  0.1320468E+00
        -11   -1    0    0    0    0  0.00000000000E+00  0.00000000000E+00  0.45593999997E+02  0.45594000000E+02  0.51100000000E-03 0. -1.
         11   -1    0    0    0    0 -0.00000000000E+00 -0.00000000000E+00 -0.45593999997E+02  0.45594000000E+02  0.51100000000E-03 0.  1.
    9900012    2    1    2    0    0  0.26211905466E+02  0.26170572219E+02  0.25634947850E+02  0.46142318857E+02  0.10000009992E+02 0.  0.
         12    1    1    2    0    0 -0.26211905466E+02 -0.26170572219E+02 -0.25634947850E+02  0.45045681143E+02  0.00000000000E+00 0. -1.
         11    1    3    3    0    0  0.30327068922E+01  0.24477404165E+00  0.33723812719E+01  0.45420459190E+01  0.51100000000E-03 0. -1.
        -11    1    3    3    0    0  0.20295639525E+02  0.24312120146E+02  0.21271020700E+02  0.38150340649E+02  0.51100000000E-03 0.  1.
        -12    1    3    3    0    0  0.28835590480E+01  0.16136780313E+01  0.99154587768E+00  0.34499322891E+01  0.00000000000E+00 0.  1.
</event>
<event>
 7    1  0.1385632E-008  0.4614232E+02  0.7816164E-02  0.1320468E+00
        -11   -1    0    0    0    0  0.00000000000E+00  0.00000000000E+00  0.45593999997E+02  0.45594000000E+02  0.51100000000E-03 0. -1.
         11   -1    0    0    0    0 -0.00000000000E+00 -0.00000000000E+00 -0.45593999997E+02  0.45594000000E+02  0.51100000000E-03 0.  1.
    9900012    2    1    2    0    0  0.28293668731E+02 -0.49820478480E+01 -0.34695258162E+02  0.46142318410E+02  0.10000005914E+02 0.  0.
         12    1    1    2    0    0 -0.28293668731E+02  0.49820478480E+01  0.34695258162E+02  0.45045681590E+02  0.00000000000E+00 0. -1.
         11    1    3    3    0    0  0.13899791000E+02  0.14400922799E+01 -0.20231323341E+02  0.24588300063E+02  0.51100000000E-03 0. -1.
        -11    1    3    3    0    0  0.31536756955E+01 -0.79403563311E+00 -0.42834347240E+01  0.53781015493E+01  0.51100000000E-03 0.  1.
         12    1    3    3    0    0  0.11240202035E+02 -0.56281044948E+01 -0.10180500098E+02  0.16175916797E+02  0.00000000000E+00 0. -1.
</event>
<event>
 7    1  0.1385632E-008  0.4614232E+02  0.7816164E-02  0.1320468E+00
        -11   -1    0    0    0    0  0.00000000000E+00  0.00000000000E+00  0.45593999997E+02  0.45594000000E+02  0.51100000000E-03 0.  1.
         11   -1    0    0    0    0 -0.00000000000E+00 -0.00000000000E+00 -0.45593999997E+02  0.45594000000E+02  0.51100000000E-03 0. -1.
    9900012    2    1    2    0    0  0.25510359645E+01 -0.15250548551E+02  0.42308705076E+02  0.46142317179E+02  0.99999946894E+01 0.  0.
         12    1    1    2    0    0 -0.25510359645E+01  0.15250548551E+02 -0.42308705076E+02  0.45045682821E+02  0.00000000000E+00 0. -1.
         11    1    3    3    0    0  0.62090578950E+01 -0.72498716979E+01  0.20060083383E+02  0.22215309702E+02  0.51100000000E-03 0. -1.
        -11    1    3    3    0    0 -0.95862644863E+00 -0.23992517478E+01  0.63107444289E+01  0.68191545756E+01  0.51100000000E-03 0.  1.
         12    1    3    3    0    0 -0.26993954819E+01 -0.56014251056E+01  0.15937877265E+02  0.17107852901E+02  0.00000000000E+00 0. -1.
</event>
<event>
 7    1  0.1385632E-008  0.4614232E+02  0.7816164E-02  0.1320468E+00
        -11   -1    0    0    0    0  0.00000000000E+00  0.00000000000E+00  0.45593999997E+02  0.45594000000E+02  0.51100000000E-03 0.  1.
         11   -1    0    0    0    0 -0.00000000000E+00 -0.00000000000E+00 -0.45593999997E+02  0.45594000000E+02  0.51100000000E-03 0. -1.
    9900012    2    1    2    0    0 -0.26719546410E+02 -0.31235624931E+02 -0.18425939341E+02  0.46142315792E+02  0.99999820437E+01 0.  0.
         12    1    1    2    0    0  0.26719546410E+02  0.31235624931E+02  0.18425939341E+02  0.45045684208E+02  0.00000000000E+00 0. -1.
         11    1    3    3    0    0 -0.16011662672E+02 -0.24740474949E+02 -0.15349110785E+02  0.33227392982E+02  0.51100000000E-03 0. -1.
        -11    1    3    3    0    0 -0.72114345864E+01 -0.40258260806E+01 -0.18816666036E+01  0.84706985482E+01  0.51100000000E-03 0.  1.
         12    1    3    3    0    0 -0.34964491511E+01 -0.24693239010E+01 -0.11951619527E+01  0.44442242616E+01  0.00000000000E+00 0. -1.
</event>
<event>
 7    1  0.1385632E-008  0.4614232E+02  0.7816164E-02  0.1320468E+00
        -11   -1    0    0    0    0  0.00000000000E+00  0.00000000000E+00  0.45593999997E+02  0.45594000000E+02  0.51100000000E-03 0.  1.
         11   -1    0    0    0    0 -0.00000000000E+00 -0.00000000000E+00 -0.45593999997E+02  0.45594000000E+02  0.51100000000E-03 0. -1.
    9900012    2    1    2    0    0 -0.48245805469E+01  0.39134731233E+02  0.21778651845E+02  0.46142318272E+02  0.10000004659E+02 0.  0.
         12    1    1    2    0    0  0.48245805469E+01 -0.39134731233E+02 -0.21778651845E+02  0.45045681728E+02  0.00000000000E+00 0. -1.
         11    1    3    3    0    0  0.48471104188E+00  0.23365160120E+00  0.10859122961E+01  0.12119173408E+01  0.51100000000E-03 0. -1.
        -11    1    3    3    0    0 -0.13893310066E+01  0.76777053992E+01  0.11481423535E+01  0.78864207323E+01  0.51100000000E-03 0.  1.
        -12    1    3    3    0    0 -0.39199605822E+01  0.31223374233E+02  0.19544597195E+02  0.37043980199E+02  0.00000000000E+00 0.  1.
</event>
<event>
 7    1  0.1385632E-008  0.4614232E+02  0.7816164E-02  0.1320468E+00
        -11   -1    0    0    0    0  0.00000000000E+00  0.00000000000E+00  0.45593999997E+02  0.45594000000E+02  0.51100000000E-03 0.  1.
         11   -1    0    0    0    0 -0.00000000000E+00 -0.00000000000E+00 -0.45593999997E+02  0.45594000000E+02  0.51100000000E-03 0. -1.
    9900012    2    1    2    0    0  0.55718956348E+01  0.14050152640E+02  0.42434192353E+02  0.46142317734E+02  0.99999997520E+01 0.  0.
         12    1    1    2    0    0 -0.55718956348E+01 -0.14050152640E+02 -0.42434192353E+02  0.45045682266E+02  0.00000000000E+00 0. -1.
         11    1    3    3    0    0 -0.30890821905E+00 -0.88855828479E+00  0.71601555356E+00  0.11822176819E+01  0.51100000000E-03 0. -1.
        -11    1    3    3    0    0  0.66719718420E+01  0.13908798477E+02  0.37582145920E+02  0.40624962468E+02  0.51100000000E-03 0.  1.
        -12    1    3    3    0    0 -0.79116798821E+00  0.10299124482E+01  0.41360308790E+01  0.43351375836E+01  0.00000000000E+00 0.  1.
</event>
<event>
 7    1  0.1385632E-008  0.4614232E+02  0.7816164E-02  0.1320468E+00
        -11   -1    0    0    0    0  0.00000000000E+00  0.00000000000E+00  0.45593999997E+02  0.45594000000E+02  0.51100000000E-03 0. -1.
         11   -1    0    0    0    0 -0.00000000000E+00 -0.00000000000E+00 -0.45593999997E+02  0.45594000000E+02  0.51100000000E-03 0.  1.
    9900012    2    1    2    0    0 -0.20837519304E+02  0.38390369821E+02  0.11004127189E+02  0.46142317400E+02  0.99999967063E+01 0.  0.
         12    1    1    2    0    0  0.20837519304E+02 -0.38390369821E+02 -0.11004127189E+02  0.45045682600E+02  0.00000000000E+00 0. -1.
         11    1    3    3    0    0  0.94844943318E+00  0.24374582117E+01  0.13855290865E+00  0.26191517769E+01  0.51100000000E-03 0. -1.
        -11    1    3    3    0    0 -0.14661978860E+02  0.24964993766E+02  0.88441440500E+01  0.30272816554E+02  0.51100000000E-03 0.  1.
         12    1    3    3    0    0 -0.71239898766E+01  0.10987917843E+02  0.20214302306E+01  0.13250349069E+02  0.00000000000E+00 0. -1.
</event>
<event>
 7    1  0.1385632E-008  0.4614232E+02  0.7816164E-02  0.1320468E+00
        -11   -1    0    0    0    0  0.00000000000E+00  0.00000000000E+00  0.45593999997E+02  0.45594000000E+02  0.51100000000E-03 0.  1.
         11   -1    0    0    0    0 -0.00000000000E+00 -0.00000000000E+00 -0.45593999997E+02  0.45594000000E+02  0.51100000000E-03 0. -1.
    9900012    2    1    2    0    0  0.64180849019E+01 -0.42480276564E+02  0.13540599289E+02  0.46142317190E+02  0.99999947893E+01 0.  0.
         12    1    1    2    0    0 -0.64180849019E+01  0.42480276564E+02 -0.13540599289E+02  0.45045682810E+02  0.00000000000E+00 0. -1.
         11    1    3    3    0    0  0.14507119757E+01 -0.17482875615E+02  0.10063491792E+02  0.20224474587E+02  0.51100000000E-03 0. -1.
        -11    1    3    3    0    0  0.19306291985E+01 -0.16328537430E+02  0.30483871926E+01  0.16722473754E+02  0.51100000000E-03 0.  1.
        -12    1    3    3    0    0  0.30367437278E+01 -0.86688635183E+01  0.42872030456E+00  0.91953688489E+01  0.00000000000E+00 0.  1.
</event>
<event>
 7    1  0.1385632E-008  0.4614232E+02  0.7816164E-02  0.1320468E+00
        -11   -1    0    0    0    0  0.00000000000E+00  0.00000000000E+00  0.45593999997E+02  0.45594000000E+02  0.51100000000E-03 0.  1.
         11   -1    0    0    0    0 -0.00000000000E+00 -0.00000000000E+00 -0.45593999997E+02  0.45594000000E+02  0.51100000000E-03 0. -1.
    9900012    2    1    2    0    0 -0.35088414357E+02  0.28247296184E+02  0.83384165073E-01  0.46142317446E+02  0.99999971301E+01 0.  0.
         12    1    1    2    0    0  0.35088414357E+02 -0.28247296184E+02 -0.83384165073E-01  0.45045682554E+02  0.00000000000E+00 0. -1.
         11    1    3    3    0    0 -0.14599089931E+02  0.83289988940E+01  0.13475456965E+01  0.16861836467E+02  0.51100000000E-03 0. -1.
        -11    1    3    3    0    0 -0.15080050146E+02  0.17265287227E+02 -0.27134417445E+01  0.23083778326E+02  0.51100000000E-03 0.  1.
        -12    1    3    3    0    0 -0.54092742807E+01  0.26530100626E+01  0.14492802131E+01  0.61967026532E+01  0.00000000000E+00 0.  1.
</event>
<event>
 7    1  0.1385632E-008  0.4614232E+02  0.7816164E-02  0.1320468E+00
        -11   -1    0    0    0    0  0.00000000000E+00  0.00000000000E+00  0.45593999997E+02  0.45594000000E+02  0.51100000000E-03 0. -1.
         11   -1    0    0    0    0 -0.00000000000E+00 -0.00000000000E+00 -0.45593999997E+02  0.45594000000E+02  0.51100000000E-03 0.  1.
    9900012    2    1    2    0    0  0.39358423232E+02 -0.13865590765E+02 -0.16963884285E+02  0.46142318113E+02  0.10000003213E+02 0.  0.
         12    1    1    2    0    0 -0.39358423232E+02  0.13865590765E+02  0.16963884285E+02  0.45045681887E+02  0.00000000000E+00 0. -1.
         11    1    3    3    0    0  0.28498943198E+02 -0.73801804369E+01 -0.13483329860E+02  0.32379885902E+02  0.51100000000E-03 0. -1.
        -11    1    3    3    0    0  0.10755706452E+02 -0.54310620821E+01 -0.24728284859E+01  0.12300265754E+02  0.51100000000E-03 0.  1.
         12    1    3    3    0    0  0.10377358182E+00 -0.10543482457E+01 -0.10077259399E+01  0.14621664575E+01  0.00000000000E+00 0. -1.
</event>
<event>
 7    1  0.1385632E-008  0.4614232E+02  0.7816164E-02  0.1320468E+00
        -11   -1    0    0    0    0  0.00000000000E+00  0.00000000000E+00  0.45593999997E+02  0.45594000000E+02  0.51100000000E-03 0.  1.
         11   -1    0    0    0    0 -0.00000000000E+00 -0.00000000000E+00 -0.45593999997E+02  0.45594000000E+02  0.51100000000E-03 0. -1.
    9900012    2    1    2    0    0 -0.10762505143E+02  0.81173096783E+01  0.42981288582E+02  0.46142318725E+02  0.10000008791E+02 0.  0.
         12    1    1    2    0    0  0.10762505143E+02 -0.81173096783E+01 -0.42981288582E+02  0.45045681275E+02  0.00000000000E+00 0. -1.
         11    1    3    3    0    0 -0.82319794561E+01  0.69380074662E+01  0.31223824412E+02  0.33027695114E+02  0.51100000000E-03 0. -1.
        -11    1    3    3    0    0 -0.99043977964E+00  0.25842122410E+01  0.10037532036E+02  0.10412068646E+02  0.51100000000E-03 0.  1.
         12    1    3    3    0    0 -0.15400859076E+01 -0.14049100289E+01  0.17199321333E+01  0.27025549644E+01  0.00000000000E+00 0. -1.
</event>
<event>
 7    1  0.1385632E-008  0.4614232E+02  0.7816164E-02  0.1320468E+00
        -11   -1    0    0    0    0  0.00000000000E+00  0.00000000000E+00  0.45593999997E+02  0.45594000000E+02  0.51100000000E-03 0.  1.
         11   -1    0    0    0    0 -0.00000000000E+00 -0.00000000000E+00 -0.45593999997E+02  0.45594000000E+02  0.51100000000E-03 0. -1.
    9900012    2    1    2    0    0  0.18115674611E+02  0.13328288024E+02  0.39029380629E+02  0.46142317848E+02  0.10000000795E+02 0.  0.
         12    1    1    2    0    0 -0.18115674611E+02 -0.13328288024E+02 -0.39029380629E+02  0.45045682152E+02  0.00000000000E+00 0. -1.
         11    1    3    3    0    0  0.20749499917E+00 -0.88130109494E+00  0.34640437077E+01  0.35804112703E+01  0.51100000000E-03 0. -1.
        -11    1    3    3    0    0  0.76868394633E+01  0.81722572617E+01  0.13956042832E+02  0.17906546889E+02  0.51100000000E-03 0.  1.
        -12    1    3    3    0    0  0.10221340149E+02  0.60373318569E+01  0.21609294089E+02  0.24655359689E+02  0.00000000000E+00 0.  1.
</event>
<event>
 7    1  0.1385632E-008  0.4614232E+02  0.7816164E-02  0.1320468E+00
        -11   -1    0    0    0    0  0.00000000000E+00  0.00000000000E+00  0.45593999997E+02  0.45594000000E+02  0.51100000000E-03 0.  1.
         11   -1    0    0    0    0 -0.00000000000E+00 -0.00000000000E+00 -0.45593999997E+02  0.45594000000E+02  0.51100000000E-03 0. -1.
    9900012    2    1    2    0    0 -0.24733522684E+02 -0.78085524664E+01  0.36829238580E+02  0.46142318183E+02  0.10000003847E+02 0.  0.
         12    1    1    2    0    0  0.24733522684E+02  0.78085524664E+01 -0.36829238580E+02  0.45045681817E+02  0.00000000000E+00 0. -1.
         11    1    3    3    0    0 -0.82820506751E+01 -0.54354148075E+01  0.11836381590E+02  0.15434896402E+02  0.51100000000E-03 0. -1.
        -11    1    3    3    0    0 -0.15642921238E+02 -0.47844123704E+00  0.20743336316E+02  0.25984916637E+02  0.51100000000E-03 0.  1.
        -12    1    3    3    0    0 -0.80855077111E+00 -0.18946964218E+01  0.42495206738E+01  0.47225051442E+01  0.00000000000E+00 0.  1.
</event>
<event>
 7    1  0.1385632E-008  0.4614232E+02  0.7816164E-02  0.1320468E+00
        -11   -1    0    0    0    0  0.00000000000E+00  0.00000000000E+00  0.45593999997E+02  0.45594000000E+02  0.51100000000E-03 0. -1.
         11   -1    0    0    0    0 -0.00000000000E+00 -0.00000000000E+00 -0.45593999997E+02  0.45594000000E+02  0.51100000000E-03 0.  1.
    9900012    2    1    2    0    0 -0.36625290182E+02  0.23943035398E+02 -0.10697327684E+02  0.46142316028E+02  0.99999841927E+01 0.  0.
         12    1    1    2    0    0  0.36625290182E+02 -0.23943035398E+02  0.10697327684E+02  0.45045683972E+02  0.00000000000E+00 0. -1.
         11    1    3    3    0    0 -0.18307372687E+02  0.12531803932E+02 -0.32390175144E+01  0.22420910758E+02  0.51100000000E-03 0. -1.
        -11    1    3    3    0    0 -0.15811248699E+02  0.89367027392E+01 -0.36337673251E+01  0.18522000608E+02  0.51100000000E-03 0.  1.
         12    1    3    3    0    0 -0.25066687955E+01  0.24745287268E+01 -0.38245428447E+01  0.51994046622E+01  0.00000000000E+00 0. -1.
</event>
<event>
 7    1  0.1385632E-008  0.4614232E+02  0.7816164E-02  0.1320468E+00
        -11   -1    0    0    0    0  0.00000000000E+00  0.00000000000E+00  0.45593999997E+02  0.45594000000E+02  0.51100000000E-03 0.  1.
         11   -1    0    0    0    0 -0.00000000000E+00 -0.00000000000E+00 -0.45593999997E+02  0.45594000000E+02  0.51100000000E-03 0. -1.
    9900012    2    1    2    0    0 -0.32073089252E+01  0.39953580033E+02  0.20555726289E+02  0.46142320171E+02  0.10000021974E+02 0.  0.
         12    1    1    2    0    0  0.32073089252E+01 -0.39953580033E+02 -0.20555726289E+02  0.45045679829E+02  0.00000000000E+00 0. -1.
         11    1    3    3    0    0  0.73751015811E+00  0.96083066330E+00  0.19537320231E-01  0.12114036342E+01  0.51100000000E-03 0. -1.
        -11    1    3    3    0    0  0.17511969790E+00  0.20168339220E+02  0.68707406597E+01  0.21307267569E+02  0.51100000000E-03 0.  1.
        -12    1    3    3    0    0 -0.41199387812E+01  0.18824410150E+02  0.13665448309E+02  0.23623648968E+02  0.00000000000E+00 0.  1.
</event>
<event>
 7    1  0.1385632E-008  0.4614231E+02  0.7816164E-02  0.1320468E+00
        -11   -1    0    0    0    0  0.00000000000E+00  0.00000000000E+00  0.45593999997E+02  0.45594000000E+02  0.51100000000E-03 0.  1.
         11   -1    0    0    0    0 -0.00000000000E+00 -0.00000000000E+00 -0.45593999997E+02  0.45594000000E+02  0.51100000000E-03 0. -1.
    9900012    2    1    2    0    0 -0.39198322285E+02 -0.11508930112E+01  0.22164863838E+02  0.46142309711E+02  0.99999265913E+01 0.  0.
         12    1    1    2    0    0  0.39198322285E+02  0.11508930112E+01 -0.22164863838E+02  0.45045690289E+02  0.00000000000E+00 0. -1.
         11    1    3    3    0    0 -0.45859049422E+01  0.11952406435E+01  0.54846269214E+01  0.72484658420E+01  0.51100000000E-03 0. -1.
        -11    1    3    3    0    0 -0.21649862139E+02 -0.26309459466E+01  0.13107442614E+02  0.25444910284E+02  0.51100000000E-03 0.  1.
         12    1    3    3    0    0 -0.12962555203E+02  0.28481229197E+00  0.35727943028E+01  0.13448933585E+02  0.00000000000E+00 0. -1.
</event>
<event>
 7    1  0.1385632E-008  0.4614232E+02  0.7816164E-02  0.1320468E+00
        -11   -1    0    0    0    0  0.00000000000E+00  0.00000000000E+00  0.45593999997E+02  0.45594000000E+02  0.51100000000E-03 0.  1.
         11   -1    0    0    0    0 -0.00000000000E+00 -0.00000000000E+00 -0.45593999997E+02  0.45594000000E+02  0.51100000000E-03 0. -1.
    9900012    2    1    2    0    0  0.19723401231E+02  0.39042658955E+02 -0.10759723981E+02  0.46142318358E+02  0.10000005447E+02 0.  0.
         12    1    1    2    0    0 -0.19723401231E+02 -0.39042658955E+02  0.10759723981E+02  0.45045681642E+02  0.00000000000E+00 0. -1.
         11    1    3    3    0    0  0.63467658992E+01  0.15201381581E+02 -0.47764846262E+01  0.17151625142E+02  0.51100000000E-03 0. -1.
        -11    1    3    3    0    0  0.13961502563E+02  0.22880133419E+02 -0.67361218722E+01  0.27636920907E+02  0.51100000000E-03 0.  1.
         12    1    3    3    0    0 -0.58486723167E+00  0.96114395459E+00  0.75288251735E+00  0.13537723092E+01  0.00000000000E+00 0. -1.
</event>
<event>
 7    1  0.1385632E-008  0.4614232E+02  0.7816164E-02  0.1320468E+00
        -11   -1    0    0    0    0  0.00000000000E+00  0.00000000000E+00  0.45593999997E+02  0.45594000000E+02  0.51100000000E-03 0.  1.
         11   -1    0    0    0    0 -0.00000000000E+00 -0.00000000000E+00 -0.45593999997E+02  0.45594000000E+02  0.51100000000E-03 0. -1.
    9900012    2    1    2    0    0 -0.34084376133E+02  0.27014811238E+02  0.11728970817E+02  0.46142317864E+02  0.10000000942E+02 0.  0.
         12    1    1    2    0    0  0.34084376133E+02 -0.27014811238E+02 -0.11728970817E+02  0.45045682136E+02  0.00000000000E+00 0. -1.
         11    1    3    3    0    0 -0.13593865135E+02  0.83671356378E+01  0.13270066445E+00  0.15963074197E+02  0.51100000000E-03 0. -1.
        -11    1    3    3    0    0 -0.14208105717E+02  0.13713275344E+02  0.95402467492E+01  0.21930355606E+02  0.51100000000E-03 0.  1.
        -12    1    3    3    0    0 -0.62824052819E+01  0.49344002564E+01  0.20560234032E+01  0.82488880615E+01  0.00000000000E+00 0.  1.
</event>
<event>
 7    1  0.1385632E-008  0.4614232E+02  0.7816164E-02  0.1320468E+00
        -11   -1    0    0    0    0  0.00000000000E+00  0.00000000000E+00  0.45593999997E+02  0.45594000000E+02  0.51100000000E-03 0. -1.
         11   -1    0    0    0    0 -0.00000000000E+00 -0.00000000000E+00 -0.45593999997E+02  0.45594000000E+02  0.51100000000E-03 0.  1.
    9900012    2    1    2    0    0 -0.33826265058E+02  0.29026779457E+02 -0.65071851573E+01  0.46142316610E+02  0.99999895018E+01 0.  0.
         12    1    1    2    0    0  0.33826265058E+02 -0.29026779457E+02  0.65071851573E+01  0.45045683390E+02  0.00000000000E+00 0. -1.
         11    1    3    3    0    0 -0.17400059259E+02  0.12589186225E+02  0.90997177401E+00  0.21495993136E+02  0.51100000000E-03 0. -1.
        -11    1    3    3    0    0 -0.10844941861E+02  0.13076853615E+02 -0.53840133329E+01  0.17821460778E+02  0.51100000000E-03 0.  1.
        -12    1    3    3    0    0 -0.55812639391E+01  0.33607396171E+01 -0.20331435985E+01  0.68248626963E+01  0.00000000000E+00 0.  1.
</event>
<event>
 7    1  0.1385632E-008  0.4614232E+02  0.7816164E-02  0.1320468E+00
        -11   -1    0    0    0    0  0.00000000000E+00  0.00000000000E+00  0.45593999997E+02  0.45594000000E+02  0.51100000000E-03 0. -1.
         11   -1    0    0    0    0 -0.00000000000E+00 -0.00000000000E+00 -0.45593999997E+02  0.45594000000E+02  0.51100000000E-03 0.  1.
    9900012    2    1    2    0    0 -0.25905520976E+02  0.32644302527E+02 -0.17098745566E+02  0.46142316473E+02  0.99999882510E+01 0.  0.
         12    1    1    2    0    0  0.25905520976E+02 -0.32644302527E+02  0.17098745566E+02  0.45045683527E+02  0.00000000000E+00 0. -1.
         11    1    3    3    0    0 -0.10378924624E+02  0.10348780667E+02 -0.39579500787E+01  0.15181722785E+02  0.51100000000E-03 0. -1.
        -11    1    3    3    0    0 -0.14686769429E+02  0.16150604144E+02 -0.10370357308E+02  0.24167902711E+02  0.51100000000E-03 0.  1.
        -12    1    3    3    0    0 -0.83982692261E+00  0.61449177160E+01 -0.27704381792E+01  0.67926909764E+01  0.00000000000E+00 0.  1.
</event>
<event>
 7    1  0.1385632E-008  0.4614232E+02  0.7816164E-02  0.1320468E+00
        -11   -1    0    0    0    0  0.00000000000E+00  0.00000000000E+00  0.45593999997E+02  0.45594000000E+02  0.51100000000E-03 0. -1.
         11   -1    0    0    0    0 -0.00000000000E+00 -0.00000000000E+00 -0.45593999997E+02  0.45594000000E+02  0.51100000000E-03 0.  1.
    9900012    2    1    2    0    0  0.51512066673E+01  0.44252556660E+02 -0.66550607632E+01  0.46142317246E+02  0.99999952987E+01 0.  0.
         12    1    1    2    0    0 -0.51512066673E+01 -0.44252556660E+02  0.66550607632E+01  0.45045682754E+02  0.00000000000E+00 0. -1.
         11    1    3    3    0    0  0.32196456410E+00  0.22565845054E+02 -0.38632986996E+01  0.22896421146E+02  0.51100000000E-03 0. -1.
        -11    1    3    3    0    0  0.21957671986E+01  0.19401299847E+02 -0.17334648480E+01  0.19601957300E+02  0.51100000000E-03 0.  1.
         12    1    3    3    0    0  0.26334749046E+01  0.22854117583E+01 -0.10582972156E+01  0.36439387995E+01  0.00000000000E+00 0. -1.
</event>
<event>
 7    1  0.1385632E-008  0.4614232E+02  0.7816164E-02  0.1320468E+00
        -11   -1    0    0    0    0  0.00000000000E+00  0.00000000000E+00  0.45593999997E+02  0.45594000000E+02  0.51100000000E-03 0.  1.
         11   -1    0    0    0    0 -0.00000000000E+00 -0.00000000000E+00 -0.45593999997E+02  0.45594000000E+02  0.51100000000E-03 0. -1.
    9900012    2    1    2    0    0 -0.33201809902E+01  0.35615010873E+02  0.27379933091E+02  0.46142319437E+02  0.10000015284E+02 0.  0.
         12    1    1    2    0    0  0.33201809902E+01 -0.35615010873E+02 -0.27379933091E+02  0.45045680563E+02  0.00000000000E+00 0. -1.
         11    1    3    3    0    0  0.12412903377E+01  0.47912408529E+01  0.70445490648E+00  0.49993047106E+01  0.51100000000E-03 0. -1.
        -11    1    3    3    0    0 -0.48013841372E+01  0.22986205801E+02  0.20022900698E+02  0.30859933560E+02  0.51100000000E-03 0.  1.
        -12    1    3    3    0    0  0.23991280935E+00  0.78375642197E+01  0.66525774866E+01  0.10283081166E+02  0.00000000000E+00 0.  1.
</event>
<event>
 7    1  0.1385632E-008  0.4614232E+02  0.7816164E-02  0.1320468E+00
        -11   -1    0    0    0    0  0.00000000000E+00  0.00000000000E+00  0.45593999997E+02  0.45594000000E+02  0.51100000000E-03 0. -1.
         11   -1    0    0    0    0 -0.00000000000E+00 -0.00000000000E+00 -0.45593999997E+02  0.45594000000E+02  0.51100000000E-03 0.  1.
    9900012    2    1    2    0    0 -0.25267984938E+02  0.35206090057E+02 -0.12295266783E+02  0.46142318463E+02  0.10000006398E+02 0.  0.
         12    1    1    2    0    0  0.25267984938E+02 -0.35206090057E+02  0.12295266783E+02  0.45045681537E+02  0.00000000000E+00 0. -1.
         11    1    3    3    0    0 -0.92433879673E+01  0.12169203946E+02  0.10249531485E+00  0.15282023797E+02  0.51100000000E-03 0. -1.
        -11    1    3    3    0    0 -0.89063304186E+01  0.15593334054E+02 -0.76433471934E+01  0.19516545417E+02  0.51100000000E-03 0.  1.
         12    1    3    3    0    0 -0.71182665518E+01  0.74435520576E+01 -0.47544149043E+01  0.11343749249E+02  0.00000000000E+00 0. -1.
</event>
<event>
 7    1  0.1385632E-008  0.4614232E+02  0.7816164E-02  0.1320468E+00
        -11   -1    0    0    0    0  0.00000000000E+00  0.00000000000E+00  0.45593999997E+02  0.45594000000E+02  0.51100000000E-03 0.  1.
         11   -1    0    0    0    0 -0.00000000000E+00 -0.00000000000E+00 -0.45593999997E+02  0.45594000000E+02  0.51100000000E-03 0. -1.
    9900012    2    1    2    0    0 -0.42499801211E+02 -0.13904391472E+02  0.54358297287E+01  0.46142318187E+02  0.10000003882E+02 0.  0.
         12    1    1    2    0    0  0.42499801211E+02  0.13904391472E+02 -0.54358297287E+01  0.45045681813E+02  0.00000000000E+00 0. -1.
         11    1    3    3    0    0 -0.83979816887E+01 -0.10953913206E+00  0.17355574890E+01  0.85761445490E+01  0.51100000000E-03 0. -1.
        -11    1    3    3    0    0 -0.12679420911E+02 -0.41591604515E+01 -0.17332413508E+01  0.13456242274E+02  0.51100000000E-03 0.  1.
         12    1    3    3    0    0 -0.21422398612E+02 -0.96356918884E+01  0.54335135905E+01  0.24109931364E+02  0.00000000000E+00 0. -1.
</event>
<event>
 7    1  0.1385632E-008  0.4614231E+02  0.7816164E-02  0.1320468E+00
        -11   -1    0    0    0    0  0.00000000000E+00  0.00000000000E+00  0.45593999997E+02  0.45594000000E+02  0.51100000000E-03 0.  1.
         11   -1    0    0    0    0 -0.00000000000E+00 -0.00000000000E+00 -0.45593999997E+02  0.45594000000E+02  0.51100000000E-03 0. -1.
    9900012    2    1    2    0    0  0.23456202863E+02 -0.38265995362E+02  0.38254293850E+01  0.46142314704E+02  0.99999721211E+01 0.  0.
         12    1    1    2    0    0 -0.23456202863E+02  0.38265995362E+02 -0.38254293850E+01  0.45045685296E+02  0.00000000000E+00 0. -1.
         11    1    3    3    0    0  0.49030096600E+01 -0.12910088705E+02  0.33735342524E+00  0.13813895240E+02  0.51100000000E-03 0. -1.
        -11    1    3    3    0    0  0.84075734227E+01 -0.94931165369E+01 -0.17064335193E+01  0.12795251778E+02  0.51100000000E-03 0.  1.
        -12    1    3    3    0    0  0.10145619781E+02 -0.15862790120E+02  0.51945094791E+01  0.19533167686E+02  0.00000000000E+00 0.  1.
</event>
<event>
 7    1  0.1385632E-008  0.4614232E+02  0.7816164E-02  0.1320468E+00
        -11   -1    0    0    0    0  0.00000000000E+00  0.00000000000E+00  0.45593999997E+02  0.45594000000E+02  0.51100000000E-03 0.  1.
         11   -1    0    0    0    0 -0.00000000000E+00 -0.00000000000E+00 -0.45593999997E+02  0.45594000000E+02  0.51100000000E-03 0. -1.
    9900012    2    1    2    0    0 -0.37883798850E+02  0.24366912780E+02  0.42952577284E+00  0.46142321560E+02  0.10000034641E+02 0.  0.
         12    1    1    2    0    0  0.37883798850E+02 -0.24366912780E+02 -0.42952577284E+00  0.45045678440E+02  0.00000000000E+00 0. -1.
         11    1    3    3    0    0 -0.15437968102E+02  0.73648924547E+01  0.22179627192E+01  0.17247952309E+02  0.51100000000E-03 0. -1.
        -11    1    3    3    0    0 -0.55451422306E+01  0.13230586015E+01  0.52593054146E+00  0.57250056433E+01  0.51100000000E-03 0.  1.
        -12    1    3    3    0    0 -0.16900688518E+02  0.15678961723E+02 -0.23143674878E+01  0.23169363607E+02  0.00000000000E+00 0.  1.
</event>
<event>
 7    1  0.1385632E-008  0.4614232E+02  0.7816164E-02  0.1320468E+00
        -11   -1    0    0    0    0  0.00000000000E+00  0.00000000000E+00  0.45593999997E+02  0.45594000000E+02  0.51100000000E-03 0.  1.
         11   -1    0    0    0    0 -0.00000000000E+00 -0.00000000000E+00 -0.45593999997E+02  0.45594000000E+02  0.51100000000E-03 0. -1.
    9900012    2    1    2    0    0  0.12758347830E+02 -0.42342522053E+02  0.85702375855E+01  0.46142316684E+02  0.99999901795E+01 0.  0.
         12    1    1    2    0    0 -0.12758347830E+02  0.42342522053E+02 -0.85702375855E+01  0.45045683316E+02  0.00000000000E+00 0. -1.
         11    1    3    3    0    0  0.66599787847E+01 -0.13382694502E+02  0.59537688577E+01  0.16090344727E+02  0.51100000000E-03 0. -1.
        -11    1    3    3    0    0  0.59345184923E+00 -0.12528889827E+02  0.11272256255E+00  0.12543443388E+02  0.51100000000E-03 0.  1.
         12    1    3    3    0    0  0.55049171956E+01 -0.16430937724E+02  0.25037461653E+01  0.17508528570E+02  0.00000000000E+00 0. -1.
</event>
<event>
 7    1  0.1385632E-008  0.4614232E+02  0.7816164E-02  0.1320468E+00
        -11   -1    0    0    0    0  0.00000000000E+00  0.00000000000E+00  0.45593999997E+02  0.45594000000E+02  0.51100000000E-03 0.  1.
         11   -1    0    0    0    0 -0.00000000000E+00 -0.00000000000E+00 -0.45593999997E+02  0.45594000000E+02  0.51100000000E-03 0. -1.
    9900012    2    1    2    0    0  0.11729287765E+02 -0.42225441982E+02  0.10418698570E+02  0.46142318498E+02  0.10000006719E+02 0.  0.
         12    1    1    2    0    0 -0.11729287765E+02  0.42225441982E+02 -0.10418698570E+02  0.45045681502E+02  0.00000000000E+00 0. -1.
         11    1    3    3    0    0  0.66025133908E+00 -0.13514553531E+01  0.15942948492E+01  0.21918347861E+01  0.51100000000E-03 0. -1.
        -11    1    3    3    0    0  0.82591309303E+01 -0.16369340404E+02  0.26623787028E+01  0.18527191088E+02  0.51100000000E-03 0.  1.
        -12    1    3    3    0    0  0.28099054954E+01 -0.24504646226E+02  0.61620250183E+01  0.25423292624E+02  0.00000000000E+00 0.  1.
</event>
<event>
 7    1  0.1385632E-008  0.4614232E+02  0.7816164E-02  0.1320468E+00
        -11   -1    0    0    0    0  0.00000000000E+00  0.00000000000E+00  0.45593999997E+02  0.45594000000E+02  0.51100000000E-03 0.  1.
         11   -1    0    0    0    0 -0.00000000000E+00 -0.00000000000E+00 -0.45593999997E+02  0.45594000000E+02  0.51100000000E-03 0. -1.
    9900012    2    1    2    0    0  0.16007344536E+02 -0.39391320674E+02  0.14872868806E+02  0.46142318186E+02  0.10000003874E+02 0.  0.
         12    1    1    2    0    0 -0.16007344536E+02  0.39391320674E+02 -0.14872868806E+02  0.45045681814E+02  0.00000000000E+00 0. -1.
         11    1    3    3    0    0  0.10599095610E+02 -0.15014309969E+02  0.88638179204E+01  0.20404352476E+02  0.51100000000E-03 0. -1.
        -11    1    3    3    0    0  0.43761791784E+01 -0.18463318270E+02  0.52453054256E+01  0.19686500324E+02  0.51100000000E-03 0.  1.
         12    1    3    3    0    0  0.10320697479E+01 -0.59136924361E+01  0.76374546035E+00  0.60514653863E+01  0.00000000000E+00 0. -1.
</event>
<event>
 7    1  0.1385632E-008  0.4614232E+02  0.7816164E-02  0.1320468E+00
        -11   -1    0    0    0    0  0.00000000000E+00  0.00000000000E+00  0.45593999997E+02  0.45594000000E+02  0.51100000000E-03 0.  1.
         11   -1    0    0    0    0 -0.00000000000E+00 -0.00000000000E+00 -0.45593999997E+02  0.45594000000E+02  0.51100000000E-03 0. -1.
    9900012    2    1    2    0    0  0.27723497703E+02 -0.34793708131E+02 -0.70653278109E+01  0.46142319769E+02  0.10000018313E+02 0.  0.
         12    1    1    2    0    0 -0.27723497703E+02  0.34793708131E+02  0.70653278109E+01  0.45045680231E+02  0.00000000000E+00 0. -1.
         11    1    3    3    0    0  0.20462301602E+02 -0.21744268273E+02 -0.49521288285E+01  0.30266195165E+02  0.51100000000E-03 0. -1.
        -11    1    3    3    0    0  0.38634890082E+01 -0.49599623617E+01  0.13722539887E+01  0.64351266667E+01  0.51100000000E-03 0.  1.
         12    1    3    3    0    0  0.33977070932E+01 -0.80894774958E+01 -0.34854529711E+01  0.94409979377E+01  0.00000000000E+00 0. -1.
</event>
<event>
 7    1  0.1385632E-008  0.4614232E+02  0.7816164E-02  0.1320468E+00
        -11   -1    0    0    0    0  0.00000000000E+00  0.00000000000E+00  0.45593999997E+02  0.45594000000E+02  0.51100000000E-03 0.  1.
         11   -1    0    0    0    0 -0.00000000000E+00 -0.00000000000E+00 -0.45593999997E+02  0.45594000000E+02  0.51100000000E-03 0. -1.
    9900012    2    1    2    0    0 -0.26852991509E+01  0.25015377439E+02  0.37364869771E+02  0.46142318377E+02  0.10000005614E+02 0.  0.
         12    1    1    2    0    0  0.26852991509E+01 -0.25015377439E+02 -0.37364869771E+02  0.45045681623E+02  0.00000000000E+00 0. -1.
         11    1    3    3    0    0 -0.21067097993E+01  0.47349967328E+01  0.97128574306E+01  0.11008997228E+02  0.51100000000E-03 0. -1.
        -11    1    3    3    0    0  0.22024729246E+01  0.14126234345E+02  0.14580878591E+02  0.20420661216E+02  0.51100000000E-03 0.  1.
        -12    1    3    3    0    0 -0.27810622761E+01  0.61541463611E+01  0.13071133749E+02  0.14712659933E+02  0.00000000000E+00 0.  1.
</event>
<event>
 7    1  0.1385632E-008  0.4614232E+02  0.7816164E-02  0.1320468E+00
        -11   -1    0    0    0    0  0.00000000000E+00  0.00000000000E+00  0.45593999997E+02  0.45594000000E+02  0.51100000000E-03 0.  1.
         11   -1    0    0    0    0 -0.00000000000E+00 -0.00000000000E+00 -0.45593999997E+02  0.45594000000E+02  0.51100000000E-03 0. -1.
    9900012    2    1    2    0    0  0.23899802017E+02  0.23804601711E+01  0.38108351469E+02  0.46142316758E+02  0.99999908502E+01 0.  0.
         12    1    1    2    0    0 -0.23899802017E+02 -0.23804601711E+01 -0.38108351469E+02  0.45045683242E+02  0.00000000000E+00 0. -1.
         11    1    3    3    0    0  0.80731190377E+01  0.14091500737E+01  0.20880396526E+02  0.22431047998E+02  0.51100000000E-03 0. -1.
        -11    1    3    3    0    0  0.87340643031E+01 -0.10243148548E+01  0.78739044038E+01  0.11803875253E+02  0.51100000000E-03 0.  1.
         12    1    3    3    0    0  0.70926186764E+01  0.19956249523E+01  0.93540505390E+01  0.11907393507E+02  0.00000000000E+00 0. -1.
</event>
<event>
 7    1  0.1385632E-008  0.4614232E+02  0.7816164E-02  0.1320468E+00
        -11   -1    0    0    0    0  0.00000000000E+00  0.00000000000E+00  0.45593999997E+02  0.45594000000E+02  0.51100000000E-03 0.  1.
         11   -1    0    0    0    0 -0.00000000000E+00 -0.00000000000E+00 -0.45593999997E+02  0.45594000000E+02  0.51100000000E-03 0. -1.
    9900012    2    1    2    0    0  0.33545222030E+01 -0.44113973770E+02 -0.84745480962E+01  0.46142318004E+02  0.10000002219E+02 0.  0.
         12    1    1    2    0    0 -0.33545222030E+01  0.44113973770E+02  0.84745480962E+01  0.45045681996E+02  0.00000000000E+00 0. -1.
         11    1    3    3    0    0  0.35448120141E+01 -0.70363317506E+01 -0.18456892135E+01  0.80921088508E+01  0.51100000000E-03 0. -1.
        -11    1    3    3    0    0 -0.45492245971E+00 -0.14282443906E+02  0.69153296208E-01  0.14289854472E+02  0.51100000000E-03 0.  1.
        -12    1    3    3    0    0  0.26463264860E+00 -0.22795198113E+02 -0.66980121789E+01  0.23760354682E+02  0.00000000000E+00 0.  1.
</event>
<event>
 7    1  0.1385632E-008  0.4614232E+02  0.7816164E-02  0.1320468E+00
        -11   -1    0    0    0    0  0.00000000000E+00  0.00000000000E+00  0.45593999997E+02  0.45594000000E+02  0.51100000000E-03 0. -1.
         11   -1    0    0    0    0 -0.00000000000E+00 -0.00000000000E+00 -0.45593999997E+02  0.45594000000E+02  0.51100000000E-03 0.  1.
    9900012    2    1    2    0    0  0.30244514000E+02 -0.33195703780E+02 -0.35253543944E+01  0.46142317630E+02  0.99999988044E+01 0.  0.
         12    1    1    2    0    0 -0.30244514000E+02  0.33195703780E+02  0.35253543944E+01  0.45045682370E+02  0.00000000000E+00 0. -1.
         11    1    3    3    0    0  0.76219981182E+01 -0.90601421859E+01  0.31282973488E+01  0.12246112702E+02  0.51100000000E-03 0. -1.
        -11    1    3    3    0    0  0.16348545307E+02 -0.15388322185E+02 -0.50532626256E+01  0.23013275663E+02  0.51100000000E-03 0.  1.
         12    1    3    3    0    0  0.62739705750E+01 -0.87472394094E+01 -0.16003891176E+01  0.10882929265E+02  0.00000000000E+00 0. -1.
</event>
<event>
 7    1  0.1385632E-008  0.4614232E+02  0.7816164E-02  0.1320468E+00
        -11   -1    0    0    0    0  0.00000000000E+00  0.00000000000E+00  0.45593999997E+02  0.45594000000E+02  0.51100000000E-03 0.  1.
         11   -1    0    0    0    0 -0.00000000000E+00 -0.00000000000E+00 -0.45593999997E+02  0.45594000000E+02  0.51100000000E-03 0. -1.
    9900012    2    1    2    0    0  0.33202400465E+02 -0.27534683714E+02  0.12982881618E+02  0.46142318531E+02  0.10000007024E+02 0.  0.
         12    1    1    2    0    0 -0.33202400465E+02  0.27534683714E+02 -0.12982881618E+02  0.45045681469E+02  0.00000000000E+00 0. -1.
         11    1    3    3    0    0  0.97673491794E+01 -0.95704939626E+01  0.85466390108E+01  0.16125771402E+02  0.51100000000E-03 0. -1.
        -11    1    3    3    0    0  0.98170165341E+01 -0.88834449760E+01  0.89525751171E+00  0.13269924436E+02  0.51100000000E-03 0.  1.
         12    1    3    3    0    0  0.13618034751E+02 -0.90807447753E+01  0.35409850955E+01  0.16746622693E+02  0.00000000000E+00 0. -1.
</event>
<event>
 7    1  0.1390989E-008  0.4614232E+02  0.7816164E-02  0.1320468E+00
        -11   -1    0    0    0    0  0.00000000000E+00  0.00000000000E+00  0.45593999997E+02  0.45594000000E+02  0.51100000000E-03 0. -1.
         11   -1    0    0    0    0 -0.00000000000E+00 -0.00000000000E+00 -0.45593999997E+02  0.45594000000E+02  0.51100000000E-03 0.  1.
    9900012    2    1    2    0    0  0.38033129759E+02 -0.92690445661E+01 -0.22286307549E+02  0.46142315960E+02  0.99999835775E+01 0.  0.
         12    1    1    2    0    0 -0.38033129759E+02  0.92690445661E+01  0.22286307549E+02  0.45045684040E+02  0.00000000000E+00 0. -1.
         11    1    3    3    0    0  0.74650679303E+01 -0.36710832583E+00 -0.11921970975E+01  0.75685759498E+01  0.51100000000E-03 0. -1.
        -11    1    3    3    0    0  0.25818680534E+02 -0.53711282985E+01 -0.16948082077E+02  0.31347898974E+02  0.51100000000E-03 0.  1.
        -12    1    3    3    0    0  0.47493812951E+01 -0.35308079417E+01 -0.41460283745E+01  0.72258410368E+01  0.00000000000E+00 0.  1.
</event>
<event>
 7    1  0.1385632E-008  0.4614232E+02  0.7816164E-02  0.1320468E+00
        -11   -1    0    0    0    0  0.00000000000E+00  0.00000000000E+00  0.45593999997E+02  0.45594000000E+02  0.51100000000E-03 0. -1.
         11   -1    0    0    0    0 -0.00000000000E+00 -0.00000000000E+00 -0.45593999997E+02  0.45594000000E+02  0.51100000000E-03 0.  1.
    9900012    2    1    2    0    0 -0.21120669741E+02 -0.21060597884E+02 -0.33756214038E+02  0.46142318079E+02  0.10000002900E+02 0.  0.
         12    1    1    2    0    0  0.21120669741E+02  0.21060597884E+02  0.33756214038E+02  0.45045681921E+02  0.00000000000E+00 0. -1.
         11    1    3    3    0    0 -0.55542565278E+00  0.92633598674E+00 -0.94954664989E+00  0.14381359872E+01  0.51100000000E-03 0. -1.
        -11    1    3    3    0    0 -0.11502359391E+02 -0.12099883466E+02 -0.21065876303E+02  0.26879036369E+02  0.51100000000E-03 0.  1.
        -12    1    3    3    0    0 -0.90628846968E+01 -0.98870504049E+01 -0.11740791085E+02  0.17825145723E+02  0.00000000000E+00 0.  1.
</event>
<event>
 7    1  0.1385632E-008  0.4614232E+02  0.7816164E-02  0.1320468E+00
        -11   -1    0    0    0    0  0.00000000000E+00  0.00000000000E+00  0.45593999997E+02  0.45594000000E+02  0.51100000000E-03 0.  1.
         11   -1    0    0    0    0 -0.00000000000E+00 -0.00000000000E+00 -0.45593999997E+02  0.45594000000E+02  0.51100000000E-03 0. -1.
    9900012    2    1    2    0    0  0.29618277728E+02  0.33932869249E+02 -0.65698905881E+00  0.46142316237E+02  0.99999861024E+01 0.  0.
         12    1    1    2    0    0 -0.29618277728E+02 -0.33932869249E+02  0.65698905881E+00  0.45045683763E+02  0.00000000000E+00 0. -1.
         11    1    3    3    0    0  0.18935185771E+02  0.21210732314E+02 -0.86233756037E+00  0.28446090273E+02  0.51100000000E-03 0.  1.
        -11    1    3    3    0    0  0.21049675107E+01  0.58914396306E+01 -0.18834040419E+01  0.65335411676E+01  0.51100000000E-03 0. -1.
         12    1    3    3    0    0  0.85781244465E+01  0.68306973044E+01  0.20887525435E+01  0.11162684797E+02  0.00000000000E+00 0. -1.
</event>
<event>
 7    1  0.1385632E-008  0.4614232E+02  0.7816164E-02  0.1320468E+00
        -11   -1    0    0    0    0  0.00000000000E+00  0.00000000000E+00  0.45593999997E+02  0.45594000000E+02  0.51100000000E-03 0.  1.
         11   -1    0    0    0    0 -0.00000000000E+00 -0.00000000000E+00 -0.45593999997E+02  0.45594000000E+02  0.51100000000E-03 0. -1.
    9900012    2    1    2    0    0  0.51745028273E+01  0.14666122657E+01  0.44723450934E+02  0.46142317693E+02  0.99999993784E+01 0.  0.
         12    1    1    2    0    0 -0.51745028273E+01 -0.14666122657E+01 -0.44723450934E+02  0.45045682307E+02  0.00000000000E+00 0. -1.
         11    1    3    3    0    0  0.29673200370E+01 -0.37682591663E+00  0.12131340317E+02  0.12494655022E+02  0.51100000000E-03 0. -1.
        -11    1    3    3    0    0 -0.22089907439E+01 -0.13999309429E+01  0.14857616289E+02  0.15086026939E+02  0.51100000000E-03 0.  1.
        -12    1    3    3    0    0  0.44161735342E+01  0.32433691252E+01  0.17734494328E+02  0.18561635732E+02  0.00000000000E+00 0.  1.
</event>
<event>
 7    1  0.1385632E-008  0.4614232E+02  0.7816164E-02  0.1320468E+00
        -11   -1    0    0    0    0  0.00000000000E+00  0.00000000000E+00  0.45593999997E+02  0.45594000000E+02  0.51100000000E-03 0. -1.
         11   -1    0    0    0    0 -0.00000000000E+00 -0.00000000000E+00 -0.45593999997E+02  0.45594000000E+02  0.51100000000E-03 0.  1.
    9900012    2    1    2    0    0  0.76023157289E+01  0.27236731027E+01 -0.44315912340E+02  0.46142315566E+02  0.99999799819E+01 0.  0.
         12    1    1    2    0    0 -0.76023157289E+01 -0.27236731027E+01  0.44315912340E+02  0.45045684434E+02  0.00000000000E+00 0. -1.
         11    1    3    3    0    0  0.95143370772E+00 -0.28237392651E+00 -0.18548120766E+00  0.10096359116E+01  0.51100000000E-03 0. -1.
        -11    1    3    3    0    0  0.17925138855E+01  0.39804884673E+01 -0.16877456059E+02  0.17432897572E+02  0.51100000000E-03 0.  1.
         12    1    3    3    0    0  0.48583681357E+01 -0.97444143812E+00 -0.27252975073E+02  0.27699782082E+02  0.00000000000E+00 0. -1.
</event>
<event>
 7    1  0.1385632E-008  0.4614232E+02  0.7816164E-02  0.1320468E+00
        -11   -1    0    0    0    0  0.00000000000E+00  0.00000000000E+00  0.45593999997E+02  0.45594000000E+02  0.51100000000E-03 0.  1.
         11   -1    0    0    0    0 -0.00000000000E+00 -0.00000000000E+00 -0.45593999997E+02  0.45594000000E+02  0.51100000000E-03 0. -1.
    9900012    2    1    2    0    0 -0.24110530670E+02 -0.23878469434E+02  0.29624559219E+02  0.46142317625E+02  0.99999987590E+01 0.  0.
         12    1    1    2    0    0  0.24110530670E+02  0.23878469434E+02 -0.29624559219E+02  0.45045682375E+02  0.00000000000E+00 0. -1.
         11    1    3    3    0    0  0.11692996486E+00 -0.11092061557E+01  0.23690137076E+01  0.26184417351E+01  0.51100000000E-03 0. -1.
        -11    1    3    3    0    0 -0.12007706526E+02 -0.86482820607E+01  0.15644319185E+02  0.21534217461E+02  0.51100000000E-03 0.  1.
        -12    1    3    3    0    0 -0.12219754108E+02 -0.14120981218E+02  0.11611226327E+02  0.21989658429E+02  0.00000000000E+00 0.  1.
</event>
<event>
 7    1  0.1385632E-008  0.4614232E+02  0.7816164E-02  0.1320468E+00
        -11   -1    0    0    0    0  0.00000000000E+00  0.00000000000E+00  0.45593999997E+02  0.45594000000E+02  0.51100000000E-03 0. -1.
         11   -1    0    0    0    0 -0.00000000000E+00 -0.00000000000E+00 -0.45593999997E+02  0.45594000000E+02  0.51100000000E-03 0.  1.
    9900012    2    1    2    0    0 -0.38251184484E+02 -0.10005286811E+02 -0.21583671017E+02  0.46142315044E+02  0.99999752236E+01 0.  0.
         12    1    1    2    0    0  0.38251184484E+02  0.10005286811E+02  0.21583671017E+02  0.45045684956E+02  0.00000000000E+00 0. -1.
         11    1    3    3    0    0 -0.17382406902E+02 -0.16602582608E+01 -0.98809666276E+01  0.20063350392E+02  0.51100000000E-03 0. -1.
        -11    1    3    3    0    0 -0.18329605519E+02 -0.56158654215E+01 -0.11478979641E+02  0.22344559892E+02  0.51100000000E-03 0.  1.
         12    1    3    3    0    0 -0.25391720633E+01 -0.27291631286E+01 -0.22372474825E+00  0.37344047601E+01  0.00000000000E+00 0. -1.
</event>
<event>
 7    1  0.1385632E-008  0.4614232E+02  0.7816164E-02  0.1320468E+00
        -11   -1    0    0    0    0  0.00000000000E+00  0.00000000000E+00  0.45593999997E+02  0.45594000000E+02  0.51100000000E-03 0.  1.
         11   -1    0    0    0    0 -0.00000000000E+00 -0.00000000000E+00 -0.45593999997E+02  0.45594000000E+02  0.51100000000E-03 0. -1.
    9900012    2    1    2    0    0 -0.42390554637E+02 -0.88087705493E+00  0.15211128371E+02  0.46142317708E+02  0.99999995153E+01 0.  0.
         12    1    1    2    0    0  0.42390554637E+02  0.88087705493E+00 -0.15211128371E+02  0.45045682292E+02  0.00000000000E+00 0. -1.
         11    1    3    3    0    0 -0.22029739150E+02 -0.26321299204E+01  0.65772567808E+01  0.23140825871E+02  0.51100000000E-03 0.  1.
        -11    1    3    3    0    0 -0.38183551945E+01  0.10494004278E+01  0.43835160863E+01  0.59073082863E+01  0.51100000000E-03 0. -1.
         12    1    3    3    0    0 -0.16542460292E+02  0.70185243764E+00  0.42503555040E+01  0.17094183551E+02  0.00000000000E+00 0. -1.
</event>
<event>
 7    1  0.1385632E-008  0.4614232E+02  0.7816164E-02  0.1320468E+00
        -11   -1    0    0    0    0  0.00000000000E+00  0.00000000000E+00  0.45593999997E+02  0.45594000000E+02  0.51100000000E-03 0. -1.
         11   -1    0    0    0    0 -0.00000000000E+00 -0.00000000000E+00 -0.45593999997E+02  0.45594000000E+02  0.51100000000E-03 0.  1.
    9900012    2    1    2    0    0  0.27658802801E+02  0.35251101233E+02 -0.46329215499E+01  0.46142317935E+02  0.10000001589E+02 0.  0.
         12    1    1    2    0    0 -0.27658802801E+02 -0.35251101233E+02  0.46329215499E+01  0.45045682065E+02  0.00000000000E+00 0. -1.
         11    1    3    3    0    0  0.11780806386E+02  0.92139038884E+01  0.11303184672E+01  0.14998701413E+02  0.51100000000E-03 0. -1.
        -11    1    3    3    0    0  0.13698245971E+02  0.20814536242E+02 -0.52183348081E+01  0.25458159401E+02  0.51100000000E-03 0.  1.
        -12    1    3    3    0    0  0.21797504445E+01  0.52226611027E+01 -0.54490520905E+00  0.56854571215E+01  0.00000000000E+00 0.  1.
</event>
<event>
 7    1  0.1385632E-008  0.4614232E+02  0.7816164E-02  0.1320468E+00
        -11   -1    0    0    0    0  0.00000000000E+00  0.00000000000E+00  0.45593999997E+02  0.45594000000E+02  0.51100000000E-03 0.  1.
         11   -1    0    0    0    0 -0.00000000000E+00 -0.00000000000E+00 -0.45593999997E+02  0.45594000000E+02  0.51100000000E-03 0. -1.
    9900012    2    1    2    0    0  0.26532647481E+02 -0.18980904043E+02  0.31062153636E+02  0.46142317753E+02  0.99999999236E+01 0.  0.
         12    1    1    2    0    0 -0.26532647481E+02  0.18980904043E+02 -0.31062153636E+02  0.45045682247E+02  0.00000000000E+00 0. -1.
         11    1    3    3    0    0  0.13538251043E+02 -0.93042456066E+01  0.15852246232E+02  0.22828642940E+02  0.51100000000E-03 0. -1.
        -11    1    3    3    0    0  0.12153866657E+02 -0.79585500534E+01  0.15647257146E+02  0.21351619379E+02  0.51100000000E-03 0.  1.
         12    1    3    3    0    0  0.84052978095E+00 -0.17181083831E+01 -0.43734974195E+00  0.19620554339E+01  0.00000000000E+00 0. -1.
</event>
<event>
 7    1  0.1385632E-008  0.4614232E+02  0.7816164E-02  0.1320468E+00
        -11   -1    0    0    0    0  0.00000000000E+00  0.00000000000E+00  0.45593999997E+02  0.45594000000E+02  0.51100000000E-03 0.  1.
         11   -1    0    0    0    0 -0.00000000000E+00 -0.00000000000E+00 -0.45593999997E+02  0.45594000000E+02  0.51100000000E-03 0. -1.
    9900012    2    1    2    0    0  0.69494401239E+01 -0.37774683612E+02  0.23534911236E+02  0.46142317777E+02  0.10000000147E+02 0.  0.
         12    1    1    2    0    0 -0.69494401239E+01  0.37774683612E+02 -0.23534911236E+02  0.45045682223E+02  0.00000000000E+00 0. -1.
         11    1    3    3    0    0 -0.51355465194E+00 -0.11105097178E+02  0.58012850299E+01  0.12539610440E+02  0.51100000000E-03 0. -1.
        -11    1    3    3    0    0  0.19441948364E+01 -0.95493608126E+01  0.10181992465E+02  0.14094082316E+02  0.51100000000E-03 0.  1.
         12    1    3    3    0    0  0.55187999395E+01 -0.17120225622E+02  0.75516337402E+01  0.19508625022E+02  0.00000000000E+00 0. -1.
</event>
<event>
 7    1  0.1385632E-008  0.4614232E+02  0.7816164E-02  0.1320468E+00
        -11   -1    0    0    0    0  0.00000000000E+00  0.00000000000E+00  0.45593999997E+02  0.45594000000E+02  0.51100000000E-03 0.  1.
         11   -1    0    0    0    0 -0.00000000000E+00 -0.00000000000E+00 -0.45593999997E+02  0.45594000000E+02  0.51100000000E-03 0. -1.
    9900012    2    1    2    0    0  0.15752545274E+02  0.38404759193E+02  0.17494150211E+02  0.46142317600E+02  0.99999985307E+01 0.  0.
         12    1    1    2    0    0 -0.15752545274E+02 -0.38404759193E+02 -0.17494150211E+02  0.45045682400E+02  0.00000000000E+00 0. -1.
         11    1    3    3    0    0  0.41408598788E+00  0.60195089406E+01  0.52106649981E+01  0.79722634850E+01  0.51100000000E-03 0. -1.
        -11    1    3    3    0    0  0.93251161498E+01  0.15738330876E+02  0.45267496473E+01  0.18845272951E+02  0.51100000000E-03 0.  1.
        -12    1    3    3    0    0  0.60133431365E+01  0.16646919376E+02  0.77567355653E+01  0.19324781164E+02  0.00000000000E+00 0.  1.
</event>
<event>
 7    1  0.1385632E-008  0.4614232E+02  0.7816164E-02  0.1320468E+00
        -11   -1    0    0    0    0  0.00000000000E+00  0.00000000000E+00  0.45593999997E+02  0.45594000000E+02  0.51100000000E-03 0.  1.
         11   -1    0    0    0    0 -0.00000000000E+00 -0.00000000000E+00 -0.45593999997E+02  0.45594000000E+02  0.51100000000E-03 0. -1.
    9900012    2    1    2    0    0  0.21322539898E+02 -0.25825114479E+02  0.30125171454E+02  0.46142320955E+02  0.10000029120E+02 0.  0.
         12    1    1    2    0    0 -0.21322539898E+02  0.25825114479E+02 -0.30125171454E+02  0.45045679045E+02  0.00000000000E+00 0. -1.
         11    1    3    3    0    0  0.63079857154E+01 -0.10197593835E+02  0.74004501937E+01  0.14090715636E+02  0.51100000000E-03 0. -1.
        -11    1    3    3    0    0  0.27412941331E+01 -0.51441949375E+01  0.96747164818E+01  0.11295024318E+02  0.51100000000E-03 0.  1.
        -12    1    3    3    0    0  0.12273260050E+02 -0.10483325706E+02  0.13050004778E+02  0.20756581000E+02  0.00000000000E+00 0.  1.
</event>
<event>
 7    1  0.1385632E-008  0.4614232E+02  0.7816164E-02  0.1320468E+00
        -11   -1    0    0    0    0  0.00000000000E+00  0.00000000000E+00  0.45593999997E+02  0.45594000000E+02  0.51100000000E-03 0.  1.
         11   -1    0    0    0    0 -0.00000000000E+00 -0.00000000000E+00 -0.45593999997E+02  0.45594000000E+02  0.51100000000E-03 0. -1.
    9900012    2    1    2    0    0 -0.15587719863E+01  0.31679787255E+02  0.31985540364E+02  0.46142317821E+02  0.10000000545E+02 0.  0.
         12    1    1    2    0    0  0.15587719863E+01 -0.31679787255E+02 -0.31985540364E+02  0.45045682179E+02  0.00000000000E+00 0. -1.
         11    1    3    3    0    0  0.20756289230E+00  0.78654190017E+01  0.97926504813E+01  0.12562002314E+02  0.51100000000E-03 0. -1.
        -11    1    3    3    0    0  0.81787679958E+00  0.20877157722E+02  0.20646714589E+02  0.29373652490E+02  0.51100000000E-03 0.  1.
         12    1    3    3    0    0 -0.25842116781E+01  0.29372105312E+01  0.15461752938E+01  0.42066630173E+01  0.00000000000E+00 0. -1.
</event>
<event>
 7    1  0.1385632E-008  0.4614232E+02  0.7816164E-02  0.1320468E+00
        -11   -1    0    0    0    0  0.00000000000E+00  0.00000000000E+00  0.45593999997E+02  0.45594000000E+02  0.51100000000E-03 0. -1.
         11   -1    0    0    0    0 -0.00000000000E+00 -0.00000000000E+00 -0.45593999997E+02  0.45594000000E+02  0.51100000000E-03 0.  1.
    9900012    2    1    2    0    0  0.16781045565E+02  0.41580779341E+02  0.43068247355E+01  0.46142318296E+02  0.10000004876E+02 0.  0.
         12    1    1    2    0    0 -0.16781045565E+02 -0.41580779341E+02 -0.43068247355E+01  0.45045681704E+02  0.00000000000E+00 0. -1.
         11    1    3    3    0    0  0.75816516086E+00  0.18440437760E+01 -0.57070856077E+00  0.20738901566E+01  0.51100000000E-03 0. -1.
        -11    1    3    3    0    0  0.52581904031E+01  0.69884357127E+01 -0.18668569917E+01  0.89427040270E+01  0.51100000000E-03 0.  1.
        -12    1    3    3    0    0  0.10764690001E+02  0.32748299853E+02  0.67443902879E+01  0.35125724112E+02  0.00000000000E+00 0.  1.
</event>
<event>
 7    1  0.1385632E-008  0.4614232E+02  0.7816164E-02  0.1320468E+00
        -11   -1    0    0    0    0  0.00000000000E+00  0.00000000000E+00  0.45593999997E+02  0.45594000000E+02  0.51100000000E-03 0.  1.
         11   -1    0    0    0    0 -0.00000000000E+00 -0.00000000000E+00 -0.45593999997E+02  0.45594000000E+02  0.51100000000E-03 0. -1.
    9900012    2    1    2    0    0  0.33184320953E+02 -0.16859432460E+02  0.25370728059E+02  0.46142318051E+02  0.10000002642E+02 0.  0.
         12    1    1    2    0    0 -0.33184320953E+02  0.16859432460E+02 -0.25370728059E+02  0.45045681949E+02  0.00000000000E+00 0. -1.
         11    1    3    3    0    0  0.29823465352E+01 -0.43564162769E+01  0.37086218886E+01  0.64518702876E+01  0.51100000000E-03 0. -1.
        -11    1    3    3    0    0  0.25396716901E+02 -0.11915757018E+02  0.16211743606E+02  0.32400603785E+02  0.51100000000E-03 0.  1.
         12    1    3    3    0    0  0.48052575171E+01 -0.58725916519E+00  0.54503625651E+01  0.72898439780E+01  0.00000000000E+00 0. -1.
</event>
<event>
 7    1  0.1385632E-008  0.4614232E+02  0.7816164E-02  0.1320468E+00
        -11   -1    0    0    0    0  0.00000000000E+00  0.00000000000E+00  0.45593999997E+02  0.45594000000E+02  0.51100000000E-03 0.  1.
         11   -1    0    0    0    0 -0.00000000000E+00 -0.00000000000E+00 -0.45593999997E+02  0.45594000000E+02  0.51100000000E-03 0. -1.
    9900012    2    1    2    0    0 -0.22818699593E+02 -0.73899412935E+01  0.38128849728E+02  0.46142318020E+02  0.10000002362E+02 0.  0.
         12    1    1    2    0    0  0.22818699593E+02  0.73899412935E+01 -0.38128849728E+02  0.45045681980E+02  0.00000000000E+00 0. -1.
         11    1    3    3    0    0 -0.77408649512E+01 -0.63611979940E+01  0.10841215566E+02  0.14762038657E+02  0.51100000000E-03 0.  1.
        -11    1    3    3    0    0 -0.11102515061E+02 -0.35319668618E+00  0.16760864413E+02  0.20107639461E+02  0.51100000000E-03 0. -1.
        -12    1    3    3    0    0 -0.39753195813E+01 -0.67554661336E+00  0.10526769749E+02  0.11272639902E+02  0.00000000000E+00 0.  1.
</event>
<event>
 7    1  0.1385632E-008  0.4614233E+02  0.7816164E-02  0.1320468E+00
        -11   -1    0    0    0    0  0.00000000000E+00  0.00000000000E+00  0.45593999997E+02  0.45594000000E+02  0.51100000000E-03 0. -1.
         11   -1    0    0    0    0 -0.00000000000E+00 -0.00000000000E+00 -0.45593999997E+02  0.45594000000E+02  0.51100000000E-03 0.  1.
    9900012    2    1    2    0    0  0.28783098612E+02 -0.33065556940E+02 -0.10359284111E+02  0.46142327747E+02  0.10000091056E+02 0.  0.
         12    1    1    2    0    0 -0.28783098612E+02  0.33065556940E+02  0.10359284111E+02  0.45045672253E+02  0.00000000000E+00 0. -1.
         11    1    3    3    0    0  0.93841480228E+01 -0.98295719826E+01 -0.67638860472E+01  0.15180015619E+02  0.51100000000E-03 0. -1.
        -11    1    3    3    0    0  0.61318302527E+01 -0.73658953286E+01  0.13911545285E+01  0.96845788459E+01  0.51100000000E-03 0.  1.
         12    1    3    3    0    0  0.13267120336E+02 -0.15870089629E+02 -0.49865525919E+01  0.21277733282E+02  0.00000000000E+00 0. -1.
</event>
<event>
 7    1  0.1385632E-008  0.4614231E+02  0.7816164E-02  0.1320468E+00
        -11   -1    0    0    0    0  0.00000000000E+00  0.00000000000E+00  0.45593999997E+02  0.45594000000E+02  0.51100000000E-03 0.  1.
         11   -1    0    0    0    0 -0.00000000000E+00 -0.00000000000E+00 -0.45593999997E+02  0.45594000000E+02  0.51100000000E-03 0. -1.
    9900012    2    1    2    0    0 -0.37408912581E+02 -0.21248120275E+02 -0.13349324183E+02  0.46142314171E+02  0.99999672606E+01 0.  0.
         12    1    1    2    0    0  0.37408912581E+02  0.21248120275E+02  0.13349324183E+02  0.45045685829E+02  0.00000000000E+00 0. -1.
         11    1    3    3    0    0  0.21839355517E+00 -0.62881812284E+00 -0.79244878123E+00  0.10349315478E+01  0.51100000000E-03 0. -1.
        -11    1    3    3    0    0 -0.17952966477E+02 -0.77778372152E+01 -0.32335810284E+01  0.19830779198E+02  0.51100000000E-03 0.  1.
        -12    1    3    3    0    0 -0.19674339659E+02 -0.12841464937E+02 -0.93232943731E+01  0.25276603425E+02  0.00000000000E+00 0.  1.
</event>
<event>
 7    1  0.1385632E-008  0.4614232E+02  0.7816164E-02  0.1320468E+00
        -11   -1    0    0    0    0  0.00000000000E+00  0.00000000000E+00  0.45593999997E+02  0.45594000000E+02  0.51100000000E-03 0.  1.
         11   -1    0    0    0    0 -0.00000000000E+00 -0.00000000000E+00 -0.45593999997E+02  0.45594000000E+02  0.51100000000E-03 0. -1.
    9900012    2    1    2    0    0 -0.24811643207E+02  0.24085730882E+01  0.37519256476E+02  0.46142317971E+02  0.10000001912E+02 0.  0.
         12    1    1    2    0    0  0.24811643207E+02 -0.24085730882E+01 -0.37519256476E+02  0.45045682029E+02  0.00000000000E+00 0. -1.
         11    1    3    3    0    0 -0.49534963771E+01  0.13901395805E+01  0.41302703624E+01  0.65976319948E+01  0.51100000000E-03 0. -1.
        -11    1    3    3    0    0 -0.56431152364E+01 -0.29033056053E+01  0.11835517739E+02  0.13429572347E+02  0.51100000000E-03 0.  1.
        -12    1    3    3    0    0 -0.14215031594E+02  0.39217391130E+01  0.21553468375E+02  0.26115113629E+02  0.00000000000E+00 0.  1.
</event>
<event>
 7    1  0.1385632E-008  0.4614232E+02  0.7816164E-02  0.1320468E+00
        -11   -1    0    0    0    0  0.00000000000E+00  0.00000000000E+00  0.45593999997E+02  0.45594000000E+02  0.51100000000E-03 0.  1.
         11   -1    0    0    0    0 -0.00000000000E+00 -0.00000000000E+00 -0.45593999997E+02  0.45594000000E+02  0.51100000000E-03 0. -1.
    9900012    2    1    2    0    0  0.23346030184E+02 -0.38277465196E+02 -0.43487922767E+01  0.46142318060E+02  0.10000002726E+02 0.  0.
         12    1    1    2    0    0 -0.23346030184E+02  0.38277465196E+02  0.43487922767E+01  0.45045681940E+02  0.00000000000E+00 0. -1.
         11    1    3    3    0    0  0.73177101594E+01 -0.10908943813E+02  0.14456189576E+01  0.13215284769E+02  0.51100000000E-03 0. -1.
        -11    1    3    3    0    0  0.81399472750E+01 -0.15949260116E+02 -0.50491919015E-01  0.17906428722E+02  0.51100000000E-03 0.  1.
         12    1    3    3    0    0  0.78883727494E+01 -0.11419261267E+02 -0.57439193153E+01  0.15020604569E+02  0.00000000000E+00 0. -1.
</event>
<event>
 7    1  0.1385632E-008  0.4614231E+02  0.7816164E-02  0.1320468E+00
        -11   -1    0    0    0    0  0.00000000000E+00  0.00000000000E+00  0.45593999997E+02  0.45594000000E+02  0.51100000000E-03 0. -1.
         11   -1    0    0    0    0 -0.00000000000E+00 -0.00000000000E+00 -0.45593999997E+02  0.45594000000E+02  0.51100000000E-03 0.  1.
    9900012    2    1    2    0    0  0.43396254732E+02  0.40692438303E+01 -0.11371906506E+02  0.46142312885E+02  0.99999555324E+01 0.  0.
         12    1    1    2    0    0 -0.43396254732E+02 -0.40692438303E+01  0.11371906506E+02  0.45045687115E+02  0.00000000000E+00 0. -1.
         11    1    3    3    0    0  0.10989437366E+02  0.39727614057E+01 -0.57918142932E+01  0.13042073450E+02  0.51100000000E-03 0. -1.
        -11    1    3    3    0    0  0.22653247962E+02  0.66823555047E+00 -0.55375959634E+01  0.23329833932E+02  0.51100000000E-03 0.  1.
         12    1    3    3    0    0  0.97535694042E+01 -0.57175312581E+00 -0.42496249331E-01  0.97704055029E+01  0.00000000000E+00 0. -1.
</event>
<event>
 7    1  0.1385632E-008  0.4614232E+02  0.7816164E-02  0.1320468E+00
        -11   -1    0    0    0    0  0.00000000000E+00  0.00000000000E+00  0.45593999997E+02  0.45594000000E+02  0.51100000000E-03 0.  1.
         11   -1    0    0    0    0 -0.00000000000E+00 -0.00000000000E+00 -0.45593999997E+02  0.45594000000E+02  0.51100000000E-03 0. -1.
    9900012    2    1    2    0    0  0.21577869706E+02 -0.23344018318E+02  0.31914977769E+02  0.46142318095E+02  0.10000003044E+02 0.  0.
         12    1    1    2    0    0 -0.21577869706E+02  0.23344018318E+02 -0.31914977769E+02  0.45045681905E+02  0.00000000000E+00 0. -1.
         11    1    3    3    0    0 -0.62598622171E+00 -0.15287333761E+00  0.11665283085E+01  0.13326730892E+01  0.51100000000E-03 0. -1.
        -11    1    3    3    0    0  0.69011199298E+01 -0.45570962601E+01  0.57168592702E+01  0.10053609441E+02  0.51100000000E-03 0.  1.
         12    1    3    3    0    0  0.15302735998E+02 -0.18634048720E+02  0.25031590190E+02  0.34756035565E+02  0.00000000000E+00 0. -1.
</event>
<event>
 7    1  0.1530603E-008  0.4614231E+02  0.7816164E-02  0.1320468E+00
        -11   -1    0    0    0    0  0.00000000000E+00  0.00000000000E+00  0.45593999997E+02  0.45594000000E+02  0.51100000000E-03 0. -1.
         11   -1    0    0    0    0 -0.00000000000E+00 -0.00000000000E+00 -0.45593999997E+02  0.45594000000E+02  0.51100000000E-03 0.  1.
    9900012    2    1    2    0    0  0.28689873040E+02 -0.16970919060E+02 -0.30298398499E+02  0.46142313632E+02  0.99999623463E+01 0.  0.
         12    1    1    2    0    0 -0.28689873040E+02  0.16970919060E+02  0.30298398499E+02  0.45045686368E+02  0.00000000000E+00 0. -1.
         11    1    3    3    0    0  0.17368458716E+01 -0.49556793769E+00 -0.47986489762E+01  0.51273046935E+01  0.51100000000E-03 0. -1.
        -11    1    3    3    0    0  0.10852329570E+02 -0.94182342853E+01 -0.93499331780E+01  0.17143437369E+02  0.51100000000E-03 0.  1.
        -12    1    3    3    0    0  0.16100697598E+02 -0.70571168375E+01 -0.16149816345E+02  0.23871571569E+02  0.00000000000E+00 0.  1.
</event>
<event>
 7    1  0.1385632E-008  0.4614232E+02  0.7816164E-02  0.1320468E+00
        -11   -1    0    0    0    0  0.00000000000E+00  0.00000000000E+00  0.45593999997E+02  0.45594000000E+02  0.51100000000E-03 0.  1.
         11   -1    0    0    0    0 -0.00000000000E+00 -0.00000000000E+00 -0.45593999997E+02  0.45594000000E+02  0.51100000000E-03 0. -1.
    9900012    2    1    2    0    0  0.41807028685E+02 -0.16053703727E+02  0.48543074870E+01  0.46142319275E+02  0.10000013803E+02 0.  0.
         12    1    1    2    0    0 -0.41807028685E+02  0.16053703727E+02 -0.48543074870E+01  0.45045680725E+02  0.00000000000E+00 0. -1.
         11    1    3    3    0    0  0.13009882244E+02 -0.67309381266E+01  0.53450698996E+01  0.15592701387E+02  0.51100000000E-03 0. -1.
        -11    1    3    3    0    0  0.15184307278E+02 -0.42324603579E+01  0.16899972492E+01  0.15853485395E+02  0.51100000000E-03 0.  1.
         12    1    3    3    0    0  0.13612839163E+02 -0.50903052428E+01 -0.21807596618E+01  0.14696132493E+02  0.00000000000E+00 0. -1.
</event>
<event>
 7    1  0.1385632E-008  0.4614232E+02  0.7816164E-02  0.1320468E+00
        -11   -1    0    0    0    0  0.00000000000E+00  0.00000000000E+00  0.45593999997E+02  0.45594000000E+02  0.51100000000E-03 0. -1.
         11   -1    0    0    0    0 -0.00000000000E+00 -0.00000000000E+00 -0.45593999997E+02  0.45594000000E+02  0.51100000000E-03 0.  1.
    9900012    2    1    2    0    0  0.32689894292E+02 -0.30152272177E+01 -0.30844652226E+02  0.46142319242E+02  0.10000013505E+02 0.  0.
         12    1    1    2    0    0 -0.32689894292E+02  0.30152272177E+01  0.30844652226E+02  0.45045680758E+02  0.00000000000E+00 0. -1.
         11    1    3    3    0    0  0.53785495109E+01 -0.16927758373E+01 -0.17741063476E+01  0.59111537343E+01  0.51100000000E-03 0. -1.
        -11    1    3    3    0    0  0.18725493842E+02  0.13501479127E+01 -0.20706324812E+02  0.27950293495E+02  0.51100000000E-03 0.  1.
        -12    1    3    3    0    0  0.85858509392E+01 -0.26725992931E+01 -0.83642210668E+01  0.12280872012E+02  0.00000000000E+00 0.  1.
</event>
<event>
 7    1  0.1385632E-008  0.4614232E+02  0.7816164E-02  0.1320468E+00
        -11   -1    0    0    0    0  0.00000000000E+00  0.00000000000E+00  0.45593999997E+02  0.45594000000E+02  0.51100000000E-03 0. -1.
         11   -1    0    0    0    0 -0.00000000000E+00 -0.00000000000E+00 -0.45593999997E+02  0.45594000000E+02  0.51100000000E-03 0.  1.
    9900012    2    1    2    0    0  0.31988924654E+02 -0.31540621784E+02 -0.33183401617E+01  0.46142317583E+02  0.99999983721E+01 0.  0.
         12    1    1    2    0    0 -0.31988924654E+02  0.31540621784E+02  0.33183401617E+01  0.45045682417E+02  0.00000000000E+00 0. -1.
         11    1    3    3    0    0  0.90312819822E+00 -0.16776262472E-01  0.66724637216E+00  0.11230048832E+01  0.51100000000E-03 0. -1.
        -11    1    3    3    0    0  0.22009793109E+02 -0.22152733738E+02 -0.60580388522E+01  0.31809973904E+02  0.51100000000E-03 0.  1.
        -12    1    3    3    0    0  0.90760033471E+01 -0.93711117830E+01  0.20724523183E+01  0.13209338796E+02  0.00000000000E+00 0.  1.
</event>
<event>
 7    1  0.1385632E-008  0.4614232E+02  0.7816164E-02  0.1320468E+00
        -11   -1    0    0    0    0  0.00000000000E+00  0.00000000000E+00  0.45593999997E+02  0.45594000000E+02  0.51100000000E-03 0.  1.
         11   -1    0    0    0    0 -0.00000000000E+00 -0.00000000000E+00 -0.45593999997E+02  0.45594000000E+02  0.51100000000E-03 0. -1.
    9900012    2    1    2    0    0 -0.27547171935E+01 -0.42958090073E+02  0.13271306425E+02  0.46142317146E+02  0.99999943903E+01 0.  0.
         12    1    1    2    0    0  0.27547171935E+01  0.42958090073E+02 -0.13271306425E+02  0.45045682854E+02  0.00000000000E+00 0. -1.
         11    1    3    3    0    0  0.28503875966E+01 -0.61417693660E+01  0.16937057889E+01  0.69795902428E+01  0.51100000000E-03 0. -1.
        -11    1    3    3    0    0 -0.40377131057E+01 -0.28675355762E+02  0.10497346591E+02  0.30802166172E+02  0.51100000000E-03 0.  1.
         12    1    3    3    0    0 -0.15673916844E+01 -0.81409649453E+01  0.10802540459E+01  0.83605607310E+01  0.00000000000E+00 0. -1.
</event>
<event>
 7    1  0.1385632E-008  0.4614232E+02  0.7816164E-02  0.1320468E+00
        -11   -1    0    0    0    0  0.00000000000E+00  0.00000000000E+00  0.45593999997E+02  0.45594000000E+02  0.51100000000E-03 0.  1.
         11   -1    0    0    0    0 -0.00000000000E+00 -0.00000000000E+00 -0.45593999997E+02  0.45594000000E+02  0.51100000000E-03 0. -1.
    9900012    2    1    2    0    0  0.20961472853E+02 -0.11698162045E+02  0.38116704769E+02  0.46142317390E+02  0.99999966145E+01 0.  0.
         12    1    1    2    0    0 -0.20961472853E+02  0.11698162045E+02 -0.38116704769E+02  0.45045682610E+02  0.00000000000E+00 0. -1.
         11    1    3    3    0    0  0.11705229291E+02 -0.82534666519E+01  0.17107335611E+02  0.22311275994E+02  0.51100000000E-03 0. -1.
        -11    1    3    3    0    0  0.17686515486E+01 -0.33174849837E+01  0.70818239409E+01  0.80178591600E+01  0.51100000000E-03 0.  1.
         12    1    3    3    0    0  0.74875920127E+01 -0.12721040925E+00  0.13927545217E+02  0.15813182236E+02  0.00000000000E+00 0. -1.
</event>
<event>
 7    1  0.1385632E-008  0.4614232E+02  0.7816164E-02  0.1320468E+00
        -11   -1    0    0    0    0  0.00000000000E+00  0.00000000000E+00  0.45593999997E+02  0.45594000000E+02  0.51100000000E-03 0.  1.
         11   -1    0    0    0    0 -0.00000000000E+00 -0.00000000000E+00 -0.45593999997E+02  0.45594000000E+02  0.51100000000E-03 0. -1.
    9900012    2    1    2    0    0 -0.41537030962E+02 -0.17223397473E+02 -0.26726651899E+01  0.46142317623E+02  0.99999987368E+01 0.  0.
         12    1    1    2    0    0  0.41537030962E+02  0.17223397473E+02  0.26726651899E+01  0.45045682377E+02  0.00000000000E+00 0. -1.
         11    1    3    3    0    0 -0.10596906260E+02 -0.84641534831E+01 -0.89641623633E+00  0.13591904899E+02  0.51100000000E-03 0. -1.
        -11    1    3    3    0    0 -0.15550006605E+02 -0.26763034538E+01 -0.25515555964E+01  0.15983608536E+02  0.51100000000E-03 0.  1.
         12    1    3    3    0    0 -0.15390118096E+02 -0.60829405365E+01  0.77530664281E+00  0.16566804187E+02  0.00000000000E+00 0. -1.
</event>
<event>
 7    1  0.1385632E-008  0.4614232E+02  0.7816164E-02  0.1320468E+00
        -11   -1    0    0    0    0  0.00000000000E+00  0.00000000000E+00  0.45593999997E+02  0.45594000000E+02  0.51100000000E-03 0.  1.
         11   -1    0    0    0    0 -0.00000000000E+00 -0.00000000000E+00 -0.45593999997E+02  0.45594000000E+02  0.51100000000E-03 0. -1.
    9900012    2    1    2    0    0  0.10182323127E+02  0.27456438796E+02  0.34228319288E+02  0.46142316778E+02  0.99999910369E+01 0.  0.
         12    1    1    2    0    0 -0.10182323127E+02 -0.27456438796E+02 -0.34228319288E+02  0.45045683222E+02  0.00000000000E+00 0. -1.
         11    1    3    3    0    0  0.26639741587E+01  0.53435114266E+01  0.21759523718E+01  0.63548911611E+01  0.51100000000E-03 0. -1.
        -11    1    3    3    0    0  0.54085619269E+01  0.11872238850E+02  0.19315933757E+02  0.23308965970E+02  0.51100000000E-03 0.  1.
        -12    1    3    3    0    0  0.21097870409E+01  0.10240688519E+02  0.12736433160E+02  0.16478459647E+02  0.00000000000E+00 0.  1.
</event>
<event>
 7    1  0.1385632E-008  0.4614231E+02  0.7816164E-02  0.1320468E+00
        -11   -1    0    0    0    0  0.00000000000E+00  0.00000000000E+00  0.45593999997E+02  0.45594000000E+02  0.51100000000E-03 0.  1.
         11   -1    0    0    0    0 -0.00000000000E+00 -0.00000000000E+00 -0.45593999997E+02  0.45594000000E+02  0.51100000000E-03 0. -1.
    9900012    2    1    2    0    0  0.16288247778E+01  0.42243147363E+02  0.15555632449E+02  0.46142309083E+02  0.99999208676E+01 0.  0.
         12    1    1    2    0    0 -0.16288247778E+01 -0.42243147363E+02 -0.15555632449E+02  0.45045690917E+02  0.00000000000E+00 0. -1.
         11    1    3    3    0    0  0.32357522411E+01  0.19904164405E+02  0.87239944272E+01  0.21971662027E+02  0.51100000000E-03 0. -1.
        -11    1    3    3    0    0 -0.37672509284E+01  0.16760246399E+02  0.55476502423E+01  0.18051993308E+02  0.51100000000E-03 0.  1.
        -12    1    3    3    0    0  0.21603234651E+01  0.55787365595E+01  0.12839877795E+01  0.61186537483E+01  0.00000000000E+00 0.  1.
</event>
<event>
 7    1  0.1385632E-008  0.4614232E+02  0.7816164E-02  0.1320468E+00
        -11   -1    0    0    0    0  0.00000000000E+00  0.00000000000E+00  0.45593999997E+02  0.45594000000E+02  0.51100000000E-03 0.  1.
         11   -1    0    0    0    0 -0.00000000000E+00 -0.00000000000E+00 -0.45593999997E+02  0.45594000000E+02  0.51100000000E-03 0. -1.
    9900012    2    1    2    0    0  0.42810292463E+02  0.23348339828E+00 -0.14012060673E+02  0.46142317637E+02  0.99999988646E+01 0.  0.
         12    1    1    2    0    0 -0.42810292463E+02 -0.23348339828E+00  0.14012060673E+02  0.45045682363E+02  0.00000000000E+00 0. -1.
         11    1    3    3    0    0  0.89636831113E+01  0.30091313231E+01 -0.15938744248E+01  0.95886871981E+01  0.51100000000E-03 0. -1.
        -11    1    3    3    0    0  0.28647912982E+02 -0.42586157433E+01 -0.10795954030E+02  0.30909405526E+02  0.51100000000E-03 0.  1.
         12    1    3    3    0    0  0.51986963699E+01  0.14829678185E+01 -0.16222322185E+01  0.56442249129E+01  0.00000000000E+00 0. -1.
</event>
<event>
 7    1  0.1385632E-008  0.4614232E+02  0.7816164E-02  0.1320468E+00
        -11   -1    0    0    0    0  0.00000000000E+00  0.00000000000E+00  0.45593999997E+02  0.45594000000E+02  0.51100000000E-03 0.  1.
         11   -1    0    0    0    0 -0.00000000000E+00 -0.00000000000E+00 -0.45593999997E+02  0.45594000000E+02  0.51100000000E-03 0. -1.
    9900012    2    1    2    0    0  0.25757121642E+02 -0.23593959475E+02  0.28443087925E+02  0.46142317746E+02  0.99999998642E+01 0.  0.
         12    1    1    2    0    0 -0.25757121642E+02  0.23593959475E+02 -0.28443087925E+02  0.45045682254E+02  0.00000000000E+00 0. -1.
         11    1    3    3    0    0  0.14784423399E+02 -0.15679065414E+02  0.18206795623E+02  0.28211693934E+02  0.51100000000E-03 0. -1.
        -11    1    3    3    0    0  0.10549316922E+01  0.56742834340E+00  0.24676206149E+01  0.27429924463E+01  0.51100000000E-03 0.  1.
         12    1    3    3    0    0  0.99177665508E+01 -0.84823224044E+01  0.77686716873E+01  0.15187631366E+02  0.00000000000E+00 0. -1.
</event>
<event>
 7    1  0.1385632E-008  0.4614233E+02  0.7816164E-02  0.1320468E+00
        -11   -1    0    0    0    0  0.00000000000E+00  0.00000000000E+00  0.45593999997E+02  0.45594000000E+02  0.51100000000E-03 0.  1.
         11   -1    0    0    0    0 -0.00000000000E+00 -0.00000000000E+00 -0.45593999997E+02  0.45594000000E+02  0.51100000000E-03 0. -1.
    9900012    2    1    2    0    0  0.10322247272E+02  0.27654759854E+02  0.34026135767E+02  0.46142329325E+02  0.10000105449E+02 0.  0.
         12    1    1    2    0    0 -0.10322247272E+02 -0.27654759854E+02 -0.34026135767E+02  0.45045670675E+02  0.00000000000E+00 0. -1.
         11    1    3    3    0    0  0.61978725734E+01  0.10069993675E+02  0.12198585052E+02  0.16988933886E+02  0.51100000000E-03 0. -1.
        -11    1    3    3    0    0  0.64297641071E+00  0.32220813912E+01  0.68254152543E+00  0.33557548110E+01  0.51100000000E-03 0.  1.
        -12    1    3    3    0    0  0.34813982878E+01  0.14362684788E+02  0.21145009190E+02  0.25797640629E+02  0.00000000000E+00 0.  1.
</event>
<event>
 7    1  0.1385632E-008  0.4614232E+02  0.7816164E-02  0.1320468E+00
        -11   -1    0    0    0    0  0.00000000000E+00  0.00000000000E+00  0.45593999997E+02  0.45594000000E+02  0.51100000000E-03 0. -1.
         11   -1    0    0    0    0 -0.00000000000E+00 -0.00000000000E+00 -0.45593999997E+02  0.45594000000E+02  0.51100000000E-03 0.  1.
    9900012    2    1    2    0    0  0.26717721272E+02  0.29254956707E+02  0.21434187602E+02  0.46142317409E+02  0.99999967931E+01 0.  0.
         12    1    1    2    0    0 -0.26717721272E+02 -0.29254956707E+02 -0.21434187602E+02  0.45045682591E+02  0.00000000000E+00 0. -1.
         11    1    3    3    0    0  0.11703188879E+01  0.36350953283E+01  0.51701544212E+01  0.64276015236E+01  0.51100000000E-03 0. -1.
        -11    1    3    3    0    0  0.83612285149E+01  0.93775787302E+01  0.50017079786E+01  0.13522803263E+02  0.51100000000E-03 0.  1.
         12    1    3    3    0    0  0.17186173869E+02  0.16242282649E+02  0.11262325202E+02  0.26191912623E+02  0.00000000000E+00 0. -1.
</event>
<event>
 7    1  0.1385632E-008  0.4614232E+02  0.7816164E-02  0.1320468E+00
        -11   -1    0    0    0    0  0.00000000000E+00  0.00000000000E+00  0.45593999997E+02  0.45594000000E+02  0.51100000000E-03 0. -1.
         11   -1    0    0    0    0 -0.00000000000E+00 -0.00000000000E+00 -0.45593999997E+02  0.45594000000E+02  0.51100000000E-03 0.  1.
    9900012    2    1    2    0    0 -0.67670448798E+01  0.43888537441E+02 -0.75575684234E+01  0.46142318125E+02  0.10000003319E+02 0.  0.
         12    1    1    2    0    0  0.67670448798E+01 -0.43888537441E+02  0.75575684234E+01  0.45045681875E+02  0.00000000000E+00 0. -1.
         11    1    3    3    0    0 -0.47249265660E+01  0.11034377523E+02 -0.48255125760E+01  0.12937078119E+02  0.51100000000E-03 0. -1.
        -11    1    3    3    0    0 -0.57191488906E+00  0.20808302878E+02 -0.32015155908E+01  0.21060917778E+02  0.51100000000E-03 0.  1.
         12    1    3    3    0    0 -0.14702034247E+01  0.12045857040E+02  0.46945974346E+00  0.12144322228E+02  0.00000000000E+00 0. -1.
</event>
<event>
 7    1  0.1385632E-008  0.4614232E+02  0.7816164E-02  0.1320468E+00
        -11   -1    0    0    0    0  0.00000000000E+00  0.00000000000E+00  0.45593999997E+02  0.45594000000E+02  0.51100000000E-03 0.  1.
         11   -1    0    0    0    0 -0.00000000000E+00 -0.00000000000E+00 -0.45593999997E+02  0.45594000000E+02  0.51100000000E-03 0. -1.
    9900012    2    1    2    0    0  0.10356414021E+01 -0.24208468677E+02  0.37973557418E+02  0.46142316836E+02  0.99999915622E+01 0.  0.
         12    1    1    2    0    0 -0.10356414021E+01  0.24208468677E+02 -0.37973557418E+02  0.45045683164E+02  0.00000000000E+00 0. -1.
         11    1    3    3    0    0 -0.21003041260E+01 -0.84600707478E+01  0.96260982667E+01  0.12986371417E+02  0.51100000000E-03 0. -1.
        -11    1    3    3    0    0  0.44883931350E+01 -0.87229099888E+01  0.19017681997E+02  0.21398763058E+02  0.51100000000E-03 0.  1.
        -12    1    3    3    0    0 -0.13524476069E+01 -0.70254879400E+01  0.93297771536E+01  0.11757182361E+02  0.00000000000E+00 0.  1.
</event>
<event>
 7    1  0.1385632E-008  0.4614232E+02  0.7816164E-02  0.1320468E+00
        -11   -1    0    0    0    0  0.00000000000E+00  0.00000000000E+00  0.45593999997E+02  0.45594000000E+02  0.51100000000E-03 0. -1.
         11   -1    0    0    0    0 -0.00000000000E+00 -0.00000000000E+00 -0.45593999997E+02  0.45594000000E+02  0.51100000000E-03 0.  1.
    9900012    2    1    2    0    0 -0.30013123436E+02  0.32270203903E+02  0.93252270684E+01  0.46142317652E+02  0.99999990033E+01 0.  0.
         12    1    1    2    0    0  0.30013123436E+02 -0.32270203903E+02 -0.93252270684E+01  0.45045682348E+02  0.00000000000E+00 0. -1.
         11    1    3    3    0    0 -0.56434839912E-01  0.88980750371E+00 -0.74694852276E+00  0.11631313948E+01  0.51100000000E-03 0. -1.
        -11    1    3    3    0    0 -0.28449964813E+02  0.27354624153E+02  0.98339154545E+01  0.40674093153E+02  0.51100000000E-03 0.  1.
        -12    1    3    3    0    0 -0.15067237832E+01  0.40257722467E+01  0.23826013665E+00  0.43050931040E+01  0.00000000000E+00 0.  1.
</event>
<event>
 7    1  0.1385632E-008  0.4614232E+02  0.7816164E-02  0.1320468E+00
        -11   -1    0    0    0    0  0.00000000000E+00  0.00000000000E+00  0.45593999997E+02  0.45594000000E+02  0.51100000000E-03 0.  1.
         11   -1    0    0    0    0 -0.00000000000E+00 -0.00000000000E+00 -0.45593999997E+02  0.45594000000E+02  0.51100000000E-03 0. -1.
    9900012    2    1    2    0    0 -0.19624649195E+02  0.36439328931E+02  0.17780939721E+02  0.46142319116E+02  0.10000012352E+02 0.  0.
         12    1    1    2    0    0  0.19624649195E+02 -0.36439328931E+02 -0.17780939721E+02  0.45045680884E+02  0.00000000000E+00 0. -1.
         11    1    3    3    0    0  0.80425381203E+00  0.42889206273E+00 -0.11182529230E-01  0.91153601449E+00  0.51100000000E-03 0. -1.
        -11    1    3    3    0    0 -0.88588101660E+01  0.11874536656E+02  0.66264905638E+01  0.16229402817E+02  0.51100000000E-03 0.  1.
        -12    1    3    3    0    0 -0.11570092841E+02  0.24135900213E+02  0.11165631686E+02  0.29001380284E+02  0.00000000000E+00 0.  1.
</event>
<event>
 7    1  0.1385632E-008  0.4614232E+02  0.7816164E-02  0.1320468E+00
        -11   -1    0    0    0    0  0.00000000000E+00  0.00000000000E+00  0.45593999997E+02  0.45594000000E+02  0.51100000000E-03 0. -1.
         11   -1    0    0    0    0 -0.00000000000E+00 -0.00000000000E+00 -0.45593999997E+02  0.45594000000E+02  0.51100000000E-03 0.  1.
    9900012    2    1    2    0    0  0.22769559147E+02  0.32863117248E+02 -0.20752727009E+02  0.46142323434E+02  0.10000051725E+02 0.  0.
         12    1    1    2    0    0 -0.22769559147E+02 -0.32863117248E+02  0.20752727009E+02  0.45045676566E+02  0.00000000000E+00 0. -1.
         11    1    3    3    0    0  0.10077955097E+02  0.12046999081E+02 -0.13466555382E+02  0.20689211680E+02  0.51100000000E-03 0. -1.
        -11    1    3    3    0    0  0.87373670770E+01  0.14863815143E+02 -0.52053269316E+01  0.18010275200E+02  0.51100000000E-03 0.  1.
         12    1    3    3    0    0  0.39542369731E+01  0.59523030231E+01 -0.20808446955E+01  0.74428365537E+01  0.00000000000E+00 0. -1.
</event>
<event>
 7    1  0.1385632E-008  0.4614232E+02  0.7816164E-02  0.1320468E+00
        -11   -1    0    0    0    0  0.00000000000E+00  0.00000000000E+00  0.45593999997E+02  0.45594000000E+02  0.51100000000E-03 0. -1.
         11   -1    0    0    0    0 -0.00000000000E+00 -0.00000000000E+00 -0.45593999997E+02  0.45594000000E+02  0.51100000000E-03 0.  1.
    9900012    2    1    2    0    0 -0.96159980189E+01  0.42319736310E+02 -0.12070048530E+02  0.46142316847E+02  0.99999916624E+01 0.  0.
         12    1    1    2    0    0  0.96159980189E+01 -0.42319736310E+02  0.12070048530E+02  0.45045683153E+02  0.00000000000E+00 0. -1.
         11    1    3    3    0    0 -0.17343606596E+01  0.20034504359E+02 -0.73226286240E+01  0.21401174315E+02  0.51100000000E-03 0.  1.
        -11    1    3    3    0    0 -0.40283750808E+01  0.43170371060E+01 -0.11322369705E+01  0.60122022575E+01  0.51100000000E-03 0. -1.
        -12    1    3    3    0    0 -0.38532622785E+01  0.17968194845E+02 -0.36151829353E+01  0.18728940275E+02  0.00000000000E+00 0.  1.
</event>
<event>
 7    1  0.1385632E-008  0.4614232E+02  0.7816164E-02  0.1320468E+00
        -11   -1    0    0    0    0  0.00000000000E+00  0.00000000000E+00  0.45593999997E+02  0.45594000000E+02  0.51100000000E-03 0.  1.
         11   -1    0    0    0    0 -0.00000000000E+00 -0.00000000000E+00 -0.45593999997E+02  0.45594000000E+02  0.51100000000E-03 0. -1.
    9900012    2    1    2    0    0 -0.18873176491E+02 -0.39953397744E+02  0.87545703950E+01  0.46142320019E+02  0.10000020592E+02 0.  0.
         12    1    1    2    0    0  0.18873176491E+02  0.39953397744E+02 -0.87545703950E+01  0.45045679981E+02  0.00000000000E+00 0. -1.
         11    1    3    3    0    0  0.92929459736E+00 -0.71807643951E+00  0.46496398869E+00  0.12630969850E+01  0.51100000000E-03 0. -1.
        -11    1    3    3    0    0 -0.91687880471E+01 -0.15450211919E+02  0.20005057217E+01  0.18076994938E+02  0.51100000000E-03 0.  1.
         12    1    3    3    0    0 -0.10633683041E+02 -0.23785109386E+02  0.62891006846E+01  0.26802228096E+02  0.00000000000E+00 0. -1.
</event>
<event>
 7    1  0.1385632E-008  0.4614232E+02  0.7816164E-02  0.1320468E+00
        -11   -1    0    0    0    0  0.00000000000E+00  0.00000000000E+00  0.45593999997E+02  0.45594000000E+02  0.51100000000E-03 0.  1.
         11   -1    0    0    0    0 -0.00000000000E+00 -0.00000000000E+00 -0.45593999997E+02  0.45594000000E+02  0.51100000000E-03 0. -1.
    9900012    2    1    2    0    0  0.14727757222E+02 -0.89378061429E+01  0.41621175598E+02  0.46142317969E+02  0.10000001897E+02 0.  0.
         12    1    1    2    0    0 -0.14727757222E+02  0.89378061429E+01 -0.41621175598E+02  0.45045682031E+02  0.00000000000E+00 0. -1.
         11    1    3    3    0    0  0.38050351940E+01 -0.50694452020E+01  0.91447835918E+01  0.11126753106E+02  0.51100000000E-03 0. -1.
        -11    1    3    3    0    0  0.57060924732E+01 -0.23946754126E+01  0.90047837696E+01  0.10926119743E+02  0.51100000000E-03 0.  1.
        -12    1    3    3    0    0  0.52166295552E+01 -0.14736855282E+01  0.23471608237E+02  0.24089445120E+02  0.00000000000E+00 0.  1.
</event>
<event>
 7    1  0.1385632E-008  0.4614232E+02  0.7816164E-02  0.1320468E+00
        -11   -1    0    0    0    0  0.00000000000E+00  0.00000000000E+00  0.45593999997E+02  0.45594000000E+02  0.51100000000E-03 0.  1.
         11   -1    0    0    0    0 -0.00000000000E+00 -0.00000000000E+00 -0.45593999997E+02  0.45594000000E+02  0.51100000000E-03 0. -1.
    9900012    2    1    2    0    0 -0.20964546134E+02  0.77697441507E+01  0.39105399843E+02  0.46142318568E+02  0.10000007362E+02 0.  0.
         12    1    1    2    0    0  0.20964546134E+02 -0.77697441507E+01 -0.39105399843E+02  0.45045681432E+02  0.00000000000E+00 0. -1.
         11    1    3    3    0    0 -0.70089275006E+01  0.73503158831E+01  0.20236207027E+02  0.22641914305E+02  0.51100000000E-03 0. -1.
        -11    1    3    3    0    0 -0.87343650009E+01  0.44394131542E+00  0.12670753214E+02  0.15395915145E+02  0.51100000000E-03 0.  1.
         12    1    3    3    0    0 -0.52212536330E+01 -0.24513047767E-01  0.61984396013E+01  0.81044891190E+01  0.00000000000E+00 0. -1.
</event>
<event>
 7    1  0.1385632E-008  0.4614232E+02  0.7816164E-02  0.1320468E+00
        -11   -1    0    0    0    0  0.00000000000E+00  0.00000000000E+00  0.45593999997E+02  0.45594000000E+02  0.51100000000E-03 0. -1.
         11   -1    0    0    0    0 -0.00000000000E+00 -0.00000000000E+00 -0.45593999997E+02  0.45594000000E+02  0.51100000000E-03 0.  1.
    9900012    2    1    2    0    0  0.22148729349E+02 -0.14887660978E+02 -0.36289183178E+02  0.46142317889E+02  0.10000001162E+02 0.  0.
         12    1    1    2    0    0 -0.22148729349E+02  0.14887660978E+02  0.36289183178E+02  0.45045682111E+02  0.00000000000E+00 0. -1.
         11    1    3    3    0    0  0.48485023115E+01 -0.81256354625E+01 -0.12029405135E+02  0.15304917984E+02  0.51100000000E-03 0. -1.
        -11    1    3    3    0    0  0.16173945033E+02 -0.52273118237E+01 -0.20558993647E+02  0.26675710054E+02  0.51100000000E-03 0.  1.
        -12    1    3    3    0    0  0.11262820042E+01 -0.15347136920E+01 -0.37007843953E+01  0.41616898503E+01  0.00000000000E+00 0.  1.
</event>
<event>
 7    1  0.1385632E-008  0.4614232E+02  0.7816164E-02  0.1320468E+00
        -11   -1    0    0    0    0  0.00000000000E+00  0.00000000000E+00  0.45593999997E+02  0.45594000000E+02  0.51100000000E-03 0. -1.
         11   -1    0    0    0    0 -0.00000000000E+00 -0.00000000000E+00 -0.45593999997E+02  0.45594000000E+02  0.51100000000E-03 0.  1.
    9900012    2    1    2    0    0 -0.88821219737E+01 -0.40542863767E+02 -0.17507072609E+02  0.46142317804E+02  0.10000000391E+02 0.  0.
         12    1    1    2    0    0  0.88821219737E+01  0.40542863767E+02  0.17507072609E+02  0.45045682196E+02  0.00000000000E+00 0. -1.
         11    1    3    3    0    0 -0.31137224129E+01 -0.34843324413E+01 -0.35471564107E+01  0.58666991306E+01  0.51100000000E-03 0. -1.
        -11    1    3    3    0    0 -0.65251668808E+01 -0.31844659439E+02 -0.11806312998E+02  0.34583943738E+02  0.51100000000E-03 0.  1.
         12    1    3    3    0    0  0.75676731998E+00 -0.52138718865E+01 -0.21536032000E+01  0.56916749352E+01  0.00000000000E+00 0. -1.
</event>
<event>
 7    1  0.1385632E-008  0.4614232E+02  0.7816164E-02  0.1320468E+00
        -11   -1    0    0    0    0  0.00000000000E+00  0.00000000000E+00  0.45593999997E+02  0.45594000000E+02  0.51100000000E-03 0.  1.
         11   -1    0    0    0    0 -0.00000000000E+00 -0.00000000000E+00 -0.45593999997E+02  0.45594000000E+02  0.51100000000E-03 0. -1.
    9900012    2    1    2    0    0 -0.30827547714E+02 -0.17110742374E+02 -0.28035660848E+02  0.46142317833E+02  0.10000000658E+02 0.  0.
         12    1    1    2    0    0  0.30827547714E+02  0.17110742374E+02  0.28035660848E+02  0.45045682167E+02  0.00000000000E+00 0. -1.
         11    1    3    3    0    0 -0.42675412357E+01 -0.69205635143E+01 -0.54926689650E+01  0.98120089775E+01  0.51100000000E-03 0. -1.
        -11    1    3    3    0    0 -0.25423160901E+02 -0.99727338573E+01 -0.21903526800E+02  0.35007956486E+02  0.51100000000E-03 0.  1.
        -12    1    3    3    0    0 -0.11368455780E+01 -0.21744500203E+00 -0.63946508295E+00  0.13223523696E+01  0.00000000000E+00 0.  1.
</event>
<event>
 7    1  0.1385632E-008  0.4614232E+02  0.7816164E-02  0.1320468E+00
        -11   -1    0    0    0    0  0.00000000000E+00  0.00000000000E+00  0.45593999997E+02  0.45594000000E+02  0.51100000000E-03 0. -1.
         11   -1    0    0    0    0 -0.00000000000E+00 -0.00000000000E+00 -0.45593999997E+02  0.45594000000E+02  0.51100000000E-03 0.  1.
    9900012    2    1    2    0    0 -0.65803043953E+01 -0.42793907355E+02  0.12429589897E+02  0.46142316326E+02  0.99999869180E+01 0.  0.
         12    1    1    2    0    0  0.65803043953E+01  0.42793907355E+02 -0.12429589897E+02  0.45045683674E+02  0.00000000000E+00 0. -1.
         11    1    3    3    0    0 -0.10238599483E+01 -0.84619384945E+01 -0.89197344570E+00  0.85701988990E+01  0.51100000000E-03 0. -1.
        -11    1    3    3    0    0 -0.30757419812E+01 -0.29745575890E+02  0.10980703184E+02  0.31856479976E+02  0.51100000000E-03 0.  1.
        -12    1    3    3    0    0 -0.24807024657E+01 -0.45863929699E+01  0.23408601586E+01  0.57156374518E+01  0.00000000000E+00 0.  1.
</event>
<event>
 7    1  0.1393429E-008  0.4614232E+02  0.7816164E-02  0.1320468E+00
        -11   -1    0    0    0    0  0.00000000000E+00  0.00000000000E+00  0.45593999997E+02  0.45594000000E+02  0.51100000000E-03 0.  1.
         11   -1    0    0    0    0 -0.00000000000E+00 -0.00000000000E+00 -0.45593999997E+02  0.45594000000E+02  0.51100000000E-03 0. -1.
    9900012    2    1    2    0    0  0.36175920366E+02  0.14705987490E+02  0.22453294515E+02  0.46142315223E+02  0.99999768581E+01 0.  0.
         12    1    1    2    0    0 -0.36175920366E+02 -0.14705987490E+02 -0.22453294515E+02  0.45045684777E+02  0.00000000000E+00 0. -1.
         11    1    3    3    0    0  0.19767205383E+01  0.32873271648E+01  0.33592885048E+01  0.50988982628E+01  0.51100000000E-03 0. -1.
        -11    1    3    3    0    0  0.31483920106E+02  0.10319602752E+02  0.18813074515E+02  0.38100698145E+02  0.51100000000E-03 0.  1.
        -12    1    3    3    0    0  0.27152797226E+01  0.10990575739E+01  0.28093149536E+00  0.29427188156E+01  0.00000000000E+00 0.  1.
</event>
<event>
 7    1  0.1385632E-008  0.4614231E+02  0.7816164E-02  0.1320468E+00
        -11   -1    0    0    0    0  0.00000000000E+00  0.00000000000E+00  0.45593999997E+02  0.45594000000E+02  0.51100000000E-03 0.  1.
         11   -1    0    0    0    0 -0.00000000000E+00 -0.00000000000E+00 -0.45593999997E+02  0.45594000000E+02  0.51100000000E-03 0. -1.
    9900012    2    1    2    0    0  0.29077823408E+02 -0.24436970734E+02  0.24216284971E+02  0.46142314185E+02  0.99999673892E+01 0.  0.
         12    1    1    2    0    0 -0.29077823408E+02  0.24436970734E+02 -0.24216284971E+02  0.45045685815E+02  0.00000000000E+00 0. -1.
         11    1    3    3    0    0  0.74378998774E+01 -0.84060214665E+01  0.25449166537E+01  0.11509133439E+02  0.51100000000E-03 0. -1.
        -11    1    3    3    0    0  0.13303280188E+02 -0.91657732971E+01  0.11845755109E+02  0.20032737663E+02  0.51100000000E-03 0.  1.
         12    1    3    3    0    0  0.83366433422E+01 -0.68651759701E+01  0.98256132074E+01  0.14600443083E+02  0.00000000000E+00 0. -1.
</event>
<event>
 7    1  0.1385632E-008  0.4614232E+02  0.7816164E-02  0.1320468E+00
        -11   -1    0    0    0    0  0.00000000000E+00  0.00000000000E+00  0.45593999997E+02  0.45594000000E+02  0.51100000000E-03 0.  1.
         11   -1    0    0    0    0 -0.00000000000E+00 -0.00000000000E+00 -0.45593999997E+02  0.45594000000E+02  0.51100000000E-03 0. -1.
    9900012    2    1    2    0    0 -0.15071705773E+02 -0.33640899278E+02  0.25889131257E+02  0.46142317229E+02  0.99999951434E+01 0.  0.
         12    1    1    2    0    0  0.15071705773E+02  0.33640899278E+02 -0.25889131257E+02  0.45045682771E+02  0.00000000000E+00 0. -1.
         11    1    3    3    0    0 -0.32392097680E+01 -0.16832735690E+02  0.14182523787E+02  0.22248088726E+02  0.51100000000E-03 0. -1.
        -11    1    3    3    0    0 -0.11490777299E+02 -0.14608456776E+02  0.10141191560E+02  0.21172830203E+02  0.51100000000E-03 0.  1.
        -12    1    3    3    0    0 -0.34171870643E+00 -0.21997068113E+01  0.15654159098E+01  0.27213982988E+01  0.00000000000E+00 0.  1.
</event>
<event>
 7    1  0.1385632E-008  0.4614232E+02  0.7816164E-02  0.1320468E+00
        -11   -1    0    0    0    0  0.00000000000E+00  0.00000000000E+00  0.45593999997E+02  0.45594000000E+02  0.51100000000E-03 0.  1.
         11   -1    0    0    0    0 -0.00000000000E+00 -0.00000000000E+00 -0.45593999997E+02  0.45594000000E+02  0.51100000000E-03 0. -1.
    9900012    2    1    2    0    0  0.38729271358E+02  0.14155075855E+02  0.18132589744E+02  0.46142318262E+02  0.10000004569E+02 0.  0.
         12    1    1    2    0    0 -0.38729271358E+02 -0.14155075855E+02 -0.18132589744E+02  0.45045681738E+02  0.00000000000E+00 0. -1.
         11    1    3    3    0    0  0.14362887439E+02  0.37555428111E+01  0.25147505960E+01  0.15057244376E+02  0.51100000000E-03 0. -1.
        -11    1    3    3    0    0  0.15783901887E+02  0.66154454483E+01  0.12527977036E+02  0.21209570625E+02  0.51100000000E-03 0.  1.
        -12    1    3    3    0    0  0.85824820329E+01  0.37840875956E+01  0.30898621123E+01  0.98755032605E+01  0.00000000000E+00 0.  1.
</event>
<event>
 7    1  0.1385632E-008  0.4614232E+02  0.7816164E-02  0.1320468E+00
        -11   -1    0    0    0    0  0.00000000000E+00  0.00000000000E+00  0.45593999997E+02  0.45594000000E+02  0.51100000000E-03 0. -1.
         11   -1    0    0    0    0 -0.00000000000E+00 -0.00000000000E+00 -0.45593999997E+02  0.45594000000E+02  0.51100000000E-03 0.  1.
    9900012    2    1    2    0    0  0.22685205976E+02 -0.29140607161E+01 -0.38807256068E+02  0.46142318259E+02  0.10000004539E+02 0.  0.
         12    1    1    2    0    0 -0.22685205976E+02  0.29140607161E+01  0.38807256068E+02  0.45045681741E+02  0.00000000000E+00 0. -1.
         11    1    3    3    0    0  0.29175121524E+01 -0.32341911491E+01 -0.10591925914E+02  0.11452544014E+02  0.51100000000E-03 0. -1.
        -11    1    3    3    0    0  0.75040108804E+01  0.69041492589E+00 -0.14100284056E+02  0.15987647193E+02  0.51100000000E-03 0.  1.
         12    1    3    3    0    0  0.12263682943E+02 -0.37028449287E+00 -0.14115046098E+02  0.18702127052E+02  0.00000000000E+00 0. -1.
</event>
<event>
 7    1  0.1385632E-008  0.4614232E+02  0.7816164E-02  0.1320468E+00
        -11   -1    0    0    0    0  0.00000000000E+00  0.00000000000E+00  0.45593999997E+02  0.45594000000E+02  0.51100000000E-03 0. -1.
         11   -1    0    0    0    0 -0.00000000000E+00 -0.00000000000E+00 -0.45593999997E+02  0.45594000000E+02  0.51100000000E-03 0.  1.
    9900012    2    1    2    0    0  0.38315706595E+01 -0.39336660264E+02 -0.21611568575E+02  0.46142315737E+02  0.99999815414E+01 0.  0.
         12    1    1    2    0    0 -0.38315706595E+01  0.39336660264E+02  0.21611568575E+02  0.45045684263E+02  0.00000000000E+00 0. -1.
         11    1    3    3    0    0  0.44544261862E+01 -0.25733522317E+02 -0.13135434662E+02  0.29233469303E+02  0.51100000000E-03 0.  1.
        -11    1    3    3    0    0 -0.26274206866E+01 -0.69307966508E+01 -0.59260701704E+01  0.94898677338E+01  0.51100000000E-03 0. -1.
        -12    1    3    3    0    0  0.20045651599E+01 -0.66723412966E+01 -0.25500637425E+01  0.74189786999E+01  0.00000000000E+00 0.  1.
</event>
<event>
 7    1  0.1385632E-008  0.4614232E+02  0.7816164E-02  0.1320468E+00
        -11   -1    0    0    0    0  0.00000000000E+00  0.00000000000E+00  0.45593999997E+02  0.45594000000E+02  0.51100000000E-03 0.  1.
         11   -1    0    0    0    0 -0.00000000000E+00 -0.00000000000E+00 -0.45593999997E+02  0.45594000000E+02  0.51100000000E-03 0. -1.
    9900012    2    1    2    0    0 -0.39909415057E+02 -0.20490393984E+02  0.40615046907E+01  0.46142317897E+02  0.10000001239E+02 0.  0.
         12    1    1    2    0    0  0.39909415057E+02  0.20490393984E+02 -0.40615046907E+01  0.45045682103E+02  0.00000000000E+00 0. -1.
         11    1    3    3    0    0 -0.66300748732E+01 -0.19723591190E+01  0.34054592087E+01  0.77100743188E+01  0.51100000000E-03 0. -1.
        -11    1    3    3    0    0 -0.11845928164E+02 -0.87226845668E+01  0.19036877328E+01  0.14833585789E+02  0.51100000000E-03 0.  1.
        -12    1    3    3    0    0 -0.21433412019E+02 -0.97953502980E+01 -0.12476422508E+01  0.23598657789E+02  0.00000000000E+00 0.  1.
</event>
<event>
 7    1  0.1385632E-008  0.4614232E+02  0.7816164E-02  0.1320468E+00
        -11   -1    0    0    0    0  0.00000000000E+00  0.00000000000E+00  0.45593999997E+02  0.45594000000E+02  0.51100000000E-03 0.  1.
         11   -1    0    0    0    0 -0.00000000000E+00 -0.00000000000E+00 -0.45593999997E+02  0.45594000000E+02  0.51100000000E-03 0. -1.
    9900012    2    1    2    0    0  0.21545742409E+02  0.39557698746E+02 -0.28790580410E+00  0.46142318345E+02  0.10000005321E+02 0.  0.
         12    1    1    2    0    0 -0.21545742409E+02 -0.39557698746E+02  0.28790580410E+00  0.45045681655E+02  0.00000000000E+00 0. -1.
         11    1    3    3    0    0  0.87039838361E+01  0.17749170164E+02  0.39065796301E+01  0.20150775191E+02  0.51100000000E-03 0. -1.
        -11    1    3    3    0    0  0.59146799447E+00  0.32531285327E+01  0.25477422026E+00  0.33162614197E+01  0.51100000000E-03 0.  1.
         12    1    3    3    0    0  0.12250290578E+02  0.18555400049E+02 -0.44492596544E+01  0.22675281734E+02  0.00000000000E+00 0. -1.
</event>
<event>
 7    1  0.1385632E-008  0.4614232E+02  0.7816164E-02  0.1320468E+00
        -11   -1    0    0    0    0  0.00000000000E+00  0.00000000000E+00  0.45593999997E+02  0.45594000000E+02  0.51100000000E-03 0.  1.
         11   -1    0    0    0    0 -0.00000000000E+00 -0.00000000000E+00 -0.45593999997E+02  0.45594000000E+02  0.51100000000E-03 0. -1.
    9900012    2    1    2    0    0 -0.23287951557E+02 -0.76959567377E+01  0.37783025370E+02  0.46142318254E+02  0.10000004498E+02 0.  0.
         12    1    1    2    0    0  0.23287951557E+02  0.76959567377E+01 -0.37783025370E+02  0.45045681746E+02  0.00000000000E+00 0. -1.
         11    1    3    3    0    0  0.55265617336E+00  0.51730577736E+00  0.33504559406E+01  0.34349074782E+01  0.51100000000E-03 0. -1.
        -11    1    3    3    0    0 -0.11892975681E+02 -0.48711653718E+01  0.17022510342E+02  0.21329251774E+02  0.51100000000E-03 0.  1.
         12    1    3    3    0    0 -0.11947632049E+02 -0.33420971433E+01  0.17410059087E+02  0.21378159002E+02  0.00000000000E+00 0. -1.
</event>
<event>
 7    1  0.1385632E-008  0.4614231E+02  0.7816164E-02  0.1320468E+00
        -11   -1    0    0    0    0  0.00000000000E+00  0.00000000000E+00  0.45593999997E+02  0.45594000000E+02  0.51100000000E-03 0.  1.
         11   -1    0    0    0    0 -0.00000000000E+00 -0.00000000000E+00 -0.45593999997E+02  0.45594000000E+02  0.51100000000E-03 0. -1.
    9900012    2    1    2    0    0 -0.28137311803E+02 -0.14177340822E+02  0.32193299725E+02  0.46142313686E+02  0.99999628390E+01 0.  0.
         12    1    1    2    0    0  0.28137311803E+02  0.14177340822E+02 -0.32193299725E+02  0.45045686314E+02  0.00000000000E+00 0. -1.
         11    1    3    3    0    0 -0.39935323944E+01 -0.29136400872E+00  0.15218964031E+01  0.42836156333E+01  0.51100000000E-03 0. -1.
        -11    1    3    3    0    0 -0.20575005392E+02 -0.10222024948E+02  0.22106893708E+02  0.31883152143E+02  0.51100000000E-03 0.  1.
         12    1    3    3    0    0 -0.35687740171E+01 -0.36639518651E+01  0.85645096146E+01  0.99755459096E+01  0.00000000000E+00 0. -1.
</event>
<event>
 7    1  0.1385632E-008  0.4614232E+02  0.7816164E-02  0.1320468E+00
        -11   -1    0    0    0    0  0.00000000000E+00  0.00000000000E+00  0.45593999997E+02  0.45594000000E+02  0.51100000000E-03 0. -1.
         11   -1    0    0    0    0 -0.00000000000E+00 -0.00000000000E+00 -0.45593999997E+02  0.45594000000E+02  0.51100000000E-03 0.  1.
    9900012    2    1    2    0    0  0.17654825237E+02  0.41413004191E+02 -0.15439394367E+01  0.46142317419E+02  0.99999968765E+01 0.  0.
         12    1    1    2    0    0 -0.17654825237E+02 -0.41413004191E+02  0.15439394367E+01  0.45045682581E+02  0.00000000000E+00 0. -1.
         11    1    3    3    0    0  0.92743586064E+01  0.26767363447E+02 -0.21198439203E+01  0.28407731553E+02  0.51100000000E-03 0.  1.
        -11    1    3    3    0    0  0.51037343922E+00  0.58038178823E+01  0.88746133802E+00  0.58934175947E+01  0.51100000000E-03 0. -1.
        -12    1    3    3    0    0  0.78700931913E+01  0.88418228614E+01 -0.31155685441E+00  0.11841168271E+02  0.00000000000E+00 0.  1.
</event>
<event>
 7    1  0.1385632E-008  0.4614232E+02  0.7816164E-02  0.1320468E+00
        -11   -1    0    0    0    0  0.00000000000E+00  0.00000000000E+00  0.45593999997E+02  0.45594000000E+02  0.51100000000E-03 0. -1.
         11   -1    0    0    0    0 -0.00000000000E+00 -0.00000000000E+00 -0.45593999997E+02  0.45594000000E+02  0.51100000000E-03 0.  1.
    9900012    2    1    2    0    0 -0.34095178734E+02  0.44236188589E+01 -0.29104361598E+02  0.46142317845E+02  0.10000000767E+02 0.  0.
         12    1    1    2    0    0  0.34095178734E+02 -0.44236188589E+01  0.29104361598E+02  0.45045682155E+02  0.00000000000E+00 0. -1.
         11    1    3    3    0    0 -0.28544186253E+01 -0.17156910954E+01 -0.22229102337E+01  0.40040768963E+01  0.51100000000E-03 0. -1.
        -11    1    3    3    0    0 -0.31256089507E+02  0.56149327438E+01 -0.26892647095E+02  0.41613520267E+02  0.51100000000E-03 0.  1.
        -12    1    3    3    0    0  0.15329398151E-01  0.52437721042E+00  0.11195730533E-01  0.52472068154E+00  0.00000000000E+00 0.  1.
</event>
<event>
 7    1  0.1385632E-008  0.4614232E+02  0.7816164E-02  0.1320468E+00
        -11   -1    0    0    0    0  0.00000000000E+00  0.00000000000E+00  0.45593999997E+02  0.45594000000E+02  0.51100000000E-03 0. -1.
         11   -1    0    0    0    0 -0.00000000000E+00 -0.00000000000E+00 -0.45593999997E+02  0.45594000000E+02  0.51100000000E-03 0.  1.
    9900012    2    1    2    0    0 -0.22479650411E+02  0.15515137694E+02 -0.35819810720E+02  0.46142322956E+02  0.10000047375E+02 0.  0.
         12    1    1    2    0    0  0.22479650411E+02 -0.15515137694E+02  0.35819810720E+02  0.45045677044E+02  0.00000000000E+00 0. -1.
         11    1    3    3    0    0 -0.67384366070E+01  0.80692958043E+01 -0.18197308458E+02  0.21015758327E+02  0.51100000000E-03 0. -1.
        -11    1    3    3    0    0 -0.62826889288E+01  0.32198666075E+01 -0.43600863411E+01  0.82975944894E+01  0.51100000000E-03 0.  1.
        -12    1    3    3    0    0 -0.94585248752E+01  0.42259752825E+01 -0.13262415921E+02  0.16828970140E+02  0.00000000000E+00 0.  1.
</event>
<event>
 7    1  0.1385632E-008  0.4614232E+02  0.7816164E-02  0.1320468E+00
        -11   -1    0    0    0    0  0.00000000000E+00  0.00000000000E+00  0.45593999997E+02  0.45594000000E+02  0.51100000000E-03 0.  1.
         11   -1    0    0    0    0 -0.00000000000E+00 -0.00000000000E+00 -0.45593999997E+02  0.45594000000E+02  0.51100000000E-03 0. -1.
    9900012    2    1    2    0    0  0.20057537048E+02 -0.30368335878E+02  0.26543792698E+02  0.46142317108E+02  0.99999940437E+01 0.  0.
         12    1    1    2    0    0 -0.20057537048E+02  0.30368335878E+02 -0.26543792698E+02  0.45045682892E+02  0.00000000000E+00 0. -1.
         11    1    3    3    0    0  0.41718986270E+01 -0.90264150608E+01  0.50040076210E+01  0.11131980935E+02  0.51100000000E-03 0. -1.
        -11    1    3    3    0    0  0.43992715826E+01 -0.12036007284E+02  0.97795009502E+01  0.16120102385E+02  0.51100000000E-03 0.  1.
        -12    1    3    3    0    0  0.11486366839E+02 -0.93059135332E+01  0.11760284127E+02  0.18890233789E+02  0.00000000000E+00 0.  1.
</event>
<event>
 7    1  0.1385632E-008  0.4614232E+02  0.7816164E-02  0.1320468E+00
        -11   -1    0    0    0    0  0.00000000000E+00  0.00000000000E+00  0.45593999997E+02  0.45594000000E+02  0.51100000000E-03 0. -1.
         11   -1    0    0    0    0 -0.00000000000E+00 -0.00000000000E+00 -0.45593999997E+02  0.45594000000E+02  0.51100000000E-03 0.  1.
    9900012    2    1    2    0    0  0.19753816402E+02 -0.37944319864E+02 -0.14111302199E+02  0.46142317386E+02  0.99999965780E+01 0.  0.
         12    1    1    2    0    0 -0.19753816402E+02  0.37944319864E+02  0.14111302199E+02  0.45045682614E+02  0.00000000000E+00 0. -1.
         11    1    3    3    0    0 -0.40884492850E+00 -0.39767480030E+01  0.47705159192E+00  0.40260721972E+01  0.51100000000E-03 0. -1.
        -11    1    3    3    0    0  0.14249433212E+02 -0.24046349896E+02 -0.99376357383E+01  0.29665297816E+02  0.51100000000E-03 0.  1.
         12    1    3    3    0    0  0.59132281191E+01 -0.99212219651E+01 -0.46507180525E+01  0.12450947372E+02  0.00000000000E+00 0. -1.
</event>
<event>
 7    1  0.1385632E-008  0.4614232E+02  0.7816164E-02  0.1320468E+00
        -11   -1    0    0    0    0  0.00000000000E+00  0.00000000000E+00  0.45593999997E+02  0.45594000000E+02  0.51100000000E-03 0.  1.
         11   -1    0    0    0    0 -0.00000000000E+00 -0.00000000000E+00 -0.45593999997E+02  0.45594000000E+02  0.51100000000E-03 0. -1.
    9900012    2    1    2    0    0 -0.15480683394E+02 -0.39152043642E+02 -0.16018085410E+02  0.46142321629E+02  0.10000035268E+02 0.  0.
         12    1    1    2    0    0  0.15480683394E+02  0.39152043642E+02  0.16018085410E+02  0.45045678371E+02  0.00000000000E+00 0. -1.
         11    1    3    3    0    0 -0.61616578088E+01 -0.21863073998E+02 -0.10339713430E+02  0.24957357746E+02  0.51100000000E-03 0. -1.
        -11    1    3    3    0    0 -0.93276018160E+01 -0.12965439765E+02 -0.35318285498E+01  0.16357890973E+02  0.51100000000E-03 0.  1.
         12    1    3    3    0    0  0.85762309233E-02 -0.43235298794E+01 -0.21465434306E+01  0.48270729090E+01  0.00000000000E+00 0. -1.
</event>
<event>
 7    1  0.1385632E-008  0.4614232E+02  0.7816164E-02  0.1320468E+00
        -11   -1    0    0    0    0  0.00000000000E+00  0.00000000000E+00  0.45593999997E+02  0.45594000000E+02  0.51100000000E-03 0.  1.
         11   -1    0    0    0    0 -0.00000000000E+00 -0.00000000000E+00 -0.45593999997E+02  0.45594000000E+02  0.51100000000E-03 0. -1.
    9900012    2    1    2    0    0 -0.27150511481E+02  0.33779836608E+02  0.12283560447E+02  0.46142317719E+02  0.99999996171E+01 0.  0.
         12    1    1    2    0    0  0.27150511481E+02 -0.33779836608E+02 -0.12283560447E+02  0.45045682281E+02  0.00000000000E+00 0. -1.
         11    1    3    3    0    0 -0.43645806862E+01  0.15207926711E+01  0.50542933292E+00  0.46494982511E+01  0.51100000000E-03 0. -1.
        -11    1    3    3    0    0 -0.12843882380E+02  0.20916617968E+02  0.90773223652E+01  0.26169982869E+02  0.51100000000E-03 0.  1.
        -12    1    3    3    0    0 -0.99420484147E+01  0.11342425969E+02  0.27008087491E+01  0.15322836599E+02  0.00000000000E+00 0.  1.
</event>
<event>
 7    1  0.1385632E-008  0.4614231E+02  0.7816164E-02  0.1320468E+00
        -11   -1    0    0    0    0  0.00000000000E+00  0.00000000000E+00  0.45593999997E+02  0.45594000000E+02  0.51100000000E-03 0.  1.
         11   -1    0    0    0    0 -0.00000000000E+00 -0.00000000000E+00 -0.45593999997E+02  0.45594000000E+02  0.51100000000E-03 0. -1.
    9900012    2    1    2    0    0 -0.16268020257E+02 -0.39999351454E+02  0.12826424402E+02  0.46142314716E+02  0.99999722296E+01 0.  0.
         12    1    1    2    0    0  0.16268020257E+02  0.39999351454E+02 -0.12826424402E+02  0.45045685284E+02  0.00000000000E+00 0. -1.
         11    1    3    3    0    0 -0.11220846485E+02 -0.16330796359E+02  0.52953741326E+01  0.20509590270E+02  0.51100000000E-03 0. -1.
        -11    1    3    3    0    0 -0.49034321810E+01 -0.14188303396E+02  0.49414757529E+01  0.15804106532E+02  0.51100000000E-03 0.  1.
         12    1    3    3    0    0 -0.14374159070E+00 -0.94802516991E+01  0.25895745160E+01  0.98286179139E+01  0.00000000000E+00 0. -1.
</event>
<event>
 7    1  0.1385632E-008  0.4614232E+02  0.7816164E-02  0.1320468E+00
        -11   -1    0    0    0    0  0.00000000000E+00  0.00000000000E+00  0.45593999997E+02  0.45594000000E+02  0.51100000000E-03 0.  1.
         11   -1    0    0    0    0 -0.00000000000E+00 -0.00000000000E+00 -0.45593999997E+02  0.45594000000E+02  0.51100000000E-03 0. -1.
    9900012    2    1    2    0    0  0.39319049720E+02 -0.17940698817E+02 -0.12698695103E+02  0.46142320937E+02  0.10000028958E+02 0.  0.
         12    1    1    2    0    0 -0.39319049720E+02  0.17940698817E+02  0.12698695103E+02  0.45045679063E+02  0.00000000000E+00 0. -1.
         11    1    3    3    0    0  0.19327567198E+02 -0.53700404197E+01 -0.70377403309E+01  0.21258456603E+02  0.51100000000E-03 0. -1.
        -11    1    3    3    0    0  0.13219491778E+02 -0.70104699227E+01 -0.59845576038E+01  0.16115724662E+02  0.51100000000E-03 0.  1.
         12    1    3    3    0    0  0.67719907445E+01 -0.55601884748E+01  0.32360283187E+00  0.87681396722E+01  0.00000000000E+00 0. -1.
</event>
<event>
 7    1  0.1385632E-008  0.4614232E+02  0.7816164E-02  0.1320468E+00
        -11   -1    0    0    0    0  0.00000000000E+00  0.00000000000E+00  0.45593999997E+02  0.45594000000E+02  0.51100000000E-03 0.  1.
         11   -1    0    0    0    0 -0.00000000000E+00 -0.00000000000E+00 -0.45593999997E+02  0.45594000000E+02  0.51100000000E-03 0. -1.
    9900012    2    1    2    0    0  0.39938377061E+02 -0.16246884089E+00  0.20832982623E+02  0.46142317372E+02  0.99999964545E+01 0.  0.
         12    1    1    2    0    0 -0.39938377061E+02  0.16246884089E+00 -0.20832982623E+02  0.45045682628E+02  0.00000000000E+00 0. -1.
         11    1    3    3    0    0  0.10719154386E+02  0.30333794653E+01  0.50656676857E+01  0.12237755150E+02  0.51100000000E-03 0. -1.
        -11    1    3    3    0    0  0.98894010019E+01 -0.26785936362E+01  0.82636759573E+01  0.13162957746E+02  0.51100000000E-03 0.  1.
        -12    1    3    3    0    0  0.19329821673E+02 -0.51725466994E+00  0.75036389802E+01  0.20741604476E+02  0.00000000000E+00 0.  1.
</event>
<event>
 7    1  0.1385632E-008  0.4614232E+02  0.7816164E-02  0.1320468E+00
        -11   -1    0    0    0    0  0.00000000000E+00  0.00000000000E+00  0.45593999997E+02  0.45594000000E+02  0.51100000000E-03 0.  1.
         11   -1    0    0    0    0 -0.00000000000E+00 -0.00000000000E+00 -0.45593999997E+02  0.45594000000E+02  0.51100000000E-03 0. -1.
    9900012    2    1    2    0    0  0.11982209432E+02  0.11106802967E+02  0.41978315702E+02  0.46142318696E+02  0.10000008523E+02 0.  0.
         12    1    1    2    0    0 -0.11982209432E+02 -0.11106802967E+02 -0.41978315702E+02  0.45045681304E+02  0.00000000000E+00 0. -1.
         11    1    3    3    0    0  0.10538660996E+01  0.47051010736E+01  0.55235657474E+01  0.73320112313E+01  0.51100000000E-03 0. -1.
        -11    1    3    3    0    0  0.14602025763E+01 -0.47052866213E+00  0.30114800396E+01  0.33797338765E+01  0.51100000000E-03 0.  1.
        -12    1    3    3    0    0  0.94681407563E+01  0.68722305551E+01  0.33443269915E+02  0.35430573588E+02  0.00000000000E+00 0.  1.
</event>
<event>
 7    1  0.1385632E-008  0.4614232E+02  0.7816164E-02  0.1320468E+00
        -11   -1    0    0    0    0  0.00000000000E+00  0.00000000000E+00  0.45593999997E+02  0.45594000000E+02  0.51100000000E-03 0. -1.
         11   -1    0    0    0    0 -0.00000000000E+00 -0.00000000000E+00 -0.45593999997E+02  0.45594000000E+02  0.51100000000E-03 0.  1.
    9900012    2    1    2    0    0 -0.30517951725E+02  0.22331210025E+02 -0.24476218968E+02  0.46142316370E+02  0.99999873192E+01 0.  0.
         12    1    1    2    0    0  0.30517951725E+02 -0.22331210025E+02  0.24476218968E+02  0.45045683630E+02  0.00000000000E+00 0. -1.
         11    1    3    3    0    0 -0.44677321441E-01 -0.66808852044E-01 -0.40948572369E+00  0.41729881954E+00  0.51100000000E-03 0. -1.
        -11    1    3    3    0    0 -0.87172523324E+01  0.75343060338E+01 -0.27815109298E+01  0.11852976797E+02  0.51100000000E-03 0.  1.
        -12    1    3    3    0    0 -0.21756022071E+02  0.14863712843E+02 -0.21285222315E+02  0.33872040754E+02  0.00000000000E+00 0.  1.
</event>
<event>
 7    1  0.1385632E-008  0.4614232E+02  0.7816164E-02  0.1320468E+00
        -11   -1    0    0    0    0  0.00000000000E+00  0.00000000000E+00  0.45593999997E+02  0.45594000000E+02  0.51100000000E-03 0.  1.
         11   -1    0    0    0    0 -0.00000000000E+00 -0.00000000000E+00 -0.45593999997E+02  0.45594000000E+02  0.51100000000E-03 0. -1.
    9900012    2    1    2    0    0  0.65276601114E+01  0.69267076329E+01  0.44028670775E+02  0.46142317906E+02  0.10000001319E+02 0.  0.
         12    1    1    2    0    0 -0.65276601114E+01 -0.69267076329E+01 -0.44028670775E+02  0.45045682094E+02  0.00000000000E+00 0. -1.
         11    1    3    3    0    0 -0.15255378656E+01  0.22139207818E+01  0.57061301208E+01  0.63078230971E+01  0.51100000000E-03 0. -1.
        -11    1    3    3    0    0  0.63258486648E+01  0.19360020651E+01  0.16641435166E+02  0.17908149820E+02  0.51100000000E-03 0.  1.
        -12    1    3    3    0    0  0.17273493122E+01  0.27767847860E+01  0.21681105488E+02  0.21926344989E+02  0.00000000000E+00 0.  1.
</event>
<event>
 7    1  0.1385632E-008  0.4614232E+02  0.7816164E-02  0.1320468E+00
        -11   -1    0    0    0    0  0.00000000000E+00  0.00000000000E+00  0.45593999997E+02  0.45594000000E+02  0.51100000000E-03 0. -1.
         11   -1    0    0    0    0 -0.00000000000E+00 -0.00000000000E+00 -0.45593999997E+02  0.45594000000E+02  0.51100000000E-03 0.  1.
    9900012    2    1    2    0    0 -0.50823748336E+01  0.14518761445E+02 -0.42337791416E+02  0.46142317079E+02  0.99999937779E+01 0.  0.
         12    1    1    2    0    0  0.50823748336E+01 -0.14518761445E+02  0.42337791416E+02  0.45045682921E+02  0.00000000000E+00 0. -1.
         11    1    3    3    0    0  0.12509084099E+01  0.56716187532E+01 -0.77402885841E+01  0.96769881036E+01  0.51100000000E-03 0. -1.
        -11    1    3    3    0    0 -0.19036052993E+01  0.55175662241E+01 -0.20597112431E+02  0.21408136092E+02  0.51100000000E-03 0.  1.
         12    1    3    3    0    0 -0.44296779441E+01  0.33295764678E+01 -0.14000390401E+02  0.15057192883E+02  0.00000000000E+00 0. -1.
</event>
<event>
 7    1  0.1385632E-008  0.4614232E+02  0.7816164E-02  0.1320468E+00
        -11   -1    0    0    0    0  0.00000000000E+00  0.00000000000E+00  0.45593999997E+02  0.45594000000E+02  0.51100000000E-03 0. -1.
         11   -1    0    0    0    0 -0.00000000000E+00 -0.00000000000E+00 -0.45593999997E+02  0.45594000000E+02  0.51100000000E-03 0.  1.
    9900012    2    1    2    0    0 -0.43940768796E+02  0.98675377685E+01  0.97676651666E+00  0.46142317223E+02  0.99999950942E+01 0.  0.
         12    1    1    2    0    0  0.43940768796E+02 -0.98675377685E+01 -0.97676651666E+00  0.45045682777E+02  0.00000000000E+00 0. -1.
         11    1    3    3    0    0 -0.60047268698E+01  0.26506333260E+01  0.24184524710E+01  0.69951064627E+01  0.51100000000E-03 0. -1.
        -11    1    3    3    0    0 -0.12455873563E+02 -0.34286874141E+00  0.72063631124E+00  0.12481412666E+02  0.51100000000E-03 0.  1.
        -12    1    3    3    0    0 -0.25480168363E+02  0.75597731839E+01 -0.21623222655E+01  0.26665798094E+02  0.00000000000E+00 0.  1.
</event>
<event>
 7    1  0.1385632E-008  0.4614232E+02  0.7816164E-02  0.1320468E+00
        -11   -1    0    0    0    0  0.00000000000E+00  0.00000000000E+00  0.45593999997E+02  0.45594000000E+02  0.51100000000E-03 0.  1.
         11   -1    0    0    0    0 -0.00000000000E+00 -0.00000000000E+00 -0.45593999997E+02  0.45594000000E+02  0.51100000000E-03 0. -1.
    9900012    2    1    2    0    0  0.95375057728E+01  0.27850172173E+02  0.34095709439E+02  0.46142317537E+02  0.99999979542E+01 0.  0.
         12    1    1    2    0    0 -0.95375057728E+01 -0.27850172173E+02 -0.34095709439E+02  0.45045682463E+02  0.00000000000E+00 0. -1.
         11    1    3    3    0    0  0.10748379883E+01  0.14122545311E+01  0.12157817357E+00  0.17789100807E+01  0.51100000000E-03 0. -1.
        -11    1    3    3    0    0  0.85548825150E+01  0.16463010638E+02  0.22098695640E+02  0.28854273225E+02  0.51100000000E-03 0.  1.
         12    1    3    3    0    0 -0.92214730503E-01  0.99749070043E+01  0.11875435625E+02  0.15509134231E+02  0.00000000000E+00 0. -1.
</event>
<event>
 7    1  0.1385632E-008  0.4614232E+02  0.7816164E-02  0.1320468E+00
        -11   -1    0    0    0    0  0.00000000000E+00  0.00000000000E+00  0.45593999997E+02  0.45594000000E+02  0.51100000000E-03 0.  1.
         11   -1    0    0    0    0 -0.00000000000E+00 -0.00000000000E+00 -0.45593999997E+02  0.45594000000E+02  0.51100000000E-03 0. -1.
    9900012    2    1    2    0    0  0.19427456026E+02  0.89329157872E+01  0.39647073021E+02  0.46142318396E+02  0.10000005786E+02 0.  0.
         12    1    1    2    0    0 -0.19427456026E+02 -0.89329157872E+01 -0.39647073021E+02  0.45045681604E+02  0.00000000000E+00 0. -1.
         11    1    3    3    0    0  0.67121883913E+01 -0.81026193686E+00  0.10627852763E+02  0.12596080820E+02  0.51100000000E-03 0. -1.
        -11    1    3    3    0    0  0.82474099811E+01  0.32569618879E+01  0.13666443303E+02  0.16291078692E+02  0.51100000000E-03 0.  1.
         12    1    3    3    0    0  0.44678576534E+01  0.64862158362E+01  0.15352776955E+02  0.17255158884E+02  0.00000000000E+00 0. -1.
</event>
<event>
 7    1  0.1385632E-008  0.4614232E+02  0.7816164E-02  0.1320468E+00
        -11   -1    0    0    0    0  0.00000000000E+00  0.00000000000E+00  0.45593999997E+02  0.45594000000E+02  0.51100000000E-03 0.  1.
         11   -1    0    0    0    0 -0.00000000000E+00 -0.00000000000E+00 -0.45593999997E+02  0.45594000000E+02  0.51100000000E-03 0. -1.
    9900012    2    1    2    0    0  0.57127413635E+01 -0.30964629851E+02  0.32212881225E+02  0.46142318381E+02  0.10000005653E+02 0.  0.
         12    1    1    2    0    0 -0.57127413635E+01  0.30964629851E+02 -0.32212881225E+02  0.45045681619E+02  0.00000000000E+00 0. -1.
         11    1    3    3    0    0  0.56161965927E+01 -0.12281575607E+02  0.16909972143E+02  0.21640839210E+02  0.51100000000E-03 0. -1.
        -11    1    3    3    0    0 -0.18910677915E+01 -0.87143163598E+01  0.62465583581E+01  0.10887375193E+02  0.51100000000E-03 0.  1.
         12    1    3    3    0    0  0.19876125623E+01 -0.99687378838E+01  0.90563507239E+01  0.13614103978E+02  0.00000000000E+00 0. -1.
</event>
<event>
 7    1  0.1385632E-008  0.4614232E+02  0.7816164E-02  0.1320468E+00
        -11   -1    0    0    0    0  0.00000000000E+00  0.00000000000E+00  0.45593999997E+02  0.45594000000E+02  0.51100000000E-03 0.  1.
         11   -1    0    0    0    0 -0.00000000000E+00 -0.00000000000E+00 -0.45593999997E+02  0.45594000000E+02  0.51100000000E-03 0. -1.
    9900012    2    1    2    0    0 -0.76265816627E+00 -0.41983874223E+02  0.16306018765E+02  0.46142316630E+02  0.99999896887E+01 0.  0.
         12    1    1    2    0    0  0.76265816627E+00  0.41983874223E+02 -0.16306018765E+02  0.45045683370E+02  0.00000000000E+00 0. -1.
         11    1    3    3    0    0 -0.10754041669E+01 -0.17170141038E+02  0.90879396498E+01  0.19456641147E+02  0.51100000000E-03 0. -1.
        -11    1    3    3    0    0  0.26902725493E+00 -0.19936932756E+02  0.84501552046E+01  0.21655456278E+02  0.51100000000E-03 0.  1.
         12    1    3    3    0    0  0.43718745732E-01 -0.48768004301E+01 -0.12320760898E+01  0.50302192055E+01  0.00000000000E+00 0. -1.
</event>
<event>
 7    1  0.1385632E-008  0.4614232E+02  0.7816164E-02  0.1320468E+00
        -11   -1    0    0    0    0  0.00000000000E+00  0.00000000000E+00  0.45593999997E+02  0.45594000000E+02  0.51100000000E-03 0.  1.
         11   -1    0    0    0    0 -0.00000000000E+00 -0.00000000000E+00 -0.45593999997E+02  0.45594000000E+02  0.51100000000E-03 0. -1.
    9900012    2    1    2    0    0  0.77183000208E+01 -0.37234691303E+02 -0.24147858825E+02  0.46142317882E+02  0.10000001100E+02 0.  0.
         12    1    1    2    0    0 -0.77183000208E+01  0.37234691303E+02  0.24147858825E+02  0.45045682118E+02  0.00000000000E+00 0. -1.
         11    1    3    3    0    0  0.19695505675E+00 -0.71860014119E+01 -0.81965246145E+01  0.10902312764E+02  0.51100000000E-03 0. -1.
        -11    1    3    3    0    0  0.23887213656E+01 -0.15319240019E+02 -0.10462944006E+02  0.18704499514E+02  0.51100000000E-03 0.  1.
        -12    1    3    3    0    0  0.51326235985E+01 -0.14729449872E+02 -0.54883902047E+01  0.16535505604E+02  0.00000000000E+00 0.  1.
</event>
<event>
 7    1  0.1385632E-008  0.4614232E+02  0.7816164E-02  0.1320468E+00
        -11   -1    0    0    0    0  0.00000000000E+00  0.00000000000E+00  0.45593999997E+02  0.45594000000E+02  0.51100000000E-03 0. -1.
         11   -1    0    0    0    0 -0.00000000000E+00 -0.00000000000E+00 -0.45593999997E+02  0.45594000000E+02  0.51100000000E-03 0.  1.
    9900012    2    1    2    0    0  0.18083581552E+02 -0.17068882960E+02 -0.37559961310E+02  0.46142318954E+02  0.10000010882E+02 0.  0.
         12    1    1    2    0    0 -0.18083581552E+02  0.17068882960E+02  0.37559961310E+02  0.45045681046E+02  0.00000000000E+00 0. -1.
         11    1    3    3    0    0  0.11915175893E+01  0.56892322431E+00 -0.17555771018E+00  0.13319942085E+01  0.51100000000E-03 0. -1.
        -11    1    3    3    0    0  0.94355648433E+01 -0.10554244009E+02 -0.18365013415E+02  0.23188265750E+02  0.51100000000E-03 0.  1.
         12    1    3    3    0    0  0.74564991191E+01 -0.70835621754E+01 -0.19019390185E+02  0.21622058996E+02  0.00000000000E+00 0. -1.
</event>
<event>
 7    1  0.1385632E-008  0.4614232E+02  0.7816164E-02  0.1320468E+00
        -11   -1    0    0    0    0  0.00000000000E+00  0.00000000000E+00  0.45593999997E+02  0.45594000000E+02  0.51100000000E-03 0.  1.
         11   -1    0    0    0    0 -0.00000000000E+00 -0.00000000000E+00 -0.45593999997E+02  0.45594000000E+02  0.51100000000E-03 0. -1.
    9900012    2    1    2    0    0  0.14553040080E+01 -0.28678753227E+02  0.34706264171E+02  0.46142316865E+02  0.99999918245E+01 0.  0.
         12    1    1    2    0    0 -0.14553040080E+01  0.28678753227E+02 -0.34706264171E+02  0.45045683135E+02  0.00000000000E+00 0. -1.
         11    1    3    3    0    0  0.32679838050E+01 -0.89830832216E+01  0.72001871488E+01  0.11967380564E+02  0.51100000000E-03 0. -1.
        -11    1    3    3    0    0 -0.17487623699E+00 -0.16567635733E+02  0.24264841255E+02  0.29381961420E+02  0.51100000000E-03 0.  1.
         12    1    3    3    0    0 -0.16378035601E+01 -0.31280342722E+01  0.32412357674E+01  0.47929748810E+01  0.00000000000E+00 0. -1.
</event>
<event>
 7    1  0.1385632E-008  0.4614232E+02  0.7816164E-02  0.1320468E+00
        -11   -1    0    0    0    0  0.00000000000E+00  0.00000000000E+00  0.45593999997E+02  0.45594000000E+02  0.51100000000E-03 0.  1.
         11   -1    0    0    0    0 -0.00000000000E+00 -0.00000000000E+00 -0.45593999997E+02  0.45594000000E+02  0.51100000000E-03 0. -1.
    9900012    2    1    2    0    0  0.33638582540E+02  0.29441714861E+02  0.55447945053E+01  0.46142317017E+02  0.99999932166E+01 0.  0.
         12    1    1    2    0    0 -0.33638582540E+02 -0.29441714861E+02 -0.55447945053E+01  0.45045682983E+02  0.00000000000E+00 0. -1.
         11    1    3    3    0    0  0.27636554103E+00  0.11200726828E+01  0.88647725919E+00  0.14549168084E+01  0.51100000000E-03 0. -1.
        -11    1    3    3    0    0 -0.20747464658E+00  0.39405296306E+00  0.71446632231E+00  0.84189420565E+00  0.51100000000E-03 0.  1.
        -12    1    3    3    0    0  0.33569691646E+02  0.27927589215E+02  0.39438509238E+01  0.43845506003E+02  0.00000000000E+00 0.  1.
</event>
<event>
 7    1  0.1385632E-008  0.4614232E+02  0.7816164E-02  0.1320468E+00
        -11   -1    0    0    0    0  0.00000000000E+00  0.00000000000E+00  0.45593999997E+02  0.45594000000E+02  0.51100000000E-03 0.  1.
         11   -1    0    0    0    0 -0.00000000000E+00 -0.00000000000E+00 -0.45593999997E+02  0.45594000000E+02  0.51100000000E-03 0. -1.
    9900012    2    1    2    0    0 -0.33527885629E+02  0.15601499536E+02  0.25721345935E+02  0.46142317196E+02  0.99999948514E+01 0.  0.
         12    1    1    2    0    0  0.33527885629E+02 -0.15601499536E+02 -0.25721345935E+02  0.45045682804E+02  0.00000000000E+00 0. -1.
         11    1    3    3    0    0 -0.28097961984E+02  0.10934266159E+02  0.21586600686E+02  0.37081464015E+02  0.51100000000E-03 0. -1.
        -11    1    3    3    0    0 -0.12243999602E+01 -0.41441095088E+00  0.14410750799E+01  0.19358691448E+01  0.51100000000E-03 0.  1.
         12    1    3    3    0    0 -0.42055236851E+01  0.50816443279E+01  0.26936701696E+01  0.71249840368E+01  0.00000000000E+00 0. -1.
</event>
<event>
 7    1  0.1385632E-008  0.4614232E+02  0.7816164E-02  0.1320468E+00
        -11   -1    0    0    0    0  0.00000000000E+00  0.00000000000E+00  0.45593999997E+02  0.45594000000E+02  0.51100000000E-03 0. -1.
         11   -1    0    0    0    0 -0.00000000000E+00 -0.00000000000E+00 -0.45593999997E+02  0.45594000000E+02  0.51100000000E-03 0.  1.
    9900012    2    1    2    0    0 -0.29567513653E+02  0.33941703040E+02  0.16841411982E+01  0.46142318737E+02  0.10000008899E+02 0.  0.
         12    1    1    2    0    0  0.29567513653E+02 -0.33941703040E+02 -0.16841411982E+01  0.45045681263E+02  0.00000000000E+00 0. -1.
         11    1    3    3    0    0 -0.16904674217E+02  0.14956745150E+02  0.43087564782E+01  0.22979069139E+02  0.51100000000E-03 0. -1.
        -11    1    3    3    0    0 -0.96086326123E+01  0.15572493726E+02 -0.10800700728E+01  0.18330164569E+02  0.51100000000E-03 0.  1.
         12    1    3    3    0    0 -0.30542068237E+01  0.34124641644E+01 -0.15445452072E+01  0.48330850285E+01  0.00000000000E+00 0. -1.
</event>
<event>
 7    1  0.1385632E-008  0.4614232E+02  0.7816164E-02  0.1320468E+00
        -11   -1    0    0    0    0  0.00000000000E+00  0.00000000000E+00  0.45593999997E+02  0.45594000000E+02  0.51100000000E-03 0.  1.
         11   -1    0    0    0    0 -0.00000000000E+00 -0.00000000000E+00 -0.45593999997E+02  0.45594000000E+02  0.51100000000E-03 0. -1.
    9900012    2    1    2    0    0 -0.96478654702E+01  0.41318064300E+02  0.15127778306E+02  0.46142318496E+02  0.10000006705E+02 0.  0.
         12    1    1    2    0    0  0.96478654702E+01 -0.41318064300E+02 -0.15127778306E+02  0.45045681504E+02  0.00000000000E+00 0. -1.
         11    1    3    3    0    0  0.62753016804E+00  0.48814872856E+01  0.76279375699E+00  0.49804183366E+01  0.51100000000E-03 0. -1.
        -11    1    3    3    0    0 -0.71019338669E+01  0.12865810423E+02  0.68952686301E+01  0.16233030285E+02  0.51100000000E-03 0.  1.
        -12    1    3    3    0    0 -0.31734617714E+01  0.23570766591E+02  0.74697159189E+01  0.24928869874E+02  0.00000000000E+00 0.  1.
</event>
<event>
 7    1  0.1385632E-008  0.4614232E+02  0.7816164E-02  0.1320468E+00
        -11   -1    0    0    0    0  0.00000000000E+00  0.00000000000E+00  0.45593999997E+02  0.45594000000E+02  0.51100000000E-03 0. -1.
         11   -1    0    0    0    0 -0.00000000000E+00 -0.00000000000E+00 -0.45593999997E+02  0.45594000000E+02  0.51100000000E-03 0.  1.
    9900012    2    1    2    0    0  0.33729333393E+02  0.12098223336E+02 -0.27296128688E+02  0.46142316740E+02  0.99999906848E+01 0.  0.
         12    1    1    2    0    0 -0.33729333393E+02 -0.12098223336E+02  0.27296128688E+02  0.45045683260E+02  0.00000000000E+00 0. -1.
         11    1    3    3    0    0  0.17675907331E+02  0.84323036446E+01 -0.12985772603E+02  0.23498334730E+02  0.51100000000E-03 0. -1.
        -11    1    3    3    0    0  0.13171676388E+02  0.43556665251E+01 -0.13924264584E+02  0.19655788822E+02  0.51100000000E-03 0.  1.
         12    1    3    3    0    0  0.28817496744E+01 -0.68974683336E+00 -0.38609150121E+00  0.29881931878E+01  0.00000000000E+00 0. -1.
</event>
<event>
 7    1  0.1385632E-008  0.4614232E+02  0.7816164E-02  0.1320468E+00
        -11   -1    0    0    0    0  0.00000000000E+00  0.00000000000E+00  0.45593999997E+02  0.45594000000E+02  0.51100000000E-03 0. -1.
         11   -1    0    0    0    0 -0.00000000000E+00 -0.00000000000E+00 -0.45593999997E+02  0.45594000000E+02  0.51100000000E-03 0.  1.
    9900012    2    1    2    0    0 -0.12246069470E+02  0.37133010317E+02 -0.22367093978E+02  0.46142316903E+02  0.99999921732E+01 0.  0.
         12    1    1    2    0    0  0.12246069470E+02 -0.37133010317E+02  0.22367093978E+02  0.45045683097E+02  0.00000000000E+00 0. -1.
         11    1    3    3    0    0 -0.12203275776E+01  0.13517089816E+02 -0.60696039736E+01  0.14867447970E+02  0.51100000000E-03 0. -1.
        -11    1    3    3    0    0 -0.19672801177E+01  0.10811667783E+02 -0.72992610319E+01  0.13192481313E+02  0.51100000000E-03 0.  1.
         12    1    3    3    0    0 -0.90584617749E+01  0.12804252718E+02 -0.89982289730E+01  0.18082387620E+02  0.00000000000E+00 0. -1.
</event>
<event>
 7    1  0.1385632E-008  0.4614232E+02  0.7816164E-02  0.1320468E+00
        -11   -1    0    0    0    0  0.00000000000E+00  0.00000000000E+00  0.45593999997E+02  0.45594000000E+02  0.51100000000E-03 0.  1.
         11   -1    0    0    0    0 -0.00000000000E+00 -0.00000000000E+00 -0.45593999997E+02  0.45594000000E+02  0.51100000000E-03 0. -1.
    9900012    2    1    2    0    0  0.36213145585E+02  0.89656153058E+01  0.25245579929E+02  0.46142317888E+02  0.10000001157E+02 0.  0.
         12    1    1    2    0    0 -0.36213145585E+02 -0.89656153058E+01 -0.25245579929E+02  0.45045682112E+02  0.00000000000E+00 0. -1.
         11    1    3    3    0    0  0.13771928817E+02  0.40619325398E+01  0.13060933788E+02  0.19410134234E+02  0.51100000000E-03 0. -1.
        -11    1    3    3    0    0  0.15841585480E+02  0.39665550317E+01  0.53487264953E+01  0.17184244665E+02  0.51100000000E-03 0.  1.
        -12    1    3    3    0    0  0.65996312885E+01  0.93712773434E+00  0.68359196455E+01  0.95479389889E+01  0.00000000000E+00 0.  1.
</event>
<event>
 7    1  0.1385632E-008  0.4614232E+02  0.7816164E-02  0.1320468E+00
        -11   -1    0    0    0    0  0.00000000000E+00  0.00000000000E+00  0.45593999997E+02  0.45594000000E+02  0.51100000000E-03 0.  1.
         11   -1    0    0    0    0 -0.00000000000E+00 -0.00000000000E+00 -0.45593999997E+02  0.45594000000E+02  0.51100000000E-03 0. -1.
    9900012    2    1    2    0    0 -0.70659450364E+01  0.15204750638E+02  0.41809107280E+02  0.46142317934E+02  0.10000001580E+02 0.  0.
         12    1    1    2    0    0  0.70659450364E+01 -0.15204750638E+02 -0.41809107280E+02  0.45045682066E+02  0.00000000000E+00 0. -1.
         11    1    3    3    0    0 -0.26162332029E+01  0.76144110349E+01  0.14890922147E+02  0.16928186383E+02  0.51100000000E-03 0. -1.
        -11    1    3    3    0    0 -0.12833916569E+01 -0.12208226478E+01  0.25123285981E+01  0.30739709381E+01  0.51100000000E-03 0.  1.
        -12    1    3    3    0    0 -0.31663201766E+01  0.88111622505E+01  0.24405856535E+02  0.26140160613E+02  0.00000000000E+00 0.  1.
</event>
<event>
 7    1  0.1385632E-008  0.4614231E+02  0.7816164E-02  0.1320468E+00
        -11   -1    0    0    0    0  0.00000000000E+00  0.00000000000E+00  0.45593999997E+02  0.45594000000E+02  0.51100000000E-03 0.  1.
         11   -1    0    0    0    0 -0.00000000000E+00 -0.00000000000E+00 -0.45593999997E+02  0.45594000000E+02  0.51100000000E-03 0. -1.
    9900012    2    1    2    0    0 -0.24678918924E+02 -0.40029259649E+01  0.37470547172E+02  0.46142308076E+02  0.99999116854E+01 0.  0.
         12    1    1    2    0    0  0.24678918924E+02  0.40029259649E+01 -0.37470547172E+02  0.45045691924E+02  0.00000000000E+00 0. -1.
         11    1    3    3    0    0 -0.77659586326E+01 -0.17017110893E+01  0.92471339996E+01  0.12194893258E+02  0.51100000000E-03 0.  1.
        -11    1    3    3    0    0 -0.41943121921E+01  0.28243098359E+01  0.91827673572E+01  0.10482947935E+02  0.51100000000E-03 0. -1.
        -12    1    3    3    0    0 -0.12718648100E+02 -0.51255247114E+01  0.19040645815E+02  0.23464466883E+02  0.00000000000E+00 0.  1.
</event>
<event>
 7    1  0.1385632E-008  0.4614232E+02  0.7816164E-02  0.1320468E+00
        -11   -1    0    0    0    0  0.00000000000E+00  0.00000000000E+00  0.45593999997E+02  0.45594000000E+02  0.51100000000E-03 0. -1.
         11   -1    0    0    0    0 -0.00000000000E+00 -0.00000000000E+00 -0.45593999997E+02  0.45594000000E+02  0.51100000000E-03 0.  1.
    9900012    2    1    2    0    0  0.34226018465E+02  0.32478990256E+01 -0.29105744906E+02  0.46142316804E+02  0.99999912750E+01 0.  0.
         12    1    1    2    0    0 -0.34226018465E+02 -0.32478990256E+01  0.29105744906E+02  0.45045683196E+02  0.00000000000E+00 0. -1.
         11    1    3    3    0    0  0.17714036388E+01  0.65130868261E+00 -0.24149947843E+01  0.30650079806E+01  0.51100000000E-03 0. -1.
        -11    1    3    3    0    0  0.21712563924E+02  0.47508951360E+01 -0.13809336192E+02  0.26166853136E+02  0.51100000000E-03 0.  1.
        -12    1    3    3    0    0  0.10742050902E+02 -0.21543047930E+01 -0.12881413930E+02  0.16910455687E+02  0.00000000000E+00 0.  1.
</event>
<event>
 7    1  0.1385632E-008  0.4614232E+02  0.7816164E-02  0.1320468E+00
        -11   -1    0    0    0    0  0.00000000000E+00  0.00000000000E+00  0.45593999997E+02  0.45594000000E+02  0.51100000000E-03 0. -1.
         11   -1    0    0    0    0 -0.00000000000E+00 -0.00000000000E+00 -0.45593999997E+02  0.45594000000E+02  0.51100000000E-03 0.  1.
    9900012    2    1    2    0    0 -0.30525447670E+02 -0.30356832432E+02 -0.13257953877E+02  0.46142316836E+02  0.99999915631E+01 0.  0.
         12    1    1    2    0    0  0.30525447670E+02  0.30356832432E+02  0.13257953877E+02  0.45045683164E+02  0.00000000000E+00 0. -1.
         11    1    3    3    0    0 -0.26402399537E+01 -0.43737157834E+01 -0.13963368822E+01  0.52962263657E+01  0.51100000000E-03 0. -1.
        -11    1    3    3    0    0 -0.24166783737E+02 -0.22409398955E+02 -0.68647900459E+01  0.33665114590E+02  0.51100000000E-03 0.  1.
        -12    1    3    3    0    0 -0.37184239794E+01 -0.35737176932E+01 -0.49968269487E+01  0.71809758805E+01  0.00000000000E+00 0.  1.
</event>
<event>
 7    1  0.1385632E-008  0.4614232E+02  0.7816164E-02  0.1320468E+00
        -11   -1    0    0    0    0  0.00000000000E+00  0.00000000000E+00  0.45593999997E+02  0.45594000000E+02  0.51100000000E-03 0.  1.
         11   -1    0    0    0    0 -0.00000000000E+00 -0.00000000000E+00 -0.45593999997E+02  0.45594000000E+02  0.51100000000E-03 0. -1.
    9900012    2    1    2    0    0 -0.20632722203E+02  0.21751636270E+02  0.33619497219E+02  0.46142317641E+02  0.99999989045E+01 0.  0.
         12    1    1    2    0    0  0.20632722203E+02 -0.21751636270E+02 -0.33619497219E+02  0.45045682359E+02  0.00000000000E+00 0. -1.
         11    1    3    3    0    0 -0.54147276476E+00  0.60207316181E+00  0.55994564624E+01  0.56577025180E+01  0.51100000000E-03 0.  1.
        -11    1    3    3    0    0 -0.14281657343E+02  0.14858189491E+02  0.20840752431E+02  0.29309870242E+02  0.51100000000E-03 0. -1.
        -12    1    3    3    0    0 -0.58095920948E+01  0.62913736176E+01  0.71792883250E+01  0.11174744881E+02  0.00000000000E+00 0.  1.
</event>
<event>
 7    1  0.1385632E-008  0.4614232E+02  0.7816164E-02  0.1320468E+00
        -11   -1    0    0    0    0  0.00000000000E+00  0.00000000000E+00  0.45593999997E+02  0.45594000000E+02  0.51100000000E-03 0.  1.
         11   -1    0    0    0    0 -0.00000000000E+00 -0.00000000000E+00 -0.45593999997E+02  0.45594000000E+02  0.51100000000E-03 0. -1.
    9900012    2    1    2    0    0 -0.14666390243E+02 -0.33324963386E+02  0.26522766872E+02  0.46142319297E+02  0.10000014003E+02 0.  0.
         12    1    1    2    0    0  0.14666390243E+02  0.33324963386E+02 -0.26522766872E+02  0.45045680703E+02  0.00000000000E+00 0. -1.
         11    1    3    3    0    0 -0.91812814513E+01 -0.12279519082E+02  0.11161539047E+02  0.18964769234E+02  0.51100000000E-03 0. -1.
        -11    1    3    3    0    0 -0.48930936141E+01 -0.82794372554E+01  0.59900945805E+01  0.11330166800E+02  0.51100000000E-03 0.  1.
        -12    1    3    3    0    0 -0.59201517797E+00 -0.12766007049E+02  0.93711332448E+01  0.15847383262E+02  0.00000000000E+00 0.  1.
</event>
<event>
 7    1  0.1385632E-008  0.4614232E+02  0.7816164E-02  0.1320468E+00
        -11   -1    0    0    0    0  0.00000000000E+00  0.00000000000E+00  0.45593999997E+02  0.45594000000E+02  0.51100000000E-03 0.  1.
         11   -1    0    0    0    0 -0.00000000000E+00 -0.00000000000E+00 -0.45593999997E+02  0.45594000000E+02  0.51100000000E-03 0. -1.
    9900012    2    1    2    0    0  0.21858890708E+02  0.37538686731E+02 -0.11922640338E+02  0.46142318108E+02  0.10000003165E+02 0.  0.
         12    1    1    2    0    0 -0.21858890708E+02 -0.37538686731E+02  0.11922640338E+02  0.45045681892E+02  0.00000000000E+00 0. -1.
         11    1    3    3    0    0  0.66863336032E+01  0.10583059227E+02 -0.81590024991E+01  0.14942473748E+02  0.51100000000E-03 0. -1.
        -11    1    3    3    0    0  0.10864895021E+02  0.17961734367E+02 -0.28742905175E+01  0.21188001122E+02  0.51100000000E-03 0.  1.
         12    1    3    3    0    0  0.43076620835E+01  0.89938931366E+01 -0.88934732109E+00  0.10011843239E+02  0.00000000000E+00 0. -1.
</event>
<event>
 7    1  0.1385632E-008  0.4614232E+02  0.7816164E-02  0.1320468E+00
        -11   -1    0    0    0    0  0.00000000000E+00  0.00000000000E+00  0.45593999997E+02  0.45594000000E+02  0.51100000000E-03 0.  1.
         11   -1    0    0    0    0 -0.00000000000E+00 -0.00000000000E+00 -0.45593999997E+02  0.45594000000E+02  0.51100000000E-03 0. -1.
    9900012    2    1    2    0    0  0.26548235978E+02 -0.16037948431E+02  0.32666326899E+02  0.46142317226E+02  0.99999951246E+01 0.  0.
         12    1    1    2    0    0 -0.26548235978E+02  0.16037948431E+02 -0.32666326899E+02  0.45045682774E+02  0.00000000000E+00 0. -1.
         11    1    3    3    0    0  0.78021090270E+01 -0.49119305615E+01  0.43279196487E+01  0.10184834601E+02  0.51100000000E-03 0. -1.
        -11    1    3    3    0    0  0.50570971458E+01 -0.21683402131E+01  0.97498519838E+01  0.11195335850E+02  0.51100000000E-03 0.  1.
         12    1    3    3    0    0  0.13689029806E+02 -0.89576776569E+01  0.18588555267E+02  0.24762146775E+02  0.00000000000E+00 0. -1.
</event>
<event>
 7    1  0.1385632E-008  0.4614232E+02  0.7816164E-02  0.1320468E+00
        -11   -1    0    0    0    0  0.00000000000E+00  0.00000000000E+00  0.45593999997E+02  0.45594000000E+02  0.51100000000E-03 0.  1.
         11   -1    0    0    0    0 -0.00000000000E+00 -0.00000000000E+00 -0.45593999997E+02  0.45594000000E+02  0.51100000000E-03 0. -1.
    9900012    2    1    2    0    0 -0.23127466828E+02 -0.35102422006E+01  0.38495609639E+02  0.46142317814E+02  0.10000000478E+02 0.  0.
         12    1    1    2    0    0  0.23127466828E+02  0.35102422006E+01 -0.38495609639E+02  0.45045682186E+02  0.00000000000E+00 0. -1.
         11    1    3    3    0    0 -0.22801270513E+01  0.10372625882E+01  0.52908960597E+01  0.58539281190E+01  0.51100000000E-03 0. -1.
        -11    1    3    3    0    0 -0.10458325709E+02 -0.51253823112E+01  0.12311083661E+02  0.16947238761E+02  0.51100000000E-03 0.  1.
        -12    1    3    3    0    0 -0.10389014068E+02  0.57787752240E+00  0.20893629918E+02  0.23341150933E+02  0.00000000000E+00 0.  1.
</event>
<event>
 7    1  0.1385632E-008  0.4614232E+02  0.7816164E-02  0.1320468E+00
        -11   -1    0    0    0    0  0.00000000000E+00  0.00000000000E+00  0.45593999997E+02  0.45594000000E+02  0.51100000000E-03 0. -1.
         11   -1    0    0    0    0 -0.00000000000E+00 -0.00000000000E+00 -0.45593999997E+02  0.45594000000E+02  0.51100000000E-03 0.  1.
    9900012    2    1    2    0    0 -0.29427186938E+02  0.29706548098E+02 -0.16753364876E+02  0.46142316903E+02  0.99999921773E+01 0.  0.
         12    1    1    2    0    0  0.29427186938E+02 -0.29706548098E+02  0.16753364876E+02  0.45045683097E+02  0.00000000000E+00 0. -1.
         11    1    3    3    0    0 -0.87182366720E+00 -0.49629276719E+00  0.49607127196E+00  0.11191380547E+01  0.51100000000E-03 0. -1.
        -11    1    3    3    0    0 -0.11491408177E+02  0.13067663406E+02 -0.69233925858E+01  0.18728311561E+02  0.51100000000E-03 0.  1.
         12    1    3    3    0    0 -0.17063955094E+02  0.17135177459E+02 -0.10326043562E+02  0.26294867287E+02  0.00000000000E+00 0. -1.
</event>
<event>
 7    1  0.1385632E-008  0.4614232E+02  0.7816164E-02  0.1320468E+00
        -11   -1    0    0    0    0  0.00000000000E+00  0.00000000000E+00  0.45593999997E+02  0.45594000000E+02  0.51100000000E-03 0.  1.
         11   -1    0    0    0    0 -0.00000000000E+00 -0.00000000000E+00 -0.45593999997E+02  0.45594000000E+02  0.51100000000E-03 0. -1.
    9900012    2    1    2    0    0 -0.18630693845E+02 -0.10839089949E+01  0.40997996392E+02  0.46142319630E+02  0.10000017039E+02 0.  0.
         12    1    1    2    0    0  0.18630693845E+02  0.10839089949E+01 -0.40997996392E+02  0.45045680370E+02  0.00000000000E+00 0. -1.
         11    1    3    3    0    0 -0.39921488680E+01 -0.38254866392E+00  0.32721513529E+01  0.51759608578E+01  0.51100000000E-03 0. -1.
        -11    1    3    3    0    0 -0.10322479824E+02 -0.32745790855E+01  0.27950943270E+02  0.29975518142E+02  0.51100000000E-03 0.  1.
        -12    1    3    3    0    0 -0.43160651530E+01  0.25732187545E+01  0.97749017692E+01  0.10990840630E+02  0.00000000000E+00 0.  1.
</event>
<event>
 7    1  0.1385632E-008  0.4614232E+02  0.7816164E-02  0.1320468E+00
        -11   -1    0    0    0    0  0.00000000000E+00  0.00000000000E+00  0.45593999997E+02  0.45594000000E+02  0.51100000000E-03 0. -1.
         11   -1    0    0    0    0 -0.00000000000E+00 -0.00000000000E+00 -0.45593999997E+02  0.45594000000E+02  0.51100000000E-03 0.  1.
    9900012    2    1    2    0    0  0.34116346233E+02 -0.34660452490E+01 -0.29209159677E+02  0.46142316978E+02  0.99999928560E+01 0.  0.
         12    1    1    2    0    0 -0.34116346233E+02  0.34660452490E+01  0.29209159677E+02  0.45045683022E+02  0.00000000000E+00 0. -1.
         11    1    3    3    0    0  0.18258764541E+02 -0.51063734279E+01 -0.13411520447E+02  0.23223402272E+02  0.51100000000E-03 0. -1.
        -11    1    3    3    0    0  0.10575412763E+02  0.29225684366E+01 -0.12161112151E+02  0.16379054014E+02  0.51100000000E-03 0.  1.
        -12    1    3    3    0    0  0.52821689291E+01 -0.12822402578E+01 -0.36365270785E+01  0.65398606917E+01  0.00000000000E+00 0.  1.
</event>
<event>
 7    1  0.1385632E-008  0.4614231E+02  0.7816164E-02  0.1320468E+00
        -11   -1    0    0    0    0  0.00000000000E+00  0.00000000000E+00  0.45593999997E+02  0.45594000000E+02  0.51100000000E-03 0.  1.
         11   -1    0    0    0    0 -0.00000000000E+00 -0.00000000000E+00 -0.45593999997E+02  0.45594000000E+02  0.51100000000E-03 0. -1.
    9900012    2    1    2    0    0  0.34568479691E+02  0.20033920583E+02  0.20803274606E+02  0.46142312122E+02  0.99999485782E+01 0.  0.
         12    1    1    2    0    0 -0.34568479691E+02 -0.20033920583E+02 -0.20803274606E+02  0.45045687878E+02  0.00000000000E+00 0. -1.
         11    1    3    3    0    0  0.20938897872E+01  0.35263612447E+01  0.28686510739E+01  0.50048733564E+01  0.51100000000E-03 0. -1.
        -11    1    3    3    0    0  0.24481843669E+02  0.15286969089E+02  0.15066221282E+02  0.32558303355E+02  0.51100000000E-03 0.  1.
         12    1    3    3    0    0  0.79927462346E+01  0.12205902493E+01  0.28684022501E+01  0.85791354108E+01  0.00000000000E+00 0. -1.
</event>
<event>
 7    1  0.1385632E-008  0.4614232E+02  0.7816164E-02  0.1320468E+00
        -11   -1    0    0    0    0  0.00000000000E+00  0.00000000000E+00  0.45593999997E+02  0.45594000000E+02  0.51100000000E-03 0.  1.
         11   -1    0    0    0    0 -0.00000000000E+00 -0.00000000000E+00 -0.45593999997E+02  0.45594000000E+02  0.51100000000E-03 0. -1.
    9900012    2    1    2    0    0  0.30618949546E+02  0.32906072370E+02  0.29637419732E+01  0.46142318336E+02  0.10000005244E+02 0.  0.
         12    1    1    2    0    0 -0.30618949546E+02 -0.32906072370E+02 -0.29637419732E+01  0.45045681664E+02  0.00000000000E+00 0. -1.
         11    1    3    3    0    0  0.10971648059E+02  0.12066924228E+02  0.58854104865E+01  0.17338563329E+02  0.51100000000E-03 0. -1.
        -11    1    3    3    0    0  0.82722215323E+01  0.90440286980E+01 -0.16645451526E+01  0.12369107284E+02  0.51100000000E-03 0.  1.
         12    1    3    3    0    0  0.11375079954E+02  0.11795119443E+02 -0.12571233608E+01  0.16434647723E+02  0.00000000000E+00 0. -1.
</event>
<event>
 7    1  0.1385632E-008  0.4614231E+02  0.7816164E-02  0.1320468E+00
        -11   -1    0    0    0    0  0.00000000000E+00  0.00000000000E+00  0.45593999997E+02  0.45594000000E+02  0.51100000000E-03 0.  1.
         11   -1    0    0    0    0 -0.00000000000E+00 -0.00000000000E+00 -0.45593999997E+02  0.45594000000E+02  0.51100000000E-03 0. -1.
    9900012    2    1    2    0    0 -0.13622361901E+02 -0.13016424716E+02  0.40915991259E+02  0.46142307677E+02  0.99999080456E+01 0.  0.
         12    1    1    2    0    0  0.13622361901E+02  0.13016424716E+02 -0.40915991259E+02  0.45045692323E+02  0.00000000000E+00 0. -1.
         11    1    3    3    0    0 -0.67390814506E+00  0.12595001122E+01  0.24994452364E+01  0.28788399524E+01  0.51100000000E-03 0. -1.
        -11    1    3    3    0    0 -0.76761583980E+01 -0.48005388213E+01  0.17424041838E+02  0.19635829877E+02  0.51100000000E-03 0.  1.
        -12    1    3    3    0    0 -0.52722953581E+01 -0.94753860073E+01  0.20992504185E+02  0.23627637848E+02  0.00000000000E+00 0.  1.
</event>
<event>
 7    1  0.1385632E-008  0.4614232E+02  0.7816164E-02  0.1320468E+00
        -11   -1    0    0    0    0  0.00000000000E+00  0.00000000000E+00  0.45593999997E+02  0.45594000000E+02  0.51100000000E-03 0.  1.
         11   -1    0    0    0    0 -0.00000000000E+00 -0.00000000000E+00 -0.45593999997E+02  0.45594000000E+02  0.51100000000E-03 0. -1.
    9900012    2    1    2    0    0 -0.36495772186E+02  0.25830613646E+02  0.54727689144E+01  0.46142321091E+02  0.10000030367E+02 0.  0.
         12    1    1    2    0    0  0.36495772186E+02 -0.25830613646E+02 -0.54727689144E+01  0.45045678909E+02  0.00000000000E+00 0. -1.
         11    1    3    3    0    0 -0.89955695213E+01  0.37487886925E+01 -0.76268309739E+00  0.97752428841E+01  0.51100000000E-03 0. -1.
        -11    1    3    3    0    0 -0.97864053912E+01  0.41879803855E+01  0.21294231939E+01  0.10855752097E+02  0.51100000000E-03 0.  1.
        -12    1    3    3    0    0 -0.17713797273E+02  0.17893844568E+02  0.41060288179E+01  0.25511326110E+02  0.00000000000E+00 0.  1.
</event>
<event>
 7    1  0.1385632E-008  0.4614232E+02  0.7816164E-02  0.1320468E+00
        -11   -1    0    0    0    0  0.00000000000E+00  0.00000000000E+00  0.45593999997E+02  0.45594000000E+02  0.51100000000E-03 0.  1.
         11   -1    0    0    0    0 -0.00000000000E+00 -0.00000000000E+00 -0.45593999997E+02  0.45594000000E+02  0.51100000000E-03 0. -1.
    9900012    2    1    2    0    0  0.26443104632E+02 -0.30446596628E+02  0.20071883034E+02  0.46142317440E+02  0.99999970682E+01 0.  0.
         12    1    1    2    0    0 -0.26443104632E+02  0.30446596628E+02 -0.20071883034E+02  0.45045682560E+02  0.00000000000E+00 0. -1.
         11    1    3    3    0    0  0.14937951287E+01 -0.13962992339E+01 -0.63542511954E+00  0.21412241314E+01  0.51100000000E-03 0. -1.
        -11    1    3    3    0    0  0.17724262925E+02 -0.15860619461E+02  0.12581315771E+02  0.26907215625E+02  0.51100000000E-03 0.  1.
        -12    1    3    3    0    0  0.72250465783E+01 -0.13189677933E+02  0.81259923827E+01  0.17093877683E+02  0.00000000000E+00 0.  1.
</event>
<event>
 7    1  0.1385632E-008  0.4614232E+02  0.7816164E-02  0.1320468E+00
        -11   -1    0    0    0    0  0.00000000000E+00  0.00000000000E+00  0.45593999997E+02  0.45594000000E+02  0.51100000000E-03 0.  1.
         11   -1    0    0    0    0 -0.00000000000E+00 -0.00000000000E+00 -0.45593999997E+02  0.45594000000E+02  0.51100000000E-03 0. -1.
    9900012    2    1    2    0    0  0.41576718818E+01  0.11429987169E+02  0.43372602592E+02  0.46142317657E+02  0.99999990497E+01 0.  0.
         12    1    1    2    0    0 -0.41576718818E+01 -0.11429987169E+02 -0.43372602592E+02  0.45045682343E+02  0.00000000000E+00 0. -1.
         11    1    3    3    0    0  0.32091750239E+01  0.18851734222E+01  0.61687750567E+01  0.72046144329E+01  0.51100000000E-03 0. -1.
        -11    1    3    3    0    0  0.31038808903E+01  0.38314686184E+01  0.11391481375E+02  0.12412899602E+02  0.51100000000E-03 0.  1.
        -12    1    3    3    0    0 -0.21553840325E+01  0.57133451287E+01  0.25812346160E+02  0.26524803622E+02  0.00000000000E+00 0.  1.
</event>
<event>
 7    1  0.1385632E-008  0.4614232E+02  0.7816164E-02  0.1320468E+00
        -11   -1    0    0    0    0  0.00000000000E+00  0.00000000000E+00  0.45593999997E+02  0.45594000000E+02  0.51100000000E-03 0. -1.
         11   -1    0    0    0    0 -0.00000000000E+00 -0.00000000000E+00 -0.45593999997E+02  0.45594000000E+02  0.51100000000E-03 0.  1.
    9900012    2    1    2    0    0 -0.32650042728E+02 -0.69300701248E+01 -0.30249996319E+02  0.46142318305E+02  0.10000004959E+02 0.  0.
         12    1    1    2    0    0  0.32650042728E+02  0.69300701248E+01  0.30249996319E+02  0.45045681695E+02  0.00000000000E+00 0. -1.
         11    1    3    3    0    0  0.69996009815E-01 -0.13325414861E+01 -0.17864595179E+01  0.22297991219E+01  0.51100000000E-03 0. -1.
        -11    1    3    3    0    0 -0.28396594460E+02 -0.34667625439E+01 -0.23954561059E+02  0.37312277005E+02  0.51100000000E-03 0.  1.
         12    1    3    3    0    0 -0.43234442778E+01 -0.21307660947E+01 -0.45089757415E+01  0.66002421782E+01  0.00000000000E+00 0. -1.
</event>
<event>
 7    1  0.1385632E-008  0.4614232E+02  0.7816164E-02  0.1320468E+00
        -11   -1    0    0    0    0  0.00000000000E+00  0.00000000000E+00  0.45593999997E+02  0.45594000000E+02  0.51100000000E-03 0.  1.
         11   -1    0    0    0    0 -0.00000000000E+00 -0.00000000000E+00 -0.45593999997E+02  0.45594000000E+02  0.51100000000E-03 0. -1.
    9900012    2    1    2    0    0  0.23030511717E+01 -0.13023378497E+02  0.43060435749E+02  0.46142316977E+02  0.99999928487E+01 0.  0.
         12    1    1    2    0    0 -0.23030511717E+01  0.13023378497E+02 -0.43060435749E+02  0.45045683023E+02  0.00000000000E+00 0. -1.
         11    1    3    3    0    0 -0.16519071010E+01 -0.31738993292E+01  0.33621143130E+01  0.49098112935E+01  0.51100000000E-03 0. -1.
        -11    1    3    3    0    0  0.42263981225E+01 -0.71255598172E+01  0.26998687302E+02  0.28241196152E+02  0.51100000000E-03 0.  1.
         12    1    3    3    0    0 -0.27143984983E+00 -0.27239193501E+01  0.12699634133E+02  0.12991309531E+02  0.00000000000E+00 0. -1.
</event>
<event>
 7    1  0.1385632E-008  0.4614232E+02  0.7816164E-02  0.1320468E+00
        -11   -1    0    0    0    0  0.00000000000E+00  0.00000000000E+00  0.45593999997E+02  0.45594000000E+02  0.51100000000E-03 0.  1.
         11   -1    0    0    0    0 -0.00000000000E+00 -0.00000000000E+00 -0.45593999997E+02  0.45594000000E+02  0.51100000000E-03 0. -1.
    9900012    2    1    2    0    0 -0.21984956625E+02 -0.27803037784E+02  0.27798673532E+02  0.46142317877E+02  0.10000001052E+02 0.  0.
         12    1    1    2    0    0  0.21984956625E+02  0.27803037784E+02 -0.27798673532E+02  0.45045682123E+02  0.00000000000E+00 0. -1.
         11    1    3    3    0    0  0.33603433933E+00  0.38597876283E+00 -0.30854025490E-01  0.51268988148E+00  0.51100000000E-03 0. -1.
        -11    1    3    3    0    0 -0.25480877779E+01 -0.45533361221E+01  0.54477579947E+01  0.75434533600E+01  0.51100000000E-03 0.  1.
         12    1    3    3    0    0 -0.19772903187E+02 -0.23635680424E+02  0.22381769563E+02  0.38086174635E+02  0.00000000000E+00 0. -1.
</event>
<event>
 7    1  0.1385632E-008  0.4614232E+02  0.7816164E-02  0.1320468E+00
        -11   -1    0    0    0    0  0.00000000000E+00  0.00000000000E+00  0.45593999997E+02  0.45594000000E+02  0.51100000000E-03 0.  1.
         11   -1    0    0    0    0 -0.00000000000E+00 -0.00000000000E+00 -0.45593999997E+02  0.45594000000E+02  0.51100000000E-03 0. -1.
    9900012    2    1    2    0    0 -0.38385429368E+02 -0.35101545409E+01  0.23309893435E+02  0.46142317581E+02  0.99999983561E+01 0.  0.
         12    1    1    2    0    0  0.38385429368E+02  0.35101545409E+01 -0.23309893435E+02  0.45045682419E+02  0.00000000000E+00 0. -1.
         11    1    3    3    0    0 -0.13932874214E+02 -0.31438483663E+00  0.43972309274E+01  0.14613673795E+02  0.51100000000E-03 0. -1.
        -11    1    3    3    0    0 -0.17248179683E+02 -0.52609306036E+00  0.10810279058E+02  0.20362676883E+02  0.51100000000E-03 0.  1.
         12    1    3    3    0    0 -0.72043754712E+01 -0.26696766439E+01  0.81023834497E+01  0.11165966903E+02  0.00000000000E+00 0. -1.
</event>
<event>
 7    1  0.1385632E-008  0.4614232E+02  0.7816164E-02  0.1320468E+00
        -11   -1    0    0    0    0  0.00000000000E+00  0.00000000000E+00  0.45593999997E+02  0.45594000000E+02  0.51100000000E-03 0.  1.
         11   -1    0    0    0    0 -0.00000000000E+00 -0.00000000000E+00 -0.45593999997E+02  0.45594000000E+02  0.51100000000E-03 0. -1.
    9900012    2    1    2    0    0  0.20193591336E+02 -0.16759984861E+02  0.36611954408E+02  0.46142318418E+02  0.10000005991E+02 0.  0.
         12    1    1    2    0    0 -0.20193591336E+02  0.16759984861E+02 -0.36611954408E+02  0.45045681582E+02  0.00000000000E+00 0. -1.
         11    1    3    3    0    0  0.17223415004E+01 -0.38646114838E+01  0.41333146142E+01  0.59148940925E+01  0.51100000000E-03 0. -1.
        -11    1    3    3    0    0  0.14189232842E+02 -0.70255306578E+01  0.17628243429E+02  0.23694880804E+02  0.51100000000E-03 0.  1.
        -12    1    3    3    0    0  0.42820169934E+01 -0.58698427198E+01  0.14850396365E+02  0.16532543522E+02  0.00000000000E+00 0.  1.
</event>
<event>
 7    1  0.1385632E-008  0.4614232E+02  0.7816164E-02  0.1320468E+00
        -11   -1    0    0    0    0  0.00000000000E+00  0.00000000000E+00  0.45593999997E+02  0.45594000000E+02  0.51100000000E-03 0.  1.
         11   -1    0    0    0    0 -0.00000000000E+00 -0.00000000000E+00 -0.45593999997E+02  0.45594000000E+02  0.51100000000E-03 0. -1.
    9900012    2    1    2    0    0  0.37386249207E+02 -0.19697840865E+02  0.15600537273E+02  0.46142319544E+02  0.10000016262E+02 0.  0.
         12    1    1    2    0    0 -0.37386249207E+02  0.19697840865E+02 -0.15600537273E+02  0.45045680456E+02  0.00000000000E+00 0. -1.
         11    1    3    3    0    0  0.18818408919E+02 -0.12018348886E+02  0.48460468898E+01  0.22848575336E+02  0.51100000000E-03 0. -1.
        -11    1    3    3    0    0  0.12710146791E+02 -0.66267640186E+01  0.54945355194E+01  0.15350952857E+02  0.51100000000E-03 0.  1.
         12    1    3    3    0    0  0.58576934977E+01 -0.10527279600E+01  0.52599548643E+01  0.79427913510E+01  0.00000000000E+00 0. -1.
</event>
<event>
 7    1  0.1385632E-008  0.4614232E+02  0.7816164E-02  0.1320468E+00
        -11   -1    0    0    0    0  0.00000000000E+00  0.00000000000E+00  0.45593999997E+02  0.45594000000E+02  0.51100000000E-03 0.  1.
         11   -1    0    0    0    0 -0.00000000000E+00 -0.00000000000E+00 -0.45593999997E+02  0.45594000000E+02  0.51100000000E-03 0. -1.
    9900012    2    1    2    0    0  0.21858633949E+02  0.30325108209E+02  0.25133672107E+02  0.46142317192E+02  0.99999948137E+01 0.  0.
         12    1    1    2    0    0 -0.21858633949E+02 -0.30325108209E+02 -0.25133672107E+02  0.45045682808E+02  0.00000000000E+00 0. -1.
         11    1    3    3    0    0  0.79875213148E+01  0.79272392490E+01  0.61486059160E+01  0.12823687997E+02  0.51100000000E-03 0. -1.
        -11    1    3    3    0    0  0.10119103090E+02  0.14910910710E+02  0.85702117954E+01  0.19954449028E+02  0.51100000000E-03 0.  1.
        -12    1    3    3    0    0  0.37520095442E+01  0.74869582506E+01  0.10414854396E+02  0.13364180168E+02  0.00000000000E+00 0.  1.
</event>
<event>
 7    1  0.1385632E-008  0.4614232E+02  0.7816164E-02  0.1320468E+00
        -11   -1    0    0    0    0  0.00000000000E+00  0.00000000000E+00  0.45593999997E+02  0.45594000000E+02  0.51100000000E-03 0. -1.
         11   -1    0    0    0    0 -0.00000000000E+00 -0.00000000000E+00 -0.45593999997E+02  0.45594000000E+02  0.51100000000E-03 0.  1.
    9900012    2    1    2    0    0 -0.29455243575E+02  0.34013929299E+02  0.21341854316E+01  0.46142317544E+02  0.99999980234E+01 0.  0.
         12    1    1    2    0    0  0.29455243575E+02 -0.34013929299E+02 -0.21341854316E+01  0.45045682456E+02  0.00000000000E+00 0. -1.
         11    1    3    3    0    0 -0.69832530999E+01  0.10044418536E+02 -0.34320517137E+01  0.12705713156E+02  0.51100000000E-03 0. -1.
        -11    1    3    3    0    0 -0.20056595910E+02  0.22494269351E+02  0.52016323354E+01  0.30582939237E+02  0.51100000000E-03 0.  1.
         12    1    3    3    0    0 -0.24153945652E+01  0.14752414124E+01  0.36460480984E+00  0.28536651517E+01  0.00000000000E+00 0. -1.
</event>
<event>
 7    1  0.1385632E-008  0.4614232E+02  0.7816164E-02  0.1320468E+00
        -11   -1    0    0    0    0  0.00000000000E+00  0.00000000000E+00  0.45593999997E+02  0.45594000000E+02  0.51100000000E-03 0.  1.
         11   -1    0    0    0    0 -0.00000000000E+00 -0.00000000000E+00 -0.45593999997E+02  0.45594000000E+02  0.51100000000E-03 0. -1.
    9900012    2    1    2    0    0  0.36072406292E+02 -0.11454657886E+01  0.26955201823E+02  0.46142317711E+02  0.99999995444E+01 0.  0.
         12    1    1    2    0    0 -0.36072406292E+02  0.11454657886E+01 -0.26955201823E+02  0.45045682289E+02  0.00000000000E+00 0. -1.
         11    1    3    3    0    0  0.63265729992E+00 -0.14170557922E+01  0.10519915561E+01  0.18748303584E+01  0.51100000000E-03 0. -1.
        -11    1    3    3    0    0  0.26603689846E+02 -0.85392558791E+00  0.22042005463E+02  0.34559159530E+02  0.51100000000E-03 0.  1.
         12    1    3    3    0    0  0.88360591463E+01  0.11255155915E+01  0.38612048039E+01  0.97083278232E+01  0.00000000000E+00 0. -1.
</event>
<event>
 7    1  0.1385632E-008  0.4614232E+02  0.7816164E-02  0.1320468E+00
        -11   -1    0    0    0    0  0.00000000000E+00  0.00000000000E+00  0.45593999997E+02  0.45594000000E+02  0.51100000000E-03 0.  1.
         11   -1    0    0    0    0 -0.00000000000E+00 -0.00000000000E+00 -0.45593999997E+02  0.45594000000E+02  0.51100000000E-03 0. -1.
    9900012    2    1    2    0    0  0.68095554464E+01  0.33280230009E+02  0.29583266868E+02  0.46142318371E+02  0.10000005560E+02 0.  0.
         12    1    1    2    0    0 -0.68095554464E+01 -0.33280230009E+02 -0.29583266868E+02  0.45045681629E+02  0.00000000000E+00 0. -1.
         11    1    3    3    0    0  0.78528002076E+01  0.32168574531E+02  0.28262198789E+02  0.43534303016E+02  0.51100000000E-03 0.  1.
        -11    1    3    3    0    0 -0.96885685015E+00 -0.15134288126E+00  0.51162234090E+00  0.11060497026E+01  0.51100000000E-03 0. -1.
        -12    1    3    3    0    0 -0.74387911061E-01  0.12629983588E+01  0.80944573884E+00  0.15019656520E+01  0.00000000000E+00 0.  1.
</event>
<event>
 7    1  0.1385632E-008  0.4614232E+02  0.7816164E-02  0.1320468E+00
        -11   -1    0    0    0    0  0.00000000000E+00  0.00000000000E+00  0.45593999997E+02  0.45594000000E+02  0.51100000000E-03 0. -1.
         11   -1    0    0    0    0 -0.00000000000E+00 -0.00000000000E+00 -0.45593999997E+02  0.45594000000E+02  0.51100000000E-03 0.  1.
    9900012    2    1    2    0    0  0.27013477238E+02 -0.24195059147E+02 -0.26720491715E+02  0.46142317442E+02  0.99999970911E+01 0.  0.
         12    1    1    2    0    0 -0.27013477238E+02  0.24195059147E+02  0.26720491715E+02  0.45045682558E+02  0.00000000000E+00 0. -1.
         11    1    3    3    0    0  0.13034426032E+02 -0.12224607324E+02 -0.18815074076E+02  0.25948878568E+02  0.51100000000E-03 0. -1.
        -11    1    3    3    0    0  0.40698740041E+01 -0.41396554035E+01 -0.13350274888E+01  0.59567541435E+01  0.51100000000E-03 0.  1.
        -12    1    3    3    0    0  0.99091772025E+01 -0.78307964194E+01 -0.65703901503E+01  0.14236684731E+02  0.00000000000E+00 0.  1.
</event>
<event>
 7    1  0.1385632E-008  0.4614232E+02  0.7816164E-02  0.1320468E+00
        -11   -1    0    0    0    0  0.00000000000E+00  0.00000000000E+00  0.45593999997E+02  0.45594000000E+02  0.51100000000E-03 0.  1.
         11   -1    0    0    0    0 -0.00000000000E+00 -0.00000000000E+00 -0.45593999997E+02  0.45594000000E+02  0.51100000000E-03 0. -1.
    9900012    2    1    2    0    0  0.18943021510E+01 -0.27552624303E+00  0.45004992913E+02  0.46142315607E+02  0.99999803584E+01 0.  0.
         12    1    1    2    0    0 -0.18943021510E+01  0.27552624303E+00 -0.45004992913E+02  0.45045684393E+02  0.00000000000E+00 0. -1.
         11    1    3    3    0    0  0.42987739037E+01 -0.31769765487E+01  0.32097210585E+02  0.32539261895E+02  0.51100000000E-03 0.  1.
        -11    1    3    3    0    0 -0.24726135611E+01  0.15983824267E+01  0.97923950497E+01  0.10225441080E+02  0.51100000000E-03 0. -1.
        -12    1    3    3    0    0  0.68141808410E-01  0.13030678790E+01  0.31153872779E+01  0.33776126325E+01  0.00000000000E+00 0.  1.
</event>
<event>
 7    1  0.1385632E-008  0.4614232E+02  0.7816164E-02  0.1320468E+00
        -11   -1    0    0    0    0  0.00000000000E+00  0.00000000000E+00  0.45593999997E+02  0.45594000000E+02  0.51100000000E-03 0.  1.
         11   -1    0    0    0    0 -0.00000000000E+00 -0.00000000000E+00 -0.45593999997E+02  0.45594000000E+02  0.51100000000E-03 0. -1.
    9900012    2    1    2    0    0  0.74947138314E+01 -0.31581979700E+02  0.31233335709E+02  0.46142318335E+02  0.10000005230E+02 0.  0.
         12    1    1    2    0    0 -0.74947138314E+01  0.31581979700E+02 -0.31233335709E+02  0.45045681665E+02  0.00000000000E+00 0. -1.
         11    1    3    3    0    0 -0.36769902722E+00 -0.53697112528E+01  0.24980735816E+01  0.59337486797E+01  0.51100000000E-03 0. -1.
        -11    1    3    3    0    0  0.73133494872E+01 -0.16753352649E+02  0.21893857963E+02  0.28521937565E+02  0.51100000000E-03 0.  1.
        -12    1    3    3    0    0  0.54906337142E+00 -0.94589157980E+01  0.68414041648E+01  0.11686632090E+02  0.00000000000E+00 0.  1.
</event>
<event>
 7    1  0.1385632E-008  0.4614231E+02  0.7816164E-02  0.1320468E+00
        -11   -1    0    0    0    0  0.00000000000E+00  0.00000000000E+00  0.45593999997E+02  0.45594000000E+02  0.51100000000E-03 0. -1.
         11   -1    0    0    0    0 -0.00000000000E+00 -0.00000000000E+00 -0.45593999997E+02  0.45594000000E+02  0.51100000000E-03 0.  1.
    9900012    2    1    2    0    0  0.17757788600E+02 -0.12957622533E+02 -0.39317615944E+02  0.46142312513E+02  0.99999521429E+01 0.  0.
         12    1    1    2    0    0 -0.17757788600E+02  0.12957622533E+02  0.39317615944E+02  0.45045687487E+02  0.00000000000E+00 0. -1.
         11    1    3    3    0    0  0.61862610722E+01 -0.88546223613E+00 -0.13416001497E+02  0.14800100197E+02  0.51100000000E-03 0. -1.
        -11    1    3    3    0    0  0.99140853517E+00 -0.39248310862E+01 -0.84326796712E+01  0.93539978959E+01  0.51100000000E-03 0.  1.
        -12    1    3    3    0    0  0.10580118992E+02 -0.81473292111E+01 -0.17468934776E+02  0.21988214420E+02  0.00000000000E+00 0.  1.
</event>
<event>
 7    1  0.1385632E-008  0.4614232E+02  0.7816164E-02  0.1320468E+00
        -11   -1    0    0    0    0  0.00000000000E+00  0.00000000000E+00  0.45593999997E+02  0.45594000000E+02  0.51100000000E-03 0.  1.
         11   -1    0    0    0    0 -0.00000000000E+00 -0.00000000000E+00 -0.45593999997E+02  0.45594000000E+02  0.51100000000E-03 0. -1.
    9900012    2    1    2    0    0  0.29888546921E+01  0.16859064383E+02  0.41664759588E+02  0.46142317679E+02  0.99999992506E+01 0.  0.
         12    1    1    2    0    0 -0.29888546921E+01 -0.16859064383E+02 -0.41664759588E+02  0.45045682321E+02  0.00000000000E+00 0. -1.
         11    1    3    3    0    0 -0.44591474274E+00  0.33641105801E+00 -0.79004880011E-01  0.56414039913E+00  0.51100000000E-03 0. -1.
        -11    1    3    3    0    0  0.49556592190E+01  0.73321513776E+01  0.17602584740E+02  0.19702030147E+02  0.51100000000E-03 0.  1.
         12    1    3    3    0    0 -0.15208897842E+01  0.91905019470E+01  0.24141179728E+02  0.25876147133E+02  0.00000000000E+00 0. -1.
</event>
<event>
 7    1  0.1385632E-008  0.4614233E+02  0.7816164E-02  0.1320468E+00
        -11   -1    0    0    0    0  0.00000000000E+00  0.00000000000E+00  0.45593999997E+02  0.45594000000E+02  0.51100000000E-03 0. -1.
         11   -1    0    0    0    0 -0.00000000000E+00 -0.00000000000E+00 -0.45593999997E+02  0.45594000000E+02  0.51100000000E-03 0.  1.
    9900012    2    1    2    0    0  0.19866692405E+02 -0.36803228234E+02 -0.16731693880E+02  0.46142327004E+02  0.10000084285E+02 0.  0.
         12    1    1    2    0    0 -0.19866692405E+02  0.36803228234E+02  0.16731693880E+02  0.45045672996E+02  0.00000000000E+00 0. -1.
         11    1    3    3    0    0  0.17234190407E+02 -0.23278277519E+02 -0.11483703305E+02  0.31157197645E+02  0.51100000000E-03 0. -1.
        -11    1    3    3    0    0  0.23347516977E+01 -0.12562537035E+02 -0.55536098054E+01  0.13932371814E+02  0.51100000000E-03 0.  1.
         12    1    3    3    0    0  0.29775030053E+00 -0.96241368071E+00  0.30561923091E+00  0.10527575450E+01  0.00000000000E+00 0. -1.
</event>
<event>
 7    1  0.1385632E-008  0.4614232E+02  0.7816164E-02  0.1320468E+00
        -11   -1    0    0    0    0  0.00000000000E+00  0.00000000000E+00  0.45593999997E+02  0.45594000000E+02  0.51100000000E-03 0.  1.
         11   -1    0    0    0    0 -0.00000000000E+00 -0.00000000000E+00 -0.45593999997E+02  0.45594000000E+02  0.51100000000E-03 0. -1.
    9900012    2    1    2    0    0  0.53979501954E+01  0.25693319333E+02  0.36603673814E+02  0.46142318061E+02  0.10000002738E+02 0.  0.
         12    1    1    2    0    0 -0.53979501954E+01 -0.25693319333E+02 -0.36603673814E+02  0.45045681939E+02  0.00000000000E+00 0. -1.
         11    1    3    3    0    0 -0.29250087824E+00  0.75403587336E+00  0.25675494333E+01  0.26919207298E+01  0.51100000000E-03 0. -1.
        -11    1    3    3    0    0 -0.16453592484E+01  0.77194804535E+01  0.68908838780E+01  0.10477684210E+02  0.51100000000E-03 0.  1.
        -12    1    3    3    0    0  0.73358103221E+01  0.17219803006E+02  0.27145240502E+02  0.32972713121E+02  0.00000000000E+00 0.  1.
</event>
<event>
 7    1  0.1385632E-008  0.4614232E+02  0.7816164E-02  0.1320468E+00
        -11   -1    0    0    0    0  0.00000000000E+00  0.00000000000E+00  0.45593999997E+02  0.45594000000E+02  0.51100000000E-03 0. -1.
         11   -1    0    0    0    0 -0.00000000000E+00 -0.00000000000E+00 -0.45593999997E+02  0.45594000000E+02  0.51100000000E-03 0.  1.
    9900012    2    1    2    0    0 -0.37918067934E+02  0.17285143493E+02 -0.17104310922E+02  0.46142317482E+02  0.99999974522E+01 0.  0.
         12    1    1    2    0    0  0.37918067934E+02 -0.17285143493E+02  0.17104310922E+02  0.45045682518E+02  0.00000000000E+00 0. -1.
         11    1    3    3    0    0 -0.12602691091E+02  0.13157847929E+01 -0.43153783387E+01  0.13385873256E+02  0.51100000000E-03 0. -1.
        -11    1    3    3    0    0 -0.23277424072E+02  0.13463550154E+02 -0.11902804615E+02  0.29407183002E+02  0.51100000000E-03 0.  1.
         12    1    3    3    0    0 -0.20379527713E+01  0.25058085460E+01 -0.88612796846E+00  0.33492612236E+01  0.00000000000E+00 0. -1.
</event>
<event>
 7    1  0.1385632E-008  0.4614232E+02  0.7816164E-02  0.1320468E+00
        -11   -1    0    0    0    0  0.00000000000E+00  0.00000000000E+00  0.45593999997E+02  0.45594000000E+02  0.51100000000E-03 0.  1.
         11   -1    0    0    0    0 -0.00000000000E+00 -0.00000000000E+00 -0.45593999997E+02  0.45594000000E+02  0.51100000000E-03 0. -1.
    9900012    2    1    2    0    0 -0.58639531764E+01 -0.74375573899E+01  0.44038735625E+02  0.46142318274E+02  0.10000004674E+02 0.  0.
         12    1    1    2    0    0  0.58639531764E+01  0.74375573899E+01 -0.44038735625E+02  0.45045681726E+02  0.00000000000E+00 0. -1.
         11    1    3    3    0    0  0.72984589283E+00 -0.23192052922E+01  0.19256257063E+02  0.19409142808E+02  0.51100000000E-03 0. -1.
        -11    1    3    3    0    0 -0.70144783749E+01 -0.57806842560E+01  0.21210950275E+02  0.23076473500E+02  0.51100000000E-03 0.  1.
        -12    1    3    3    0    0  0.42067930571E+00  0.66233215826E+00  0.35715282863E+01  0.36567019657E+01  0.00000000000E+00 0.  1.
</event>
<event>
 7    1  0.1385632E-008  0.4614232E+02  0.7816164E-02  0.1320468E+00
        -11   -1    0    0    0    0  0.00000000000E+00  0.00000000000E+00  0.45593999997E+02  0.45594000000E+02  0.51100000000E-03 0.  1.
         11   -1    0    0    0    0 -0.00000000000E+00 -0.00000000000E+00 -0.45593999997E+02  0.45594000000E+02  0.51100000000E-03 0. -1.
    9900012    2    1    2    0    0 -0.40371755330E+02  0.16312175031E+02  0.11538977571E+02  0.46142315567E+02  0.99999799910E+01 0.  0.
         12    1    1    2    0    0  0.40371755330E+02 -0.16312175031E+02 -0.11538977571E+02  0.45045684433E+02  0.00000000000E+00 0. -1.
         11    1    3    3    0    0 -0.63436306457E+01 -0.78267520055E+00  0.27673095324E+01  0.69650723290E+01  0.51100000000E-03 0. -1.
        -11    1    3    3    0    0 -0.22554849992E+02  0.12730814686E+02  0.63184997385E+01  0.26659301190E+02  0.51100000000E-03 0.  1.
        -12    1    3    3    0    0 -0.11473274692E+02  0.43640355463E+01  0.24531682999E+01  0.12517942048E+02  0.00000000000E+00 0.  1.
</event>
<event>
 7    1  0.1385632E-008  0.4614233E+02  0.7816164E-02  0.1320468E+00
        -11   -1    0    0    0    0  0.00000000000E+00  0.00000000000E+00  0.45593999997E+02  0.45594000000E+02  0.51100000000E-03 0. -1.
         11   -1    0    0    0    0 -0.00000000000E+00 -0.00000000000E+00 -0.45593999997E+02  0.45594000000E+02  0.51100000000E-03 0.  1.
    9900012    2    1    2    0    0  0.40648774746E+02 -0.78020016578E+01 -0.17774101548E+02  0.46142325357E+02  0.10000069263E+02 0.  0.
         12    1    1    2    0    0 -0.40648774746E+02  0.78020016578E+01  0.17774101548E+02  0.45045674643E+02  0.00000000000E+00 0. -1.
         11    1    3    3    0    0  0.22086064500E+02 -0.41701025867E+01 -0.12275431751E+02  0.25609963405E+02  0.51100000000E-03 0. -1.
        -11    1    3    3    0    0  0.14680074735E+02 -0.21593011533E+01 -0.17550441110E+01  0.14941464312E+02  0.51100000000E-03 0.  1.
        -12    1    3    3    0    0  0.38826355111E+01 -0.14725979178E+01 -0.37436256856E+01  0.55908976393E+01  0.00000000000E+00 0.  1.
</event>
<event>
 7    1  0.1385632E-008  0.4614232E+02  0.7816164E-02  0.1320468E+00
        -11   -1    0    0    0    0  0.00000000000E+00  0.00000000000E+00  0.45593999997E+02  0.45594000000E+02  0.51100000000E-03 0. -1.
         11   -1    0    0    0    0 -0.00000000000E+00 -0.00000000000E+00 -0.45593999997E+02  0.45594000000E+02  0.51100000000E-03 0.  1.
    9900012    2    1    2    0    0  0.10041486212E+02 -0.10742859385E+02 -0.42577844953E+02  0.46142319253E+02  0.10000013601E+02 0.  0.
         12    1    1    2    0    0 -0.10041486212E+02  0.10742859385E+02  0.42577844953E+02  0.45045680747E+02  0.00000000000E+00 0. -1.
         11    1    3    3    0    0  0.16604571289E+01  0.13383275934E+01 -0.58730088014E+01  0.62482374528E+01  0.51100000000E-03 0. -1.
        -11    1    3    3    0    0  0.38859686656E+01 -0.98459392245E+01 -0.25923197568E+02  0.28000990055E+02  0.51100000000E-03 0.  1.
        -12    1    3    3    0    0  0.44950604180E+01 -0.22352477535E+01 -0.10781638584E+02  0.11893091745E+02  0.00000000000E+00 0.  1.
</event>
<event>
 7    1  0.1385632E-008  0.4614232E+02  0.7816164E-02  0.1320468E+00
        -11   -1    0    0    0    0  0.00000000000E+00  0.00000000000E+00  0.45593999997E+02  0.45594000000E+02  0.51100000000E-03 0.  1.
         11   -1    0    0    0    0 -0.00000000000E+00 -0.00000000000E+00 -0.45593999997E+02  0.45594000000E+02  0.51100000000E-03 0. -1.
    9900012    2    1    2    0    0  0.40907749751E+01 -0.42704917718E+02  0.13735687158E+02  0.46142317200E+02  0.99999948829E+01 0.  0.
         12    1    1    2    0    0 -0.40907749751E+01  0.42704917718E+02 -0.13735687158E+02  0.45045682800E+02  0.00000000000E+00 0. -1.
         11    1    3    3    0    0 -0.86900714153E+00 -0.10284693863E+02  0.50278888615E+01  0.11480843520E+02  0.51100000000E-03 0. -1.
        -11    1    3    3    0    0  0.62845259109E+01 -0.19387392652E+02  0.63837518820E+01  0.21356932086E+02  0.51100000000E-03 0.  1.
        -12    1    3    3    0    0 -0.13247437942E+01 -0.13032831203E+02  0.23240464148E+01  0.13304541594E+02  0.00000000000E+00 0.  1.
</event>
<event>
 7    1  0.1385632E-008  0.4614232E+02  0.7816164E-02  0.1320468E+00
        -11   -1    0    0    0    0  0.00000000000E+00  0.00000000000E+00  0.45593999997E+02  0.45594000000E+02  0.51100000000E-03 0. -1.
         11   -1    0    0    0    0 -0.00000000000E+00 -0.00000000000E+00 -0.45593999997E+02  0.45594000000E+02  0.51100000000E-03 0.  1.
    9900012    2    1    2    0    0 -0.37276834911E+02 -0.12876585943E+02 -0.21765665197E+02  0.46142322427E+02  0.10000042544E+02 0.  0.
         12    1    1    2    0    0  0.37276834911E+02  0.12876585943E+02  0.21765665197E+02  0.45045677573E+02  0.00000000000E+00 0. -1.
         11    1    3    3    0    0 -0.48045443130E+01 -0.30689287454E+01 -0.47155650212E+01  0.73985487381E+01  0.51100000000E-03 0. -1.
        -11    1    3    3    0    0 -0.45414525370E+01 -0.44124013919E+01 -0.27267640204E+01  0.68941511060E+01  0.51100000000E-03 0.  1.
        -12    1    3    3    0    0 -0.27930838061E+02 -0.53952558061E+01 -0.14323336156E+02  0.31849622583E+02  0.00000000000E+00 0.  1.
</event>
<event>
 7    1  0.1385632E-008  0.4614232E+02  0.7816164E-02  0.1320468E+00
        -11   -1    0    0    0    0  0.00000000000E+00  0.00000000000E+00  0.45593999997E+02  0.45594000000E+02  0.51100000000E-03 0.  1.
         11   -1    0    0    0    0 -0.00000000000E+00 -0.00000000000E+00 -0.45593999997E+02  0.45594000000E+02  0.51100000000E-03 0. -1.
    9900012    2    1    2    0    0  0.42729776679E+02  0.79786896906E+01  0.11816098952E+02  0.46142317646E+02  0.99999989547E+01 0.  0.
         12    1    1    2    0    0 -0.42729776679E+02 -0.79786896906E+01 -0.11816098952E+02  0.45045682354E+02  0.00000000000E+00 0. -1.
         11    1    3    3    0    0  0.23727397946E+01 -0.56352418759E+00  0.89954049426E+00  0.25993512661E+01  0.51100000000E-03 0. -1.
        -11    1    3    3    0    0  0.32652563872E+02  0.87806342142E+01  0.58397771865E+01  0.34313152908E+02  0.51100000000E-03 0.  1.
        -12    1    3    3    0    0  0.77044730129E+01 -0.23842033606E+00  0.50767812715E+01  0.92298134728E+01  0.00000000000E+00 0.  1.
</event>
<event>
 7    1  0.1385632E-008  0.4614232E+02  0.7816164E-02  0.1320468E+00
        -11   -1    0    0    0    0  0.00000000000E+00  0.00000000000E+00  0.45593999997E+02  0.45594000000E+02  0.51100000000E-03 0.  1.
         11   -1    0    0    0    0 -0.00000000000E+00 -0.00000000000E+00 -0.45593999997E+02  0.45594000000E+02  0.51100000000E-03 0. -1.
    9900012    2    1    2    0    0 -0.29916501900E+02 -0.30358406190E+02  0.14576814471E+02  0.46142318382E+02  0.10000005659E+02 0.  0.
         12    1    1    2    0    0  0.29916501900E+02  0.30358406190E+02 -0.14576814471E+02  0.45045681618E+02  0.00000000000E+00 0. -1.
         11    1    3    3    0    0 -0.88436162896E+01 -0.15435629207E+02  0.66631335638E+01  0.18996461440E+02  0.51100000000E-03 0. -1.
        -11    1    3    3    0    0 -0.12074020567E+02 -0.75069472034E+01  0.54591639348E+01  0.15229533811E+02  0.51100000000E-03 0.  1.
        -12    1    3    3    0    0 -0.89988650430E+01 -0.74158297793E+01  0.24545169729E+01  0.11916323130E+02  0.00000000000E+00 0.  1.
</event>
<event>
 7    1  0.1385632E-008  0.4614232E+02  0.7816164E-02  0.1320468E+00
        -11   -1    0    0    0    0  0.00000000000E+00  0.00000000000E+00  0.45593999997E+02  0.45594000000E+02  0.51100000000E-03 0.  1.
         11   -1    0    0    0    0 -0.00000000000E+00 -0.00000000000E+00 -0.45593999997E+02  0.45594000000E+02  0.51100000000E-03 0. -1.
    9900012    2    1    2    0    0 -0.11132836828E+01  0.38508934388E+02  0.23343862998E+02  0.46142319098E+02  0.10000012193E+02 0.  0.
         12    1    1    2    0    0  0.11132836828E+01 -0.38508934388E+02 -0.23343862998E+02  0.45045680902E+02  0.00000000000E+00 0. -1.
         11    1    3    3    0    0  0.41840337986E+00  0.81648428107E+01  0.45693771570E+01  0.93658383168E+01  0.51100000000E-03 0. -1.
        -11    1    3    3    0    0 -0.94748256728E+00  0.30471482797E+02  0.19212650602E+02  0.36035190168E+02  0.51100000000E-03 0.  1.
        -12    1    3    3    0    0 -0.58420449534E+00 -0.12739121987E+00 -0.43816476096E+00  0.74129061307E+00  0.00000000000E+00 0.  1.
</event>
<event>
 7    1  0.1385632E-008  0.4614232E+02  0.7816164E-02  0.1320468E+00
        -11   -1    0    0    0    0  0.00000000000E+00  0.00000000000E+00  0.45593999997E+02  0.45594000000E+02  0.51100000000E-03 0. -1.
         11   -1    0    0    0    0 -0.00000000000E+00 -0.00000000000E+00 -0.45593999997E+02  0.45594000000E+02  0.51100000000E-03 0.  1.
    9900012    2    1    2    0    0  0.26043700091E+02  0.30322692808E+02  0.20769531194E+02  0.46142318302E+02  0.10000004937E+02 0.  0.
         12    1    1    2    0    0 -0.26043700091E+02 -0.30322692808E+02 -0.20769531194E+02  0.45045681698E+02  0.00000000000E+00 0. -1.
         11    1    3    3    0    0  0.83926662120E+01  0.92523969254E+01  0.11165646660E+02  0.16754562382E+02  0.51100000000E-03 0. -1.
        -11    1    3    3    0    0  0.16278717246E+02  0.20723917601E+02  0.89792629540E+01  0.27840699692E+02  0.51100000000E-03 0.  1.
        -12    1    3    3    0    0  0.13723166327E+01  0.34637828230E+00  0.62462157967E+00  0.15470562280E+01  0.00000000000E+00 0.  1.
</event>
<event>
 7    1  0.1385632E-008  0.4614232E+02  0.7816164E-02  0.1320468E+00
        -11   -1    0    0    0    0  0.00000000000E+00  0.00000000000E+00  0.45593999997E+02  0.45594000000E+02  0.51100000000E-03 0.  1.
         11   -1    0    0    0    0 -0.00000000000E+00 -0.00000000000E+00 -0.45593999997E+02  0.45594000000E+02  0.51100000000E-03 0. -1.
    9900012    2    1    2    0    0 -0.14532403422E+02  0.82741142933E+01  0.41826567043E+02  0.46142318440E+02  0.10000006192E+02 0.  0.
         12    1    1    2    0    0  0.14532403422E+02 -0.82741142933E+01 -0.41826567043E+02  0.45045681560E+02  0.00000000000E+00 0. -1.
         11    1    3    3    0    0 -0.89071213382E+01  0.19856139462E+01  0.22796126932E+02  0.24554895166E+02  0.51100000000E-03 0. -1.
        -11    1    3    3    0    0 -0.32358200539E+01  0.28834751216E+01  0.15614383474E+02  0.16204750283E+02  0.51100000000E-03 0.  1.
         12    1    3    3    0    0 -0.23894620296E+01  0.34050252255E+01  0.34160566380E+01  0.53826729913E+01  0.00000000000E+00 0. -1.
</event>
<event>
 7    1  0.1385632E-008  0.4614232E+02  0.7816164E-02  0.1320468E+00
        -11   -1    0    0    0    0  0.00000000000E+00  0.00000000000E+00  0.45593999997E+02  0.45594000000E+02  0.51100000000E-03 0.  1.
         11   -1    0    0    0    0 -0.00000000000E+00 -0.00000000000E+00 -0.45593999997E+02  0.45594000000E+02  0.51100000000E-03 0. -1.
    9900012    2    1    2    0    0  0.28112331157E+02  0.32170315715E+02  0.14278694960E+02  0.46142317565E+02  0.99999982109E+01 0.  0.
         12    1    1    2    0    0 -0.28112331157E+02 -0.32170315715E+02 -0.14278694960E+02  0.45045682435E+02  0.00000000000E+00 0. -1.
         11    1    3    3    0    0  0.11706062628E+01  0.49363394295E+01  0.41436984654E+00  0.50901344399E+01  0.51100000000E-03 0. -1.
        -11    1    3    3    0    0  0.27743844047E+01  0.98756756118E+00  0.73833867881E+00  0.30360571106E+01  0.51100000000E-03 0.  1.
        -12    1    3    3    0    0  0.24167340489E+02  0.26246408724E+02  0.13125986435E+02  0.38016126014E+02  0.00000000000E+00 0.  1.
</event>
<event>
 7    1  0.1385632E-008  0.4614232E+02  0.7816164E-02  0.1320468E+00
        -11   -1    0    0    0    0  0.00000000000E+00  0.00000000000E+00  0.45593999997E+02  0.45594000000E+02  0.51100000000E-03 0.  1.
         11   -1    0    0    0    0 -0.00000000000E+00 -0.00000000000E+00 -0.45593999997E+02  0.45594000000E+02  0.51100000000E-03 0. -1.
    9900012    2    1    2    0    0 -0.14181870801E+02 -0.99897411609E+01  0.41571538913E+02  0.46142320568E+02  0.10000025597E+02 0.  0.
         12    1    1    2    0    0  0.14181870801E+02  0.99897411609E+01 -0.41571538913E+02  0.45045679432E+02  0.00000000000E+00 0. -1.
         11    1    3    3    0    0 -0.10846402462E+00 -0.62389754026E+00 -0.39489438130E+00  0.74629378858E+00  0.51100000000E-03 0. -1.
        -11    1    3    3    0    0 -0.34736476054E+01 -0.15540313113E+01  0.13602276423E+02  0.14124558937E+02  0.51100000000E-03 0.  1.
         12    1    3    3    0    0 -0.10599759171E+02 -0.78118123094E+01  0.28364156871E+02  0.31271467843E+02  0.00000000000E+00 0. -1.
</event>
<event>
 7    1  0.1385632E-008  0.4614232E+02  0.7816164E-02  0.1320468E+00
        -11   -1    0    0    0    0  0.00000000000E+00  0.00000000000E+00  0.45593999997E+02  0.45594000000E+02  0.51100000000E-03 0.  1.
         11   -1    0    0    0    0 -0.00000000000E+00 -0.00000000000E+00 -0.45593999997E+02  0.45594000000E+02  0.51100000000E-03 0. -1.
    9900012    2    1    2    0    0 -0.93488995883E+01 -0.38659610561E+01  0.43894941957E+02  0.46142317545E+02  0.99999980310E+01 0.  0.
         12    1    1    2    0    0  0.93488995883E+01  0.38659610561E+01 -0.43894941957E+02  0.45045682455E+02  0.00000000000E+00 0. -1.
         11    1    3    3    0    0 -0.92692685390E+01 -0.24029488528E+01  0.26185724740E+02  0.27881637019E+02  0.51100000000E-03 0. -1.
        -11    1    3    3    0    0  0.79210008320E+00 -0.25768246107E+01  0.14573442072E+02  0.14820683578E+02  0.51100000000E-03 0.  1.
         12    1    3    3    0    0 -0.87173113256E+00  0.11138124074E+01  0.31357751447E+01  0.34399969483E+01  0.00000000000E+00 0. -1.
</event>
<event>
 7    1  0.1385632E-008  0.4614232E+02  0.7816164E-02  0.1320468E+00
        -11   -1    0    0    0    0  0.00000000000E+00  0.00000000000E+00  0.45593999997E+02  0.45594000000E+02  0.51100000000E-03 0. -1.
         11   -1    0    0    0    0 -0.00000000000E+00 -0.00000000000E+00 -0.45593999997E+02  0.45594000000E+02  0.51100000000E-03 0.  1.
    9900012    2    1    2    0    0  0.33322564239E+02 -0.27997466785E+02 -0.11613014803E+02  0.46142317114E+02  0.99999941013E+01 0.  0.
         12    1    1    2    0    0 -0.33322564239E+02  0.27997466785E+02  0.11613014803E+02  0.45045682886E+02  0.00000000000E+00 0. -1.
         11    1    3    3    0    0  0.79801284240E-01  0.34885715295E+00  0.12121525709E+00  0.37783985735E+00  0.51100000000E-03 0. -1.
        -11    1    3    3    0    0  0.32015421012E+02 -0.28471672040E+02 -0.12019456628E+02  0.44498209281E+02  0.51100000000E-03 0.  1.
         12    1    3    3    0    0  0.12273419426E+01  0.12534810227E+00  0.28522656820E+00  0.12662679756E+01  0.00000000000E+00 0. -1.
</event>
<event>
 7    1  0.1385632E-008  0.4614232E+02  0.7816164E-02  0.1320468E+00
        -11   -1    0    0    0    0  0.00000000000E+00  0.00000000000E+00  0.45593999997E+02  0.45594000000E+02  0.51100000000E-03 0.  1.
         11   -1    0    0    0    0 -0.00000000000E+00 -0.00000000000E+00 -0.45593999997E+02  0.45594000000E+02  0.51100000000E-03 0. -1.
    9900012    2    1    2    0    0  0.26968262598E+02 -0.19812429715E+02  0.30154500439E+02  0.46142318126E+02  0.10000003327E+02 0.  0.
         12    1    1    2    0    0 -0.26968262598E+02  0.19812429715E+02 -0.30154500439E+02  0.45045681874E+02  0.00000000000E+00 0. -1.
         11    1    3    3    0    0  0.39982143258E+01 -0.64574439097E+00  0.13591899034E+01  0.42720137018E+01  0.51100000000E-03 0. -1.
        -11    1    3    3    0    0  0.71402806016E+01 -0.66444242024E+01  0.61269235249E+01  0.11518297278E+02  0.51100000000E-03 0.  1.
        -12    1    3    3    0    0  0.15829767670E+02 -0.12522261122E+02  0.22668387011E+02  0.30352007146E+02  0.00000000000E+00 0.  1.
</event>
<event>
 7    1  0.1385632E-008  0.4614232E+02  0.7816164E-02  0.1320468E+00
        -11   -1    0    0    0    0  0.00000000000E+00  0.00000000000E+00  0.45593999997E+02  0.45594000000E+02  0.51100000000E-03 0.  1.
         11   -1    0    0    0    0 -0.00000000000E+00 -0.00000000000E+00 -0.45593999997E+02  0.45594000000E+02  0.51100000000E-03 0. -1.
    9900012    2    1    2    0    0 -0.28648241874E+02 -0.18084123653E+02  0.29687642410E+02  0.46142318713E+02  0.10000008684E+02 0.  0.
         12    1    1    2    0    0  0.28648241874E+02  0.18084123653E+02 -0.29687642410E+02  0.45045681287E+02  0.00000000000E+00 0. -1.
         11    1    3    3    0    0 -0.12693265304E+02 -0.75612346332E+01  0.10339657448E+02  0.18033296139E+02  0.51100000000E-03 0.  1.
        -11    1    3    3    0    0 -0.15221641707E+01  0.45278202020E+00  0.41722630905E+01  0.44642776434E+01  0.51100000000E-03 0. -1.
         12    1    3    3    0    0 -0.14432812399E+02 -0.10975671040E+02  0.15175721872E+02  0.23644744931E+02  0.00000000000E+00 0. -1.
</event>
<event>
 7    1  0.1385632E-008  0.4614232E+02  0.7816164E-02  0.1320468E+00
        -11   -1    0    0    0    0  0.00000000000E+00  0.00000000000E+00  0.45593999997E+02  0.45594000000E+02  0.51100000000E-03 0.  1.
         11   -1    0    0    0    0 -0.00000000000E+00 -0.00000000000E+00 -0.45593999997E+02  0.45594000000E+02  0.51100000000E-03 0. -1.
    9900012    2    1    2    0    0 -0.10398761164E+02  0.34790645661E+02  0.26656900958E+02  0.46142316211E+02  0.99999858693E+01 0.  0.
         12    1    1    2    0    0  0.10398761164E+02 -0.34790645661E+02 -0.26656900958E+02  0.45045683789E+02  0.00000000000E+00 0. -1.
         11    1    3    3    0    0 -0.84608524172E+01  0.27408811699E+02  0.16225492838E+02  0.32955964566E+02  0.51100000000E-03 0. -1.
        -11    1    3    3    0    0 -0.23011697465E+01  0.43892695395E+01  0.54723329491E+01  0.73829193047E+01  0.51100000000E-03 0.  1.
         12    1    3    3    0    0  0.36326099998E+00  0.29925644228E+01  0.49590751715E+01  0.58034323409E+01  0.00000000000E+00 0. -1.
</event>
<event>
 7    1  0.1385632E-008  0.4614232E+02  0.7816164E-02  0.1320468E+00
        -11   -1    0    0    0    0  0.00000000000E+00  0.00000000000E+00  0.45593999997E+02  0.45594000000E+02  0.51100000000E-03 0.  1.
         11   -1    0    0    0    0 -0.00000000000E+00 -0.00000000000E+00 -0.45593999997E+02  0.45594000000E+02  0.51100000000E-03 0. -1.
    9900012    2    1    2    0    0 -0.11026078158E+02  0.21894997742E+02  0.37790848081E+02  0.46142317362E+02  0.99999963564E+01 0.  0.
         12    1    1    2    0    0  0.11026078158E+02 -0.21894997742E+02 -0.37790848081E+02  0.45045682638E+02  0.00000000000E+00 0. -1.
         11    1    3    3    0    0 -0.23769098370E+01  0.10838035479E+02  0.12239896439E+02  0.16520525976E+02  0.51100000000E-03 0. -1.
        -11    1    3    3    0    0 -0.54039990821E+01  0.71021928158E+01  0.20827054123E+02  0.22658564221E+02  0.51100000000E-03 0.  1.
        -12    1    3    3    0    0 -0.32451692390E+01  0.39547694473E+01  0.47238975189E+01  0.69632271642E+01  0.00000000000E+00 0.  1.
</event>
<event>
 7    1  0.1385632E-008  0.4614232E+02  0.7816164E-02  0.1320468E+00
        -11   -1    0    0    0    0  0.00000000000E+00  0.00000000000E+00  0.45593999997E+02  0.45594000000E+02  0.51100000000E-03 0.  1.
         11   -1    0    0    0    0 -0.00000000000E+00 -0.00000000000E+00 -0.45593999997E+02  0.45594000000E+02  0.51100000000E-03 0. -1.
    9900012    2    1    2    0    0 -0.37648955394E+02  0.13497603639E+02  0.20724004209E+02  0.46142317668E+02  0.99999991548E+01 0.  0.
         12    1    1    2    0    0  0.37648955394E+02 -0.13497603639E+02 -0.20724004209E+02  0.45045682332E+02  0.00000000000E+00 0. -1.
         11    1    3    3    0    0 -0.18301504413E+02  0.75528757064E+01  0.70217581645E+01  0.21007048417E+02  0.51100000000E-03 0. -1.
        -11    1    3    3    0    0 -0.17546649427E+02  0.70434138006E+01  0.11750550157E+02  0.22261401872E+02  0.51100000000E-03 0.  1.
        -12    1    3    3    0    0 -0.18008015545E+01 -0.10986858680E+01  0.19516958874E+01  0.28738673791E+01  0.00000000000E+00 0.  1.
</event>
<event>
 7    1  0.1385632E-008  0.4614232E+02  0.7816164E-02  0.1320468E+00
        -11   -1    0    0    0    0  0.00000000000E+00  0.00000000000E+00  0.45593999997E+02  0.45594000000E+02  0.51100000000E-03 0.  1.
         11   -1    0    0    0    0 -0.00000000000E+00 -0.00000000000E+00 -0.45593999997E+02  0.45594000000E+02  0.51100000000E-03 0. -1.
    9900012    2    1    2    0    0  0.16106776904E+02  0.35332202345E+02  0.22832446261E+02  0.46142318886E+02  0.10000010258E+02 0.  0.
         12    1    1    2    0    0 -0.16106776904E+02 -0.35332202345E+02 -0.22832446261E+02  0.45045681114E+02  0.00000000000E+00 0. -1.
         11    1    3    3    0    0 -0.80303015441E+00  0.84610458026E-01  0.40489231767E+00  0.90330194759E+00  0.51100000000E-03 0. -1.
        -11    1    3    3    0    0  0.16054394938E+02  0.30753595350E+02  0.20288556152E+02  0.40188962848E+02  0.51100000000E-03 0.  1.
         12    1    3    3    0    0  0.85541211970E+00  0.44939965371E+01  0.21389977907E+01  0.50500540906E+01  0.00000000000E+00 0. -1.
</event>
<event>
 7    1  0.1385632E-008  0.4614232E+02  0.7816164E-02  0.1320468E+00
        -11   -1    0    0    0    0  0.00000000000E+00  0.00000000000E+00  0.45593999997E+02  0.45594000000E+02  0.51100000000E-03 0. -1.
         11   -1    0    0    0    0 -0.00000000000E+00 -0.00000000000E+00 -0.45593999997E+02  0.45594000000E+02  0.51100000000E-03 0.  1.
    9900012    2    1    2    0    0 -0.38448785036E+02  0.18099234985E+02  0.14940617641E+02  0.46142318373E+02  0.10000005575E+02 0.  0.
         12    1    1    2    0    0  0.38448785036E+02 -0.18099234985E+02 -0.14940617641E+02  0.45045681627E+02  0.00000000000E+00 0. -1.
         11    1    3    3    0    0 -0.12433230240E+01  0.47485764095E+00  0.93774167533E+00  0.16280975499E+01  0.51100000000E-03 0. -1.
        -11    1    3    3    0    0 -0.26536058129E+02  0.11994503649E+02  0.52031442233E+01  0.29582143413E+02  0.51100000000E-03 0.  1.
        -12    1    3    3    0    0 -0.10669403883E+02  0.56298736957E+01  0.87997317422E+01  0.14932077410E+02  0.00000000000E+00 0.  1.
</event>
<event>
 7    1  0.1385632E-008  0.4614232E+02  0.7816164E-02  0.1320468E+00
        -11   -1    0    0    0    0  0.00000000000E+00  0.00000000000E+00  0.45593999997E+02  0.45594000000E+02  0.51100000000E-03 0. -1.
         11   -1    0    0    0    0 -0.00000000000E+00 -0.00000000000E+00 -0.45593999997E+02  0.45594000000E+02  0.51100000000E-03 0.  1.
    9900012    2    1    2    0    0 -0.32492441196E+02  0.65248634401E+01 -0.30508700850E+02  0.46142318683E+02  0.10000008402E+02 0.  0.
         12    1    1    2    0    0  0.32492441196E+02 -0.65248634401E+01  0.30508700850E+02  0.45045681317E+02  0.00000000000E+00 0. -1.
         11    1    3    3    0    0 -0.51850453326E+01 -0.72595448003E+00 -0.79829583861E+01  0.95466920902E+01  0.51100000000E-03 0. -1.
        -11    1    3    3    0    0 -0.16143870832E+02  0.47269229941E+01 -0.16890931118E+02  0.23838454663E+02  0.51100000000E-03 0.  1.
         12    1    3    3    0    0 -0.11163525032E+02  0.25238949260E+01 -0.56348113458E+01  0.12757171929E+02  0.00000000000E+00 0. -1.
</event>
<event>
 7    1  0.1385632E-008  0.4614231E+02  0.7816164E-02  0.1320468E+00
        -11   -1    0    0    0    0  0.00000000000E+00  0.00000000000E+00  0.45593999997E+02  0.45594000000E+02  0.51100000000E-03 0.  1.
         11   -1    0    0    0    0 -0.00000000000E+00 -0.00000000000E+00 -0.45593999997E+02  0.45594000000E+02  0.51100000000E-03 0. -1.
    9900012    2    1    2    0    0 -0.24572572612E+02 -0.27695740787E+02  0.25656354925E+02  0.46142312853E+02  0.99999552393E+01 0.  0.
         12    1    1    2    0    0  0.24572572612E+02  0.27695740787E+02 -0.25656354925E+02  0.45045687147E+02  0.00000000000E+00 0. -1.
         11    1    3    3    0    0 -0.14569233333E+02 -0.12482731856E+02  0.98748845488E+01  0.21577638880E+02  0.51100000000E-03 0. -1.
        -11    1    3    3    0    0 -0.67275494809E+01 -0.64670401070E+01  0.94532237408E+01  0.13283296621E+02  0.51100000000E-03 0.  1.
         12    1    3    3    0    0 -0.32757897982E+01 -0.87459688243E+01  0.63282466358E+01  0.11281377352E+02  0.00000000000E+00 0. -1.
</event>
<event>
 7    1  0.1385632E-008  0.4614232E+02  0.7816164E-02  0.1320468E+00
        -11   -1    0    0    0    0  0.00000000000E+00  0.00000000000E+00  0.45593999997E+02  0.45594000000E+02  0.51100000000E-03 0.  1.
         11   -1    0    0    0    0 -0.00000000000E+00 -0.00000000000E+00 -0.45593999997E+02  0.45594000000E+02  0.51100000000E-03 0. -1.
    9900012    2    1    2    0    0  0.67639390825E+01 -0.43666139364E+02  0.87539075446E+01  0.46142317675E+02  0.99999992103E+01 0.  0.
         12    1    1    2    0    0 -0.67639390825E+01  0.43666139364E+02 -0.87539075446E+01  0.45045682325E+02  0.00000000000E+00 0. -1.
         11    1    3    3    0    0 -0.99679801729E+00 -0.18411977831E+02  0.40633584034E+01  0.18881351003E+02  0.51100000000E-03 0. -1.
        -11    1    3    3    0    0  0.16509361923E+01 -0.12119457969E+02  0.78007995531E+00  0.12256238280E+02  0.51100000000E-03 0.  1.
         12    1    3    3    0    0  0.61098009075E+01 -0.13134703564E+02  0.39104691859E+01  0.15004728391E+02  0.00000000000E+00 0. -1.
</event>
<event>
 7    1  0.1385632E-008  0.4614232E+02  0.7816164E-02  0.1320468E+00
        -11   -1    0    0    0    0  0.00000000000E+00  0.00000000000E+00  0.45593999997E+02  0.45594000000E+02  0.51100000000E-03 0.  1.
         11   -1    0    0    0    0 -0.00000000000E+00 -0.00000000000E+00 -0.45593999997E+02  0.45594000000E+02  0.51100000000E-03 0. -1.
    9900012    2    1    2    0    0  0.21268834978E+00  0.13590560994E+02  0.42946070449E+02  0.46142317061E+02  0.99999936125E+01 0.  0.
         12    1    1    2    0    0 -0.21268834978E+00 -0.13590560994E+02 -0.42946070449E+02  0.45045682939E+02  0.00000000000E+00 0. -1.
         11    1    3    3    0    0  0.16262971295E+01  0.66874672700E+00  0.84324087153E+01  0.86138018053E+01  0.51100000000E-03 0. -1.
        -11    1    3    3    0    0  0.14188930267E+01  0.64880360778E+01  0.98291271830E+01  0.11862529705E+02  0.51100000000E-03 0.  1.
        -12    1    3    3    0    0 -0.28325018064E+01  0.64337781894E+01  0.24684534551E+02  0.25665985550E+02  0.00000000000E+00 0.  1.
</event>
<event>
 7    1  0.1385632E-008  0.4614232E+02  0.7816164E-02  0.1320468E+00
        -11   -1    0    0    0    0  0.00000000000E+00  0.00000000000E+00  0.45593999997E+02  0.45594000000E+02  0.51100000000E-03 0.  1.
         11   -1    0    0    0    0 -0.00000000000E+00 -0.00000000000E+00 -0.45593999997E+02  0.45594000000E+02  0.51100000000E-03 0. -1.
    9900012    2    1    2    0    0 -0.24848313052E+01  0.10223437046E+02  0.43799775244E+02  0.46142319152E+02  0.10000012682E+02 0.  0.
         12    1    1    2    0    0  0.24848313052E+01 -0.10223437046E+02 -0.43799775244E+02  0.45045680848E+02  0.00000000000E+00 0. -1.
         11    1    3    3    0    0 -0.41729255814E+01  0.50386436954E+01  0.11001478379E+02  0.12799756443E+02  0.51100000000E-03 0. -1.
        -11    1    3    3    0    0  0.69263360424E+00  0.49065702072E+01  0.27862723751E+02  0.28299921335E+02  0.51100000000E-03 0.  1.
         12    1    3    3    0    0  0.99546067190E+00  0.27822314384E+00  0.49355731137E+01  0.50426413741E+01  0.00000000000E+00 0. -1.
</event>
<event>
 7    1  0.1385632E-008  0.4614232E+02  0.7816164E-02  0.1320468E+00
        -11   -1    0    0    0    0  0.00000000000E+00  0.00000000000E+00  0.45593999997E+02  0.45594000000E+02  0.51100000000E-03 0. -1.
         11   -1    0    0    0    0 -0.00000000000E+00 -0.00000000000E+00 -0.45593999997E+02  0.45594000000E+02  0.51100000000E-03 0.  1.
    9900012    2    1    2    0    0  0.24035882198E+01 -0.44702930562E+02 -0.49984192920E+01  0.46142318381E+02  0.10000005650E+02 0.  0.
         12    1    1    2    0    0 -0.24035882198E+01  0.44702930562E+02  0.49984192920E+01  0.45045681619E+02  0.00000000000E+00 0. -1.
         11    1    3    3    0    0  0.51358882363E+01 -0.28391022661E+02 -0.32771875590E+01  0.29037346199E+02  0.51100000000E-03 0.  1.
        -11    1    3    3    0    0  0.86403782915E+00 -0.15175943129E+01  0.20555029988E+00  0.17583813738E+01  0.51100000000E-03 0. -1.
         12    1    3    3    0    0 -0.35963378456E+01 -0.14794313587E+02 -0.19267820328E+01  0.15346590808E+02  0.00000000000E+00 0. -1.
</event>
<event>
 7    1  0.1385632E-008  0.4614232E+02  0.7816164E-02  0.1320468E+00
        -11   -1    0    0    0    0  0.00000000000E+00  0.00000000000E+00  0.45593999997E+02  0.45594000000E+02  0.51100000000E-03 0.  1.
         11   -1    0    0    0    0 -0.00000000000E+00 -0.00000000000E+00 -0.45593999997E+02  0.45594000000E+02  0.51100000000E-03 0. -1.
    9900012    2    1    2    0    0 -0.18948444263E+02 -0.29423260761E+02  0.28360919087E+02  0.46142317130E+02  0.99999942415E+01 0.  0.
         12    1    1    2    0    0  0.18948444263E+02  0.29423260761E+02 -0.28360919087E+02  0.45045682870E+02  0.00000000000E+00 0. -1.
         11    1    3    3    0    0 -0.82656259023E+01 -0.12530414393E+02  0.93847337531E+01  0.17703250671E+02  0.51100000000E-03 0. -1.
        -11    1    3    3    0    0 -0.94062490466E+01 -0.15826808314E+02  0.19376386723E+02  0.26728444497E+02  0.51100000000E-03 0.  1.
        -12    1    3    3    0    0 -0.12765693137E+01 -0.10660380541E+01 -0.40020138907E+00  0.17106219621E+01  0.00000000000E+00 0.  1.
</event>
<event>
 7    1  0.1385632E-008  0.4614232E+02  0.7816164E-02  0.1320468E+00
        -11   -1    0    0    0    0  0.00000000000E+00  0.00000000000E+00  0.45593999997E+02  0.45594000000E+02  0.51100000000E-03 0.  1.
         11   -1    0    0    0    0 -0.00000000000E+00 -0.00000000000E+00 -0.45593999997E+02  0.45594000000E+02  0.51100000000E-03 0. -1.
    9900012    2    1    2    0    0  0.20019757712E+02  0.30120243496E+02  0.26853188166E+02  0.46142317834E+02  0.10000000668E+02 0.  0.
         12    1    1    2    0    0 -0.20019757712E+02 -0.30120243496E+02 -0.26853188166E+02  0.45045682166E+02  0.00000000000E+00 0. -1.
         11    1    3    3    0    0  0.90111470094E+01  0.14798192015E+02  0.16070468693E+02  0.23631487926E+02  0.51100000000E-03 0.  1.
        -11    1    3    3    0    0  0.51008741983E+01  0.54727963997E+01  0.74354904743E+01  0.10547840389E+02  0.51100000000E-03 0. -1.
         12    1    3    3    0    0  0.59077365046E+01  0.98492550812E+01  0.33472289981E+01  0.11962989519E+02  0.00000000000E+00 0. -1.
</event>
<event>
 7    1  0.1385632E-008  0.4614232E+02  0.7816164E-02  0.1320468E+00
        -11   -1    0    0    0    0  0.00000000000E+00  0.00000000000E+00  0.45593999997E+02  0.45594000000E+02  0.51100000000E-03 0.  1.
         11   -1    0    0    0    0 -0.00000000000E+00 -0.00000000000E+00 -0.45593999997E+02  0.45594000000E+02  0.51100000000E-03 0. -1.
    9900012    2    1    2    0    0 -0.93912021960E+01 -0.26692298519E+02  0.35049105354E+02  0.46142320240E+02  0.10000022609E+02 0.  0.
         12    1    1    2    0    0  0.93912021960E+01  0.26692298519E+02 -0.35049105354E+02  0.45045679760E+02  0.00000000000E+00 0. -1.
         11    1    3    3    0    0  0.12750587573E+01 -0.94635087721E+01  0.97050759419E+01  0.13615148637E+02  0.51100000000E-03 0. -1.
        -11    1    3    3    0    0 -0.76754918618E+01 -0.14109447771E+02  0.20265644817E+02  0.25858964632E+02  0.51100000000E-03 0.  1.
         12    1    3    3    0    0 -0.29907690916E+01 -0.31193419757E+01  0.50783845948E+01  0.66682069714E+01  0.00000000000E+00 0. -1.
</event>
<event>
 7    1  0.1385632E-008  0.4614232E+02  0.7816164E-02  0.1320468E+00
        -11   -1    0    0    0    0  0.00000000000E+00  0.00000000000E+00  0.45593999997E+02  0.45594000000E+02  0.51100000000E-03 0.  1.
         11   -1    0    0    0    0 -0.00000000000E+00 -0.00000000000E+00 -0.45593999997E+02  0.45594000000E+02  0.51100000000E-03 0. -1.
    9900012    2    1    2    0    0 -0.12367716936E+02  0.86085362467E+01  0.42450514622E+02  0.46142317518E+02  0.99999977870E+01 0.  0.
         12    1    1    2    0    0  0.12367716936E+02 -0.86085362467E+01 -0.42450514622E+02  0.45045682482E+02  0.00000000000E+00 0. -1.
         11    1    3    3    0    0  0.47667722046E+00  0.12838296516E+01  0.67826297421E+01  0.69195018770E+01  0.51100000000E-03 0. -1.
        -11    1    3    3    0    0 -0.10250014112E+02  0.62855341128E+01  0.20225650867E+02  0.23529719115E+02  0.51100000000E-03 0.  1.
        -12    1    3    3    0    0 -0.25943800446E+01  0.10391724823E+01  0.15442234013E+02  0.15693096526E+02  0.00000000000E+00 0.  1.
</event>
<event>
 7    1  0.1385632E-008  0.4614232E+02  0.7816164E-02  0.1320468E+00
        -11   -1    0    0    0    0  0.00000000000E+00  0.00000000000E+00  0.45593999997E+02  0.45594000000E+02  0.51100000000E-03 0.  1.
         11   -1    0    0    0    0 -0.00000000000E+00 -0.00000000000E+00 -0.45593999997E+02  0.45594000000E+02  0.51100000000E-03 0. -1.
    9900012    2    1    2    0    0 -0.37250536818E+02  0.10464129692E+02  0.23065405846E+02  0.46142318184E+02  0.10000003856E+02 0.  0.
         12    1    1    2    0    0  0.37250536818E+02 -0.10464129692E+02 -0.23065405846E+02  0.45045681816E+02  0.00000000000E+00 0. -1.
         11    1    3    3    0    0 -0.15153618521E+02  0.39347363887E+01  0.40302129887E+01  0.16166537097E+02  0.51100000000E-03 0. -1.
        -11    1    3    3    0    0 -0.10627898166E+02  0.21326145841E+01  0.97297803866E+01  0.14566018366E+02  0.51100000000E-03 0.  1.
         12    1    3    3    0    0 -0.11469020131E+02  0.43967787187E+01  0.93054124705E+01  0.15409762721E+02  0.00000000000E+00 0. -1.
</event>
<event>
 7    1  0.1385632E-008  0.4614232E+02  0.7816164E-02  0.1320468E+00
        -11   -1    0    0    0    0  0.00000000000E+00  0.00000000000E+00  0.45593999997E+02  0.45594000000E+02  0.51100000000E-03 0.  1.
         11   -1    0    0    0    0 -0.00000000000E+00 -0.00000000000E+00 -0.45593999997E+02  0.45594000000E+02  0.51100000000E-03 0. -1.
    9900012    2    1    2    0    0 -0.36687245810E+02  0.14812161280E+02  0.21535075607E+02  0.46142316430E+02  0.99999878630E+01 0.  0.
         12    1    1    2    0    0  0.36687245810E+02 -0.14812161280E+02 -0.21535075607E+02  0.45045683570E+02  0.00000000000E+00 0. -1.
         11    1    3    3    0    0 -0.30521039993E+01  0.31316158005E+01  0.25311949288E+01  0.50526532014E+01  0.51100000000E-03 0. -1.
        -11    1    3    3    0    0 -0.11303327228E+02  0.76624331942E+01  0.85083101441E+01  0.16089419836E+02  0.51100000000E-03 0.  1.
        -12    1    3    3    0    0 -0.22331814582E+02  0.40181122848E+01  0.10495570534E+02  0.25000243393E+02  0.00000000000E+00 0.  1.
</event>
<event>
 7    1  0.1385632E-008  0.4614232E+02  0.7816164E-02  0.1320468E+00
        -11   -1    0    0    0    0  0.00000000000E+00  0.00000000000E+00  0.45593999997E+02  0.45594000000E+02  0.51100000000E-03 0.  1.
         11   -1    0    0    0    0 -0.00000000000E+00 -0.00000000000E+00 -0.45593999997E+02  0.45594000000E+02  0.51100000000E-03 0. -1.
    9900012    2    1    2    0    0 -0.14800055228E+02  0.33167044446E+02 -0.26646181760E+02  0.46142317916E+02  0.10000001412E+02 0.  0.
         12    1    1    2    0    0  0.14800055228E+02 -0.33167044446E+02  0.26646181760E+02  0.45045682084E+02  0.00000000000E+00 0. -1.
         11    1    3    3    0    0 -0.63295359209E+01  0.60486920204E+01 -0.67975621166E+01  0.11084067445E+02  0.51100000000E-03 0. -1.
        -11    1    3    3    0    0 -0.29785127036E+01  0.14643447851E+02 -0.77524492479E+01  0.16834564815E+02  0.51100000000E-03 0.  1.
        -12    1    3    3    0    0 -0.54920066030E+01  0.12474904575E+02 -0.12096170395E+02  0.18223685657E+02  0.00000000000E+00 0.  1.
</event>
<event>
 7    1  0.1385632E-008  0.4614232E+02  0.7816164E-02  0.1320468E+00
        -11   -1    0    0    0    0  0.00000000000E+00  0.00000000000E+00  0.45593999997E+02  0.45594000000E+02  0.51100000000E-03 0.  1.
         11   -1    0    0    0    0 -0.00000000000E+00 -0.00000000000E+00 -0.45593999997E+02  0.45594000000E+02  0.51100000000E-03 0. -1.
    9900012    2    1    2    0    0  0.25414377253E+02 -0.29574855355E+02  0.22551069503E+02  0.46142319007E+02  0.10000011357E+02 0.  0.
         12    1    1    2    0    0 -0.25414377253E+02  0.29574855355E+02 -0.22551069503E+02  0.45045680993E+02  0.00000000000E+00 0. -1.
         11    1    3    3    0    0  0.30806618511E+01 -0.43873395892E+01  0.68241728397E+01  0.86780505483E+01  0.51100000000E-03 0. -1.
        -11    1    3    3    0    0  0.17637120949E+02 -0.21825971440E+02  0.11593696320E+02  0.30362062830E+02  0.51100000000E-03 0.  1.
         12    1    3    3    0    0  0.46965944528E+01 -0.33615443263E+01  0.41332003435E+01  0.71022056286E+01  0.00000000000E+00 0. -1.
</event>
<event>
 7    1  0.1385632E-008  0.4614231E+02  0.7816164E-02  0.1320468E+00
        -11   -1    0    0    0    0  0.00000000000E+00  0.00000000000E+00  0.45593999997E+02  0.45594000000E+02  0.51100000000E-03 0.  1.
         11   -1    0    0    0    0 -0.00000000000E+00 -0.00000000000E+00 -0.45593999997E+02  0.45594000000E+02  0.51100000000E-03 0. -1.
    9900012    2    1    2    0    0  0.30172499364E+02  0.31754539388E+01  0.33296409460E+02  0.46142310877E+02  0.99999372273E+01 0.  0.
         12    1    1    2    0    0 -0.30172499364E+02 -0.31754539388E+01 -0.33296409460E+02  0.45045689123E+02  0.00000000000E+00 0. -1.
         11    1    3    3    0    0  0.99897944862E+01  0.37089131140E+01  0.13761579736E+02  0.17404973642E+02  0.51100000000E-03 0. -1.
        -11    1    3    3    0    0  0.19136030493E+02 -0.14612009171E+00  0.19855379562E+02  0.27576169275E+02  0.51100000000E-03 0.  1.
         12    1    3    3    0    0  0.10466743853E+01 -0.38733908348E+00 -0.32054983751E+00  0.11611679606E+01  0.00000000000E+00 0. -1.
</event>
<event>
 7    1  0.1385632E-008  0.4614232E+02  0.7816164E-02  0.1320468E+00
        -11   -1    0    0    0    0  0.00000000000E+00  0.00000000000E+00  0.45593999997E+02  0.45594000000E+02  0.51100000000E-03 0.  1.
         11   -1    0    0    0    0 -0.00000000000E+00 -0.00000000000E+00 -0.45593999997E+02  0.45594000000E+02  0.51100000000E-03 0. -1.
    9900012    2    1    2    0    0  0.70342138567E+01 -0.27016193909E+02  0.35351918078E+02  0.46142323074E+02  0.10000048444E+02 0.  0.
         12    1    1    2    0    0 -0.70342138567E+01  0.27016193909E+02 -0.35351918078E+02  0.45045676926E+02  0.00000000000E+00 0. -1.
         11    1    3    3    0    0  0.30748197182E+00  0.49260618982E+00  0.29405336493E+01  0.29973228763E+01  0.51100000000E-03 0. -1.
        -11    1    3    3    0    0  0.47311714556E+01 -0.13861388132E+02  0.15565349714E+02  0.21372930924E+02  0.51100000000E-03 0.  1.
         12    1    3    3    0    0  0.19955604293E+01 -0.13647411967E+02  0.16846034715E+02  0.21772069273E+02  0.00000000000E+00 0. -1.
</event>
<event>
 7    1  0.1385632E-008  0.4614232E+02  0.7816164E-02  0.1320468E+00
        -11   -1    0    0    0    0  0.00000000000E+00  0.00000000000E+00  0.45593999997E+02  0.45594000000E+02  0.51100000000E-03 0.  1.
         11   -1    0    0    0    0 -0.00000000000E+00 -0.00000000000E+00 -0.45593999997E+02  0.45594000000E+02  0.51100000000E-03 0. -1.
    9900012    2    1    2    0    0 -0.38158380867E+02 -0.12703689743E+02  0.20289593954E+02  0.46142318894E+02  0.10000010333E+02 0.  0.
         12    1    1    2    0    0  0.38158380867E+02  0.12703689743E+02 -0.20289593954E+02  0.45045681106E+02  0.00000000000E+00 0. -1.
         11    1    3    3    0    0 -0.30445702954E+00 -0.11580870080E+01 -0.57798248163E+00  0.13296328858E+01  0.51100000000E-03 0. -1.
        -11    1    3    3    0    0 -0.53857388025E+01 -0.85914384468E+00  0.23643215333E+01  0.59442684301E+01  0.51100000000E-03 0.  1.
         12    1    3    3    0    0 -0.32468185035E+02 -0.10686458890E+02  0.18503254902E+02  0.38868417578E+02  0.00000000000E+00 0. -1.
</event>
<event>
 7    1  0.1385632E-008  0.4614232E+02  0.7816164E-02  0.1320468E+00
        -11   -1    0    0    0    0  0.00000000000E+00  0.00000000000E+00  0.45593999997E+02  0.45594000000E+02  0.51100000000E-03 0.  1.
         11   -1    0    0    0    0 -0.00000000000E+00 -0.00000000000E+00 -0.45593999997E+02  0.45594000000E+02  0.51100000000E-03 0. -1.
    9900012    2    1    2    0    0  0.31732282489E+02  0.19976371012E+02  0.24962378935E+02  0.46142317489E+02  0.99999975223E+01 0.  0.
         12    1    1    2    0    0 -0.31732282489E+02 -0.19976371012E+02 -0.24962378935E+02  0.45045682511E+02  0.00000000000E+00 0. -1.
         11    1    3    3    0    0  0.59798594111E+01  0.41399231639E+01  0.10034225397E+02  0.12392875452E+02  0.51100000000E-03 0. -1.
        -11    1    3    3    0    0  0.24333704096E+02  0.14546009265E+02  0.14037769482E+02  0.31635020355E+02  0.51100000000E-03 0.  1.
         12    1    3    3    0    0  0.14187189810E+01  0.12904385830E+01  0.89038405661E+00  0.21144216826E+01  0.00000000000E+00 0. -1.
</event>
<event>
 7    1  0.1385632E-008  0.4614232E+02  0.7816164E-02  0.1320468E+00
        -11   -1    0    0    0    0  0.00000000000E+00  0.00000000000E+00  0.45593999997E+02  0.45594000000E+02  0.51100000000E-03 0.  1.
         11   -1    0    0    0    0 -0.00000000000E+00 -0.00000000000E+00 -0.45593999997E+02  0.45594000000E+02  0.51100000000E-03 0. -1.
    9900012    2    1    2    0    0  0.35081197844E+02 -0.28247357449E+02 -0.71407651193E+00  0.46142317074E+02  0.99999937371E+01 0.  0.
         12    1    1    2    0    0 -0.35081197844E+02  0.28247357449E+02  0.71407651193E+00  0.45045682926E+02  0.00000000000E+00 0. -1.
         11    1    3    3    0    0  0.65694301123E+01 -0.61293519295E+01 -0.21721471612E+01  0.92436243232E+01  0.51100000000E-03 0. -1.
        -11    1    3    3    0    0  0.12983001743E+02 -0.64427449448E+01  0.29221933865E+01  0.14785347853E+02  0.51100000000E-03 0.  1.
        -12    1    3    3    0    0  0.15528765988E+02 -0.15675260575E+02 -0.14641227372E+01  0.22113344898E+02  0.00000000000E+00 0.  1.
</event>
<event>
 7    1  0.1385632E-008  0.4614232E+02  0.7816164E-02  0.1320468E+00
        -11   -1    0    0    0    0  0.00000000000E+00  0.00000000000E+00  0.45593999997E+02  0.45594000000E+02  0.51100000000E-03 0.  1.
         11   -1    0    0    0    0 -0.00000000000E+00 -0.00000000000E+00 -0.45593999997E+02  0.45594000000E+02  0.51100000000E-03 0. -1.
    9900012    2    1    2    0    0  0.22669299208E+02 -0.33471606177E+02  0.19871285053E+02  0.46142317450E+02  0.99999971671E+01 0.  0.
         12    1    1    2    0    0 -0.22669299208E+02  0.33471606177E+02 -0.19871285053E+02  0.45045682550E+02  0.00000000000E+00 0. -1.
         11    1    3    3    0    0  0.10951115257E+02 -0.10063172080E+02  0.44731361749E+01  0.15530721336E+02  0.51100000000E-03 0. -1.
        -11    1    3    3    0    0  0.93653270017E+01 -0.21012976336E+02  0.12534745175E+02  0.26198747321E+02  0.51100000000E-03 0.  1.
        -12    1    3    3    0    0  0.23528569494E+01 -0.23954577611E+01  0.28634037028E+01  0.44128487935E+01  0.00000000000E+00 0.  1.
</event>
<event>
 7    1  0.1385632E-008  0.4614232E+02  0.7816164E-02  0.1320468E+00
        -11   -1    0    0    0    0  0.00000000000E+00  0.00000000000E+00  0.45593999997E+02  0.45594000000E+02  0.51100000000E-03 0.  1.
         11   -1    0    0    0    0 -0.00000000000E+00 -0.00000000000E+00 -0.45593999997E+02  0.45594000000E+02  0.51100000000E-03 0. -1.
    9900012    2    1    2    0    0 -0.20929704751E+02 -0.31485152183E+02  0.24489714479E+02  0.46142318029E+02  0.10000002445E+02 0.  0.
         12    1    1    2    0    0  0.20929704751E+02  0.31485152183E+02 -0.24489714479E+02  0.45045681971E+02  0.00000000000E+00 0. -1.
         11    1    3    3    0    0  0.44177965488E+00 -0.29114628743E+00  0.17796854414E+01  0.18566679713E+01  0.51100000000E-03 0. -1.
        -11    1    3    3    0    0 -0.20758880255E+02 -0.31048050118E+02  0.22576661413E+02  0.43641931286E+02  0.51100000000E-03 0.  1.
        -12    1    3    3    0    0 -0.61260415042E+00 -0.14595577803E+00  0.13336762498E+00  0.64371877217E+00  0.00000000000E+00 0.  1.
</event>
<event>
 7    1  0.1385632E-008  0.4614232E+02  0.7816164E-02  0.1320468E+00
        -11   -1    0    0    0    0  0.00000000000E+00  0.00000000000E+00  0.45593999997E+02  0.45594000000E+02  0.51100000000E-03 0.  1.
         11   -1    0    0    0    0 -0.00000000000E+00 -0.00000000000E+00 -0.45593999997E+02  0.45594000000E+02  0.51100000000E-03 0. -1.
    9900012    2    1    2    0    0 -0.41693719120E+02 -0.50554099381E+01  0.16284657516E+02  0.46142318142E+02  0.10000003469E+02 0.  0.
         12    1    1    2    0    0  0.41693719120E+02  0.50554099381E+01 -0.16284657516E+02  0.45045681858E+02  0.00000000000E+00 0. -1.
         11    1    3    3    0    0 -0.23113815540E+01 -0.27826251225E+01  0.98867153809E+00  0.37500611904E+01  0.51100000000E-03 0. -1.
        -11    1    3    3    0    0 -0.23476193805E+02 -0.17818150551E+00  0.96809146980E+01  0.25394557170E+02  0.51100000000E-03 0.  1.
         12    1    3    3    0    0 -0.15906143761E+02 -0.20946033101E+01  0.56150712797E+01  0.16997699781E+02  0.00000000000E+00 0. -1.
</event>
<event>
 7    1  0.1385632E-008  0.4614232E+02  0.7816164E-02  0.1320468E+00
        -11   -1    0    0    0    0  0.00000000000E+00  0.00000000000E+00  0.45593999997E+02  0.45594000000E+02  0.51100000000E-03 0.  1.
         11   -1    0    0    0    0 -0.00000000000E+00 -0.00000000000E+00 -0.45593999997E+02  0.45594000000E+02  0.51100000000E-03 0. -1.
    9900012    2    1    2    0    0  0.44817373398E+02 -0.38782230502E+01 -0.23400640498E+01  0.46142317942E+02  0.10000001650E+02 0.  0.
         12    1    1    2    0    0 -0.44817373398E+02  0.38782230502E+01  0.23400640498E+01  0.45045682058E+02  0.00000000000E+00 0. -1.
         11    1    3    3    0    0  0.72738907318E+00  0.47684848672E+00 -0.39360682537E+00  0.95467582832E+00  0.51100000000E-03 0. -1.
        -11    1    3    3    0    0  0.33878147816E+02 -0.30046815349E+00 -0.36249050128E+01  0.34072850147E+02  0.51100000000E-03 0.  1.
        -12    1    3    3    0    0  0.10211836509E+02 -0.40546033834E+01  0.16784477884E+01  0.11114791967E+02  0.00000000000E+00 0.  1.
</event>
<event>
 7    1  0.1863518E-008  0.4614232E+02  0.7816164E-02  0.1320468E+00
        -11   -1    0    0    0    0  0.00000000000E+00  0.00000000000E+00  0.45593999997E+02  0.45594000000E+02  0.51100000000E-03 0. -1.
         11   -1    0    0    0    0 -0.00000000000E+00 -0.00000000000E+00 -0.45593999997E+02  0.45594000000E+02  0.51100000000E-03 0.  1.
    9900012    2    1    2    0    0 -0.40248002398E+01  0.26125361278E+01 -0.44789379939E+02  0.46142324099E+02  0.10000057798E+02 0.  0.
         12    1    1    2    0    0  0.40248002398E+01 -0.26125361278E+01  0.44789379939E+02  0.45045675901E+02  0.00000000000E+00 0. -1.
         11    1    3    3    0    0 -0.17864550309E+01 -0.15354613078E+00 -0.22125225345E+01  0.28478508070E+01  0.51100000000E-03 0. -1.
        -11    1    3    3    0    0 -0.28734507981E+01  0.45365803920E+01 -0.37457944993E+02  0.37840916010E+02  0.51100000000E-03 0.  1.
        -12    1    3    3    0    0  0.63510558920E+00 -0.17704981334E+01 -0.51189124117E+01  0.54535572821E+01  0.00000000000E+00 0.  1.
</event>
<event>
 7    1  0.1385632E-008  0.4614232E+02  0.7816164E-02  0.1320468E+00
        -11   -1    0    0    0    0  0.00000000000E+00  0.00000000000E+00  0.45593999997E+02  0.45594000000E+02  0.51100000000E-03 0.  1.
         11   -1    0    0    0    0 -0.00000000000E+00 -0.00000000000E+00 -0.45593999997E+02  0.45594000000E+02  0.51100000000E-03 0. -1.
    9900012    2    1    2    0    0 -0.95063261489E+01 -0.53940657042E+01  0.43699512945E+02  0.46142316374E+02  0.99999873514E+01 0.  0.
         12    1    1    2    0    0  0.95063261489E+01  0.53940657042E+01 -0.43699512945E+02  0.45045683626E+02  0.00000000000E+00 0. -1.
         11    1    3    3    0    0  0.11147121880E+01 -0.15552604823E+01  0.92080926590E+01  0.94048067023E+01  0.51100000000E-03 0. -1.
        -11    1    3    3    0    0 -0.44767778808E+01  0.12157947626E+01  0.14369892808E+02  0.15100116446E+02  0.51100000000E-03 0.  1.
         12    1    3    3    0    0 -0.61442604560E+01 -0.50545999845E+01  0.20121527478E+02  0.21637393226E+02  0.00000000000E+00 0. -1.
</event>
<event>
 7    1  0.1385632E-008  0.4614232E+02  0.7816164E-02  0.1320468E+00
        -11   -1    0    0    0    0  0.00000000000E+00  0.00000000000E+00  0.45593999997E+02  0.45594000000E+02  0.51100000000E-03 0.  1.
         11   -1    0    0    0    0 -0.00000000000E+00 -0.00000000000E+00 -0.45593999997E+02  0.45594000000E+02  0.51100000000E-03 0. -1.
    9900012    2    1    2    0    0 -0.38636376302E+02  0.10594026246E+02  0.20593944711E+02  0.46142317358E+02  0.99999963279E+01 0.  0.
         12    1    1    2    0    0  0.38636376302E+02 -0.10594026246E+02 -0.20593944711E+02  0.45045682642E+02  0.00000000000E+00 0. -1.
         11    1    3    3    0    0 -0.95121900619E+01 -0.73866092630E+00  0.61554641554E+01  0.11354167471E+02  0.51100000000E-03 0. -1.
        -11    1    3    3    0    0 -0.20587685763E+02  0.98513197584E+01  0.12009107317E+02  0.25789919831E+02  0.51100000000E-03 0.  1.
         12    1    3    3    0    0 -0.85365004773E+01  0.14813674143E+01  0.24293732390E+01  0.89982300564E+01  0.00000000000E+00 0. -1.
</event>
<event>
 7    1  0.1385632E-008  0.4614232E+02  0.7816164E-02  0.1320468E+00
        -11   -1    0    0    0    0  0.00000000000E+00  0.00000000000E+00  0.45593999997E+02  0.45594000000E+02  0.51100000000E-03 0.  1.
         11   -1    0    0    0    0 -0.00000000000E+00 -0.00000000000E+00 -0.45593999997E+02  0.45594000000E+02  0.51100000000E-03 0. -1.
    9900012    2    1    2    0    0  0.11956781701E+01  0.12712746884E+02  0.43198025680E+02  0.46142323157E+02  0.10000049201E+02 0.  0.
         12    1    1    2    0    0 -0.11956781701E+01 -0.12712746884E+02 -0.43198025680E+02  0.45045676843E+02  0.00000000000E+00 0. -1.
         11    1    3    3    0    0  0.78203204837E-01  0.21634051134E+01  0.18519470375E+01  0.28488849603E+01  0.51100000000E-03 0. -1.
        -11    1    3    3    0    0  0.38320197896E+01  0.59010501329E+01  0.28690085839E+02  0.29540274103E+02  0.51100000000E-03 0.  1.
        -12    1    3    3    0    0 -0.27145448243E+01  0.46482916374E+01  0.12655992803E+02  0.13753164094E+02  0.00000000000E+00 0.  1.
</event>
<event>
 7    1  0.1385632E-008  0.4614232E+02  0.7816164E-02  0.1320468E+00
        -11   -1    0    0    0    0  0.00000000000E+00  0.00000000000E+00  0.45593999997E+02  0.45594000000E+02  0.51100000000E-03 0.  1.
         11   -1    0    0    0    0 -0.00000000000E+00 -0.00000000000E+00 -0.45593999997E+02  0.45594000000E+02  0.51100000000E-03 0. -1.
    9900012    2    1    2    0    0  0.25599073861E+02  0.33166694365E+01  0.36916130591E+02  0.46142316782E+02  0.99999910744E+01 0.  0.
         12    1    1    2    0    0 -0.25599073861E+02 -0.33166694365E+01 -0.36916130591E+02  0.45045683218E+02  0.00000000000E+00 0. -1.
         11    1    3    3    0    0  0.23915926972E+01 -0.13204848926E+01  0.21954878046E+01  0.35047914264E+01  0.51100000000E-03 0. -1.
        -11    1    3    3    0    0  0.22480539487E+02  0.57559654597E+01  0.33863446888E+02  0.41051660495E+02  0.51100000000E-03 0.  1.
        -12    1    3    3    0    0  0.72694167759E+00 -0.11188111306E+01  0.85719589827E+00  0.15858648608E+01  0.00000000000E+00 0.  1.
</event>
<event>
 7    1  0.1385632E-008  0.4614232E+02  0.7816164E-02  0.1320468E+00
        -11   -1    0    0    0    0  0.00000000000E+00  0.00000000000E+00  0.45593999997E+02  0.45594000000E+02  0.51100000000E-03 0.  1.
         11   -1    0    0    0    0 -0.00000000000E+00 -0.00000000000E+00 -0.45593999997E+02  0.45594000000E+02  0.51100000000E-03 0. -1.
    9900012    2    1    2    0    0 -0.16304378377E+01 -0.38438868089E+02  0.23428801658E+02  0.46142315916E+02  0.99999831706E+01 0.  0.
         12    1    1    2    0    0  0.16304378377E+01  0.38438868089E+02 -0.23428801658E+02  0.45045684084E+02  0.00000000000E+00 0. -1.
         11    1    3    3    0    0 -0.20671534917E+01 -0.11563437336E+02  0.12087775377E+02  0.16855281676E+02  0.51100000000E-03 0. -1.
        -11    1    3    3    0    0  0.98158115570E+00 -0.24165658115E+02  0.10715854909E+02  0.26453205484E+02  0.51100000000E-03 0.  1.
         12    1    3    3    0    0 -0.54486550163E+00 -0.27097726385E+01  0.62517137160E+00  0.28338287547E+01  0.00000000000E+00 0. -1.
</event>
<event>
 7    1  0.1385632E-008  0.4614232E+02  0.7816164E-02  0.1320468E+00
        -11   -1    0    0    0    0  0.00000000000E+00  0.00000000000E+00  0.45593999997E+02  0.45594000000E+02  0.51100000000E-03 0.  1.
         11   -1    0    0    0    0 -0.00000000000E+00 -0.00000000000E+00 -0.45593999997E+02  0.45594000000E+02  0.51100000000E-03 0. -1.
    9900012    2    1    2    0    0  0.76093869361E+01 -0.26911747188E+02  0.35312442928E+02  0.46142317279E+02  0.99999956060E+01 0.  0.
         12    1    1    2    0    0 -0.76093869361E+01  0.26911747188E+02 -0.35312442928E+02  0.45045682721E+02  0.00000000000E+00 0. -1.
         11    1    3    3    0    0  0.88099257788E+01 -0.22296298641E+02  0.28498273954E+02  0.37240990104E+02  0.51100000000E-03 0. -1.
        -11    1    3    3    0    0  0.45215954081E+00 -0.11657269369E+01  0.38913659818E+01  0.40873092625E+01  0.51100000000E-03 0.  1.
         12    1    3    3    0    0 -0.16526983835E+01 -0.34497216098E+01  0.29228029917E+01  0.48140179123E+01  0.00000000000E+00 0. -1.
</event>
<event>
 7    1  0.1385632E-008  0.4614232E+02  0.7816164E-02  0.1320468E+00
        -11   -1    0    0    0    0  0.00000000000E+00  0.00000000000E+00  0.45593999997E+02  0.45594000000E+02  0.51100000000E-03 0.  1.
         11   -1    0    0    0    0 -0.00000000000E+00 -0.00000000000E+00 -0.45593999997E+02  0.45594000000E+02  0.51100000000E-03 0. -1.
    9900012    2    1    2    0    0  0.19709459988E+01  0.41786546480E+02  0.16706693803E+02  0.46142315271E+02  0.99999772956E+01 0.  0.
         12    1    1    2    0    0 -0.19709459988E+01 -0.41786546480E+02 -0.16706693803E+02  0.45045684729E+02  0.00000000000E+00 0. -1.
         11    1    3    3    0    0 -0.12034224773E+01  0.17876955332E+02  0.37052391033E+01  0.18296517556E+02  0.51100000000E-03 0. -1.
        -11    1    3    3    0    0  0.17471217950E+01  0.46927828590E+01  0.46872290750E+01  0.68589184418E+01  0.51100000000E-03 0.  1.
        -12    1    3    3    0    0  0.14272466811E+01  0.19216808289E+02  0.83142256243E+01  0.20986879274E+02  0.00000000000E+00 0.  1.
</event>
<event>
 7    1  0.1385632E-008  0.4614232E+02  0.7816164E-02  0.1320468E+00
        -11   -1    0    0    0    0  0.00000000000E+00  0.00000000000E+00  0.45593999997E+02  0.45594000000E+02  0.51100000000E-03 0. -1.
         11   -1    0    0    0    0 -0.00000000000E+00 -0.00000000000E+00 -0.45593999997E+02  0.45594000000E+02  0.51100000000E-03 0.  1.
    9900012    2    1    2    0    0  0.25181257313E+02 -0.12379581046E+01  0.37329414771E+02  0.46142317995E+02  0.10000002134E+02 0.  0.
         12    1    1    2    0    0 -0.25181257313E+02  0.12379581046E+01 -0.37329414771E+02  0.45045682005E+02  0.00000000000E+00 0. -1.
         11    1    3    3    0    0  0.15900640486E+02 -0.16794349225E+01  0.17110979559E+02  0.23418720957E+02  0.51100000000E-03 0.  1.
        -11    1    3    3    0    0 -0.20474437506E+00 -0.71141482742E+00  0.23066211419E+01  0.24225054529E+01  0.51100000000E-03 0. -1.
         12    1    3    3    0    0  0.94853612024E+01  0.11528916453E+01  0.17911814070E+02  0.20301091586E+02  0.00000000000E+00 0. -1.
</event>
<event>
 7    1  0.1385632E-008  0.4614232E+02  0.7816164E-02  0.1320468E+00
        -11   -1    0    0    0    0  0.00000000000E+00  0.00000000000E+00  0.45593999997E+02  0.45594000000E+02  0.51100000000E-03 0.  1.
         11   -1    0    0    0    0 -0.00000000000E+00 -0.00000000000E+00 -0.45593999997E+02  0.45594000000E+02  0.51100000000E-03 0. -1.
    9900012    2    1    2    0    0  0.40067500052E+02 -0.15149414171E+02  0.13935716340E+02  0.46142317631E+02  0.99999988141E+01 0.  0.
         12    1    1    2    0    0 -0.40067500052E+02  0.15149414171E+02 -0.13935716340E+02  0.45045682369E+02  0.00000000000E+00 0. -1.
         11    1    3    3    0    0  0.38090559835E+01 -0.40382685797E+00 -0.57045939745E+00  0.38726486804E+01  0.51100000000E-03 0. -1.
        -11    1    3    3    0    0  0.16727924957E+01 -0.24434194040E+01  0.15466719113E+01  0.33407674837E+01  0.51100000000E-03 0.  1.
        -12    1    3    3    0    0  0.34585651573E+02 -0.12302167909E+02  0.12959503827E+02  0.38928901467E+02  0.00000000000E+00 0.  1.
</event>
<event>
 7    1  0.1385632E-008  0.4614232E+02  0.7816164E-02  0.1320468E+00
        -11   -1    0    0    0    0  0.00000000000E+00  0.00000000000E+00  0.45593999997E+02  0.45594000000E+02  0.51100000000E-03 0.  1.
         11   -1    0    0    0    0 -0.00000000000E+00 -0.00000000000E+00 -0.45593999997E+02  0.45594000000E+02  0.51100000000E-03 0. -1.
    9900012    2    1    2    0    0  0.19127166395E+02 -0.24683575442E+02  0.32465152398E+02  0.46142317508E+02  0.99999976940E+01 0.  0.
         12    1    1    2    0    0 -0.19127166395E+02  0.24683575442E+02 -0.32465152398E+02  0.45045682492E+02  0.00000000000E+00 0. -1.
         11    1    3    3    0    0 -0.36774603924E+00 -0.28688551797E+01  0.34463064256E+01  0.44991771950E+01  0.51100000000E-03 0. -1.
        -11    1    3    3    0    0  0.18510678709E+02 -0.20874233591E+02  0.29055221423E+02  0.40281320069E+02  0.51100000000E-03 0.  1.
        -12    1    3    3    0    0  0.98423372527E+00 -0.94048667121E+00 -0.36375450421E-01  0.13618202444E+01  0.00000000000E+00 0.  1.
</event>
<event>
 7    1  0.1385632E-008  0.4614232E+02  0.7816164E-02  0.1320468E+00
        -11   -1    0    0    0    0  0.00000000000E+00  0.00000000000E+00  0.45593999997E+02  0.45594000000E+02  0.51100000000E-03 0. -1.
         11   -1    0    0    0    0 -0.00000000000E+00 -0.00000000000E+00 -0.45593999997E+02  0.45594000000E+02  0.51100000000E-03 0.  1.
    9900012    2    1    2    0    0  0.23935420781E+02  0.38058812067E+02 -0.27813699456E+01  0.46142316936E+02  0.99999924794E+01 0.  0.
         12    1    1    2    0    0 -0.23935420781E+02 -0.38058812067E+02  0.27813699456E+01  0.45045683064E+02  0.00000000000E+00 0. -1.
         11    1    3    3    0    0  0.20664720435E+01  0.12193710599E+01 -0.70250665373E+00  0.25001376658E+01  0.51100000000E-03 0. -1.
        -11    1    3    3    0    0  0.21115281224E+02  0.37070319046E+02 -0.25242428265E+01  0.42736816183E+02  0.51100000000E-03 0.  1.
        -12    1    3    3    0    0  0.75366751381E+00 -0.23087803945E+00  0.44537953470E+00  0.90536308761E+00  0.00000000000E+00 0.  1.
</event>
<event>
 7    1  0.1385632E-008  0.4614232E+02  0.7816164E-02  0.1320468E+00
        -11   -1    0    0    0    0  0.00000000000E+00  0.00000000000E+00  0.45593999997E+02  0.45594000000E+02  0.51100000000E-03 0.  1.
         11   -1    0    0    0    0 -0.00000000000E+00 -0.00000000000E+00 -0.45593999997E+02  0.45594000000E+02  0.51100000000E-03 0. -1.
    9900012    2    1    2    0    0 -0.88727035841E+01 -0.24216681538E+02  0.36931571118E+02  0.46142317867E+02  0.10000000964E+02 0.  0.
         12    1    1    2    0    0  0.88727035841E+01  0.24216681538E+02 -0.36931571118E+02  0.45045682133E+02  0.00000000000E+00 0. -1.
         11    1    3    3    0    0 -0.81858605681E+01 -0.14595749631E+02  0.25641966266E+02  0.30619514280E+02  0.51100000000E-03 0. -1.
        -11    1    3    3    0    0 -0.67245152958E+00 -0.61898225165E+01  0.38247853713E+01  0.73071935272E+01  0.51100000000E-03 0.  1.
         12    1    3    3    0    0 -0.14391486376E-01 -0.34311093901E+01  0.74648194811E+01  0.82156100593E+01  0.00000000000E+00 0. -1.
</event>
<event>
 7    1  0.1385632E-008  0.4614232E+02  0.7816164E-02  0.1320468E+00
        -11   -1    0    0    0    0  0.00000000000E+00  0.00000000000E+00  0.45593999997E+02  0.45594000000E+02  0.51100000000E-03 0. -1.
         11   -1    0    0    0    0 -0.00000000000E+00 -0.00000000000E+00 -0.45593999997E+02  0.45594000000E+02  0.51100000000E-03 0.  1.
    9900012    2    1    2    0    0  0.34284594467E+02  0.15823110616E+02 -0.24562354422E+02  0.46142317609E+02  0.99999986106E+01 0.  0.
         12    1    1    2    0    0 -0.34284594467E+02 -0.15823110616E+02  0.24562354422E+02  0.45045682391E+02  0.00000000000E+00 0. -1.
         11    1    3    3    0    0  0.11852788025E+01  0.19066573763E+01 -0.34109785031E+01  0.40835037407E+01  0.51100000000E-03 0. -1.
        -11    1    3    3    0    0  0.54509682219E+00 -0.34574095101E+00  0.92997757484E-01  0.65216270576E+00  0.51100000000E-03 0.  1.
        -12    1    3    3    0    0  0.32554218843E+02  0.14262194191E+02 -0.21244373676E+02  0.41406651162E+02  0.00000000000E+00 0.  1.
</event>
<event>
 7    1  0.1385632E-008  0.4614232E+02  0.7816164E-02  0.1320468E+00
        -11   -1    0    0    0    0  0.00000000000E+00  0.00000000000E+00  0.45593999997E+02  0.45594000000E+02  0.51100000000E-03 0.  1.
         11   -1    0    0    0    0 -0.00000000000E+00 -0.00000000000E+00 -0.45593999997E+02  0.45594000000E+02  0.51100000000E-03 0. -1.
    9900012    2    1    2    0    0 -0.14987122290E+01  0.20616853755E+02  0.40022652786E+02  0.46142317264E+02  0.99999954698E+01 0.  0.
         12    1    1    2    0    0  0.14987122290E+01 -0.20616853755E+02 -0.40022652786E+02  0.45045682736E+02  0.00000000000E+00 0. -1.
         11    1    3    3    0    0 -0.12983641567E+01  0.13675753522E+01  0.10025798339E+02  0.10201600092E+02  0.51100000000E-03 0. -1.
        -11    1    3    3    0    0 -0.17690337848E+01  0.98818998094E+01  0.18306226513E+02  0.20878202839E+02  0.51100000000E-03 0.  1.
         12    1    3    3    0    0  0.15686857125E+01  0.93673785930E+01  0.11690627934E+02  0.15062514334E+02  0.00000000000E+00 0. -1.
</event>
<event>
 7    1  0.1385632E-008  0.4614232E+02  0.7816164E-02  0.1320468E+00
        -11   -1    0    0    0    0  0.00000000000E+00  0.00000000000E+00  0.45593999997E+02  0.45594000000E+02  0.51100000000E-03 0.  1.
         11   -1    0    0    0    0 -0.00000000000E+00 -0.00000000000E+00 -0.45593999997E+02  0.45594000000E+02  0.51100000000E-03 0. -1.
    9900012    2    1    2    0    0  0.26529163062E+02 -0.85135039707E+01  0.35395440118E+02  0.46142318478E+02  0.10000006541E+02 0.  0.
         12    1    1    2    0    0 -0.26529163062E+02  0.85135039707E+01 -0.35395440118E+02  0.45045681522E+02  0.00000000000E+00 0. -1.
         11    1    3    3    0    0  0.29318084251E+00  0.33055649484E-01 -0.37584832533E+00  0.47781785981E+00  0.51100000000E-03 0. -1.
        -11    1    3    3    0    0  0.25324659923E+02 -0.72949837390E+01  0.31216088093E+02  0.40853388404E+02  0.51100000000E-03 0.  1.
        -12    1    3    3    0    0  0.91132229574E+00 -0.12515758813E+01  0.45552003503E+01  0.48111122150E+01  0.00000000000E+00 0.  1.
</event>
<event>
 7    1  0.1385632E-008  0.4614232E+02  0.7816164E-02  0.1320468E+00
        -11   -1    0    0    0    0  0.00000000000E+00  0.00000000000E+00  0.45593999997E+02  0.45594000000E+02  0.51100000000E-03 0.  1.
         11   -1    0    0    0    0 -0.00000000000E+00 -0.00000000000E+00 -0.45593999997E+02  0.45594000000E+02  0.51100000000E-03 0. -1.
    9900012    2    1    2    0    0  0.40722925359E+02 -0.63362334272E+01  0.18182654554E+02  0.46142318404E+02  0.10000005861E+02 0.  0.
         12    1    1    2    0    0 -0.40722925359E+02  0.63362334272E+01 -0.18182654554E+02  0.45045681596E+02  0.00000000000E+00 0. -1.
         11    1    3    3    0    0  0.26634456528E+01  0.47528032821E+00  0.10070306841E+01  0.28868573216E+01  0.51100000000E-03 0. -1.
        -11    1    3    3    0    0  0.16312191724E+02 -0.74471722980E+01  0.82661235090E+01  0.19745297470E+02  0.51100000000E-03 0.  1.
        -12    1    3    3    0    0  0.21747287983E+02  0.63565854252E+00  0.89095003606E+01  0.23510163612E+02  0.00000000000E+00 0.  1.
</event>
<event>
 7    1  0.1385632E-008  0.4614232E+02  0.7816164E-02  0.1320468E+00
        -11   -1    0    0    0    0  0.00000000000E+00  0.00000000000E+00  0.45593999997E+02  0.45594000000E+02  0.51100000000E-03 0.  1.
         11   -1    0    0    0    0 -0.00000000000E+00 -0.00000000000E+00 -0.45593999997E+02  0.45594000000E+02  0.51100000000E-03 0. -1.
    9900012    2    1    2    0    0 -0.29050029120E+02  0.34004434830E+02  0.53765993116E+01  0.46142316521E+02  0.99999886912E+01 0.  0.
         12    1    1    2    0    0  0.29050029120E+02 -0.34004434830E+02 -0.53765993116E+01  0.45045683479E+02  0.00000000000E+00 0. -1.
         11    1    3    3    0    0 -0.12403927055E+02  0.10121657242E+02  0.54164733843E+01  0.16900992158E+02  0.51100000000E-03 0. -1.
        -11    1    3    3    0    0 -0.47194824617E+01  0.72018190200E+01  0.12207547372E+01  0.86965484126E+01  0.51100000000E-03 0.  1.
         12    1    3    3    0    0 -0.11926619602E+02  0.16680958567E+02 -0.12606288099E+01  0.20544775951E+02  0.00000000000E+00 0. -1.
</event>
<event>
 7    1  0.1385632E-008  0.4614232E+02  0.7816164E-02  0.1320468E+00
        -11   -1    0    0    0    0  0.00000000000E+00  0.00000000000E+00  0.45593999997E+02  0.45594000000E+02  0.51100000000E-03 0.  1.
         11   -1    0    0    0    0 -0.00000000000E+00 -0.00000000000E+00 -0.45593999997E+02  0.45594000000E+02  0.51100000000E-03 0. -1.
    9900012    2    1    2    0    0  0.19149563373E+02 -0.30639472123E+02  0.26900380138E+02  0.46142317843E+02  0.10000000749E+02 0.  0.
         12    1    1    2    0    0 -0.19149563373E+02  0.30639472123E+02 -0.26900380138E+02  0.45045682157E+02  0.00000000000E+00 0. -1.
         11    1    3    3    0    0  0.47320001117E+01 -0.91195559206E+01  0.46093407417E+01  0.11260734771E+02  0.51100000000E-03 0. -1.
        -11    1    3    3    0    0  0.15816276373E+01 -0.59157042866E+01  0.82603801033E+01  0.10282557216E+02  0.51100000000E-03 0.  1.
        -12    1    3    3    0    0  0.12835935624E+02 -0.15604211916E+02  0.14030659293E+02  0.24599025856E+02  0.00000000000E+00 0.  1.
</event>
<event>
 7    1  0.1385632E-008  0.4614232E+02  0.7816164E-02  0.1320468E+00
        -11   -1    0    0    0    0  0.00000000000E+00  0.00000000000E+00  0.45593999997E+02  0.45594000000E+02  0.51100000000E-03 0. -1.
         11   -1    0    0    0    0 -0.00000000000E+00 -0.00000000000E+00 -0.45593999997E+02  0.45594000000E+02  0.51100000000E-03 0.  1.
    9900012    2    1    2    0    0 -0.32595318814E+02  0.23597827754E+02 -0.20243546464E+02  0.46142318112E+02  0.10000003202E+02 0.  0.
         12    1    1    2    0    0  0.32595318814E+02 -0.23597827754E+02  0.20243546464E+02  0.45045681888E+02  0.00000000000E+00 0. -1.
         11    1    3    3    0    0 -0.11322935156E+02  0.48058789183E+01 -0.30572692747E+01  0.12674866011E+02  0.51100000000E-03 0. -1.
        -11    1    3    3    0    0 -0.19751186895E+02  0.16125622089E+02 -0.16335825629E+02  0.30282078376E+02  0.51100000000E-03 0.  1.
         12    1    3    3    0    0 -0.15211967627E+01  0.26663267467E+01 -0.85045156044E+00  0.31853737249E+01  0.00000000000E+00 0. -1.
</event>
<event>
 7    1  0.1385632E-008  0.4614232E+02  0.7816164E-02  0.1320468E+00
        -11   -1    0    0    0    0  0.00000000000E+00  0.00000000000E+00  0.45593999997E+02  0.45594000000E+02  0.51100000000E-03 0.  1.
         11   -1    0    0    0    0 -0.00000000000E+00 -0.00000000000E+00 -0.45593999997E+02  0.45594000000E+02  0.51100000000E-03 0. -1.
    9900012    2    1    2    0    0  0.13158497434E+01 -0.45024671246E+02  0.40119918209E+00  0.46142318274E+02  0.10000004679E+02 0.  0.
         12    1    1    2    0    0 -0.13158497434E+01  0.45024671246E+02 -0.40119918209E+00  0.45045681726E+02  0.00000000000E+00 0. -1.
         11    1    3    3    0    0 -0.14852522819E+01 -0.20716000204E+01 -0.70320163041E+00  0.26442378447E+01  0.51100000000E-03 0. -1.
        -11    1    3    3    0    0  0.47719769165E+01 -0.30902630375E+02  0.10787477493E+01  0.31287505889E+02  0.51100000000E-03 0.  1.
        -12    1    3    3    0    0 -0.19708748912E+01 -0.12050440851E+02  0.25653063179E-01  0.12210574541E+02  0.00000000000E+00 0.  1.
</event>
<event>
 7    1  0.1385632E-008  0.4614232E+02  0.7816164E-02  0.1320468E+00
        -11   -1    0    0    0    0  0.00000000000E+00  0.00000000000E+00  0.45593999997E+02  0.45594000000E+02  0.51100000000E-03 0.  1.
         11   -1    0    0    0    0 -0.00000000000E+00 -0.00000000000E+00 -0.45593999997E+02  0.45594000000E+02  0.51100000000E-03 0. -1.
    9900012    2    1    2    0    0  0.99136896833E+01 -0.23037008879E+02  0.37418290825E+02  0.46142317527E+02  0.99999978636E+01 0.  0.
         12    1    1    2    0    0 -0.99136896833E+01  0.23037008879E+02 -0.37418290825E+02  0.45045682473E+02  0.00000000000E+00 0. -1.
         11    1    3    3    0    0  0.55792751499E+01 -0.74228625988E+01  0.17910396851E+02  0.20174476845E+02  0.51100000000E-03 0. -1.
        -11    1    3    3    0    0  0.49872975972E+01 -0.13136051662E+02  0.18460152992E+02  0.23199272388E+02  0.51100000000E-03 0.  1.
         12    1    3    3    0    0 -0.65288306376E+00 -0.24780946179E+01  0.10477409820E+01  0.27685682935E+01  0.00000000000E+00 0. -1.
</event>
<event>
 7    1  0.1385632E-008  0.4614232E+02  0.7816164E-02  0.1320468E+00
        -11   -1    0    0    0    0  0.00000000000E+00  0.00000000000E+00  0.45593999997E+02  0.45594000000E+02  0.51100000000E-03 0. -1.
         11   -1    0    0    0    0 -0.00000000000E+00 -0.00000000000E+00 -0.45593999997E+02  0.45594000000E+02  0.51100000000E-03 0.  1.
    9900012    2    1    2    0    0  0.33535316678E+02 -0.14543933998E+02 -0.26324322963E+02  0.46142318072E+02  0.10000002836E+02 0.  0.
         12    1    1    2    0    0 -0.33535316678E+02  0.14543933998E+02  0.26324322963E+02  0.45045681928E+02  0.00000000000E+00 0. -1.
         11    1    3    3    0    0  0.14591494646E+02 -0.39409418949E+01 -0.58676943011E+01  0.16213345604E+02  0.51100000000E-03 0. -1.
        -11    1    3    3    0    0  0.10397530186E+02 -0.67971682080E+01 -0.10483419903E+02  0.16254606201E+02  0.51100000000E-03 0.  1.
         12    1    3    3    0    0  0.85462918471E+01 -0.38058238956E+01 -0.99732087590E+01  0.13674366267E+02  0.00000000000E+00 0. -1.
</event>
<event>
 7    1  0.1385632E-008  0.4614232E+02  0.7816164E-02  0.1320468E+00
        -11   -1    0    0    0    0  0.00000000000E+00  0.00000000000E+00  0.45593999997E+02  0.45594000000E+02  0.51100000000E-03 0.  1.
         11   -1    0    0    0    0 -0.00000000000E+00 -0.00000000000E+00 -0.45593999997E+02  0.45594000000E+02  0.51100000000E-03 0. -1.
    9900012    2    1    2    0    0  0.23180713843E+02  0.32240385482E+02  0.21267946203E+02  0.46142317788E+02  0.10000000247E+02 0.  0.
         12    1    1    2    0    0 -0.23180713843E+02 -0.32240385482E+02 -0.21267946203E+02  0.45045682212E+02  0.00000000000E+00 0. -1.
         11    1    3    3    0    0  0.49036831496E+01  0.14296935247E+02  0.10221197108E+02  0.18246132096E+02  0.51100000000E-03 0. -1.
        -11    1    3    3    0    0  0.11533923819E+02  0.11308501494E+02  0.71690646732E+01  0.17672269046E+02  0.51100000000E-03 0.  1.
         12    1    3    3    0    0  0.67431068744E+01  0.66349487411E+01  0.38776844213E+01  0.10223916646E+02  0.00000000000E+00 0. -1.
</event>
<event>
 7    1  0.1385632E-008  0.4614232E+02  0.7816164E-02  0.1320468E+00
        -11   -1    0    0    0    0  0.00000000000E+00  0.00000000000E+00  0.45593999997E+02  0.45594000000E+02  0.51100000000E-03 0.  1.
         11   -1    0    0    0    0 -0.00000000000E+00 -0.00000000000E+00 -0.45593999997E+02  0.45594000000E+02  0.51100000000E-03 0. -1.
    9900012    2    1    2    0    0  0.14777720700E+02 -0.30055071233E+02  0.30123499080E+02  0.46142317269E+02  0.99999955126E+01 0.  0.
         12    1    1    2    0    0 -0.14777720700E+02  0.30055071233E+02 -0.30123499080E+02  0.45045682731E+02  0.00000000000E+00 0. -1.
         11    1    3    3    0    0  0.68090628482E+00 -0.75911132713E+01  0.63310036134E+01  0.99080896787E+01  0.51100000000E-03 0. -1.
        -11    1    3    3    0    0  0.11480944053E+02 -0.17665048364E+02  0.14929952266E+02  0.25821879965E+02  0.51100000000E-03 0.  1.
        -12    1    3    3    0    0  0.26158703630E+01 -0.47989095977E+01  0.88625432003E+01  0.10412347625E+02  0.00000000000E+00 0.  1.
</event>
<event>
 7    1  0.1385632E-008  0.4614232E+02  0.7816164E-02  0.1320468E+00
        -11   -1    0    0    0    0  0.00000000000E+00  0.00000000000E+00  0.45593999997E+02  0.45594000000E+02  0.51100000000E-03 0.  1.
         11   -1    0    0    0    0 -0.00000000000E+00 -0.00000000000E+00 -0.45593999997E+02  0.45594000000E+02  0.51100000000E-03 0. -1.
    9900012    2    1    2    0    0 -0.35586590599E+02 -0.10713471249E+02  0.25454461167E+02  0.46142317743E+02  0.99999998394E+01 0.  0.
         12    1    1    2    0    0  0.35586590599E+02  0.10713471249E+02 -0.25454461167E+02  0.45045682257E+02  0.00000000000E+00 0. -1.
         11    1    3    3    0    0 -0.25535944503E+02 -0.59320021533E+01  0.13928119562E+02  0.29686118405E+02  0.51100000000E-03 0. -1.
        -11    1    3    3    0    0 -0.47543898938E+01 -0.43220550062E+01  0.65148360368E+01  0.91502716673E+01  0.51100000000E-03 0.  1.
         12    1    3    3    0    0 -0.52962562028E+01 -0.45941408893E+00  0.50115055683E+01  0.73059276709E+01  0.00000000000E+00 0. -1.
</event>
<event>
 7    1  0.1385632E-008  0.4614231E+02  0.7816164E-02  0.1320468E+00
        -11   -1    0    0    0    0  0.00000000000E+00  0.00000000000E+00  0.45593999997E+02  0.45594000000E+02  0.51100000000E-03 0. -1.
         11   -1    0    0    0    0 -0.00000000000E+00 -0.00000000000E+00 -0.45593999997E+02  0.45594000000E+02  0.51100000000E-03 0.  1.
    9900012    2    1    2    0    0  0.97545015032E+00  0.44409337901E+02 -0.74815085786E+01  0.46142314675E+02  0.99999718606E+01 0.  0.
         12    1    1    2    0    0 -0.97545015032E+00 -0.44409337901E+02  0.74815085786E+01  0.45045685325E+02  0.00000000000E+00 0. -1.
         11    1    3    3    0    0 -0.95403429985E+00  0.12211469985E+01  0.10772075646E+00  0.15533787238E+01  0.51100000000E-03 0. -1.
        -11    1    3    3    0    0  0.41834644549E+01  0.16080749063E+02 -0.44898920198E+01  0.17211943408E+02  0.51100000000E-03 0.  1.
        -12    1    3    3    0    0 -0.22539800047E+01  0.27107441840E+02 -0.30993373153E+01  0.27376992544E+02  0.00000000000E+00 0.  1.
</event>
<event>
 7    1  0.1385632E-008  0.4614232E+02  0.7816164E-02  0.1320468E+00
        -11   -1    0    0    0    0  0.00000000000E+00  0.00000000000E+00  0.45593999997E+02  0.45594000000E+02  0.51100000000E-03 0. -1.
         11   -1    0    0    0    0 -0.00000000000E+00 -0.00000000000E+00 -0.45593999997E+02  0.45594000000E+02  0.51100000000E-03 0.  1.
    9900012    2    1    2    0    0  0.16887529179E+02  0.94645731749E+01 -0.40673662157E+02  0.46142316740E+02  0.99999906857E+01 0.  0.
         12    1    1    2    0    0 -0.16887529179E+02 -0.94645731749E+01  0.40673662157E+02  0.45045683260E+02  0.00000000000E+00 0. -1.
         11    1    3    3    0    0  0.45238710629E+01  0.27654165452E+01 -0.67501379858E+01  0.85835482844E+01  0.51100000000E-03 0. -1.
        -11    1    3    3    0    0  0.12744858520E+02  0.42477434043E+01 -0.30531068127E+02  0.33355971939E+02  0.51100000000E-03 0.  1.
        -12    1    3    3    0    0 -0.38120040440E+00  0.24514132254E+01 -0.33924560436E+01  0.42027965163E+01  0.00000000000E+00 0.  1.
</event>
<event>
 7    1  0.1385632E-008  0.4614232E+02  0.7816164E-02  0.1320468E+00
        -11   -1    0    0    0    0  0.00000000000E+00  0.00000000000E+00  0.45593999997E+02  0.45594000000E+02  0.51100000000E-03 0.  1.
         11   -1    0    0    0    0 -0.00000000000E+00 -0.00000000000E+00 -0.45593999997E+02  0.45594000000E+02  0.51100000000E-03 0. -1.
    9900012    2    1    2    0    0  0.13155459152E+02  0.25781406324E+02  0.34516176867E+02  0.46142317820E+02  0.10000000536E+02 0.  0.
         12    1    1    2    0    0 -0.13155459152E+02 -0.25781406324E+02 -0.34516176867E+02  0.45045682180E+02  0.00000000000E+00 0. -1.
         11    1    3    3    0    0  0.70001255486E+01  0.48370331195E+01  0.10531936320E+02  0.13539583819E+02  0.51100000000E-03 0. -1.
        -11    1    3    3    0    0  0.60803961945E+01  0.16481603599E+02  0.19999251718E+02  0.26619251390E+02  0.51100000000E-03 0.  1.
         12    1    3    3    0    0  0.74937408435E-01  0.44627696062E+01  0.39849888298E+01  0.59834826102E+01  0.00000000000E+00 0. -1.
</event>
<event>
 7    1  0.1385632E-008  0.4614232E+02  0.7816164E-02  0.1320468E+00
        -11   -1    0    0    0    0  0.00000000000E+00  0.00000000000E+00  0.45593999997E+02  0.45594000000E+02  0.51100000000E-03 0.  1.
         11   -1    0    0    0    0 -0.00000000000E+00 -0.00000000000E+00 -0.45593999997E+02  0.45594000000E+02  0.51100000000E-03 0. -1.
    9900012    2    1    2    0    0 -0.69662166978E+01  0.36489413661E+02  0.25477597778E+02  0.46142317933E+02  0.10000001565E+02 0.  0.
         12    1    1    2    0    0  0.69662166978E+01 -0.36489413661E+02 -0.25477597778E+02  0.45045682067E+02  0.00000000000E+00 0. -1.
         11    1    3    3    0    0  0.15454577564E+01  0.57229653006E+01  0.24777890530E+01  0.64249677323E+01  0.51100000000E-03 0. -1.
        -11    1    3    3    0    0 -0.57591068946E+01  0.22897642552E+02  0.19706295739E+02  0.30753982485E+02  0.51100000000E-03 0.  1.
        -12    1    3    3    0    0 -0.27525675596E+01  0.78688058087E+01  0.32935129853E+01  0.89633677158E+01  0.00000000000E+00 0.  1.
</event>
<event>
 7    1  0.1385632E-008  0.4614232E+02  0.7816164E-02  0.1320468E+00
        -11   -1    0    0    0    0  0.00000000000E+00  0.00000000000E+00  0.45593999997E+02  0.45594000000E+02  0.51100000000E-03 0.  1.
         11   -1    0    0    0    0 -0.00000000000E+00 -0.00000000000E+00 -0.45593999997E+02  0.45594000000E+02  0.51100000000E-03 0. -1.
    9900012    2    1    2    0    0  0.56962107208E+01 -0.28714013959E+02  0.34237001835E+02  0.46142315314E+02  0.99999776843E+01 0.  0.
         12    1    1    2    0    0 -0.56962107208E+01  0.28714013959E+02 -0.34237001835E+02  0.45045684686E+02  0.00000000000E+00 0. -1.
         11    1    3    3    0    0 -0.91212181739E+00 -0.44125184315E+01  0.29130115829E+01  0.53654377138E+01  0.51100000000E-03 0. -1.
        -11    1    3    3    0    0  0.66509456929E+01 -0.14493501063E+02  0.16051988312E+02  0.22626598964E+02  0.51100000000E-03 0.  1.
         12    1    3    3    0    0 -0.42613154747E-01 -0.98079944645E+01  0.15272001940E+02  0.18150278636E+02  0.00000000000E+00 0. -1.
</event>
<event>
 7    1  0.1385632E-008  0.4614232E+02  0.7816164E-02  0.1320468E+00
        -11   -1    0    0    0    0  0.00000000000E+00  0.00000000000E+00  0.45593999997E+02  0.45594000000E+02  0.51100000000E-03 0.  1.
         11   -1    0    0    0    0 -0.00000000000E+00 -0.00000000000E+00 -0.45593999997E+02  0.45594000000E+02  0.51100000000E-03 0. -1.
    9900012    2    1    2    0    0 -0.90664927051E+01 -0.43395646359E+02  0.79831067700E+01  0.46142318669E+02  0.10000008281E+02 0.  0.
         12    1    1    2    0    0  0.90664927051E+01  0.43395646359E+02 -0.79831067700E+01  0.45045681331E+02  0.00000000000E+00 0. -1.
         11    1    3    3    0    0 -0.57732361977E+01 -0.11886529637E+02  0.40140751239E+01  0.13810598914E+02  0.51100000000E-03 0. -1.
        -11    1    3    3    0    0 -0.72030085230E+00 -0.21160014639E+02  0.45352037773E+01  0.21652554731E+02  0.51100000000E-03 0.  1.
         12    1    3    3    0    0 -0.25729556551E+01 -0.10349102083E+02 -0.56617213114E+00  0.10679165024E+02  0.00000000000E+00 0. -1.
</event>
<event>
 7    1  0.1385632E-008  0.4614232E+02  0.7816164E-02  0.1320468E+00
        -11   -1    0    0    0    0  0.00000000000E+00  0.00000000000E+00  0.45593999997E+02  0.45594000000E+02  0.51100000000E-03 0.  1.
         11   -1    0    0    0    0 -0.00000000000E+00 -0.00000000000E+00 -0.45593999997E+02  0.45594000000E+02  0.51100000000E-03 0. -1.
    9900012    2    1    2    0    0 -0.28729539695E+02 -0.26834679479E+02  0.21991521105E+02  0.46142317916E+02  0.10000001416E+02 0.  0.
         12    1    1    2    0    0  0.28729539695E+02  0.26834679479E+02 -0.21991521105E+02  0.45045682084E+02  0.00000000000E+00 0. -1.
         11    1    3    3    0    0 -0.43764523608E+00 -0.14188454299E+01  0.35710874210E+01  0.38674696296E+01  0.51100000000E-03 0. -1.
        -11    1    3    3    0    0 -0.25052088737E+02 -0.21990213194E+02  0.16253103457E+02  0.37085576693E+02  0.51100000000E-03 0.  1.
         12    1    3    3    0    0 -0.32398057227E+01 -0.34256208548E+01  0.21673302277E+01  0.51892715941E+01  0.00000000000E+00 0. -1.
</event>
<event>
 7    1  0.1385632E-008  0.4614232E+02  0.7816164E-02  0.1320468E+00
        -11   -1    0    0    0    0  0.00000000000E+00  0.00000000000E+00  0.45593999997E+02  0.45594000000E+02  0.51100000000E-03 0.  1.
         11   -1    0    0    0    0 -0.00000000000E+00 -0.00000000000E+00 -0.45593999997E+02  0.45594000000E+02  0.51100000000E-03 0. -1.
    9900012    2    1    2    0    0 -0.27587206245E+02  0.35588763480E+02  0.12244354430E+01  0.46142320112E+02  0.10000021437E+02 0.  0.
         12    1    1    2    0    0  0.27587206245E+02 -0.35588763480E+02 -0.12244354430E+01  0.45045679888E+02  0.00000000000E+00 0. -1.
         11    1    3    3    0    0  0.60092851611E+00  0.83131501097E+00 -0.63955957518E+00  0.12088161317E+01  0.51100000000E-03 0. -1.
        -11    1    3    3    0    0 -0.18540222048E+02  0.23153172613E+02 -0.45616692117E+00  0.29665085945E+02  0.51100000000E-03 0.  1.
        -12    1    3    3    0    0 -0.96479127127E+01  0.11604275856E+02  0.23201619393E+01  0.15268418035E+02  0.00000000000E+00 0.  1.
</event>
<event>
 7    1  0.1385632E-008  0.4614232E+02  0.7816164E-02  0.1320468E+00
        -11   -1    0    0    0    0  0.00000000000E+00  0.00000000000E+00  0.45593999997E+02  0.45594000000E+02  0.51100000000E-03 0. -1.
         11   -1    0    0    0    0 -0.00000000000E+00 -0.00000000000E+00 -0.45593999997E+02  0.45594000000E+02  0.51100000000E-03 0.  1.
    9900012    2    1    2    0    0 -0.33815520148E+01  0.32432672340E+01 -0.44801337133E+02  0.46142317796E+02  0.10000000314E+02 0.  0.
         12    1    1    2    0    0  0.33815520148E+01 -0.32432672340E+01  0.44801337133E+02  0.45045682204E+02  0.00000000000E+00 0. -1.
         11    1    3    3    0    0 -0.29553154109E+00  0.28780474630E+01 -0.77144511610E+01  0.82391293877E+01  0.51100000000E-03 0. -1.
        -11    1    3    3    0    0 -0.17360904220E+01 -0.18913434897E+01 -0.42789937859E+01  0.49900879982E+01  0.51100000000E-03 0.  1.
        -12    1    3    3    0    0 -0.13499300517E+01  0.22565632607E+01 -0.32807892186E+02  0.32913100410E+02  0.00000000000E+00 0.  1.
</event>
<event>
 7    1  0.1385632E-008  0.4614232E+02  0.7816164E-02  0.1320468E+00
        -11   -1    0    0    0    0  0.00000000000E+00  0.00000000000E+00  0.45593999997E+02  0.45594000000E+02  0.51100000000E-03 0.  1.
         11   -1    0    0    0    0 -0.00000000000E+00 -0.00000000000E+00 -0.45593999997E+02  0.45594000000E+02  0.51100000000E-03 0. -1.
    9900012    2    1    2    0    0 -0.15760889669E+02  0.10254686492E+02  0.40933473445E+02  0.46142317782E+02  0.10000000192E+02 0.  0.
         12    1    1    2    0    0  0.15760889669E+02 -0.10254686492E+02 -0.40933473445E+02  0.45045682218E+02  0.00000000000E+00 0. -1.
         11    1    3    3    0    0 -0.81116830154E+01  0.44207603919E+01  0.17118234035E+02  0.19451901206E+02  0.51100000000E-03 0.  1.
        -11    1    3    3    0    0 -0.60275640976E+01  0.52315479352E+01  0.10130681708E+02  0.12896950604E+02  0.51100000000E-03 0. -1.
         12    1    3    3    0    0 -0.16216425557E+01  0.60237816493E+00  0.13684557702E+02  0.13793465973E+02  0.00000000000E+00 0. -1.
</event>
<event>
 7    1  0.1385632E-008  0.4614232E+02  0.7816164E-02  0.1320468E+00
        -11   -1    0    0    0    0  0.00000000000E+00  0.00000000000E+00  0.45593999997E+02  0.45594000000E+02  0.51100000000E-03 0.  1.
         11   -1    0    0    0    0 -0.00000000000E+00 -0.00000000000E+00 -0.45593999997E+02  0.45594000000E+02  0.51100000000E-03 0. -1.
    9900012    2    1    2    0    0  0.30004618799E+02  0.26832020547E+02  0.20220755524E+02  0.46142318411E+02  0.10000005924E+02 0.  0.
         12    1    1    2    0    0 -0.30004618799E+02 -0.26832020547E+02 -0.20220755524E+02  0.45045681589E+02  0.00000000000E+00 0. -1.
         11    1    3    3    0    0  0.59168487388E+01  0.78515278829E+01  0.17300842287E+01  0.99824235932E+01  0.51100000000E-03 0.  1.
        -11    1    3    3    0    0  0.62416610512E+01  0.25519709807E+01  0.50835257243E+01  0.84447097414E+01  0.51100000000E-03 0. -1.
         12    1    3    3    0    0  0.17846109009E+02  0.16428521683E+02  0.13407145571E+02  0.27715185076E+02  0.00000000000E+00 0. -1.
</event>
<event>
 7    1  0.1385632E-008  0.4614232E+02  0.7816164E-02  0.1320468E+00
        -11   -1    0    0    0    0  0.00000000000E+00  0.00000000000E+00  0.45593999997E+02  0.45594000000E+02  0.51100000000E-03 0.  1.
         11   -1    0    0    0    0 -0.00000000000E+00 -0.00000000000E+00 -0.45593999997E+02  0.45594000000E+02  0.51100000000E-03 0. -1.
    9900012    2    1    2    0    0 -0.34950656348E+02 -0.24802217522E+02  0.13871375685E+02  0.46142318336E+02  0.10000005242E+02 0.  0.
         12    1    1    2    0    0  0.34950656348E+02  0.24802217522E+02 -0.13871375685E+02  0.45045681664E+02  0.00000000000E+00 0. -1.
         11    1    3    3    0    0 -0.86311509342E+01 -0.96762128011E+01  0.44520576894E+01  0.13709364630E+02  0.51100000000E-03 0. -1.
        -11    1    3    3    0    0 -0.34340518002E+01 -0.76723233779E+00 -0.69145821854E+00  0.35860105906E+01  0.51100000000E-03 0.  1.
        -12    1    3    3    0    0 -0.22885453614E+02 -0.14358772383E+02  0.10110776215E+02  0.28846943116E+02  0.00000000000E+00 0.  1.
</event>
<event>
 7    1  0.1385632E-008  0.4614232E+02  0.7816164E-02  0.1320468E+00
        -11   -1    0    0    0    0  0.00000000000E+00  0.00000000000E+00  0.45593999997E+02  0.45594000000E+02  0.51100000000E-03 0.  1.
         11   -1    0    0    0    0 -0.00000000000E+00 -0.00000000000E+00 -0.45593999997E+02  0.45594000000E+02  0.51100000000E-03 0. -1.
    9900012    2    1    2    0    0 -0.15691726142E+01  0.30147362608E+02  0.33433332921E+02  0.46142317353E+02  0.99999962761E+01 0.  0.
         12    1    1    2    0    0  0.15691726142E+01 -0.30147362608E+02 -0.33433332921E+02  0.45045682647E+02  0.00000000000E+00 0. -1.
         11    1    3    3    0    0 -0.40497592521E+01  0.11042714985E+02  0.12364022429E+02  0.17064910054E+02  0.51100000000E-03 0. -1.
        -11    1    3    3    0    0 -0.71611830687E-01  0.57804315894E+01  0.10073605746E+02  0.11614475907E+02  0.51100000000E-03 0.  1.
        -12    1    3    3    0    0  0.25521984685E+01  0.13324216034E+02  0.10995704746E+02  0.17462931392E+02  0.00000000000E+00 0.  1.
</event>
<event>
 7    1  0.1385632E-008  0.4614232E+02  0.7816164E-02  0.1320468E+00
        -11   -1    0    0    0    0  0.00000000000E+00  0.00000000000E+00  0.45593999997E+02  0.45594000000E+02  0.51100000000E-03 0.  1.
         11   -1    0    0    0    0 -0.00000000000E+00 -0.00000000000E+00 -0.45593999997E+02  0.45594000000E+02  0.51100000000E-03 0. -1.
    9900012    2    1    2    0    0  0.18553174555E+02 -0.21919168602E+02  0.34705089981E+02  0.46142317534E+02  0.99999979263E+01 0.  0.
         12    1    1    2    0    0 -0.18553174555E+02  0.21919168602E+02 -0.34705089981E+02  0.45045682466E+02  0.00000000000E+00 0. -1.
         11    1    3    3    0    0  0.10315575874E+02 -0.78981269069E+01  0.12607258379E+02  0.18103438302E+02  0.51100000000E-03 0. -1.
        -11    1    3    3    0    0  0.76061943525E+01 -0.87054791917E+01  0.12338631078E+02  0.16908027018E+02  0.51100000000E-03 0.  1.
         12    1    3    3    0    0  0.63140432842E+00 -0.53155625036E+01  0.97592005234E+01  0.11130852214E+02  0.00000000000E+00 0. -1.
</event>
<event>
 7    1  0.1385632E-008  0.4614232E+02  0.7816164E-02  0.1320468E+00
        -11   -1    0    0    0    0  0.00000000000E+00  0.00000000000E+00  0.45593999997E+02  0.45594000000E+02  0.51100000000E-03 0.  1.
         11   -1    0    0    0    0 -0.00000000000E+00 -0.00000000000E+00 -0.45593999997E+02  0.45594000000E+02  0.51100000000E-03 0. -1.
    9900012    2    1    2    0    0  0.17896610084E+02 -0.22552826535E+02  0.34643825354E+02  0.46142320159E+02  0.10000021864E+02 0.  0.
         12    1    1    2    0    0 -0.17896610084E+02  0.22552826535E+02 -0.34643825354E+02  0.45045679841E+02  0.00000000000E+00 0. -1.
         11    1    3    3    0    0  0.10674468549E+02 -0.16475097984E+02  0.24137543068E+02  0.31112603845E+02  0.51100000000E-03 0. -1.
        -11    1    3    3    0    0  0.56698194854E+01 -0.69248057580E+01  0.83409252988E+01  0.12234002734E+02  0.51100000000E-03 0.  1.
         12    1    3    3    0    0  0.15523220496E+01  0.84707720741E+00  0.21653569877E+01  0.27957135807E+01  0.00000000000E+00 0. -1.
</event>
<event>
 7    1  0.1385632E-008  0.4614232E+02  0.7816164E-02  0.1320468E+00
        -11   -1    0    0    0    0  0.00000000000E+00  0.00000000000E+00  0.45593999997E+02  0.45594000000E+02  0.51100000000E-03 0. -1.
         11   -1    0    0    0    0 -0.00000000000E+00 -0.00000000000E+00 -0.45593999997E+02  0.45594000000E+02  0.51100000000E-03 0.  1.
    9900012    2    1    2    0    0 -0.20780765048E+02 -0.16478861217E+01 -0.39931914908E+02  0.46142317046E+02  0.99999934748E+01 0.  0.
         12    1    1    2    0    0  0.20780765048E+02  0.16478861217E+01  0.39931914908E+02  0.45045682954E+02  0.00000000000E+00 0. -1.
         11    1    3    3    0    0 -0.82571033920E+00  0.21142814791E+01 -0.26157360917E+01  0.34632440428E+01  0.51100000000E-03 0. -1.
        -11    1    3    3    0    0 -0.41286183344E+01  0.28318484390E-01 -0.10859162670E+02  0.11617560219E+02  0.51100000000E-03 0.  1.
         12    1    3    3    0    0 -0.15826436374E+02 -0.37904860852E+01 -0.26457016146E+02  0.31061512784E+02  0.00000000000E+00 0. -1.
</event>
<event>
 7    1  0.1385632E-008  0.4614232E+02  0.7816164E-02  0.1320468E+00
        -11   -1    0    0    0    0  0.00000000000E+00  0.00000000000E+00  0.45593999997E+02  0.45594000000E+02  0.51100000000E-03 0. -1.
         11   -1    0    0    0    0 -0.00000000000E+00 -0.00000000000E+00 -0.45593999997E+02  0.45594000000E+02  0.51100000000E-03 0.  1.
    9900012    2    1    2    0    0 -0.20920449803E+02 -0.38730777429E+02  0.95590413573E+01  0.46142316390E+02  0.99999875006E+01 0.  0.
         12    1    1    2    0    0  0.20920449803E+02  0.38730777429E+02 -0.95590413573E+01  0.45045683610E+02  0.00000000000E+00 0. -1.
         11    1    3    3    0    0 -0.55377231020E+01 -0.44052950235E+01  0.65450825841E+00  0.71064324889E+01  0.51100000000E-03 0. -1.
        -11    1    3    3    0    0 -0.11809436970E+02 -0.29645377083E+02  0.59998066749E+01  0.32470122641E+02  0.51100000000E-03 0.  1.
        -12    1    3    3    0    0 -0.35732897310E+01 -0.46801053228E+01  0.29047264240E+01  0.65657612607E+01  0.00000000000E+00 0.  1.
</event>
<event>
 7    1  0.1385632E-008  0.4614231E+02  0.7816164E-02  0.1320468E+00
        -11   -1    0    0    0    0  0.00000000000E+00  0.00000000000E+00  0.45593999997E+02  0.45594000000E+02  0.51100000000E-03 0. -1.
         11   -1    0    0    0    0 -0.00000000000E+00 -0.00000000000E+00 -0.45593999997E+02  0.45594000000E+02  0.51100000000E-03 0.  1.
    9900012    2    1    2    0    0  0.61800411327E+00 -0.36817098539E+02 -0.25946735862E+02  0.46142314570E+02  0.99999709032E+01 0.  0.
         12    1    1    2    0    0 -0.61800411327E+00  0.36817098539E+02  0.25946735862E+02  0.45045685430E+02  0.00000000000E+00 0. -1.
         11    1    3    3    0    0  0.11367274187E+01 -0.15802519470E+02 -0.13680698250E+02  0.20932588844E+02  0.51100000000E-03 0.  1.
        -11    1    3    3    0    0 -0.27626436342E+01 -0.71338595015E+01 -0.23462031183E+01  0.80018010829E+01  0.51100000000E-03 0. -1.
         12    1    3    3    0    0  0.22439203288E+01 -0.13880719567E+02 -0.99198344941E+01  0.17207924643E+02  0.00000000000E+00 0. -1.
</event>
<event>
 7    1  0.1385632E-008  0.4614232E+02  0.7816164E-02  0.1320468E+00
        -11   -1    0    0    0    0  0.00000000000E+00  0.00000000000E+00  0.45593999997E+02  0.45594000000E+02  0.51100000000E-03 0.  1.
         11   -1    0    0    0    0 -0.00000000000E+00 -0.00000000000E+00 -0.45593999997E+02  0.45594000000E+02  0.51100000000E-03 0. -1.
    9900012    2    1    2    0    0 -0.32435161853E+02  0.21842576953E+02 -0.22360133288E+02  0.46142318153E+02  0.10000003575E+02 0.  0.
         12    1    1    2    0    0  0.32435161853E+02 -0.21842576953E+02  0.22360133288E+02  0.45045681847E+02  0.00000000000E+00 0. -1.
         11    1    3    3    0    0 -0.13066265480E+02  0.13558788555E+02 -0.87738918426E+01  0.20773762755E+02  0.51100000000E-03 0. -1.
        -11    1    3    3    0    0 -0.15064191527E+02  0.81194887513E+01 -0.11019901260E+02  0.20354217941E+02  0.51100000000E-03 0.  1.
         12    1    3    3    0    0 -0.43047048465E+01  0.16429964663E+00 -0.25663401856E+01  0.50143374574E+01  0.00000000000E+00 0. -1.
</event>
<event>
 7    1  0.1385632E-008  0.4614232E+02  0.7816164E-02  0.1320468E+00
        -11   -1    0    0    0    0  0.00000000000E+00  0.00000000000E+00  0.45593999997E+02  0.45594000000E+02  0.51100000000E-03 0.  1.
         11   -1    0    0    0    0 -0.00000000000E+00 -0.00000000000E+00 -0.45593999997E+02  0.45594000000E+02  0.51100000000E-03 0. -1.
    9900012    2    1    2    0    0 -0.36112966660E+02 -0.11907163058E+02  0.24149256843E+02  0.46142317642E+02  0.99999989096E+01 0.  0.
         12    1    1    2    0    0  0.36112966660E+02  0.11907163058E+02 -0.24149256843E+02  0.45045682358E+02  0.00000000000E+00 0. -1.
         11    1    3    3    0    0 -0.28368745487E+01 -0.44413588689E-01  0.23722994758E-01  0.28373214153E+01  0.51100000000E-03 0. -1.
        -11    1    3    3    0    0 -0.60154801403E+01 -0.39214253037E+01  0.24636353951E+01  0.75916452336E+01  0.51100000000E-03 0.  1.
        -12    1    3    3    0    0 -0.27260611971E+02 -0.79413241652E+01  0.21661898453E+02  0.35713350993E+02  0.00000000000E+00 0.  1.
</event>
<event>
 7    1  0.1385632E-008  0.4614232E+02  0.7816164E-02  0.1320468E+00
        -11   -1    0    0    0    0  0.00000000000E+00  0.00000000000E+00  0.45593999997E+02  0.45594000000E+02  0.51100000000E-03 0. -1.
         11   -1    0    0    0    0 -0.00000000000E+00 -0.00000000000E+00 -0.45593999997E+02  0.45594000000E+02  0.51100000000E-03 0.  1.
    9900012    2    1    2    0    0  0.38774714904E+02 -0.14668030294E+02 -0.17620547832E+02  0.46142319469E+02  0.10000015573E+02 0.  0.
         12    1    1    2    0    0 -0.38774714904E+02  0.14668030294E+02  0.17620547832E+02  0.45045680531E+02  0.00000000000E+00 0. -1.
         11    1    3    3    0    0  0.14822102235E+02 -0.72158693919E+01 -0.26538811079E+01  0.16697501938E+02  0.51100000000E-03 0. -1.
        -11    1    3    3    0    0  0.16437350580E+02 -0.68580000234E+01 -0.10852342394E+02  0.20856461687E+02  0.51100000000E-03 0.  1.
         12    1    3    3    0    0  0.75152620886E+01 -0.59416087892E+00 -0.41143243298E+01  0.85883558439E+01  0.00000000000E+00 0. -1.
</event>
<event>
 7    1  0.1385632E-008  0.4614232E+02  0.7816164E-02  0.1320468E+00
        -11   -1    0    0    0    0  0.00000000000E+00  0.00000000000E+00  0.45593999997E+02  0.45594000000E+02  0.51100000000E-03 0. -1.
         11   -1    0    0    0    0 -0.00000000000E+00 -0.00000000000E+00 -0.45593999997E+02  0.45594000000E+02  0.51100000000E-03 0.  1.
    9900012    2    1    2    0    0 -0.31717565912E+02  0.28908316441E+02 -0.13690096807E+02  0.46142317661E+02  0.99999990831E+01 0.  0.
         12    1    1    2    0    0  0.31717565912E+02 -0.28908316441E+02  0.13690096807E+02  0.45045682339E+02  0.00000000000E+00 0. -1.
         11    1    3    3    0    0 -0.34932041801E+01  0.33283813779E+01  0.32205404268E+00  0.48357333579E+01  0.51100000000E-03 0. -1.
        -11    1    3    3    0    0 -0.27787016631E+02  0.25978162088E+02 -0.13124126651E+02  0.40239606103E+02  0.51100000000E-03 0.  1.
        -12    1    3    3    0    0 -0.43734510121E+00 -0.39822702491E+00 -0.88802419901E+00  0.10669781998E+01  0.00000000000E+00 0.  1.
</event>
<event>
 7    1  0.1385632E-008  0.4614232E+02  0.7816164E-02  0.1320468E+00
        -11   -1    0    0    0    0  0.00000000000E+00  0.00000000000E+00  0.45593999997E+02  0.45594000000E+02  0.51100000000E-03 0.  1.
         11   -1    0    0    0    0 -0.00000000000E+00 -0.00000000000E+00 -0.45593999997E+02  0.45594000000E+02  0.51100000000E-03 0. -1.
    9900012    2    1    2    0    0 -0.94666543950E+01  0.20708164730E+02  0.38867311301E+02  0.46142317413E+02  0.99999968275E+01 0.  0.
         12    1    1    2    0    0  0.94666543950E+01 -0.20708164730E+02 -0.38867311301E+02  0.45045682587E+02  0.00000000000E+00 0. -1.
         11    1    3    3    0    0 -0.25242525682E+01  0.42968782391E+01  0.10431047962E+02  0.11560353605E+02  0.51100000000E-03 0. -1.
        -11    1    3    3    0    0 -0.79354131384E+01  0.86755235470E+01  0.18951534084E+02  0.22302379579E+02  0.51100000000E-03 0.  1.
        -12    1    3    3    0    0  0.99301131165E+00  0.77357629441E+01  0.94847292556E+01  0.12279584229E+02  0.00000000000E+00 0.  1.
</event>
<event>
 7    1  0.1385632E-008  0.4614232E+02  0.7816164E-02  0.1320468E+00
        -11   -1    0    0    0    0  0.00000000000E+00  0.00000000000E+00  0.45593999997E+02  0.45594000000E+02  0.51100000000E-03 0.  1.
         11   -1    0    0    0    0 -0.00000000000E+00 -0.00000000000E+00 -0.45593999997E+02  0.45594000000E+02  0.51100000000E-03 0. -1.
    9900012    2    1    2    0    0 -0.16355229735E+02  0.28763084313E+02  0.30566401478E+02  0.46142318096E+02  0.10000003053E+02 0.  0.
         12    1    1    2    0    0  0.16355229735E+02 -0.28763084313E+02 -0.30566401478E+02  0.45045681904E+02  0.00000000000E+00 0. -1.
         11    1    3    3    0    0 -0.76020300231E+01  0.12190399041E+02  0.75836071218E+01  0.16245238887E+02  0.51100000000E-03 0. -1.
        -11    1    3    3    0    0 -0.15699454176E+01  0.42211920899E+01  0.80854640358E+01  0.92551564119E+01  0.51100000000E-03 0.  1.
         12    1    3    3    0    0 -0.71832542941E+01  0.12351493182E+02  0.14897330320E+02  0.20641922797E+02  0.00000000000E+00 0. -1.
</event>
<event>
 7    1  0.1385632E-008  0.4614232E+02  0.7816164E-02  0.1320468E+00
        -11   -1    0    0    0    0  0.00000000000E+00  0.00000000000E+00  0.45593999997E+02  0.45594000000E+02  0.51100000000E-03 0.  1.
         11   -1    0    0    0    0 -0.00000000000E+00 -0.00000000000E+00 -0.45593999997E+02  0.45594000000E+02  0.51100000000E-03 0. -1.
    9900012    2    1    2    0    0 -0.20404688030E+01 -0.13734976382E+02  0.42852075888E+02  0.46142317664E+02  0.99999991175E+01 0.  0.
         12    1    1    2    0    0  0.20404688030E+01  0.13734976382E+02 -0.42852075888E+02  0.45045682336E+02  0.00000000000E+00 0. -1.
         11    1    3    3    0    0  0.13293654925E+01 -0.65520393348E+01  0.23057565567E+02  0.24007243952E+02  0.51100000000E-03 0. -1.
        -11    1    3    3    0    0  0.54909067955E+00 -0.56111925268E+01  0.12361045841E+02  0.13586111905E+02  0.51100000000E-03 0.  1.
         12    1    3    3    0    0 -0.39189249750E+01 -0.15717445203E+01  0.74334644805E+01  0.85489618072E+01  0.00000000000E+00 0. -1.
</event>
<event>
 7    1  0.1385632E-008  0.4614232E+02  0.7816164E-02  0.1320468E+00
        -11   -1    0    0    0    0  0.00000000000E+00  0.00000000000E+00  0.45593999997E+02  0.45594000000E+02  0.51100000000E-03 0.  1.
         11   -1    0    0    0    0 -0.00000000000E+00 -0.00000000000E+00 -0.45593999997E+02  0.45594000000E+02  0.51100000000E-03 0. -1.
    9900012    2    1    2    0    0  0.22670270107E+02 -0.39053717899E+01  0.38728806489E+02  0.46142317325E+02  0.99999960258E+01 0.  0.
         12    1    1    2    0    0 -0.22670270107E+02  0.39053717899E+01 -0.38728806489E+02  0.45045682675E+02  0.00000000000E+00 0. -1.
         11    1    3    3    0    0  0.57357340285E+00  0.11536959886E+01  0.45724433188E+01  0.47504988209E+01  0.51100000000E-03 0. -1.
        -11    1    3    3    0    0 -0.27817500888E+00 -0.33483443054E-01  0.37972972933E-01  0.28274491033E+00  0.51100000000E-03 0.  1.
        -12    1    3    3    0    0  0.22374871713E+02 -0.50255843354E+01  0.34118390198E+02  0.41109073594E+02  0.00000000000E+00 0.  1.
</event>
<event>
 7    1  0.1385632E-008  0.4614232E+02  0.7816164E-02  0.1320468E+00
        -11   -1    0    0    0    0  0.00000000000E+00  0.00000000000E+00  0.45593999997E+02  0.45594000000E+02  0.51100000000E-03 0. -1.
         11   -1    0    0    0    0 -0.00000000000E+00 -0.00000000000E+00 -0.45593999997E+02  0.45594000000E+02  0.51100000000E-03 0.  1.
    9900012    2    1    2    0    0 -0.64501707319E+01  0.35973777225E+02 -0.26332418788E+02  0.46142316194E+02  0.99999857121E+01 0.  0.
         12    1    1    2    0    0  0.64501707319E+01 -0.35973777225E+02  0.26332418788E+02  0.45045683806E+02  0.00000000000E+00 0. -1.
         11    1    3    3    0    0 -0.38723595001E+01  0.24568696171E+02 -0.19186818061E+02  0.31412576895E+02  0.51100000000E-03 0.  1.
        -11    1    3    3    0    0 -0.38880675378E+01  0.90339624913E+01 -0.41051468503E+01  0.10657475236E+02  0.51100000000E-03 0. -1.
        -12    1    3    3    0    0  0.13102563060E+01  0.23711185630E+01 -0.30404538768E+01  0.40722640636E+01  0.00000000000E+00 0.  1.
</event>
<event>
 7    1  0.1385632E-008  0.4614232E+02  0.7816164E-02  0.1320468E+00
        -11   -1    0    0    0    0  0.00000000000E+00  0.00000000000E+00  0.45593999997E+02  0.45594000000E+02  0.51100000000E-03 0. -1.
         11   -1    0    0    0    0 -0.00000000000E+00 -0.00000000000E+00 -0.45593999997E+02  0.45594000000E+02  0.51100000000E-03 0.  1.
    9900012    2    1    2    0    0 -0.31579055104E+02  0.97113359951E+01 -0.30619715085E+02  0.46142315190E+02  0.99999765545E+01 0.  0.
         12    1    1    2    0    0  0.31579055104E+02 -0.97113359951E+01  0.30619715085E+02  0.45045684810E+02  0.00000000000E+00 0. -1.
         11    1    3    3    0    0 -0.72520225193E+01  0.51409814522E+01 -0.83777737316E+01  0.12215097784E+02  0.51100000000E-03 0. -1.
        -11    1    3    3    0    0 -0.15532763855E+02  0.12590623709E+01 -0.17392237127E+02  0.23352556682E+02  0.51100000000E-03 0.  1.
        -12    1    3    3    0    0 -0.87942687303E+01  0.33112921720E+01 -0.48497042264E+01  0.10574660724E+02  0.00000000000E+00 0.  1.
</event>
<event>
 7    1  0.1385632E-008  0.4614232E+02  0.7816164E-02  0.1320468E+00
        -11   -1    0    0    0    0  0.00000000000E+00  0.00000000000E+00  0.45593999997E+02  0.45594000000E+02  0.51100000000E-03 0.  1.
         11   -1    0    0    0    0 -0.00000000000E+00 -0.00000000000E+00 -0.45593999997E+02  0.45594000000E+02  0.51100000000E-03 0. -1.
    9900012    2    1    2    0    0 -0.14811283406E+02  0.38941167004E+02  0.17126728493E+02  0.46142318380E+02  0.10000005642E+02 0.  0.
         12    1    1    2    0    0  0.14811283406E+02 -0.38941167004E+02 -0.17126728493E+02  0.45045681620E+02  0.00000000000E+00 0. -1.
         11    1    3    3    0    0 -0.25139748788E+01  0.20172126502E+02  0.92838287068E+01  0.22347801525E+02  0.51100000000E-03 0. -1.
        -11    1    3    3    0    0 -0.86940638392E+01  0.12347104999E+02  0.52299112635E+01  0.15980917370E+02  0.51100000000E-03 0.  1.
         12    1    3    3    0    0 -0.36032446883E+01  0.64219355031E+01  0.26129885223E+01  0.78135994847E+01  0.00000000000E+00 0. -1.
</event>
<event>
 7    1  0.1385632E-008  0.4614232E+02  0.7816164E-02  0.1320468E+00
        -11   -1    0    0    0    0  0.00000000000E+00  0.00000000000E+00  0.45593999997E+02  0.45594000000E+02  0.51100000000E-03 0.  1.
         11   -1    0    0    0    0 -0.00000000000E+00 -0.00000000000E+00 -0.45593999997E+02  0.45594000000E+02  0.51100000000E-03 0. -1.
    9900012    2    1    2    0    0 -0.41170933102E+01  0.13011412989E+02  0.42928618227E+02  0.46142316653E+02  0.99999898964E+01 0.  0.
         12    1    1    2    0    0  0.41170933102E+01 -0.13011412989E+02 -0.42928618227E+02  0.45045683347E+02  0.00000000000E+00 0. -1.
         11    1    3    3    0    0 -0.25651793133E+01 -0.91381132016E+00  0.66562534567E+01  0.71917248542E+01  0.51100000000E-03 0. -1.
        -11    1    3    3    0    0 -0.16126329638E+00  0.10415384836E+02  0.26341311010E+02  0.28326152459E+02  0.51100000000E-03 0.  1.
         12    1    3    3    0    0 -0.13906507005E+01  0.35098394730E+01  0.99310537601E+01  0.10624439340E+02  0.00000000000E+00 0. -1.
</event>
<event>
 7    1  0.1385632E-008  0.4614232E+02  0.7816164E-02  0.1320468E+00
        -11   -1    0    0    0    0  0.00000000000E+00  0.00000000000E+00  0.45593999997E+02  0.45594000000E+02  0.51100000000E-03 0.  1.
         11   -1    0    0    0    0 -0.00000000000E+00 -0.00000000000E+00 -0.45593999997E+02  0.45594000000E+02  0.51100000000E-03 0. -1.
    9900012    2    1    2    0    0  0.25467010038E+01 -0.35826913034E+02  0.27185660546E+02  0.46142317378E+02  0.99999965063E+01 0.  0.
         12    1    1    2    0    0 -0.25467010038E+01  0.35826913034E+02 -0.27185660546E+02  0.45045682622E+02  0.00000000000E+00 0. -1.
         11    1    3    3    0    0  0.58398470911E+01 -0.15549734335E+02  0.12333831480E+02  0.20688679300E+02  0.51100000000E-03 0. -1.
        -11    1    3    3    0    0 -0.28381777745E+01 -0.19696087589E+02  0.14571666597E+02  0.24664237006E+02  0.51100000000E-03 0.  1.
         12    1    3    3    0    0 -0.45496831278E+00 -0.58109111064E+00  0.28016246844E+00  0.78940107247E+00  0.00000000000E+00 0. -1.
</event>
<event>
 7    1  0.1385632E-008  0.4614232E+02  0.7816164E-02  0.1320468E+00
        -11   -1    0    0    0    0  0.00000000000E+00  0.00000000000E+00  0.45593999997E+02  0.45594000000E+02  0.51100000000E-03 0.  1.
         11   -1    0    0    0    0 -0.00000000000E+00 -0.00000000000E+00 -0.45593999997E+02  0.45594000000E+02  0.51100000000E-03 0. -1.
    9900012    2    1    2    0    0  0.18431305061E+02  0.34774222826E+02  0.21912414462E+02  0.46142317777E+02  0.10000000142E+02 0.  0.
         12    1    1    2    0    0 -0.18431305061E+02 -0.34774222826E+02 -0.21912414462E+02  0.45045682223E+02  0.00000000000E+00 0. -1.
         11    1    3    3    0    0  0.13618296531E+02  0.18286934590E+02  0.13122634903E+02  0.26307290324E+02  0.51100000000E-03 0. -1.
        -11    1    3    3    0    0  0.42343072619E+01  0.73979439139E+01  0.55338259345E+01  0.10162783176E+02  0.51100000000E-03 0.  1.
         12    1    3    3    0    0  0.57870126867E+00  0.90893443216E+01  0.32559536243E+01  0.96722442772E+01  0.00000000000E+00 0. -1.
</event>
<event>
 7    1  0.1385632E-008  0.4614232E+02  0.7816164E-02  0.1320468E+00
        -11   -1    0    0    0    0  0.00000000000E+00  0.00000000000E+00  0.45593999997E+02  0.45594000000E+02  0.51100000000E-03 0. -1.
         11   -1    0    0    0    0 -0.00000000000E+00 -0.00000000000E+00 -0.45593999997E+02  0.45594000000E+02  0.51100000000E-03 0.  1.
    9900012    2    1    2    0    0 -0.37764740373E+02  0.12825853150E+02 -0.20938844309E+02  0.46142319569E+02  0.10000016489E+02 0.  0.
         12    1    1    2    0    0  0.37764740373E+02 -0.12825853150E+02  0.20938844309E+02  0.45045680431E+02  0.00000000000E+00 0. -1.
         11    1    3    3    0    0 -0.22709964591E+02  0.62157433386E+01 -0.73571800468E+01  0.24667915508E+02  0.51100000000E-03 0. -1.
        -11    1    3    3    0    0 -0.11711447741E+02  0.58599175143E+01 -0.97004168703E+01  0.16297077320E+02  0.51100000000E-03 0.  1.
         12    1    3    3    0    0 -0.33433280404E+01  0.75019229719E+00 -0.38812473920E+01  0.51773267413E+01  0.00000000000E+00 0. -1.
</event>
<event>
 7    1  0.1385632E-008  0.4614232E+02  0.7816164E-02  0.1320468E+00
        -11   -1    0    0    0    0  0.00000000000E+00  0.00000000000E+00  0.45593999997E+02  0.45594000000E+02  0.51100000000E-03 0.  1.
         11   -1    0    0    0    0 -0.00000000000E+00 -0.00000000000E+00 -0.45593999997E+02  0.45594000000E+02  0.51100000000E-03 0. -1.
    9900012    2    1    2    0    0 -0.34686809454E+02 -0.67489081254E+01  0.27935479993E+02  0.46142317039E+02  0.99999934147E+01 0.  0.
         12    1    1    2    0    0  0.34686809454E+02  0.67489081254E+01 -0.27935479993E+02  0.45045682961E+02  0.00000000000E+00 0. -1.
         11    1    3    3    0    0 -0.82573483345E+01 -0.57517551253E+01  0.59306886901E+01  0.11680734443E+02  0.51100000000E-03 0. -1.
        -11    1    3    3    0    0 -0.19405080273E+02  0.14037508226E+00  0.16119111558E+02  0.25227021292E+02  0.51100000000E-03 0.  1.
         12    1    3    3    0    0 -0.70243808466E+01 -0.11375280824E+01  0.58856797450E+01  0.92345613039E+01  0.00000000000E+00 0. -1.
</event>
<event>
 7    1  0.1385632E-008  0.4614232E+02  0.7816164E-02  0.1320468E+00
        -11   -1    0    0    0    0  0.00000000000E+00  0.00000000000E+00  0.45593999997E+02  0.45594000000E+02  0.51100000000E-03 0.  1.
         11   -1    0    0    0    0 -0.00000000000E+00 -0.00000000000E+00 -0.45593999997E+02  0.45594000000E+02  0.51100000000E-03 0. -1.
    9900012    2    1    2    0    0  0.29861211867E+01  0.44018604104E+02 -0.90862051238E+01  0.46142317071E+02  0.99999937074E+01 0.  0.
         12    1    1    2    0    0 -0.29861211867E+01 -0.44018604104E+02  0.90862051238E+01  0.45045682929E+02  0.00000000000E+00 0. -1.
         11    1    3    3    0    0  0.26919164520E+01  0.21880024078E+02 -0.62679529724E+01  0.22918750022E+02  0.51100000000E-03 0. -1.
        -11    1    3    3    0    0 -0.24742679170E+01  0.10486084090E+02  0.53133616664E+00  0.10787134914E+02  0.51100000000E-03 0.  1.
        -12    1    3    3    0    0  0.27684726516E+01  0.11652495936E+02 -0.33495883180E+01  0.12436432135E+02  0.00000000000E+00 0.  1.
</event>
<event>
 7    1  0.1385632E-008  0.4614232E+02  0.7816164E-02  0.1320468E+00
        -11   -1    0    0    0    0  0.00000000000E+00  0.00000000000E+00  0.45593999997E+02  0.45594000000E+02  0.51100000000E-03 0. -1.
         11   -1    0    0    0    0 -0.00000000000E+00 -0.00000000000E+00 -0.45593999997E+02  0.45594000000E+02  0.51100000000E-03 0.  1.
    9900012    2    1    2    0    0 -0.19454798924E+02  0.24035646752E+02 -0.32755334879E+02  0.46142317865E+02  0.10000000946E+02 0.  0.
         12    1    1    2    0    0  0.19454798924E+02 -0.24035646752E+02  0.32755334879E+02  0.45045682135E+02  0.00000000000E+00 0. -1.
         11    1    3    3    0    0 -0.52312644408E+01  0.39694009755E+01 -0.38527749043E+01  0.76135501888E+01  0.51100000000E-03 0. -1.
        -11    1    3    3    0    0 -0.13082522679E+02  0.17888700365E+02 -0.22110383381E+02  0.31305383785E+02  0.51100000000E-03 0.  1.
         12    1    3    3    0    0 -0.11410118039E+01  0.21775454115E+01 -0.67921765935E+01  0.72233838908E+01  0.00000000000E+00 0. -1.
</event>
<event>
 7    1  0.1385632E-008  0.4614231E+02  0.7816164E-02  0.1320468E+00
        -11   -1    0    0    0    0  0.00000000000E+00  0.00000000000E+00  0.45593999997E+02  0.45594000000E+02  0.51100000000E-03 0.  1.
         11   -1    0    0    0    0 -0.00000000000E+00 -0.00000000000E+00 -0.45593999997E+02  0.45594000000E+02  0.51100000000E-03 0. -1.
    9900012    2    1    2    0    0  0.23921231246E+02 -0.63417658231E+01  0.37638685415E+02  0.46142312771E+02  0.99999545003E+01 0.  0.
         12    1    1    2    0    0 -0.23921231246E+02  0.63417658231E+01 -0.37638685415E+02  0.45045687229E+02  0.00000000000E+00 0. -1.
         11    1    3    3    0    0  0.65367268410E+01 -0.58089984535E+00  0.15579823746E+02  0.16905536095E+02  0.51100000000E-03 0. -1.
        -11    1    3    3    0    0  0.99878782719E+01 -0.12339296604E+01  0.14958671747E+02  0.18028925522E+02  0.51100000000E-03 0.  1.
         12    1    3    3    0    0  0.73966261333E+01 -0.45269363174E+01  0.71001899223E+01  0.11207851155E+02  0.00000000000E+00 0. -1.
</event>
<event>
 7    1  0.1385632E-008  0.4614232E+02  0.7816164E-02  0.1320468E+00
        -11   -1    0    0    0    0  0.00000000000E+00  0.00000000000E+00  0.45593999997E+02  0.45594000000E+02  0.51100000000E-03 0.  1.
         11   -1    0    0    0    0 -0.00000000000E+00 -0.00000000000E+00 -0.45593999997E+02  0.45594000000E+02  0.51100000000E-03 0. -1.
    9900012    2    1    2    0    0 -0.40742850387E+02 -0.15925319274E+02  0.10747920586E+02  0.46142318203E+02  0.10000004032E+02 0.  0.
         12    1    1    2    0    0  0.40742850387E+02  0.15925319274E+02 -0.10747920586E+02  0.45045681797E+02  0.00000000000E+00 0. -1.
         11    1    3    3    0    0 -0.12384071890E+01 -0.24230471820E+00 -0.56496717144E+00  0.13825889151E+01  0.51100000000E-03 0. -1.
        -11    1    3    3    0    0 -0.23888404188E+02 -0.80629959235E+01  0.10654489346E+02  0.27371260501E+02  0.51100000000E-03 0.  1.
        -12    1    3    3    0    0 -0.15616039010E+02 -0.76200186319E+01  0.65839841191E+00  0.17388468788E+02  0.00000000000E+00 0.  1.
</event>
<event>
 7    1  0.1385632E-008  0.4614232E+02  0.7816164E-02  0.1320468E+00
        -11   -1    0    0    0    0  0.00000000000E+00  0.00000000000E+00  0.45593999997E+02  0.45594000000E+02  0.51100000000E-03 0.  1.
         11   -1    0    0    0    0 -0.00000000000E+00 -0.00000000000E+00 -0.45593999997E+02  0.45594000000E+02  0.51100000000E-03 0. -1.
    9900012    2    1    2    0    0  0.47618999355E+01  0.43403237582E+02  0.11072341934E+02  0.46142317860E+02  0.10000000901E+02 0.  0.
         12    1    1    2    0    0 -0.47618999355E+01 -0.43403237582E+02 -0.11072341934E+02  0.45045682140E+02  0.00000000000E+00 0. -1.
         11    1    3    3    0    0 -0.42825968183E-01  0.21759732863E+01  0.27253823921E+01  0.34877504571E+01  0.51100000000E-03 0. -1.
        -11    1    3    3    0    0  0.52457468906E+01  0.24495729596E+02  0.40720768425E+01  0.25379921965E+02  0.51100000000E-03 0.  1.
         12    1    3    3    0    0 -0.44102098691E+00  0.16731534699E+02  0.42748826992E+01  0.17274645438E+02  0.00000000000E+00 0. -1.
</event>
<event>
 7    1  0.1385632E-008  0.4614232E+02  0.7816164E-02  0.1320468E+00
        -11   -1    0    0    0    0  0.00000000000E+00  0.00000000000E+00  0.45593999997E+02  0.45594000000E+02  0.51100000000E-03 0.  1.
         11   -1    0    0    0    0 -0.00000000000E+00 -0.00000000000E+00 -0.45593999997E+02  0.45594000000E+02  0.51100000000E-03 0. -1.
    9900012    2    1    2    0    0  0.12495578960E+02 -0.36533044086E+02  0.23201523175E+02  0.46142317839E+02  0.10000000707E+02 0.  0.
         12    1    1    2    0    0 -0.12495578960E+02  0.36533044086E+02 -0.23201523175E+02  0.45045682161E+02  0.00000000000E+00 0. -1.
         11    1    3    3    0    0  0.78627951773E-01 -0.34298310262E+01  0.99815758638E+00  0.35729878325E+01  0.51100000000E-03 0. -1.
        -11    1    3    3    0    0  0.96019455247E-02 -0.10160904167E+02  0.50011136474E+01  0.11324981398E+02  0.51100000000E-03 0.  1.
        -12    1    3    3    0    0  0.12407349062E+02 -0.22942308893E+02  0.17202251941E+02  0.31244348608E+02  0.00000000000E+00 0.  1.
</event>
<event>
 7    1  0.1385632E-008  0.4614232E+02  0.7816164E-02  0.1320468E+00
        -11   -1    0    0    0    0  0.00000000000E+00  0.00000000000E+00  0.45593999997E+02  0.45594000000E+02  0.51100000000E-03 0.  1.
         11   -1    0    0    0    0 -0.00000000000E+00 -0.00000000000E+00 -0.45593999997E+02  0.45594000000E+02  0.51100000000E-03 0. -1.
    9900012    2    1    2    0    0 -0.72571828947E+01 -0.21200035589E+02  0.39076914411E+02  0.46142318159E+02  0.10000003633E+02 0.  0.
         12    1    1    2    0    0  0.72571828947E+01  0.21200035589E+02 -0.39076914411E+02  0.45045681841E+02  0.00000000000E+00 0. -1.
         11    1    3    3    0    0  0.65139593975E+00 -0.23131409007E+00  0.10568833417E+01  0.12628640218E+01  0.51100000000E-03 0. -1.
        -11    1    3    3    0    0 -0.90249104281E+01 -0.16445808777E+02  0.26635061452E+02  0.32578215626E+02  0.51100000000E-03 0.  1.
        -12    1    3    3    0    0  0.11163315936E+01 -0.45229127221E+01  0.11384969618E+02  0.12301238512E+02  0.00000000000E+00 0.  1.
</event>
<event>
 7    1  0.1385632E-008  0.4614232E+02  0.7816164E-02  0.1320468E+00
        -11   -1    0    0    0    0  0.00000000000E+00  0.00000000000E+00  0.45593999997E+02  0.45594000000E+02  0.51100000000E-03 0.  1.
         11   -1    0    0    0    0 -0.00000000000E+00 -0.00000000000E+00 -0.45593999997E+02  0.45594000000E+02  0.51100000000E-03 0. -1.
    9900012    2    1    2    0    0  0.40901033994E+02 -0.18086559434E+02  0.53940020761E+01  0.46142317939E+02  0.10000001622E+02 0.  0.
         12    1    1    2    0    0 -0.40901033994E+02  0.18086559434E+02 -0.53940020761E+01  0.45045682061E+02  0.00000000000E+00 0. -1.
         11    1    3    3    0    0  0.77448359338E+01 -0.10425333584E+01  0.37383722089E+01  0.86628394005E+01  0.51100000000E-03 0. -1.
        -11    1    3    3    0    0  0.26660274568E+02 -0.15202288933E+02  0.14551484199E+01  0.30724538825E+02  0.51100000000E-03 0.  1.
        -12    1    3    3    0    0  0.64959234921E+01 -0.18417371428E+01  0.20048144732E+00  0.67549397132E+01  0.00000000000E+00 0.  1.
</event>
<event>
 7    1  0.1385632E-008  0.4614232E+02  0.7816164E-02  0.1320468E+00
        -11   -1    0    0    0    0  0.00000000000E+00  0.00000000000E+00  0.45593999997E+02  0.45594000000E+02  0.51100000000E-03 0. -1.
         11   -1    0    0    0    0 -0.00000000000E+00 -0.00000000000E+00 -0.45593999997E+02  0.45594000000E+02  0.51100000000E-03 0.  1.
    9900012    2    1    2    0    0  0.98050808899E+01  0.42171930826E+02 -0.12429870838E+02  0.46142322628E+02  0.10000044383E+02 0.  0.
         12    1    1    2    0    0 -0.98050808899E+01 -0.42171930826E+02  0.12429870838E+02  0.45045677372E+02  0.00000000000E+00 0. -1.
         11    1    3    3    0    0  0.40375517341E+01  0.59621118971E+01 -0.37786576479E+01  0.81318421136E+01  0.51100000000E-03 0. -1.
        -11    1    3    3    0    0  0.20981879574E+01  0.26825455736E+02 -0.69640360075E+01  0.27793978950E+02  0.51100000000E-03 0.  1.
        -12    1    3    3    0    0  0.36693411984E+01  0.93843631931E+01 -0.16871771827E+01  0.10216501564E+02  0.00000000000E+00 0.  1.
</event>
<event>
 7    1  0.1385632E-008  0.4614232E+02  0.7816164E-02  0.1320468E+00
        -11   -1    0    0    0    0  0.00000000000E+00  0.00000000000E+00  0.45593999997E+02  0.45594000000E+02  0.51100000000E-03 0.  1.
         11   -1    0    0    0    0 -0.00000000000E+00 -0.00000000000E+00 -0.45593999997E+02  0.45594000000E+02  0.51100000000E-03 0. -1.
    9900012    2    1    2    0    0  0.10003054755E+02 -0.22782930885E+00  0.43920383927E+02  0.46142321685E+02  0.10000035778E+02 0.  0.
         12    1    1    2    0    0 -0.10003054755E+02  0.22782930885E+00 -0.43920383927E+02  0.45045678315E+02  0.00000000000E+00 0. -1.
         11    1    3    3    0    0 -0.58493761719E+00  0.20399617107E+01  0.12069589319E+02  0.12254737140E+02  0.51100000000E-03 0. -1.
        -11    1    3    3    0    0  0.93083086920E+01 -0.27129578195E+01  0.30371647823E+02  0.31881683496E+02  0.51100000000E-03 0.  1.
        -12    1    3    3    0    0  0.12796836806E+01  0.44516679995E+00  0.14791467850E+01  0.20059010479E+01  0.00000000000E+00 0.  1.
</event>
<event>
 7    1  0.1385632E-008  0.4614232E+02  0.7816164E-02  0.1320468E+00
        -11   -1    0    0    0    0  0.00000000000E+00  0.00000000000E+00  0.45593999997E+02  0.45594000000E+02  0.51100000000E-03 0. -1.
         11   -1    0    0    0    0 -0.00000000000E+00 -0.00000000000E+00 -0.45593999997E+02  0.45594000000E+02  0.51100000000E-03 0.  1.
    9900012    2    1    2    0    0 -0.44003260640E+02  0.63676032000E+01 -0.72304831465E+01  0.46142320918E+02  0.10000028787E+02 0.  0.
         12    1    1    2    0    0  0.44003260640E+02 -0.63676032000E+01  0.72304831465E+01  0.45045679082E+02  0.00000000000E+00 0. -1.
         11    1    3    3    0    0 -0.21098863491E+02  0.18573396106E+01 -0.52445083973E+01  0.21820096691E+02  0.51100000000E-03 0. -1.
        -11    1    3    3    0    0 -0.23309324091E+02  0.45941781741E+01 -0.16981143917E+01  0.23818368026E+02  0.51100000000E-03 0.  1.
         12    1    3    3    0    0  0.40492694179E+00 -0.83914584739E-01 -0.28786035759E+00  0.50385620091E+00  0.00000000000E+00 0. -1.
</event>
<event>
 7    1  0.1385632E-008  0.4614232E+02  0.7816164E-02  0.1320468E+00
        -11   -1    0    0    0    0  0.00000000000E+00  0.00000000000E+00  0.45593999997E+02  0.45594000000E+02  0.51100000000E-03 0.  1.
         11   -1    0    0    0    0 -0.00000000000E+00 -0.00000000000E+00 -0.45593999997E+02  0.45594000000E+02  0.51100000000E-03 0. -1.
    9900012    2    1    2    0    0 -0.32115289386E+02  0.73486740724E+01  0.30720008050E+02  0.46142315217E+02  0.99999767981E+01 0.  0.
         12    1    1    2    0    0  0.32115289386E+02 -0.73486740724E+01 -0.30720008050E+02  0.45045684783E+02  0.00000000000E+00 0. -1.
         11    1    3    3    0    0 -0.66450398141E+01  0.36605047521E+01  0.90787275680E+01  0.11831278193E+02  0.51100000000E-03 0.  1.
        -11    1    3    3    0    0 -0.80932208860E+01  0.22816255323E+01  0.33760177911E+01  0.90611001411E+01  0.51100000000E-03 0. -1.
         12    1    3    3    0    0 -0.17377028686E+02  0.14065437880E+01  0.18265262691E+02  0.25249936882E+02  0.00000000000E+00 0. -1.
</event>
<event>
 7    1  0.1385632E-008  0.4614232E+02  0.7816164E-02  0.1320468E+00
        -11   -1    0    0    0    0  0.00000000000E+00  0.00000000000E+00  0.45593999997E+02  0.45594000000E+02  0.51100000000E-03 0. -1.
         11   -1    0    0    0    0 -0.00000000000E+00 -0.00000000000E+00 -0.45593999997E+02  0.45594000000E+02  0.51100000000E-03 0.  1.
    9900012    2    1    2    0    0 -0.42994612957E+02 -0.30846139049E+01 -0.13079065288E+02  0.46142317242E+02  0.99999952704E+01 0.  0.
         12    1    1    2    0    0  0.42994612957E+02  0.30846139049E+01  0.13079065288E+02  0.45045682758E+02  0.00000000000E+00 0. -1.
         11    1    3    3    0    0 -0.47644237442E+01 -0.28143474083E+01 -0.35281935402E+01  0.65626545595E+01  0.51100000000E-03 0. -1.
        -11    1    3    3    0    0 -0.91763822165E+01  0.75515836413E+00 -0.37104084346E+01  0.99269021226E+01  0.51100000000E-03 0.  1.
         12    1    3    3    0    0 -0.29053806997E+02 -0.10254248607E+01 -0.58404633127E+01  0.29652760560E+02  0.00000000000E+00 0. -1.
</event>
<event>
 7    1  0.1385632E-008  0.4614232E+02  0.7816164E-02  0.1320468E+00
        -11   -1    0    0    0    0  0.00000000000E+00  0.00000000000E+00  0.45593999997E+02  0.45594000000E+02  0.51100000000E-03 0. -1.
         11   -1    0    0    0    0 -0.00000000000E+00 -0.00000000000E+00 -0.45593999997E+02  0.45594000000E+02  0.51100000000E-03 0.  1.
    9900012    2    1    2    0    0  0.11355561849E+02 -0.27453429045E+02 -0.33859620515E+02  0.46142318157E+02  0.10000003614E+02 0.  0.
         12    1    1    2    0    0 -0.11355561849E+02  0.27453429045E+02  0.33859620515E+02  0.45045681843E+02  0.00000000000E+00 0. -1.
         11    1    3    3    0    0  0.10176734985E+01 -0.28135588060E+00 -0.25887704199E+01  0.27958099058E+01  0.51100000000E-03 0. -1.
        -11    1    3    3    0    0  0.93637555589E+01 -0.17772028081E+02 -0.17480790824E+02  0.26628986995E+02  0.51100000000E-03 0.  1.
         12    1    3    3    0    0  0.97413279143E+00 -0.94000450838E+01 -0.13790059271E+02  0.16717521257E+02  0.00000000000E+00 0. -1.
</event>
<event>
 7    1  0.1385632E-008  0.4614232E+02  0.7816164E-02  0.1320468E+00
        -11   -1    0    0    0    0  0.00000000000E+00  0.00000000000E+00  0.45593999997E+02  0.45594000000E+02  0.51100000000E-03 0.  1.
         11   -1    0    0    0    0 -0.00000000000E+00 -0.00000000000E+00 -0.45593999997E+02  0.45594000000E+02  0.51100000000E-03 0. -1.
    9900012    2    1    2    0    0 -0.33864193535E+02 -0.27281474587E+02  0.11749512258E+02  0.46142317658E+02  0.99999990566E+01 0.  0.
         12    1    1    2    0    0  0.33864193535E+02  0.27281474587E+02 -0.11749512258E+02  0.45045682342E+02  0.00000000000E+00 0. -1.
         11    1    3    3    0    0 -0.19352897671E+02 -0.13637909444E+02  0.34643999820E+01  0.23927584286E+02  0.51100000000E-03 0. -1.
        -11    1    3    3    0    0 -0.14231776899E+02 -0.11874777912E+02  0.85363691628E+01  0.20406455422E+02  0.51100000000E-03 0.  1.
        -12    1    3    3    0    0 -0.27951896504E+00 -0.17687872306E+01 -0.25125688682E+00  0.18082779493E+01  0.00000000000E+00 0.  1.
</event>
<event>
 7    1  0.1385632E-008  0.4614232E+02  0.7816164E-02  0.1320468E+00
        -11   -1    0    0    0    0  0.00000000000E+00  0.00000000000E+00  0.45593999997E+02  0.45594000000E+02  0.51100000000E-03 0.  1.
         11   -1    0    0    0    0 -0.00000000000E+00 -0.00000000000E+00 -0.45593999997E+02  0.45594000000E+02  0.51100000000E-03 0. -1.
    9900012    2    1    2    0    0 -0.27700950293E+02  0.32217803720E+02  0.14959415191E+02  0.46142316228E+02  0.99999860161E+01 0.  0.
         12    1    1    2    0    0  0.27700950293E+02 -0.32217803720E+02 -0.14959415191E+02  0.45045683772E+02  0.00000000000E+00 0. -1.
         11    1    3    3    0    0 -0.94387116698E+01  0.54764907968E+01  0.49566761580E+01  0.11985402297E+02  0.51100000000E-03 0. -1.
        -11    1    3    3    0    0 -0.95007097256E+01  0.14677681718E+02  0.75595487715E+01  0.19048480354E+02  0.51100000000E-03 0.  1.
         12    1    3    3    0    0 -0.87615288973E+01  0.12063631205E+02  0.24431902617E+01  0.15108433576E+02  0.00000000000E+00 0. -1.
</event>
<event>
 7    1  0.1385632E-008  0.4614231E+02  0.7816164E-02  0.1320468E+00
        -11   -1    0    0    0    0  0.00000000000E+00  0.00000000000E+00  0.45593999997E+02  0.45594000000E+02  0.51100000000E-03 0. -1.
         11   -1    0    0    0    0 -0.00000000000E+00 -0.00000000000E+00 -0.45593999997E+02  0.45594000000E+02  0.51100000000E-03 0.  1.
    9900012    2    1    2    0    0 -0.33764924111E+02 -0.16171688822E+02  0.25050354736E+02  0.46142313281E+02  0.99999591481E+01 0.  0.
         12    1    1    2    0    0  0.33764924111E+02  0.16171688822E+02 -0.25050354736E+02  0.45045686719E+02  0.00000000000E+00 0. -1.
         11    1    3    3    0    0 -0.71116681699E+01 -0.46711675143E+01  0.59553623487E+01  0.10385661802E+02  0.51100000000E-03 0. -1.
        -11    1    3    3    0    0 -0.67486582046E+01  0.82597905588E+00  0.48445015798E+01  0.83484025287E+01  0.51100000000E-03 0.  1.
        -12    1    3    3    0    0 -0.19904597736E+02 -0.12326500363E+02  0.14250490808E+02  0.27408248950E+02  0.00000000000E+00 0.  1.
</event>
<event>
 7    1  0.1385632E-008  0.4614232E+02  0.7816164E-02  0.1320468E+00
        -11   -1    0    0    0    0  0.00000000000E+00  0.00000000000E+00  0.45593999997E+02  0.45594000000E+02  0.51100000000E-03 0.  1.
         11   -1    0    0    0    0 -0.00000000000E+00 -0.00000000000E+00 -0.45593999997E+02  0.45594000000E+02  0.51100000000E-03 0. -1.
    9900012    2    1    2    0    0  0.92936487109E+01 -0.71848859760E+01  0.43486996731E+02  0.46142318991E+02  0.10000011217E+02 0.  0.
         12    1    1    2    0    0 -0.92936487109E+01  0.71848859760E+01 -0.43486996731E+02  0.45045681009E+02  0.00000000000E+00 0. -1.
         11    1    3    3    0    0  0.30361892219E+01 -0.56118065673E+01  0.99866974442E+01  0.11850946968E+02  0.51100000000E-03 0. -1.
        -11    1    3    3    0    0  0.25740591049E+01 -0.24233565232E+01  0.15412768633E+02  0.15813028626E+02  0.51100000000E-03 0.  1.
         12    1    3    3    0    0  0.36834003842E+01  0.85027711446E+00  0.18087530654E+02  0.18478343397E+02  0.00000000000E+00 0. -1.
</event>
<event>
 7    1  0.1385632E-008  0.4614232E+02  0.7816164E-02  0.1320468E+00
        -11   -1    0    0    0    0  0.00000000000E+00  0.00000000000E+00  0.45593999997E+02  0.45594000000E+02  0.51100000000E-03 0. -1.
         11   -1    0    0    0    0 -0.00000000000E+00 -0.00000000000E+00 -0.45593999997E+02  0.45594000000E+02  0.51100000000E-03 0.  1.
    9900012    2    1    2    0    0  0.12548942513E+01 -0.44424306963E+02 -0.73498134636E+01  0.46142316892E+02  0.99999920729E+01 0.  0.
         12    1    1    2    0    0 -0.12548942513E+01  0.44424306963E+02  0.73498134636E+01  0.45045683108E+02  0.00000000000E+00 0. -1.
         11    1    3    3    0    0  0.35198993911E+01 -0.19700699202E+02 -0.28017449584E+01  0.20207845404E+02  0.51100000000E-03 0. -1.
        -11    1    3    3    0    0 -0.30419855532E+01 -0.17714788412E+02 -0.90396461278E+00  0.17996792960E+02  0.51100000000E-03 0.  1.
        -12    1    3    3    0    0  0.77698041336E+00 -0.70088193492E+01 -0.36441038925E+01  0.79376785278E+01  0.00000000000E+00 0.  1.
</event>
<event>
 7    1  0.1385632E-008  0.4614232E+02  0.7816164E-02  0.1320468E+00
        -11   -1    0    0    0    0  0.00000000000E+00  0.00000000000E+00  0.45593999997E+02  0.45594000000E+02  0.51100000000E-03 0.  1.
         11   -1    0    0    0    0 -0.00000000000E+00 -0.00000000000E+00 -0.45593999997E+02  0.45594000000E+02  0.51100000000E-03 0. -1.
    9900012    2    1    2    0    0  0.26476840167E+02 -0.12549258884E+02  0.34214126518E+02  0.46142318552E+02  0.10000007208E+02 0.  0.
         12    1    1    2    0    0 -0.26476840167E+02  0.12549258884E+02 -0.34214126518E+02  0.45045681448E+02  0.00000000000E+00 0. -1.
         11    1    3    3    0    0  0.90171514772E+01 -0.19173165003E+01  0.15130940925E+02  0.17718083893E+02  0.51100000000E-03 0. -1.
        -11    1    3    3    0    0  0.87379640614E+01 -0.44029996340E+01  0.12392453919E+02  0.15789595818E+02  0.51100000000E-03 0.  1.
         12    1    3    3    0    0  0.87217246280E+01 -0.62289427498E+01  0.66907316745E+01  0.12634638840E+02  0.00000000000E+00 0. -1.
</event>
<event>
 7    1  0.1385632E-008  0.4614232E+02  0.7816164E-02  0.1320468E+00
        -11   -1    0    0    0    0  0.00000000000E+00  0.00000000000E+00  0.45593999997E+02  0.45594000000E+02  0.51100000000E-03 0.  1.
         11   -1    0    0    0    0 -0.00000000000E+00 -0.00000000000E+00 -0.45593999997E+02  0.45594000000E+02  0.51100000000E-03 0. -1.
    9900012    2    1    2    0    0  0.36935893696E+02 -0.59283569198E+01  0.25093980490E+02  0.46142317458E+02  0.99999972344E+01 0.  0.
         12    1    1    2    0    0 -0.36935893696E+02  0.59283569198E+01 -0.25093980490E+02  0.45045682542E+02  0.00000000000E+00 0. -1.
         11    1    3    3    0    0  0.31114549374E+01  0.17039487978E+00  0.79089219528E+00  0.32149178789E+01  0.51100000000E-03 0. -1.
        -11    1    3    3    0    0  0.54723982671E+01 -0.10126019955E+01  0.55036315980E+00  0.55924418158E+01  0.51100000000E-03 0.  1.
        -12    1    3    3    0    0  0.28352040491E+02 -0.50861498041E+01  0.23752725135E+02  0.37334957763E+02  0.00000000000E+00 0.  1.
</event>
<event>
 7    1  0.1385632E-008  0.4614232E+02  0.7816164E-02  0.1320468E+00
        -11   -1    0    0    0    0  0.00000000000E+00  0.00000000000E+00  0.45593999997E+02  0.45594000000E+02  0.51100000000E-03 0.  1.
         11   -1    0    0    0    0 -0.00000000000E+00 -0.00000000000E+00 -0.45593999997E+02  0.45594000000E+02  0.51100000000E-03 0. -1.
    9900012    2    1    2    0    0 -0.44681902460E+02 -0.45088309690E+00  0.56954159347E+01  0.46142318013E+02  0.10000002296E+02 0.  0.
         12    1    1    2    0    0  0.44681902460E+02  0.45088309690E+00 -0.56954159347E+01  0.45045681987E+02  0.00000000000E+00 0. -1.
         11    1    3    3    0    0 -0.98260881578E+01 -0.18150248667E+01  0.24564543885E+01  0.10289824691E+02  0.51100000000E-03 0. -1.
        -11    1    3    3    0    0 -0.19732712317E+02  0.40918606107E-01  0.55460068610E+01  0.20497312070E+02  0.51100000000E-03 0.  1.
         12    1    3    3    0    0 -0.15123101985E+02  0.13232231637E+01 -0.23070453149E+01  0.15355181252E+02  0.00000000000E+00 0. -1.
</event>
<event>
 7    1  0.1385632E-008  0.4614232E+02  0.7816164E-02  0.1320468E+00
        -11   -1    0    0    0    0  0.00000000000E+00  0.00000000000E+00  0.45593999997E+02  0.45594000000E+02  0.51100000000E-03 0.  1.
         11   -1    0    0    0    0 -0.00000000000E+00 -0.00000000000E+00 -0.45593999997E+02  0.45594000000E+02  0.51100000000E-03 0. -1.
    9900012    2    1    2    0    0 -0.19023821593E+02 -0.34075678061E+02  0.22495683409E+02  0.46142318793E+02  0.10000009408E+02 0.  0.
         12    1    1    2    0    0  0.19023821593E+02  0.34075678061E+02 -0.22495683409E+02  0.45045681207E+02  0.00000000000E+00 0. -1.
         11    1    3    3    0    0 -0.16501427280E+02 -0.31039524845E+02  0.18975769852E+02  0.39947829060E+02  0.51100000000E-03 0.  1.
        -11    1    3    3    0    0  0.59677139755E+00 -0.98384105326E+00  0.16686948009E+01  0.20269735861E+01  0.51100000000E-03 0. -1.
         12    1    3    3    0    0 -0.31191657114E+01 -0.20523121632E+01  0.18512187562E+01  0.41675161467E+01  0.00000000000E+00 0. -1.
</event>
<event>
 7    1  0.1385632E-008  0.4614232E+02  0.7816164E-02  0.1320468E+00
        -11   -1    0    0    0    0  0.00000000000E+00  0.00000000000E+00  0.45593999997E+02  0.45594000000E+02  0.51100000000E-03 0.  1.
         11   -1    0    0    0    0 -0.00000000000E+00 -0.00000000000E+00 -0.45593999997E+02  0.45594000000E+02  0.51100000000E-03 0. -1.
    9900012    2    1    2    0    0  0.31127493042E+02 -0.21225333061E+02  0.24691656731E+02  0.46142317646E+02  0.99999989512E+01 0.  0.
         12    1    1    2    0    0 -0.31127493042E+02  0.21225333061E+02 -0.24691656731E+02  0.45045682354E+02  0.00000000000E+00 0. -1.
         11    1    3    3    0    0  0.82147616096E+01 -0.30787821932E+01  0.97490546451E+01  0.13115078148E+02  0.51100000000E-03 0.  1.
        -11    1    3    3    0    0  0.84797752634E+01 -0.66037686747E+01  0.35596266430E+01  0.11321982659E+02  0.51100000000E-03 0. -1.
        -12    1    3    3    0    0  0.14432956169E+02 -0.11542782193E+02  0.11382975443E+02  0.21705256839E+02  0.00000000000E+00 0.  1.
</event>
<event>
 7    1  0.1385632E-008  0.4614232E+02  0.7816164E-02  0.1320468E+00
        -11   -1    0    0    0    0  0.00000000000E+00  0.00000000000E+00  0.45593999997E+02  0.45594000000E+02  0.51100000000E-03 0.  1.
         11   -1    0    0    0    0 -0.00000000000E+00 -0.00000000000E+00 -0.45593999997E+02  0.45594000000E+02  0.51100000000E-03 0. -1.
    9900012    2    1    2    0    0 -0.20646460983E+02  0.59601463989E+01  0.39589313783E+02  0.46142318054E+02  0.10000002667E+02 0.  0.
         12    1    1    2    0    0  0.20646460983E+02 -0.59601463989E+01 -0.39589313783E+02  0.45045681946E+02  0.00000000000E+00 0. -1.
         11    1    3    3    0    0 -0.66282885067E+01  0.25714477424E+01  0.86168718872E+01  0.11171259258E+02  0.51100000000E-03 0. -1.
        -11    1    3    3    0    0 -0.81300189832E+01 -0.18249684149E+01  0.17177425420E+02  0.19091664744E+02  0.51100000000E-03 0.  1.
        -12    1    3    3    0    0 -0.58881534934E+01  0.52136670714E+01  0.13795016476E+02  0.15879394052E+02  0.00000000000E+00 0.  1.
</event>
<event>
 7    1  0.1936284E-008  0.4614232E+02  0.7816164E-02  0.1320468E+00
        -11   -1    0    0    0    0  0.00000000000E+00  0.00000000000E+00  0.45593999997E+02  0.45594000000E+02  0.51100000000E-03 0.  1.
         11   -1    0    0    0    0 -0.00000000000E+00 -0.00000000000E+00 -0.45593999997E+02  0.45594000000E+02  0.51100000000E-03 0. -1.
    9900012    2    1    2    0    0 -0.92520284435E+00  0.43428529001E+02 -0.11925617851E+02  0.46142317714E+02  0.99999995707E+01 0.  0.
         12    1    1    2    0    0  0.92520284435E+00 -0.43428529001E+02  0.11925617851E+02  0.45045682286E+02  0.00000000000E+00 0. -1.
         11    1    3    3    0    0 -0.66274839798E+00  0.42983769095E+01  0.40971542499E+00  0.43684260880E+01  0.51100000000E-03 0. -1.
        -11    1    3    3    0    0  0.21164270225E+01  0.30799928828E+02 -0.71931042783E+01  0.31699457859E+02  0.51100000000E-03 0.  1.
        -12    1    3    3    0    0 -0.23788814689E+01  0.83302232638E+01 -0.51422289974E+01  0.10074433767E+02  0.00000000000E+00 0.  1.
</event>
<event>
 7    1  0.1385632E-008  0.4614232E+02  0.7816164E-02  0.1320468E+00
        -11   -1    0    0    0    0  0.00000000000E+00  0.00000000000E+00  0.45593999997E+02  0.45594000000E+02  0.51100000000E-03 0.  1.
         11   -1    0    0    0    0 -0.00000000000E+00 -0.00000000000E+00 -0.45593999997E+02  0.45594000000E+02  0.51100000000E-03 0. -1.
    9900012    2    1    2    0    0  0.29138313890E+02  0.41784634419E+01  0.34097104619E+02  0.46142318337E+02  0.10000005253E+02 0.  0.
         12    1    1    2    0    0 -0.29138313890E+02 -0.41784634419E+01 -0.34097104619E+02  0.45045681663E+02  0.00000000000E+00 0. -1.
         11    1    3    3    0    0  0.27592997182E+01  0.13404650688E+01  0.21883409931E+01  0.37682115252E+01  0.51100000000E-03 0. -1.
        -11    1    3    3    0    0  0.16582176983E+02  0.33298614828E+01  0.25697063572E+02  0.30763544131E+02  0.51100000000E-03 0.  1.
        -12    1    3    3    0    0  0.97968371881E+01 -0.49186310973E+00  0.62117000536E+01  0.11610562681E+02  0.00000000000E+00 0.  1.
</event>
<event>
 7    1  0.1385632E-008  0.4614232E+02  0.7816164E-02  0.1320468E+00
        -11   -1    0    0    0    0  0.00000000000E+00  0.00000000000E+00  0.45593999997E+02  0.45594000000E+02  0.51100000000E-03 0. -1.
         11   -1    0    0    0    0 -0.00000000000E+00 -0.00000000000E+00 -0.45593999997E+02  0.45594000000E+02  0.51100000000E-03 0.  1.
    9900012    2    1    2    0    0 -0.32344901854E+02  0.30493041630E+02  0.72866461300E+01  0.46142317903E+02  0.10000001291E+02 0.  0.
         12    1    1    2    0    0  0.32344901854E+02 -0.30493041630E+02 -0.72866461300E+01  0.45045682097E+02  0.00000000000E+00 0. -1.
         11    1    3    3    0    0 -0.77463344666E+01  0.11402920193E+02  0.45171554576E+01  0.14506446164E+02  0.51100000000E-03 0. -1.
        -11    1    3    3    0    0 -0.18720047986E+02  0.14660247720E+02  0.17170211974E-01  0.23777370647E+02  0.51100000000E-03 0.  1.
        -12    1    3    3    0    0 -0.58785194014E+01  0.44298737164E+01  0.27523204604E+01  0.78585010920E+01  0.00000000000E+00 0.  1.
</event>
<event>
 7    1  0.1385632E-008  0.4614232E+02  0.7816164E-02  0.1320468E+00
        -11   -1    0    0    0    0  0.00000000000E+00  0.00000000000E+00  0.45593999997E+02  0.45594000000E+02  0.51100000000E-03 0. -1.
         11   -1    0    0    0    0 -0.00000000000E+00 -0.00000000000E+00 -0.45593999997E+02  0.45594000000E+02  0.51100000000E-03 0.  1.
    9900012    2    1    2    0    0  0.28304252487E+02 -0.26047186369E+02 -0.23441989226E+02  0.46142317793E+02  0.10000000293E+02 0.  0.
         12    1    1    2    0    0 -0.28304252487E+02  0.26047186369E+02  0.23441989226E+02  0.45045682207E+02  0.00000000000E+00 0. -1.
         11    1    3    3    0    0  0.43688271473E+01 -0.97487814859E+01 -0.70019148810E+01  0.12773104688E+02  0.51100000000E-03 0. -1.
        -11    1    3    3    0    0  0.21072177127E+02 -0.14842578696E+02 -0.13970260814E+02  0.29317349449E+02  0.51100000000E-03 0.  1.
         12    1    3    3    0    0  0.28632482126E+01 -0.14558261867E+01 -0.24698135309E+01  0.40518636564E+01  0.00000000000E+00 0. -1.
</event>
<event>
 7    1  0.1385632E-008  0.4614232E+02  0.7816164E-02  0.1320468E+00
        -11   -1    0    0    0    0  0.00000000000E+00  0.00000000000E+00  0.45593999997E+02  0.45594000000E+02  0.51100000000E-03 0.  1.
         11   -1    0    0    0    0 -0.00000000000E+00 -0.00000000000E+00 -0.45593999997E+02  0.45594000000E+02  0.51100000000E-03 0. -1.
    9900012    2    1    2    0    0  0.28323338355E+02 -0.20514954728E+02  0.28390819337E+02  0.46142317791E+02  0.10000000270E+02 0.  0.
         12    1    1    2    0    0 -0.28323338355E+02  0.20514954728E+02 -0.28390819337E+02  0.45045682209E+02  0.00000000000E+00 0. -1.
         11    1    3    3    0    0  0.66588449810E+01 -0.60439850963E+01  0.48672251830E+01  0.10225451265E+02  0.51100000000E-03 0. -1.
        -11    1    3    3    0    0  0.17312870465E+02 -0.14025339409E+02  0.16840067840E+02  0.27929080085E+02  0.51100000000E-03 0.  1.
         12    1    3    3    0    0  0.43516229086E+01 -0.44563022320E+00  0.66835263140E+01  0.79877864408E+01  0.00000000000E+00 0. -1.
</event>
<event>
 7    1  0.1385632E-008  0.4614232E+02  0.7816164E-02  0.1320468E+00
        -11   -1    0    0    0    0  0.00000000000E+00  0.00000000000E+00  0.45593999997E+02  0.45594000000E+02  0.51100000000E-03 0.  1.
         11   -1    0    0    0    0 -0.00000000000E+00 -0.00000000000E+00 -0.45593999997E+02  0.45594000000E+02  0.51100000000E-03 0. -1.
    9900012    2    1    2    0    0 -0.80709111848E+01  0.39287363162E+02 -0.20505534595E+02  0.46142318069E+02  0.10000002806E+02 0.  0.
         12    1    1    2    0    0  0.80709111848E+01 -0.39287363162E+02  0.20505534595E+02  0.45045681931E+02  0.00000000000E+00 0. -1.
         11    1    3    3    0    0 -0.87874291595E+01  0.38772732622E+02 -0.20226641058E+02  0.44605613044E+02  0.51100000000E-03 0.  1.
        -11    1    3    3    0    0  0.54010161297E+00 -0.33318909674E+00 -0.28473983375E-01  0.63524464214E+00  0.51100000000E-03 0. -1.
        -12    1    3    3    0    0  0.17641636171E+00  0.84781963697E+00 -0.25041955357E+00  0.90146038311E+00  0.00000000000E+00 0.  1.
</event>
<event>
 7    1  0.1385632E-008  0.4614232E+02  0.7816164E-02  0.1320468E+00
        -11   -1    0    0    0    0  0.00000000000E+00  0.00000000000E+00  0.45593999997E+02  0.45594000000E+02  0.51100000000E-03 0. -1.
         11   -1    0    0    0    0 -0.00000000000E+00 -0.00000000000E+00 -0.45593999997E+02  0.45594000000E+02  0.51100000000E-03 0.  1.
    9900012    2    1    2    0    0 -0.41529389940E+02  0.20476732466E+01  0.17327154815E+02  0.46142317760E+02  0.99999999866E+01 0.  0.
         12    1    1    2    0    0  0.41529389940E+02 -0.20476732466E+01 -0.17327154815E+02  0.45045682240E+02  0.00000000000E+00 0. -1.
         11    1    3    3    0    0 -0.62897500013E+01  0.75042476305E+00  0.49250155860E+01  0.80237068234E+01  0.51100000000E-03 0. -1.
        -11    1    3    3    0    0 -0.99495628673E+01 -0.29981603710E+01  0.34540954542E+01  0.10950504213E+02  0.51100000000E-03 0.  1.
        -12    1    3    3    0    0 -0.25290077072E+02  0.42954088546E+01  0.89480437745E+01  0.27168106723E+02  0.00000000000E+00 0.  1.
</event>
<event>
 7    1  0.1385632E-008  0.4614232E+02  0.7816164E-02  0.1320468E+00
        -11   -1    0    0    0    0  0.00000000000E+00  0.00000000000E+00  0.45593999997E+02  0.45594000000E+02  0.51100000000E-03 0. -1.
         11   -1    0    0    0    0 -0.00000000000E+00 -0.00000000000E+00 -0.45593999997E+02  0.45594000000E+02  0.51100000000E-03 0.  1.
    9900012    2    1    2    0    0  0.47056180031E+01  0.23717082113E+02 -0.38006193185E+02  0.46142317131E+02  0.99999942504E+01 0.  0.
         12    1    1    2    0    0 -0.47056180031E+01 -0.23717082113E+02  0.38006193185E+02  0.45045682869E+02  0.00000000000E+00 0. -1.
         11    1    3    3    0    0 -0.25696586039E+01  0.50412693359E+01 -0.95388630466E+01  0.11090872389E+02  0.51100000000E-03 0. -1.
        -11    1    3    3    0    0  0.54063821838E+01  0.17109483669E+02 -0.24054606877E+02  0.30009790270E+02  0.51100000000E-03 0.  1.
         12    1    3    3    0    0  0.18688944231E+01  0.15663291081E+01 -0.44127232611E+01  0.50416544724E+01  0.00000000000E+00 0. -1.
</event>
<event>
 7    1  0.1385632E-008  0.4614231E+02  0.7816164E-02  0.1320468E+00
        -11   -1    0    0    0    0  0.00000000000E+00  0.00000000000E+00  0.45593999997E+02  0.45594000000E+02  0.51100000000E-03 0.  1.
         11   -1    0    0    0    0 -0.00000000000E+00 -0.00000000000E+00 -0.45593999997E+02  0.45594000000E+02  0.51100000000E-03 0. -1.
    9900012    2    1    2    0    0 -0.11309588562E+02  0.41816466968E+02  0.12352740378E+02  0.46142313215E+02  0.99999585427E+01 0.  0.
         12    1    1    2    0    0  0.11309588562E+02 -0.41816466968E+02 -0.12352740378E+02  0.45045686785E+02  0.00000000000E+00 0. -1.
         11    1    3    3    0    0 -0.76709601766E+01  0.14673753026E+02  0.70329745326E+01  0.17989591128E+02  0.51100000000E-03 0. -1.
        -11    1    3    3    0    0 -0.34829925624E+01  0.12400801148E+02  0.19186949799E+01  0.13022768407E+02  0.51100000000E-03 0.  1.
         12    1    3    3    0    0 -0.15563582335E+00  0.14741912794E+02  0.34010708654E+01  0.15129953680E+02  0.00000000000E+00 0. -1.
</event>
<event>
 7    1  0.1385632E-008  0.4614232E+02  0.7816164E-02  0.1320468E+00
        -11   -1    0    0    0    0  0.00000000000E+00  0.00000000000E+00  0.45593999997E+02  0.45594000000E+02  0.51100000000E-03 0.  1.
         11   -1    0    0    0    0 -0.00000000000E+00 -0.00000000000E+00 -0.45593999997E+02  0.45594000000E+02  0.51100000000E-03 0. -1.
    9900012    2    1    2    0    0 -0.14376786133E+02 -0.24608028854E+02  0.34883612660E+02  0.46142317679E+02  0.99999992480E+01 0.  0.
         12    1    1    2    0    0  0.14376786133E+02  0.24608028854E+02 -0.34883612660E+02  0.45045682321E+02  0.00000000000E+00 0. -1.
         11    1    3    3    0    0 -0.17573008740E+01 -0.89592444890E+00 -0.12257062407E-01  0.19725459378E+01  0.51100000000E-03 0. -1.
        -11    1    3    3    0    0 -0.33152967819E+01 -0.96539192918E+01  0.12501997264E+02  0.16139680489E+02  0.51100000000E-03 0.  1.
         12    1    3    3    0    0 -0.93041884769E+01 -0.14058185113E+02  0.22393872459E+02  0.28030091252E+02  0.00000000000E+00 0. -1.
</event>
<event>
 7    1  0.1385632E-008  0.4614232E+02  0.7816164E-02  0.1320468E+00
        -11   -1    0    0    0    0  0.00000000000E+00  0.00000000000E+00  0.45593999997E+02  0.45594000000E+02  0.51100000000E-03 0. -1.
         11   -1    0    0    0    0 -0.00000000000E+00 -0.00000000000E+00 -0.45593999997E+02  0.45594000000E+02  0.51100000000E-03 0.  1.
    9900012    2    1    2    0    0 -0.85761179246E+01 -0.33439430505E+02 -0.28937313945E+02  0.46142318192E+02  0.10000003933E+02 0.  0.
         12    1    1    2    0    0  0.85761179246E+01  0.33439430505E+02  0.28937313945E+02  0.45045681808E+02  0.00000000000E+00 0. -1.
         11    1    3    3    0    0 -0.67539012843E+00 -0.29303006646E+01  0.39101314556E+00  0.30324421432E+01  0.51100000000E-03 0. -1.
        -11    1    3    3    0    0 -0.65387958291E+01 -0.27860178532E+02 -0.26615891678E+02  0.39081339394E+02  0.51100000000E-03 0.  1.
        -12    1    3    3    0    0 -0.13619319671E+01 -0.26489513086E+01 -0.27124354119E+01  0.40285366552E+01  0.00000000000E+00 0.  1.
</event>
<event>
 7    1  0.1385632E-008  0.4614232E+02  0.7816164E-02  0.1320468E+00
        -11   -1    0    0    0    0  0.00000000000E+00  0.00000000000E+00  0.45593999997E+02  0.45594000000E+02  0.51100000000E-03 0. -1.
         11   -1    0    0    0    0 -0.00000000000E+00 -0.00000000000E+00 -0.45593999997E+02  0.45594000000E+02  0.51100000000E-03 0.  1.
    9900012    2    1    2    0    0 -0.20649448311E+02  0.14876542868E+01 -0.40006252083E+02  0.46142322777E+02  0.10000045736E+02 0.  0.
         12    1    1    2    0    0  0.20649448311E+02 -0.14876542868E+01  0.40006252083E+02  0.45045677223E+02  0.00000000000E+00 0. -1.
         11    1    3    3    0    0 -0.12138567685E+02 -0.22985879125E+01 -0.17455806104E+02  0.21385357112E+02  0.51100000000E-03 0. -1.
        -11    1    3    3    0    0 -0.85686155675E-01 -0.47829193057E+00 -0.30727442539E+01  0.31109263570E+01  0.51100000000E-03 0.  1.
        -12    1    3    3    0    0 -0.84251944704E+01  0.42645341298E+01 -0.19477701725E+02  0.21646039307E+02  0.00000000000E+00 0.  1.
</event>
<event>
 7    1  0.1385632E-008  0.4614232E+02  0.7816164E-02  0.1320468E+00
        -11   -1    0    0    0    0  0.00000000000E+00  0.00000000000E+00  0.45593999997E+02  0.45594000000E+02  0.51100000000E-03 0.  1.
         11   -1    0    0    0    0 -0.00000000000E+00 -0.00000000000E+00 -0.45593999997E+02  0.45594000000E+02  0.51100000000E-03 0. -1.
    9900012    2    1    2    0    0  0.12291899379E+02 -0.43294943589E+02 -0.18895872789E+01  0.46142317956E+02  0.10000001774E+02 0.  0.
         12    1    1    2    0    0 -0.12291899379E+02  0.43294943589E+02  0.18895872789E+01  0.45045682044E+02  0.00000000000E+00 0. -1.
         11    1    3    3    0    0  0.20906157090E+01 -0.72880413306E+00 -0.75703921362E+00  0.23398585725E+01  0.51100000000E-03 0. -1.
        -11    1    3    3    0    0  0.65534578579E+01 -0.28251090770E+02 -0.12750406705E+01  0.29029255392E+02  0.51100000000E-03 0.  1.
         12    1    3    3    0    0  0.36478258121E+01 -0.14315048686E+02  0.14249260527E+00  0.14773203992E+02  0.00000000000E+00 0. -1.
</event>
<event>
 7    1  0.1385632E-008  0.4614232E+02  0.7816164E-02  0.1320468E+00
        -11   -1    0    0    0    0  0.00000000000E+00  0.00000000000E+00  0.45593999997E+02  0.45594000000E+02  0.51100000000E-03 0.  1.
         11   -1    0    0    0    0 -0.00000000000E+00 -0.00000000000E+00 -0.45593999997E+02  0.45594000000E+02  0.51100000000E-03 0. -1.
    9900012    2    1    2    0    0  0.10187300342E+02 -0.35297653110E+02  0.26065454650E+02  0.46142319525E+02  0.10000016085E+02 0.  0.
         12    1    1    2    0    0 -0.10187300342E+02  0.35297653110E+02 -0.26065454650E+02  0.45045680475E+02  0.00000000000E+00 0. -1.
         11    1    3    3    0    0  0.98452348060E+01 -0.23775924871E+02  0.13819441187E+02  0.29209591007E+02  0.51100000000E-03 0. -1.
        -11    1    3    3    0    0 -0.59476353098E+00 -0.85339035329E+01  0.86787247163E+01  0.12186119814E+02  0.51100000000E-03 0.  1.
         12    1    3    3    0    0  0.93682906656E+00 -0.29878247064E+01  0.35672887472E+01  0.47466087033E+01  0.00000000000E+00 0. -1.
</event>
<event>
 7    1  0.1385632E-008  0.4614232E+02  0.7816164E-02  0.1320468E+00
        -11   -1    0    0    0    0  0.00000000000E+00  0.00000000000E+00  0.45593999997E+02  0.45594000000E+02  0.51100000000E-03 0.  1.
         11   -1    0    0    0    0 -0.00000000000E+00 -0.00000000000E+00 -0.45593999997E+02  0.45594000000E+02  0.51100000000E-03 0. -1.
    9900012    2    1    2    0    0 -0.36687737665E+02  0.25043143873E+02  0.74809227548E+01  0.46142319239E+02  0.10000013473E+02 0.  0.
         12    1    1    2    0    0  0.36687737665E+02 -0.25043143873E+02 -0.74809227548E+01  0.45045680761E+02  0.00000000000E+00 0. -1.
         11    1    3    3    0    0 -0.13618111692E+02  0.56484377673E+01  0.14171219924E+01  0.14811011116E+02  0.51100000000E-03 0. -1.
        -11    1    3    3    0    0 -0.21367407328E+02  0.15811738764E+02  0.40687837694E+01  0.26891117126E+02  0.51100000000E-03 0.  1.
         12    1    3    3    0    0 -0.17022186445E+01  0.35829673410E+01  0.19950169930E+01  0.44401909962E+01  0.00000000000E+00 0. -1.
</event>
<event>
 7    1  0.1385632E-008  0.4614232E+02  0.7816164E-02  0.1320468E+00
        -11   -1    0    0    0    0  0.00000000000E+00  0.00000000000E+00  0.45593999997E+02  0.45594000000E+02  0.51100000000E-03 0. -1.
         11   -1    0    0    0    0 -0.00000000000E+00 -0.00000000000E+00 -0.45593999997E+02  0.45594000000E+02  0.51100000000E-03 0.  1.
    9900012    2    1    2    0    0 -0.37992308836E+01  0.43861335118E+02 -0.95321862439E+01  0.46142318206E+02  0.10000004060E+02 0.  0.
         12    1    1    2    0    0  0.37992308836E+01 -0.43861335118E+02  0.95321862439E+01  0.45045681794E+02  0.00000000000E+00 0. -1.
         11    1    3    3    0    0  0.19669819926E+01  0.12408904696E+02 -0.24465597758E+01  0.12799827691E+02  0.51100000000E-03 0. -1.
        -11    1    3    3    0    0 -0.55201648309E+01  0.31731914265E+02 -0.69976596362E+01  0.32959882332E+02  0.51100000000E-03 0.  1.
        -12    1    3    3    0    0 -0.24604804533E+00 -0.27948384266E+00 -0.87966831853E-01  0.38260818395E+00  0.00000000000E+00 0.  1.
</event>
<event>
 7    1  0.1385632E-008  0.4614232E+02  0.7816164E-02  0.1320468E+00
        -11   -1    0    0    0    0  0.00000000000E+00  0.00000000000E+00  0.45593999997E+02  0.45594000000E+02  0.51100000000E-03 0.  1.
         11   -1    0    0    0    0 -0.00000000000E+00 -0.00000000000E+00 -0.45593999997E+02  0.45594000000E+02  0.51100000000E-03 0. -1.
    9900012    2    1    2    0    0  0.22431561510E+02 -0.38633684690E+02 -0.57772683482E+01  0.46142319030E+02  0.10000011569E+02 0.  0.
         12    1    1    2    0    0 -0.22431561510E+02  0.38633684690E+02  0.57772683482E+01  0.45045680970E+02  0.00000000000E+00 0. -1.
         11    1    3    3    0    0  0.10511188929E+02 -0.22841143266E+02 -0.38517732875E+01  0.25436962792E+02  0.51100000000E-03 0.  1.
        -11    1    3    3    0    0  0.66286558920E+01 -0.10985598648E+02  0.12330524086E+01  0.12889642163E+02  0.51100000000E-03 0. -1.
        -12    1    3    3    0    0  0.52917166897E+01 -0.48069427763E+01 -0.31585474693E+01  0.78157140745E+01  0.00000000000E+00 0.  1.
</event>
<event>
 7    1  0.1385632E-008  0.4614232E+02  0.7816164E-02  0.1320468E+00
        -11   -1    0    0    0    0  0.00000000000E+00  0.00000000000E+00  0.45593999997E+02  0.45594000000E+02  0.51100000000E-03 0.  1.
         11   -1    0    0    0    0 -0.00000000000E+00 -0.00000000000E+00 -0.45593999997E+02  0.45594000000E+02  0.51100000000E-03 0. -1.
    9900012    2    1    2    0    0 -0.58250470809E+01 -0.39233770551E+02  0.21351663510E+02  0.46142318078E+02  0.10000002894E+02 0.  0.
         12    1    1    2    0    0  0.58250470809E+01  0.39233770551E+02 -0.21351663510E+02  0.45045681922E+02  0.00000000000E+00 0. -1.
         11    1    3    3    0    0 -0.65741598768E+00 -0.11738438549E+01  0.94761787376E-01  0.13487346789E+01  0.51100000000E-03 0. -1.
        -11    1    3    3    0    0 -0.58830258748E+01 -0.36622986735E+02  0.18146569118E+02  0.41293475536E+02  0.51100000000E-03 0.  1.
        -12    1    3    3    0    0  0.71539478157E+00 -0.14369399608E+01  0.31103326043E+01  0.35001078632E+01  0.00000000000E+00 0.  1.
</event>
<event>
 7    1  0.1385632E-008  0.4614232E+02  0.7816164E-02  0.1320468E+00
        -11   -1    0    0    0    0  0.00000000000E+00  0.00000000000E+00  0.45593999997E+02  0.45594000000E+02  0.51100000000E-03 0. -1.
         11   -1    0    0    0    0 -0.00000000000E+00 -0.00000000000E+00 -0.45593999997E+02  0.45594000000E+02  0.51100000000E-03 0.  1.
    9900012    2    1    2    0    0 -0.38802427575E+02  0.18258725211E+02  0.13787822661E+02  0.46142317790E+02  0.10000000265E+02 0.  0.
         12    1    1    2    0    0  0.38802427575E+02 -0.18258725211E+02 -0.13787822661E+02  0.45045682210E+02  0.00000000000E+00 0. -1.
         11    1    3    3    0    0 -0.24164184896E+02  0.13358727060E+02  0.88368799000E+01  0.28990582384E+02  0.51100000000E-03 0.  1.
        -11    1    3    3    0    0 -0.98946874973E+01  0.17968667142E+01  0.54905063649E+01  0.11457714914E+02  0.51100000000E-03 0. -1.
         12    1    3    3    0    0 -0.47435551815E+01  0.31031314369E+01 -0.53956360428E+00  0.56940204915E+01  0.00000000000E+00 0. -1.
</event>
<event>
 7    1  0.1385632E-008  0.4614232E+02  0.7816164E-02  0.1320468E+00
        -11   -1    0    0    0    0  0.00000000000E+00  0.00000000000E+00  0.45593999997E+02  0.45594000000E+02  0.51100000000E-03 0.  1.
         11   -1    0    0    0    0 -0.00000000000E+00 -0.00000000000E+00 -0.45593999997E+02  0.45594000000E+02  0.51100000000E-03 0. -1.
    9900012    2    1    2    0    0 -0.42025327565E+02 -0.79214820078E+00  0.16197456199E+02  0.46142320484E+02  0.10000024832E+02 0.  0.
         12    1    1    2    0    0  0.42025327565E+02  0.79214820078E+00 -0.16197456199E+02  0.45045679516E+02  0.00000000000E+00 0. -1.
         11    1    3    3    0    0 -0.14319389308E+02 -0.29371791143E+01  0.77500633479E+01  0.16544951298E+02  0.51100000000E-03 0. -1.
        -11    1    3    3    0    0 -0.25467482697E+02  0.21696878752E+01  0.93040419716E+01  0.27200467233E+02  0.51100000000E-03 0.  1.
         12    1    3    3    0    0 -0.22384555599E+01 -0.24656961697E-01 -0.85664912023E+00  0.23969019535E+01  0.00000000000E+00 0. -1.
</event>
<event>
 7    1  0.1385632E-008  0.4614232E+02  0.7816164E-02  0.1320468E+00
        -11   -1    0    0    0    0  0.00000000000E+00  0.00000000000E+00  0.45593999997E+02  0.45594000000E+02  0.51100000000E-03 0.  1.
         11   -1    0    0    0    0 -0.00000000000E+00 -0.00000000000E+00 -0.45593999997E+02  0.45594000000E+02  0.51100000000E-03 0. -1.
    9900012    2    1    2    0    0 -0.42499532257E+02  0.72078831253E+01  0.13074764692E+02  0.46142319930E+02  0.10000019777E+02 0.  0.
         12    1    1    2    0    0  0.42499532257E+02 -0.72078831253E+01 -0.13074764692E+02  0.45045680070E+02  0.00000000000E+00 0. -1.
         11    1    3    3    0    0 -0.23510564314E+02  0.18626780140E+01  0.76313868894E+01  0.24788188112E+02  0.51100000000E-03 0. -1.
        -11    1    3    3    0    0 -0.27238256903E+00 -0.42991133083E+00  0.12126663075E+01  0.13151333966E+01  0.51100000000E-03 0.  1.
         12    1    3    3    0    0 -0.18716585374E+02  0.57751164422E+01  0.42307114953E+01  0.20038998422E+02  0.00000000000E+00 0. -1.
</event>
<event>
 7    1  0.1385632E-008  0.4614232E+02  0.7816164E-02  0.1320468E+00
        -11   -1    0    0    0    0  0.00000000000E+00  0.00000000000E+00  0.45593999997E+02  0.45594000000E+02  0.51100000000E-03 0.  1.
         11   -1    0    0    0    0 -0.00000000000E+00 -0.00000000000E+00 -0.45593999997E+02  0.45594000000E+02  0.51100000000E-03 0. -1.
    9900012    2    1    2    0    0 -0.30378802963E+02 -0.12831999157E+02  0.30685202112E+02  0.46142317627E+02  0.99999987758E+01 0.  0.
         12    1    1    2    0    0  0.30378802963E+02  0.12831999157E+02 -0.30685202112E+02  0.45045682373E+02  0.00000000000E+00 0. -1.
         11    1    3    3    0    0 -0.44399949572E+01 -0.49827060481E+00  0.31855525776E+01  0.54872191774E+01  0.51100000000E-03 0. -1.
        -11    1    3    3    0    0 -0.57176470336E+01 -0.13846395828E+01  0.10581397506E+02  0.12106803369E+02  0.51100000000E-03 0.  1.
        -12    1    3    3    0    0 -0.20221160972E+02 -0.10949088969E+02  0.16918252029E+02  0.28548295081E+02  0.00000000000E+00 0.  1.
</event>
<event>
 7    1  0.1385632E-008  0.4614232E+02  0.7816164E-02  0.1320468E+00
        -11   -1    0    0    0    0  0.00000000000E+00  0.00000000000E+00  0.45593999997E+02  0.45594000000E+02  0.51100000000E-03 0. -1.
         11   -1    0    0    0    0 -0.00000000000E+00 -0.00000000000E+00 -0.45593999997E+02  0.45594000000E+02  0.51100000000E-03 0.  1.
    9900012    2    1    2    0    0 -0.19908400366E+00  0.28910452747E+02 -0.34543588165E+02  0.46142318789E+02  0.10000009372E+02 0.  0.
         12    1    1    2    0    0  0.19908400366E+00 -0.28910452747E+02  0.34543588165E+02  0.45045681211E+02  0.00000000000E+00 0. -1.
         11    1    3    3    0    0  0.12077963299E+01  0.12628295639E+01 -0.46419314997E+01  0.49599434262E+01  0.51100000000E-03 0. -1.
        -11    1    3    3    0    0 -0.27013114063E+01  0.95265773275E+01 -0.13226608641E+02  0.16522588638E+02  0.51100000000E-03 0.  1.
         12    1    3    3    0    0  0.12944310727E+01  0.18121045856E+02 -0.16675048023E+02  0.24659786725E+02  0.00000000000E+00 0. -1.
</event>
<event>
 7    1  0.1385632E-008  0.4614232E+02  0.7816164E-02  0.1320468E+00
        -11   -1    0    0    0    0  0.00000000000E+00  0.00000000000E+00  0.45593999997E+02  0.45594000000E+02  0.51100000000E-03 0.  1.
         11   -1    0    0    0    0 -0.00000000000E+00 -0.00000000000E+00 -0.45593999997E+02  0.45594000000E+02  0.51100000000E-03 0. -1.
    9900012    2    1    2    0    0  0.20490433654E+02 -0.22803382088E+02  0.33003959575E+02  0.46142318147E+02  0.10000003516E+02 0.  0.
         12    1    1    2    0    0 -0.20490433654E+02  0.22803382088E+02 -0.33003959575E+02  0.45045681853E+02  0.00000000000E+00 0. -1.
         11    1    3    3    0    0  0.76894746189E+01 -0.74167671167E+01  0.78824970118E+01  0.13276679321E+02  0.51100000000E-03 0. -1.
        -11    1    3    3    0    0  0.12794310205E+02 -0.16038799391E+02  0.24584247456E+02  0.32020660249E+02  0.51100000000E-03 0.  1.
        -12    1    3    3    0    0  0.66488306200E-02  0.65218442008E+00  0.53721510771E+00  0.84497857766E+00  0.00000000000E+00 0.  1.
</event>
<event>
 7    1  0.1385632E-008  0.4614232E+02  0.7816164E-02  0.1320468E+00
        -11   -1    0    0    0    0  0.00000000000E+00  0.00000000000E+00  0.45593999997E+02  0.45594000000E+02  0.51100000000E-03 0.  1.
         11   -1    0    0    0    0 -0.00000000000E+00 -0.00000000000E+00 -0.45593999997E+02  0.45594000000E+02  0.51100000000E-03 0. -1.
    9900012    2    1    2    0    0  0.12596942699E+02 -0.13575480565E+02  0.41062596930E+02  0.46142317581E+02  0.99999983616E+01 0.  0.
         12    1    1    2    0    0 -0.12596942699E+02  0.13575480565E+02 -0.41062596930E+02  0.45045682419E+02  0.00000000000E+00 0. -1.
         11    1    3    3    0    0  0.44159074951E+01 -0.31143416168E+01  0.74282281753E+01  0.91857463930E+01  0.51100000000E-03 0. -1.
        -11    1    3    3    0    0  0.90902817077E+01 -0.86470420710E+01  0.23688154174E+02  0.26805469713E+02  0.51100000000E-03 0.  1.
        -12    1    3    3    0    0 -0.90924650350E+00 -0.18140968771E+01  0.99462145802E+01  0.10151101475E+02  0.00000000000E+00 0.  1.
</event>
<event>
 7    1  0.1385632E-008  0.4614232E+02  0.7816164E-02  0.1320468E+00
        -11   -1    0    0    0    0  0.00000000000E+00  0.00000000000E+00  0.45593999997E+02  0.45594000000E+02  0.51100000000E-03 0. -1.
         11   -1    0    0    0    0 -0.00000000000E+00 -0.00000000000E+00 -0.45593999997E+02  0.45594000000E+02  0.51100000000E-03 0.  1.
    9900012    2    1    2    0    0  0.55204222166E+00 -0.18199562689E+02 -0.41201757201E+02  0.46142316199E+02  0.99999857552E+01 0.  0.
         12    1    1    2    0    0 -0.55204222166E+00  0.18199562689E+02  0.41201757201E+02  0.45045683801E+02  0.00000000000E+00 0. -1.
         11    1    3    3    0    0 -0.73553625508E+00 -0.14095055688E+02 -0.27230443612E+02  0.30670974357E+02  0.51100000000E-03 0. -1.
        -11    1    3    3    0    0  0.56854909241E+00 -0.47903232416E+01 -0.74543680925E+01  0.88790792737E+01  0.51100000000E-03 0.  1.
         12    1    3    3    0    0  0.71902938432E+00  0.68581624072E+00 -0.65169454960E+01  0.65922625683E+01  0.00000000000E+00 0. -1.
</event>
<event>
 7    1  0.1385632E-008  0.4614232E+02  0.7816164E-02  0.1320468E+00
        -11   -1    0    0    0    0  0.00000000000E+00  0.00000000000E+00  0.45593999997E+02  0.45594000000E+02  0.51100000000E-03 0.  1.
         11   -1    0    0    0    0 -0.00000000000E+00 -0.00000000000E+00 -0.45593999997E+02  0.45594000000E+02  0.51100000000E-03 0. -1.
    9900012    2    1    2    0    0  0.80179510201E+01  0.44324866693E+02  0.36355624271E+00  0.46142317421E+02  0.99999968947E+01 0.  0.
         12    1    1    2    0    0 -0.80179510201E+01 -0.44324866693E+02 -0.36355624271E+00  0.45045682579E+02  0.00000000000E+00 0. -1.
         11    1    3    3    0    0 -0.99763273871E+00  0.55109313269E+01 -0.24728810680E+01  0.61221545398E+01  0.51100000000E-03 0. -1.
        -11    1    3    3    0    0  0.69577436480E+01  0.31779693252E+02  0.31486391602E+01  0.32684446281E+02  0.51100000000E-03 0.  1.
         12    1    3    3    0    0  0.20578401109E+01  0.70342421137E+01 -0.31220184950E+00  0.73357165997E+01  0.00000000000E+00 0. -1.
</event>
<event>
 7    1  0.1385632E-008  0.4614232E+02  0.7816164E-02  0.1320468E+00
        -11   -1    0    0    0    0  0.00000000000E+00  0.00000000000E+00  0.45593999997E+02  0.45594000000E+02  0.51100000000E-03 0. -1.
         11   -1    0    0    0    0 -0.00000000000E+00 -0.00000000000E+00 -0.45593999997E+02  0.45594000000E+02  0.51100000000E-03 0.  1.
    9900012    2    1    2    0    0  0.43360060218E+02 -0.14951322975E+01 -0.12115410478E+02  0.46142318590E+02  0.10000007556E+02 0.  0.
         12    1    1    2    0    0 -0.43360060218E+02  0.14951322975E+01  0.12115410478E+02  0.45045681410E+02  0.00000000000E+00 0. -1.
         11    1    3    3    0    0  0.22573550725E+01 -0.11442731794E+01 -0.29667089694E+01  0.38995352804E+01  0.51100000000E-03 0. -1.
        -11    1    3    3    0    0  0.40301855186E+02 -0.15191176492E+00 -0.84894071222E+01  0.41186558999E+02  0.51100000000E-03 0.  1.
        -12    1    3    3    0    0  0.80084995909E+00 -0.19894735326E+00 -0.65929438615E+00  0.10562243104E+01  0.00000000000E+00 0.  1.
</event>
<event>
 7    1  0.1385632E-008  0.4614232E+02  0.7816164E-02  0.1320468E+00
        -11   -1    0    0    0    0  0.00000000000E+00  0.00000000000E+00  0.45593999997E+02  0.45594000000E+02  0.51100000000E-03 0.  1.
         11   -1    0    0    0    0 -0.00000000000E+00 -0.00000000000E+00 -0.45593999997E+02  0.45594000000E+02  0.51100000000E-03 0. -1.
    9900012    2    1    2    0    0 -0.38097041386E+02  0.64813748711E+01  0.23145640571E+02  0.46142318076E+02  0.10000002868E+02 0.  0.
         12    1    1    2    0    0  0.38097041386E+02 -0.64813748711E+01 -0.23145640571E+02  0.45045681924E+02  0.00000000000E+00 0. -1.
         11    1    3    3    0    0 -0.18884615490E+02  0.53562240517E+01  0.74536325831E+01  0.20997011150E+02  0.51100000000E-03 0.  1.
        -11    1    3    3    0    0 -0.12137323089E+02  0.21125881236E+01  0.11552225730E+02  0.16888799837E+02  0.51100000000E-03 0. -1.
         12    1    3    3    0    0 -0.70751028076E+01 -0.98743730415E+00  0.41397822575E+01  0.82565070888E+01  0.00000000000E+00 0. -1.
</event>
<event>
 7    1  0.1385632E-008  0.4614232E+02  0.7816164E-02  0.1320468E+00
        -11   -1    0    0    0    0  0.00000000000E+00  0.00000000000E+00  0.45593999997E+02  0.45594000000E+02  0.51100000000E-03 0.  1.
         11   -1    0    0    0    0 -0.00000000000E+00 -0.00000000000E+00 -0.45593999997E+02  0.45594000000E+02  0.51100000000E-03 0. -1.
    9900012    2    1    2    0    0 -0.15234590765E+02  0.10383484035E+02  0.41099927228E+02  0.46142317470E+02  0.99999973459E+01 0.  0.
         12    1    1    2    0    0  0.15234590765E+02 -0.10383484035E+02 -0.41099927228E+02  0.45045682530E+02  0.00000000000E+00 0. -1.
         11    1    3    3    0    0 -0.54654354803E+01  0.53688776691E+01  0.85316261698E+01  0.11466668120E+02  0.51100000000E-03 0. -1.
        -11    1    3    3    0    0 -0.82580669747E+01  0.28791869308E+01  0.28722580449E+02  0.30024523567E+02  0.51100000000E-03 0.  1.
        -12    1    3    3    0    0 -0.15110883100E+01  0.21354194349E+01  0.38457206088E+01  0.46511257825E+01  0.00000000000E+00 0.  1.
</event>
<event>
 7    1  0.1385632E-008  0.4614232E+02  0.7816164E-02  0.1320468E+00
        -11   -1    0    0    0    0  0.00000000000E+00  0.00000000000E+00  0.45593999997E+02  0.45594000000E+02  0.51100000000E-03 0.  1.
         11   -1    0    0    0    0 -0.00000000000E+00 -0.00000000000E+00 -0.45593999997E+02  0.45594000000E+02  0.51100000000E-03 0. -1.
    9900012    2    1    2    0    0  0.29893580609E+02  0.13744659035E+02  0.30766406841E+02  0.46142316484E+02  0.99999883503E+01 0.  0.
         12    1    1    2    0    0 -0.29893580609E+02 -0.13744659035E+02 -0.30766406841E+02  0.45045683516E+02  0.00000000000E+00 0. -1.
         11    1    3    3    0    0  0.16895956505E+02  0.12274622499E+02  0.18448503281E+02  0.27865515917E+02  0.51100000000E-03 0. -1.
        -11    1    3    3    0    0  0.11515753970E+02  0.20728709442E+01  0.11741713460E+02  0.16576405482E+02  0.51100000000E-03 0.  1.
         12    1    3    3    0    0  0.14818701331E+01 -0.60283440857E+00  0.57619009947E+00  0.17003950853E+01  0.00000000000E+00 0. -1.
</event>
<event>
 7    1  0.1385632E-008  0.4614232E+02  0.7816164E-02  0.1320468E+00
        -11   -1    0    0    0    0  0.00000000000E+00  0.00000000000E+00  0.45593999997E+02  0.45594000000E+02  0.51100000000E-03 0.  1.
         11   -1    0    0    0    0 -0.00000000000E+00 -0.00000000000E+00 -0.45593999997E+02  0.45594000000E+02  0.51100000000E-03 0. -1.
    9900012    2    1    2    0    0  0.18192001230E+02  0.24453383063E+01  0.41136175502E+02  0.46142317375E+02  0.99999964793E+01 0.  0.
         12    1    1    2    0    0 -0.18192001230E+02 -0.24453383063E+01 -0.41136175502E+02  0.45045682625E+02  0.00000000000E+00 0. -1.
         11    1    3    3    0    0  0.10893829879E+02  0.29281412200E+01  0.23467376493E+02  0.26037805210E+02  0.51100000000E-03 0. -1.
        -11    1    3    3    0    0  0.69261090351E+01 -0.21094612621E+01  0.10568029860E+02  0.12810311025E+02  0.51100000000E-03 0.  1.
         12    1    3    3    0    0  0.37206231585E+00  0.16266583484E+01  0.71007691501E+01  0.72942011400E+01  0.00000000000E+00 0. -1.
</event>
<event>
 7    1  0.1582705E-008  0.4614231E+02  0.7816164E-02  0.1320468E+00
        -11   -1    0    0    0    0  0.00000000000E+00  0.00000000000E+00  0.45593999997E+02  0.45594000000E+02  0.51100000000E-03 0.  1.
         11   -1    0    0    0    0 -0.00000000000E+00 -0.00000000000E+00 -0.45593999997E+02  0.45594000000E+02  0.51100000000E-03 0. -1.
    9900012    2    1    2    0    0 -0.99585367817E+01 -0.41630912956E+02 -0.14028850069E+02  0.46142312053E+02  0.99999479493E+01 0.  0.
         12    1    1    2    0    0  0.99585367817E+01  0.41630912956E+02  0.14028850069E+02  0.45045687947E+02  0.00000000000E+00 0. -1.
         11    1    3    3    0    0 -0.33528300042E+00 -0.15896918987E+01  0.83905699039E+00  0.18285381914E+01  0.51100000000E-03 0. -1.
        -11    1    3    3    0    0 -0.94359493640E+01 -0.25453982897E+02 -0.92071434769E+01  0.28665552097E+02  0.51100000000E-03 0.  1.
        -12    1    3    3    0    0 -0.18730441720E+00 -0.14587238159E+02 -0.56607635830E+01  0.15648221765E+02  0.00000000000E+00 0.  1.
</event>
<event>
 7    1  0.1385632E-008  0.4614232E+02  0.7816164E-02  0.1320468E+00
        -11   -1    0    0    0    0  0.00000000000E+00  0.00000000000E+00  0.45593999997E+02  0.45594000000E+02  0.51100000000E-03 0. -1.
         11   -1    0    0    0    0 -0.00000000000E+00 -0.00000000000E+00 -0.45593999997E+02  0.45594000000E+02  0.51100000000E-03 0.  1.
    9900012    2    1    2    0    0  0.28536407427E+01  0.21711691275E+02 -0.39364613482E+02  0.46142316543E+02  0.99999888949E+01 0.  0.
         12    1    1    2    0    0 -0.28536407427E+01 -0.21711691275E+02  0.39364613482E+02  0.45045683457E+02  0.00000000000E+00 0. -1.
         11    1    3    3    0    0  0.11853729113E+01  0.85093035310E+00 -0.14250940467E+01  0.20396285710E+01  0.51100000000E-03 0. -1.
        -11    1    3    3    0    0  0.38567908078E+01  0.44049746031E+01 -0.10933112802E+02  0.12402080164E+02  0.51100000000E-03 0.  1.
        -12    1    3    3    0    0 -0.21885229764E+01  0.16455786319E+02 -0.27006406633E+02  0.31700607808E+02  0.00000000000E+00 0.  1.
</event>
<event>
 7    1  0.1385632E-008  0.4614232E+02  0.7816164E-02  0.1320468E+00
        -11   -1    0    0    0    0  0.00000000000E+00  0.00000000000E+00  0.45593999997E+02  0.45594000000E+02  0.51100000000E-03 0. -1.
         11   -1    0    0    0    0 -0.00000000000E+00 -0.00000000000E+00 -0.45593999997E+02  0.45594000000E+02  0.51100000000E-03 0.  1.
    9900012    2    1    2    0    0 -0.25145906217E+02  0.12767943122E+02 -0.35125151786E+02  0.46142320307E+02  0.10000023212E+02 0.  0.
         12    1    1    2    0    0  0.25145906217E+02 -0.12767943122E+02  0.35125151786E+02  0.45045679693E+02  0.00000000000E+00 0. -1.
         11    1    3    3    0    0 -0.13369064345E+02  0.50166584192E+01 -0.18333143200E+02  0.23237962109E+02  0.51100000000E-03 0. -1.
        -11    1    3    3    0    0 -0.72843184563E+01  0.49704709713E+01 -0.14858095718E+02  0.17278017412E+02  0.51100000000E-03 0.  1.
         12    1    3    3    0    0 -0.44925234158E+01  0.27808137318E+01 -0.19339128680E+01  0.56263407854E+01  0.00000000000E+00 0. -1.
</event>
<event>
 7    1  0.1385632E-008  0.4614232E+02  0.7816164E-02  0.1320468E+00
        -11   -1    0    0    0    0  0.00000000000E+00  0.00000000000E+00  0.45593999997E+02  0.45594000000E+02  0.51100000000E-03 0. -1.
         11   -1    0    0    0    0 -0.00000000000E+00 -0.00000000000E+00 -0.45593999997E+02  0.45594000000E+02  0.51100000000E-03 0.  1.
    9900012    2    1    2    0    0 -0.40742642605E+02  0.12847022611E+02  0.14286514210E+02  0.46142318689E+02  0.10000008466E+02 0.  0.
         12    1    1    2    0    0  0.40742642605E+02 -0.12847022611E+02 -0.14286514210E+02  0.45045681311E+02  0.00000000000E+00 0. -1.
         11    1    3    3    0    0 -0.10383662387E+02  0.74063995021E+01  0.23533093702E+01  0.12969705602E+02  0.51100000000E-03 0. -1.
        -11    1    3    3    0    0 -0.26823220412E+02  0.52984302789E+01  0.98228223605E+01  0.29052475903E+02  0.51100000000E-03 0.  1.
        -12    1    3    3    0    0 -0.35357598063E+01  0.14219283013E+00  0.21103824796E+01  0.41201371845E+01  0.00000000000E+00 0.  1.
</event>
<event>
 7    1  0.1385632E-008  0.4614232E+02  0.7816164E-02  0.1320468E+00
        -11   -1    0    0    0    0  0.00000000000E+00  0.00000000000E+00  0.45593999997E+02  0.45594000000E+02  0.51100000000E-03 0.  1.
         11   -1    0    0    0    0 -0.00000000000E+00 -0.00000000000E+00 -0.45593999997E+02  0.45594000000E+02  0.51100000000E-03 0. -1.
    9900012    2    1    2    0    0  0.14120386596E+02  0.37512303204E+01  0.42610521140E+02  0.46142316984E+02  0.99999929141E+01 0.  0.
         12    1    1    2    0    0 -0.14120386596E+02 -0.37512303204E+01 -0.42610521140E+02  0.45045683016E+02  0.00000000000E+00 0. -1.
         11    1    3    3    0    0  0.40766982431E+01  0.52736945922E+01  0.19362808018E+02  0.20478028661E+02  0.51100000000E-03 0. -1.
        -11    1    3    3    0    0  0.47212512151E+01  0.73542252742E+00  0.75417737234E+01  0.89280126840E+01  0.51100000000E-03 0.  1.
         12    1    3    3    0    0  0.53224371383E+01 -0.22578867993E+01  0.15705939398E+02  0.16736275639E+02  0.00000000000E+00 0. -1.
</event>
<event>
 7    1  0.1385632E-008  0.4614232E+02  0.7816164E-02  0.1320468E+00
        -11   -1    0    0    0    0  0.00000000000E+00  0.00000000000E+00  0.45593999997E+02  0.45594000000E+02  0.51100000000E-03 0.  1.
         11   -1    0    0    0    0 -0.00000000000E+00 -0.00000000000E+00 -0.45593999997E+02  0.45594000000E+02  0.51100000000E-03 0. -1.
    9900012    2    1    2    0    0 -0.44094779792E+00  0.44619892778E+02  0.61631373482E+01  0.46142317316E+02  0.99999959416E+01 0.  0.
         12    1    1    2    0    0  0.44094779792E+00 -0.44619892778E+02 -0.61631373482E+01  0.45045682684E+02  0.00000000000E+00 0. -1.
         11    1    3    3    0    0  0.98916369228E+00  0.17347404538E+02 -0.22904482890E+01  0.17525896343E+02  0.51100000000E-03 0. -1.
        -11    1    3    3    0    0 -0.73681678053E+00  0.22337816700E+02  0.66761846634E+01  0.23325788214E+02  0.51100000000E-03 0.  1.
         12    1    3    3    0    0 -0.69329470967E+00  0.49346715404E+01  0.17774009738E+01  0.52906327587E+01  0.00000000000E+00 0. -1.
</event>
<event>
 7    1  0.1385632E-008  0.4614232E+02  0.7816164E-02  0.1320468E+00
        -11   -1    0    0    0    0  0.00000000000E+00  0.00000000000E+00  0.45593999997E+02  0.45594000000E+02  0.51100000000E-03 0. -1.
         11   -1    0    0    0    0 -0.00000000000E+00 -0.00000000000E+00 -0.45593999997E+02  0.45594000000E+02  0.51100000000E-03 0.  1.
    9900012    2    1    2    0    0  0.14402820137E+02  0.41732739491E+02 -0.89471117575E+01  0.46142316720E+02  0.99999905083E+01 0.  0.
         12    1    1    2    0    0 -0.14402820137E+02 -0.41732739491E+02  0.89471117575E+01  0.45045683280E+02  0.00000000000E+00 0. -1.
         11    1    3    3    0    0  0.94560091481E+01  0.22908960693E+02 -0.70208889173E+01  0.25759065792E+02  0.51100000000E-03 0. -1.
        -11    1    3    3    0    0  0.59862329634E+01  0.16182442954E+02 -0.63761182178E+00  0.17265948979E+02  0.51100000000E-03 0.  1.
         12    1    3    3    0    0 -0.10394219745E+01  0.26413358439E+01 -0.12886110184E+01  0.31173019485E+01  0.00000000000E+00 0. -1.
</event>
<event>
 7    1  0.1385632E-008  0.4614232E+02  0.7816164E-02  0.1320468E+00
        -11   -1    0    0    0    0  0.00000000000E+00  0.00000000000E+00  0.45593999997E+02  0.45594000000E+02  0.51100000000E-03 0.  1.
         11   -1    0    0    0    0 -0.00000000000E+00 -0.00000000000E+00 -0.45593999997E+02  0.45594000000E+02  0.51100000000E-03 0. -1.
    9900012    2    1    2    0    0  0.40063712384E+02 -0.20093186751E+02  0.45029259756E+01  0.46142317120E+02  0.99999941524E+01 0.  0.
         12    1    1    2    0    0 -0.40063712384E+02  0.20093186751E+02 -0.45029259756E+01  0.45045682880E+02  0.00000000000E+00 0. -1.
         11    1    3    3    0    0  0.16039798708E+02 -0.67988286360E+01 -0.21751347447E+01  0.17556492384E+02  0.51100000000E-03 0. -1.
        -11    1    3    3    0    0  0.18320918911E+02 -0.85375582074E+01  0.35240700206E+01  0.20517432580E+02  0.51100000000E-03 0.  1.
         12    1    3    3    0    0  0.57029947649E+01 -0.47567999076E+01  0.31539906997E+01  0.80683921560E+01  0.00000000000E+00 0. -1.
</event>
<event>
 7    1  0.1385632E-008  0.4614232E+02  0.7816164E-02  0.1320468E+00
        -11   -1    0    0    0    0  0.00000000000E+00  0.00000000000E+00  0.45593999997E+02  0.45594000000E+02  0.51100000000E-03 0.  1.
         11   -1    0    0    0    0 -0.00000000000E+00 -0.00000000000E+00 -0.45593999997E+02  0.45594000000E+02  0.51100000000E-03 0. -1.
    9900012    2    1    2    0    0 -0.89488670299E+01 -0.42882807032E+02  0.10492668509E+02  0.46142318159E+02  0.10000003628E+02 0.  0.
         12    1    1    2    0    0  0.89488670299E+01  0.42882807032E+02 -0.10492668509E+02  0.45045681841E+02  0.00000000000E+00 0. -1.
         11    1    3    3    0    0 -0.17571433655E+01 -0.72765819466E+01 -0.82245401477E+00  0.75307787446E+01  0.51100000000E-03 0. -1.
        -11    1    3    3    0    0 -0.39551761282E+01 -0.25066571665E+02  0.48676306237E+01  0.25839316194E+02  0.51100000000E-03 0.  1.
         12    1    3    3    0    0 -0.32365475363E+01 -0.10539653421E+02  0.64474919003E+01  0.12772223220E+02  0.00000000000E+00 0. -1.
</event>
<event>
 7    1  0.1385632E-008  0.4614232E+02  0.7816164E-02  0.1320468E+00
        -11   -1    0    0    0    0  0.00000000000E+00  0.00000000000E+00  0.45593999997E+02  0.45594000000E+02  0.51100000000E-03 0.  1.
         11   -1    0    0    0    0 -0.00000000000E+00 -0.00000000000E+00 -0.45593999997E+02  0.45594000000E+02  0.51100000000E-03 0. -1.
    9900012    2    1    2    0    0  0.10113157759E+02  0.14988248684E+02  0.41257598506E+02  0.46142323260E+02  0.10000050144E+02 0.  0.
         12    1    1    2    0    0 -0.10113157759E+02 -0.14988248684E+02 -0.41257598506E+02  0.45045676740E+02  0.00000000000E+00 0. -1.
         11    1    3    3    0    0  0.28967385905E+01  0.21041674595E+01  0.49688658795E+01  0.61243974029E+01  0.51100000000E-03 0. -1.
        -11    1    3    3    0    0  0.82241195290E+00  0.81108856098E+01  0.12471886406E+02  0.14900026093E+02  0.51100000000E-03 0.  1.
        -12    1    3    3    0    0  0.63940072154E+01  0.47731956143E+01  0.23816846221E+02  0.25117899764E+02  0.00000000000E+00 0.  1.
</event>
<event>
 7    1  0.1385632E-008  0.4614232E+02  0.7816164E-02  0.1320468E+00
        -11   -1    0    0    0    0  0.00000000000E+00  0.00000000000E+00  0.45593999997E+02  0.45594000000E+02  0.51100000000E-03 0.  1.
         11   -1    0    0    0    0 -0.00000000000E+00 -0.00000000000E+00 -0.45593999997E+02  0.45594000000E+02  0.51100000000E-03 0. -1.
    9900012    2    1    2    0    0  0.19168680402E+02  0.44712137762E+01  0.40517692513E+02  0.46142317992E+02  0.10000002106E+02 0.  0.
         12    1    1    2    0    0 -0.19168680402E+02 -0.44712137762E+01 -0.40517692513E+02  0.45045682008E+02  0.00000000000E+00 0. -1.
         11    1    3    3    0    0  0.66822257693E+01 -0.20828000912E+00  0.10049760396E+02  0.12070344074E+02  0.51100000000E-03 0.  1.
        -11    1    3    3    0    0  0.84623059169E+01  0.21507141456E+01  0.26432075514E+02  0.27836860617E+02  0.51100000000E-03 0. -1.
         12    1    3    3    0    0  0.40241487162E+01  0.25287796397E+01  0.40358566025E+01  0.62351133007E+01  0.00000000000E+00 0. -1.
</event>
<event>
 7    1  0.1385632E-008  0.4614232E+02  0.7816164E-02  0.1320468E+00
        -11   -1    0    0    0    0  0.00000000000E+00  0.00000000000E+00  0.45593999997E+02  0.45594000000E+02  0.51100000000E-03 0.  1.
         11   -1    0    0    0    0 -0.00000000000E+00 -0.00000000000E+00 -0.45593999997E+02  0.45594000000E+02  0.51100000000E-03 0. -1.
    9900012    2    1    2    0    0  0.10348477234E+02 -0.30879821676E+02  0.31120076096E+02  0.46142317588E+02  0.99999984177E+01 0.  0.
         12    1    1    2    0    0 -0.10348477234E+02  0.30879821676E+02 -0.31120076096E+02  0.45045682412E+02  0.00000000000E+00 0. -1.
         11    1    3    3    0    0  0.48339857949E+01 -0.62227860452E+01  0.95296781692E+01  0.12365486286E+02  0.51100000000E-03 0. -1.
        -11    1    3    3    0    0  0.48041676841E+01 -0.24645248538E+02  0.20240076658E+02  0.32251031085E+02  0.51100000000E-03 0.  1.
         12    1    3    3    0    0  0.71032375513E+00 -0.11787092588E-01  0.13503212686E+01  0.15258002166E+01  0.00000000000E+00 0. -1.
</event>
<event>
 7    1  0.1385632E-008  0.4614232E+02  0.7816164E-02  0.1320468E+00
        -11   -1    0    0    0    0  0.00000000000E+00  0.00000000000E+00  0.45593999997E+02  0.45594000000E+02  0.51100000000E-03 0. -1.
         11   -1    0    0    0    0 -0.00000000000E+00 -0.00000000000E+00 -0.45593999997E+02  0.45594000000E+02  0.51100000000E-03 0.  1.
    9900012    2    1    2    0    0  0.35297518037E+02  0.13958212014E+02 -0.24256273164E+02  0.46142320407E+02  0.10000024125E+02 0.  0.
         12    1    1    2    0    0 -0.35297518037E+02 -0.13958212014E+02  0.24256273164E+02  0.45045679593E+02  0.00000000000E+00 0. -1.
         11    1    3    3    0    0  0.23127798974E+02  0.12471222515E+02 -0.14907592934E+02  0.30210309561E+02  0.51100000000E-03 0. -1.
        -11    1    3    3    0    0  0.50277694171E+01  0.22813191131E+01 -0.27164326903E+01  0.61532015268E+01  0.51100000000E-03 0.  1.
         12    1    3    3    0    0  0.71419496457E+01 -0.79432961358E+00 -0.66322475393E+01  0.97788093190E+01  0.00000000000E+00 0. -1.
</event>
<event>
 7    1  0.1385632E-008  0.4614232E+02  0.7816164E-02  0.1320468E+00
        -11   -1    0    0    0    0  0.00000000000E+00  0.00000000000E+00  0.45593999997E+02  0.45594000000E+02  0.51100000000E-03 0. -1.
         11   -1    0    0    0    0 -0.00000000000E+00 -0.00000000000E+00 -0.45593999997E+02  0.45594000000E+02  0.51100000000E-03 0.  1.
    9900012    2    1    2    0    0 -0.16794697359E+02 -0.90624051820E+01 -0.40803486155E+02  0.46142317305E+02  0.99999958402E+01 0.  0.
         12    1    1    2    0    0  0.16794697359E+02  0.90624051820E+01  0.40803486155E+02  0.45045682695E+02  0.00000000000E+00 0. -1.
         11    1    3    3    0    0 -0.12076113581E+02 -0.70246672509E+01 -0.20041362089E+02  0.24430199832E+02  0.51100000000E-03 0. -1.
        -11    1    3    3    0    0 -0.37181662875E+01 -0.25803490839E+01 -0.19475131677E+02  0.19994092028E+02  0.51100000000E-03 0.  1.
         12    1    3    3    0    0 -0.10004174906E+01  0.54261115273E+00 -0.12869923896E+01  0.17180254449E+01  0.00000000000E+00 0. -1.
</event>
<event>
 7    1  0.1385632E-008  0.4614232E+02  0.7816164E-02  0.1320468E+00
        -11   -1    0    0    0    0  0.00000000000E+00  0.00000000000E+00  0.45593999997E+02  0.45594000000E+02  0.51100000000E-03 0. -1.
         11   -1    0    0    0    0 -0.00000000000E+00 -0.00000000000E+00 -0.45593999997E+02  0.45594000000E+02  0.51100000000E-03 0.  1.
    9900012    2    1    2    0    0 -0.39983190959E+00  0.41178297718E+02  0.18256547270E+02  0.46142316670E+02  0.99999900468E+01 0.  0.
         12    1    1    2    0    0  0.39983190959E+00 -0.41178297718E+02 -0.18256547270E+02  0.45045683330E+02  0.00000000000E+00 0. -1.
         11    1    3    3    0    0  0.32330647822E+01  0.10895695302E+02  0.74384069237E+01  0.13583032866E+02  0.51100000000E-03 0. -1.
        -11    1    3    3    0    0 -0.43255861011E+01  0.27192968418E+02  0.94692700253E+01  0.29117611536E+02  0.51100000000E-03 0.  1.
        -12    1    3    3    0    0  0.69268940931E+00  0.30896339976E+01  0.13488703213E+01  0.34416722680E+01  0.00000000000E+00 0.  1.
</event>
<event>
 7    1  0.1385632E-008  0.4614232E+02  0.7816164E-02  0.1320468E+00
        -11   -1    0    0    0    0  0.00000000000E+00  0.00000000000E+00  0.45593999997E+02  0.45594000000E+02  0.51100000000E-03 0.  1.
         11   -1    0    0    0    0 -0.00000000000E+00 -0.00000000000E+00 -0.45593999997E+02  0.45594000000E+02  0.51100000000E-03 0. -1.
    9900012    2    1    2    0    0  0.33559986842E+02 -0.95771740484E+01  0.28480137829E+02  0.46142320625E+02  0.10000026115E+02 0.  0.
         12    1    1    2    0    0 -0.33559986842E+02  0.95771740484E+01 -0.28480137829E+02  0.45045679375E+02  0.00000000000E+00 0. -1.
         11    1    3    3    0    0 -0.32793741688E+00  0.55590368086E+00  0.72213024699E+00  0.96852682282E+00  0.51100000000E-03 0. -1.
        -11    1    3    3    0    0  0.28739249218E+02 -0.10156793722E+02  0.23376388606E+02  0.38413024469E+02  0.51100000000E-03 0.  1.
        -12    1    3    3    0    0  0.51486750403E+01  0.23715992933E-01  0.43816189760E+01  0.67607693327E+01  0.00000000000E+00 0.  1.
</event>
<event>
 7    1  0.1385632E-008  0.4614232E+02  0.7816164E-02  0.1320468E+00
        -11   -1    0    0    0    0  0.00000000000E+00  0.00000000000E+00  0.45593999997E+02  0.45594000000E+02  0.51100000000E-03 0.  1.
         11   -1    0    0    0    0 -0.00000000000E+00 -0.00000000000E+00 -0.45593999997E+02  0.45594000000E+02  0.51100000000E-03 0. -1.
    9900012    2    1    2    0    0  0.37933759367E+02 -0.21146196324E+02  0.11957497029E+02  0.46142318144E+02  0.10000003489E+02 0.  0.
         12    1    1    2    0    0 -0.37933759367E+02  0.21146196324E+02 -0.11957497029E+02  0.45045681856E+02  0.00000000000E+00 0. -1.
         11    1    3    3    0    0  0.13549508716E+02 -0.74747170924E+01  0.45307356297E+00  0.15481145241E+02  0.51100000000E-03 0. -1.
        -11    1    3    3    0    0  0.97818466200E+01 -0.83977597304E+01  0.54547549708E+01  0.13998615783E+02  0.51100000000E-03 0.  1.
        -12    1    3    3    0    0  0.14602404031E+02 -0.52737195010E+01  0.60496684957E+01  0.16662557120E+02  0.00000000000E+00 0.  1.
</event>
<event>
 7    1  0.1385632E-008  0.4614232E+02  0.7816164E-02  0.1320468E+00
        -11   -1    0    0    0    0  0.00000000000E+00  0.00000000000E+00  0.45593999997E+02  0.45594000000E+02  0.51100000000E-03 0. -1.
         11   -1    0    0    0    0 -0.00000000000E+00 -0.00000000000E+00 -0.45593999997E+02  0.45594000000E+02  0.51100000000E-03 0.  1.
    9900012    2    1    2    0    0  0.18750231862E+02 -0.22867326481E+02 -0.33979812755E+02  0.46142317741E+02  0.99999998196E+01 0.  0.
         12    1    1    2    0    0 -0.18750231862E+02  0.22867326481E+02  0.33979812755E+02  0.45045682259E+02  0.00000000000E+00 0. -1.
         11    1    3    3    0    0  0.52730199515E+01 -0.88222866500E+01 -0.57605296144E+01  0.11782240145E+02  0.51100000000E-03 0.  1.
        -11    1    3    3    0    0  0.47354683370E+01 -0.45857914150E+01 -0.11493671151E+02  0.13249853586E+02  0.51100000000E-03 0. -1.
         12    1    3    3    0    0  0.87417435735E+01 -0.94592484163E+01 -0.16725611990E+02  0.21110224010E+02  0.00000000000E+00 0. -1.
</event>
<event>
 7    1  0.1385632E-008  0.4614232E+02  0.7816164E-02  0.1320468E+00
        -11   -1    0    0    0    0  0.00000000000E+00  0.00000000000E+00  0.45593999997E+02  0.45594000000E+02  0.51100000000E-03 0. -1.
         11   -1    0    0    0    0 -0.00000000000E+00 -0.00000000000E+00 -0.45593999997E+02  0.45594000000E+02  0.51100000000E-03 0.  1.
    9900012    2    1    2    0    0 -0.11739393690E+01  0.41157809562E+02  0.18269375975E+02  0.46142317409E+02  0.99999967898E+01 0.  0.
         12    1    1    2    0    0  0.11739393690E+01 -0.41157809562E+02 -0.18269375975E+02  0.45045682591E+02  0.00000000000E+00 0. -1.
         11    1    3    3    0    0  0.84526112761E+00  0.47379646017E+01  0.41511442346E+01  0.63556882915E+01  0.51100000000E-03 0. -1.
        -11    1    3    3    0    0  0.18816784225E+01  0.22277663656E+02  0.10370775630E+02  0.24645242930E+02  0.51100000000E-03 0.  1.
        -12    1    3    3    0    0 -0.39008789191E+01  0.14142181304E+02  0.37474561105E+01  0.15141386188E+02  0.00000000000E+00 0.  1.
</event>
<event>
 7    1  0.1385632E-008  0.4614232E+02  0.7816164E-02  0.1320468E+00
        -11   -1    0    0    0    0  0.00000000000E+00  0.00000000000E+00  0.45593999997E+02  0.45594000000E+02  0.51100000000E-03 0.  1.
         11   -1    0    0    0    0 -0.00000000000E+00 -0.00000000000E+00 -0.45593999997E+02  0.45594000000E+02  0.51100000000E-03 0. -1.
    9900012    2    1    2    0    0 -0.76416611970E+00  0.19515994337E+02  0.40591324860E+02  0.46142316093E+02  0.99999847843E+01 0.  0.
         12    1    1    2    0    0  0.76416611970E+00 -0.19515994337E+02 -0.40591324860E+02  0.45045683907E+02  0.00000000000E+00 0. -1.
         11    1    3    3    0    0 -0.30197113620E+01  0.63927608185E+01  0.19878046910E+02  0.21097933473E+02  0.51100000000E-03 0. -1.
        -11    1    3    3    0    0  0.22189999450E+01  0.21256683497E+01  0.41984401991E+01  0.52028191450E+01  0.51100000000E-03 0.  1.
         12    1    3    3    0    0  0.36545297283E-01  0.10997565169E+02  0.16514837750E+02  0.19841563475E+02  0.00000000000E+00 0. -1.
</event>
<event>
 7    1  0.1385632E-008  0.4614232E+02  0.7816164E-02  0.1320468E+00
        -11   -1    0    0    0    0  0.00000000000E+00  0.00000000000E+00  0.45593999997E+02  0.45594000000E+02  0.51100000000E-03 0.  1.
         11   -1    0    0    0    0 -0.00000000000E+00 -0.00000000000E+00 -0.45593999997E+02  0.45594000000E+02  0.51100000000E-03 0. -1.
    9900012    2    1    2    0    0 -0.30845492722E+01 -0.38564169874E+02 -0.23073879722E+02  0.46142316880E+02  0.99999919664E+01 0.  0.
         12    1    1    2    0    0  0.30845492722E+01  0.38564169874E+02  0.23073879722E+02  0.45045683120E+02  0.00000000000E+00 0. -1.
         11    1    3    3    0    0  0.33274578139E+00 -0.18341104187E+02 -0.80958123541E+01  0.20051159580E+02  0.51100000000E-03 0. -1.
        -11    1    3    3    0    0 -0.38845740732E+01 -0.18726104501E+02 -0.11602396307E+02  0.22369007708E+02  0.51100000000E-03 0.  1.
         12    1    3    3    0    0  0.46727901968E+00 -0.14969611862E+01 -0.33756710613E+01  0.37221495925E+01  0.00000000000E+00 0. -1.
</event>
<event>
 7    1  0.1385632E-008  0.4614232E+02  0.7816164E-02  0.1320468E+00
        -11   -1    0    0    0    0  0.00000000000E+00  0.00000000000E+00  0.45593999997E+02  0.45594000000E+02  0.51100000000E-03 0. -1.
         11   -1    0    0    0    0 -0.00000000000E+00 -0.00000000000E+00 -0.45593999997E+02  0.45594000000E+02  0.51100000000E-03 0.  1.
    9900012    2    1    2    0    0  0.38380678365E+02  0.21418091843E+02 -0.98641922182E+01  0.46142318541E+02  0.10000007113E+02 0.  0.
         12    1    1    2    0    0 -0.38380678365E+02 -0.21418091843E+02  0.98641922182E+01  0.45045681459E+02  0.00000000000E+00 0. -1.
         11    1    3    3    0    0  0.10646727551E+02  0.37114942276E+01 -0.12596459170E+01  0.11345250330E+02  0.51100000000E-03 0. -1.
        -11    1    3    3    0    0  0.10573892508E+02  0.10268891126E+02 -0.16017206660E+01  0.14826423610E+02  0.51100000000E-03 0.  1.
        -12    1    3    3    0    0  0.17160058306E+02  0.74377064899E+01 -0.70028256352E+01  0.19970644601E+02  0.00000000000E+00 0.  1.
</event>
<event>
 7    1  0.1385632E-008  0.4614232E+02  0.7816164E-02  0.1320468E+00
        -11   -1    0    0    0    0  0.00000000000E+00  0.00000000000E+00  0.45593999997E+02  0.45594000000E+02  0.51100000000E-03 0.  1.
         11   -1    0    0    0    0 -0.00000000000E+00 -0.00000000000E+00 -0.45593999997E+02  0.45594000000E+02  0.51100000000E-03 0. -1.
    9900012    2    1    2    0    0 -0.13466452228E+01  0.32776899137E+02  0.30870292321E+02  0.46142317428E+02  0.99999969596E+01 0.  0.
         12    1    1    2    0    0  0.13466452228E+01 -0.32776899137E+02 -0.30870292321E+02  0.45045682572E+02  0.00000000000E+00 0. -1.
         11    1    3    3    0    0  0.34314907833E+01  0.20548258936E+02  0.17911966627E+02  0.27474435809E+02  0.51100000000E-03 0. -1.
        -11    1    3    3    0    0 -0.19088928504E+01  0.44464167205E+01  0.29413953135E+01  0.56627113839E+01  0.51100000000E-03 0.  1.
        -12    1    3    3    0    0 -0.28692431557E+01  0.77822234806E+01  0.10016930381E+02  0.13005170235E+02  0.00000000000E+00 0.  1.
</event>
<event>
 7    1  0.1385632E-008  0.4614232E+02  0.7816164E-02  0.1320468E+00
        -11   -1    0    0    0    0  0.00000000000E+00  0.00000000000E+00  0.45593999997E+02  0.45594000000E+02  0.51100000000E-03 0. -1.
         11   -1    0    0    0    0 -0.00000000000E+00 -0.00000000000E+00 -0.45593999997E+02  0.45594000000E+02  0.51100000000E-03 0.  1.
    9900012    2    1    2    0    0  0.42059471159E+02  0.13926608175E+01 -0.16067819661E+02  0.46142318221E+02  0.10000004193E+02 0.  0.
         12    1    1    2    0    0 -0.42059471159E+02 -0.13926608175E+01  0.16067819661E+02  0.45045681779E+02  0.00000000000E+00 0. -1.
         11    1    3    3    0    0  0.13532819537E+02 -0.25999316389E+01 -0.53461107175E+01  0.14780992836E+02  0.51100000000E-03 0.  1.
        -11    1    3    3    0    0  0.65727018838E+01  0.23793806571E+01 -0.50671631388E+01  0.86335395349E+01  0.51100000000E-03 0. -1.
        -12    1    3    3    0    0  0.21953949737E+02  0.16132117993E+01 -0.56545458044E+01  0.22727785850E+02  0.00000000000E+00 0.  1.
</event>
<event>
 7    1  0.1385632E-008  0.4614232E+02  0.7816164E-02  0.1320468E+00
        -11   -1    0    0    0    0  0.00000000000E+00  0.00000000000E+00  0.45593999997E+02  0.45594000000E+02  0.51100000000E-03 0. -1.
         11   -1    0    0    0    0 -0.00000000000E+00 -0.00000000000E+00 -0.45593999997E+02  0.45594000000E+02  0.51100000000E-03 0.  1.
    9900012    2    1    2    0    0 -0.21741715615E+02 -0.38135549674E+02 -0.10104013831E+02  0.46142318272E+02  0.10000004662E+02 0.  0.
         12    1    1    2    0    0  0.21741715615E+02  0.38135549674E+02  0.10104013831E+02  0.45045681728E+02  0.00000000000E+00 0. -1.
         11    1    3    3    0    0 -0.33084777980E+01 -0.65422614712E+01  0.17328213766E+01  0.75332516672E+01  0.51100000000E-03 0. -1.
        -11    1    3    3    0    0 -0.84363689416E+01 -0.16948133536E+02 -0.74321409433E+01  0.20338344832E+02  0.51100000000E-03 0.  1.
         12    1    3    3    0    0 -0.99968688754E+01 -0.14645154667E+02 -0.44046942645E+01  0.18270721773E+02  0.00000000000E+00 0. -1.
</event>
<event>
 7    1  0.1385632E-008  0.4614232E+02  0.7816164E-02  0.1320468E+00
        -11   -1    0    0    0    0  0.00000000000E+00  0.00000000000E+00  0.45593999997E+02  0.45594000000E+02  0.51100000000E-03 0.  1.
         11   -1    0    0    0    0 -0.00000000000E+00 -0.00000000000E+00 -0.45593999997E+02  0.45594000000E+02  0.51100000000E-03 0. -1.
    9900012    2    1    2    0    0 -0.13288609320E+02 -0.28815863301E+02  0.31971426137E+02  0.46142320910E+02  0.10000028714E+02 0.  0.
         12    1    1    2    0    0  0.13288609320E+02  0.28815863301E+02 -0.31971426137E+02  0.45045679090E+02  0.00000000000E+00 0. -1.
         11    1    3    3    0    0 -0.11791799343E+01 -0.48468401336E+00  0.66801970963E+00  0.14393173742E+01  0.51100000000E-03 0. -1.
        -11    1    3    3    0    0 -0.13056240063E+02 -0.23367339286E+02  0.25024673413E+02  0.36643310843E+02  0.51100000000E-03 0.  1.
        -12    1    3    3    0    0  0.94681067806E+00 -0.49638400021E+01  0.62787330145E+01  0.80596926923E+01  0.00000000000E+00 0.  1.
</event>
<event>
 7    1  0.1385632E-008  0.4614232E+02  0.7816164E-02  0.1320468E+00
        -11   -1    0    0    0    0  0.00000000000E+00  0.00000000000E+00  0.45593999997E+02  0.45594000000E+02  0.51100000000E-03 0. -1.
         11   -1    0    0    0    0 -0.00000000000E+00 -0.00000000000E+00 -0.45593999997E+02  0.45594000000E+02  0.51100000000E-03 0.  1.
    9900012    2    1    2    0    0  0.35375629117E+02 -0.65739541554E+01 -0.27100949424E+02  0.46142317983E+02  0.10000002026E+02 0.  0.
         12    1    1    2    0    0 -0.35375629117E+02  0.65739541554E+01  0.27100949424E+02  0.45045682017E+02  0.00000000000E+00 0. -1.
         11    1    3    3    0    0  0.10870236806E+02 -0.53837994991E+01 -0.59996977234E+01  0.13533060197E+02  0.51100000000E-03 0. -1.
        -11    1    3    3    0    0  0.16525619172E+01  0.36618106716E+00 -0.28776935252E+01  0.33385879875E+01  0.51100000000E-03 0.  1.
         12    1    3    3    0    0  0.22852830394E+02 -0.15563357235E+01 -0.18223558175E+02  0.29270669799E+02  0.00000000000E+00 0. -1.
</event>
<event>
 7    1  0.1385632E-008  0.4614232E+02  0.7816164E-02  0.1320468E+00
        -11   -1    0    0    0    0  0.00000000000E+00  0.00000000000E+00  0.45593999997E+02  0.45594000000E+02  0.51100000000E-03 0.  1.
         11   -1    0    0    0    0 -0.00000000000E+00 -0.00000000000E+00 -0.45593999997E+02  0.45594000000E+02  0.51100000000E-03 0. -1.
    9900012    2    1    2    0    0 -0.24418050673E+02 -0.25638663527E+02  0.27848359268E+02  0.46142318963E+02  0.10000010961E+02 0.  0.
         12    1    1    2    0    0  0.24418050673E+02  0.25638663527E+02 -0.27848359268E+02  0.45045681037E+02  0.00000000000E+00 0. -1.
         11    1    3    3    0    0 -0.72327659296E+01 -0.76283655799E+01  0.12836464669E+02  0.16591554775E+02  0.51100000000E-03 0. -1.
        -11    1    3    3    0    0 -0.15891865899E+02 -0.14488169416E+02  0.14014477996E+02  0.25668347211E+02  0.51100000000E-03 0.  1.
         12    1    3    3    0    0 -0.12934188442E+01 -0.35221285318E+01  0.99741660324E+00  0.38824169767E+01  0.00000000000E+00 0. -1.
</event>
<event>
 7    1  0.1385632E-008  0.4614232E+02  0.7816164E-02  0.1320468E+00
        -11   -1    0    0    0    0  0.00000000000E+00  0.00000000000E+00  0.45593999997E+02  0.45594000000E+02  0.51100000000E-03 0.  1.
         11   -1    0    0    0    0 -0.00000000000E+00 -0.00000000000E+00 -0.45593999997E+02  0.45594000000E+02  0.51100000000E-03 0. -1.
    9900012    2    1    2    0    0  0.23626996533E+02 -0.70036473037E+01  0.37707127921E+02  0.46142317224E+02  0.99999951006E+01 0.  0.
         12    1    1    2    0    0 -0.23626996533E+02  0.70036473037E+01 -0.37707127921E+02  0.45045682776E+02  0.00000000000E+00 0. -1.
         11    1    3    3    0    0  0.22584757630E+01  0.29189664341E+00  0.11474601420E+01  0.25500159727E+01  0.51100000000E-03 0. -1.
        -11    1    3    3    0    0  0.10700353001E+02 -0.43120336192E+00  0.13079524173E+02  0.16904361673E+02  0.51100000000E-03 0.  1.
        -12    1    3    3    0    0  0.10668167768E+02 -0.68643405852E+01  0.23480143606E+02  0.26687939578E+02  0.00000000000E+00 0.  1.
</event>
<event>
 7    1  0.1385632E-008  0.4614232E+02  0.7816164E-02  0.1320468E+00
        -11   -1    0    0    0    0  0.00000000000E+00  0.00000000000E+00  0.45593999997E+02  0.45594000000E+02  0.51100000000E-03 0.  1.
         11   -1    0    0    0    0 -0.00000000000E+00 -0.00000000000E+00 -0.45593999997E+02  0.45594000000E+02  0.51100000000E-03 0. -1.
    9900012    2    1    2    0    0  0.22393958839E+02  0.38617235307E+02  0.60277099698E+01  0.46142317158E+02  0.99999945017E+01 0.  0.
         12    1    1    2    0    0 -0.22393958839E+02 -0.38617235307E+02 -0.60277099698E+01  0.45045682842E+02  0.00000000000E+00 0. -1.
         11    1    3    3    0    0  0.62006592813E-01  0.70727875143E-01 -0.10042768257E+01  0.10086721240E+01  0.51100000000E-03 0. -1.
        -11    1    3    3    0    0  0.14299216557E+02  0.23664785105E+02  0.36773433067E+01  0.27892875475E+02  0.51100000000E-03 0.  1.
         12    1    3    3    0    0  0.80327356891E+01  0.14881722327E+02  0.33546434888E+01  0.17240769559E+02  0.00000000000E+00 0. -1.
</event>
<event>
 7    1  0.1385632E-008  0.4614232E+02  0.7816164E-02  0.1320468E+00
        -11   -1    0    0    0    0  0.00000000000E+00  0.00000000000E+00  0.45593999997E+02  0.45594000000E+02  0.51100000000E-03 0.  1.
         11   -1    0    0    0    0 -0.00000000000E+00 -0.00000000000E+00 -0.45593999997E+02  0.45594000000E+02  0.51100000000E-03 0. -1.
    9900012    2    1    2    0    0  0.49760502094E+01  0.34571627489E+01  0.44636312477E+02  0.46142318281E+02  0.10000004739E+02 0.  0.
         12    1    1    2    0    0 -0.49760502094E+01 -0.34571627489E+01 -0.44636312477E+02  0.45045681719E+02  0.00000000000E+00 0. -1.
         11    1    3    3    0    0 -0.58892039223E+00 -0.11285579200E+01  0.16103223069E+02  0.16153459806E+02  0.51100000000E-03 0.  1.
        -11    1    3    3    0    0  0.61043890816E+01  0.51876380851E+01  0.27670362392E+02  0.28806667807E+02  0.51100000000E-03 0. -1.
         12    1    3    3    0    0 -0.53941847998E+00 -0.60191741624E+00  0.86272701611E+00  0.11821906686E+01  0.00000000000E+00 0. -1.
</event>
<event>
 7    1  0.1385632E-008  0.4614232E+02  0.7816164E-02  0.1320468E+00
        -11   -1    0    0    0    0  0.00000000000E+00  0.00000000000E+00  0.45593999997E+02  0.45594000000E+02  0.51100000000E-03 0.  1.
         11   -1    0    0    0    0 -0.00000000000E+00 -0.00000000000E+00 -0.45593999997E+02  0.45594000000E+02  0.51100000000E-03 0. -1.
    9900012    2    1    2    0    0  0.22791237101E+02 -0.19140985381E+01  0.38807334350E+02  0.46142318063E+02  0.10000002752E+02 0.  0.
         12    1    1    2    0    0 -0.22791237101E+02  0.19140985381E+01 -0.38807334350E+02  0.45045681937E+02  0.00000000000E+00 0. -1.
         11    1    3    3    0    0  0.17732873324E+02 -0.23043683801E+01  0.21823081010E+02  0.28213680635E+02  0.51100000000E-03 0. -1.
        -11    1    3    3    0    0  0.45336600642E+01  0.12768565999E+01  0.14104895506E+02  0.14870525003E+02  0.51100000000E-03 0.  1.
         12    1    3    3    0    0  0.52470371212E+00 -0.88658675790E+00  0.28793578342E+01  0.30581124247E+01  0.00000000000E+00 0. -1.
</event>
<event>
 7    1  0.1385632E-008  0.4614231E+02  0.7816164E-02  0.1320468E+00
        -11   -1    0    0    0    0  0.00000000000E+00  0.00000000000E+00  0.45593999997E+02  0.45594000000E+02  0.51100000000E-03 0. -1.
         11   -1    0    0    0    0 -0.00000000000E+00 -0.00000000000E+00 -0.45593999997E+02  0.45594000000E+02  0.51100000000E-03 0.  1.
    9900012    2    1    2    0    0 -0.66813109228E+01  0.44325425893E+02 -0.44419436230E+01  0.46142310313E+02  0.99999320782E+01 0.  0.
         12    1    1    2    0    0  0.66813109228E+01 -0.44325425893E+02  0.44419436230E+01  0.45045689687E+02  0.00000000000E+00 0. -1.
         11    1    3    3    0    0  0.10174831499E+01  0.52135076592E+01 -0.21172941950E+01  0.57182924936E+01  0.51100000000E-03 0. -1.
        -11    1    3    3    0    0 -0.69993094234E+01  0.39025330623E+02 -0.22067430824E+01  0.39709400372E+02  0.51100000000E-03 0.  1.
        -12    1    3    3    0    0 -0.69948464920E+00  0.86587611164E-01 -0.11790634556E+00  0.71461744675E+00  0.00000000000E+00 0.  1.
</event>
<event>
 7    1  0.1385632E-008  0.4614232E+02  0.7816164E-02  0.1320468E+00
        -11   -1    0    0    0    0  0.00000000000E+00  0.00000000000E+00  0.45593999997E+02  0.45594000000E+02  0.51100000000E-03 0.  1.
         11   -1    0    0    0    0 -0.00000000000E+00 -0.00000000000E+00 -0.45593999997E+02  0.45594000000E+02  0.51100000000E-03 0. -1.
    9900012    2    1    2    0    0  0.20114817930E+02  0.34274967802E+02  0.21206937524E+02  0.46142317440E+02  0.99999970720E+01 0.  0.
         12    1    1    2    0    0 -0.20114817930E+02 -0.34274967802E+02 -0.21206937524E+02  0.45045682560E+02  0.00000000000E+00 0. -1.
         11    1    3    3    0    0  0.51346463922E+01  0.12939411695E+02  0.76669914804E+01  0.15892631224E+02  0.51100000000E-03 0. -1.
        -11    1    3    3    0    0  0.97156693358E+01  0.99318776066E+01  0.39421262002E+01  0.14442187600E+02  0.51100000000E-03 0.  1.
        -12    1    3    3    0    0  0.52645022017E+01  0.11403678500E+02  0.95978198431E+01  0.15807498616E+02  0.00000000000E+00 0.  1.
</event>
<event>
 7    1  0.1385632E-008  0.4614232E+02  0.7816164E-02  0.1320468E+00
        -11   -1    0    0    0    0  0.00000000000E+00  0.00000000000E+00  0.45593999997E+02  0.45594000000E+02  0.51100000000E-03 0.  1.
         11   -1    0    0    0    0 -0.00000000000E+00 -0.00000000000E+00 -0.45593999997E+02  0.45594000000E+02  0.51100000000E-03 0. -1.
    9900012    2    1    2    0    0  0.11231833285E+02 -0.43216701361E+01  0.43408322310E+02  0.46142319214E+02  0.10000013246E+02 0.  0.
         12    1    1    2    0    0 -0.11231833285E+02  0.43216701361E+01 -0.43408322310E+02  0.45045680786E+02  0.00000000000E+00 0. -1.
         11    1    3    3    0    0 -0.11269076375E+01 -0.25765088429E+01  0.69048637412E+01  0.74555658529E+01  0.51100000000E-03 0. -1.
        -11    1    3    3    0    0  0.30897022651E+01  0.25286599878E+00  0.12492264644E+02  0.12871164574E+02  0.51100000000E-03 0.  1.
         12    1    3    3    0    0  0.92690386577E+01 -0.19980272920E+01  0.24011193925E+02  0.25815588787E+02  0.00000000000E+00 0. -1.
</event>
<event>
 7    1  0.1385632E-008  0.4614232E+02  0.7816164E-02  0.1320468E+00
        -11   -1    0    0    0    0  0.00000000000E+00  0.00000000000E+00  0.45593999997E+02  0.45594000000E+02  0.51100000000E-03 0. -1.
         11   -1    0    0    0    0 -0.00000000000E+00 -0.00000000000E+00 -0.45593999997E+02  0.45594000000E+02  0.51100000000E-03 0.  1.
    9900012    2    1    2    0    0  0.88071291507E+01  0.38476621631E+02 -0.21704781516E+02  0.46142317890E+02  0.10000001179E+02 0.  0.
         12    1    1    2    0    0 -0.88071291507E+01 -0.38476621631E+02  0.21704781516E+02  0.45045682110E+02  0.00000000000E+00 0. -1.
         11    1    3    3    0    0  0.29445094194E+01  0.20216083089E+02 -0.88647190310E+01  0.22269786594E+02  0.51100000000E-03 0. -1.
        -11    1    3    3    0    0  0.90522566263E-01  0.34744331296E+01 -0.30581571764E-01  0.34757467400E+01  0.51100000000E-03 0.  1.
        -12    1    3    3    0    0  0.57720971651E+01  0.14786105413E+02 -0.12809480914E+02  0.20396784556E+02  0.00000000000E+00 0.  1.
</event>
<event>
 7    1  0.1385632E-008  0.4614232E+02  0.7816164E-02  0.1320468E+00
        -11   -1    0    0    0    0  0.00000000000E+00  0.00000000000E+00  0.45593999997E+02  0.45594000000E+02  0.51100000000E-03 0.  1.
         11   -1    0    0    0    0 -0.00000000000E+00 -0.00000000000E+00 -0.45593999997E+02  0.45594000000E+02  0.51100000000E-03 0. -1.
    9900012    2    1    2    0    0  0.14379830066E+02  0.23057878284E+02  0.35925871355E+02  0.46142317673E+02  0.99999991970E+01 0.  0.
         12    1    1    2    0    0 -0.14379830066E+02 -0.23057878284E+02 -0.35925871355E+02  0.45045682327E+02  0.00000000000E+00 0. -1.
         11    1    3    3    0    0  0.11580675839E+01  0.16506031884E+01  0.75541664351E+01  0.78186342928E+01  0.51100000000E-03 0. -1.
        -11    1    3    3    0    0  0.43401337264E+01  0.86311584560E+01  0.14813668557E+02  0.17685543063E+02  0.51100000000E-03 0.  1.
        -12    1    3    3    0    0  0.88816287554E+01  0.12776116639E+02  0.13558036363E+02  0.20638140318E+02  0.00000000000E+00 0.  1.
</event>
<event>
 7    1  0.1385632E-008  0.4614232E+02  0.7816164E-02  0.1320468E+00
        -11   -1    0    0    0    0  0.00000000000E+00  0.00000000000E+00  0.45593999997E+02  0.45594000000E+02  0.51100000000E-03 0.  1.
         11   -1    0    0    0    0 -0.00000000000E+00 -0.00000000000E+00 -0.45593999997E+02  0.45594000000E+02  0.51100000000E-03 0. -1.
    9900012    2    1    2    0    0  0.32872337458E+02  0.26274251458E+02  0.16068188490E+02  0.46142317178E+02  0.99999946783E+01 0.  0.
         12    1    1    2    0    0 -0.32872337458E+02 -0.26274251458E+02 -0.16068188490E+02  0.45045682822E+02  0.00000000000E+00 0. -1.
         11    1    3    3    0    0  0.66238152522E+01  0.62171724908E+01  0.61772541748E+01  0.10985746751E+02  0.51100000000E-03 0. -1.
        -11    1    3    3    0    0  0.12134444048E+02  0.13159609064E+02  0.37451326428E+01  0.18287866519E+02  0.51100000000E-03 0.  1.
        -12    1    3    3    0    0  0.14114078158E+02  0.68974699031E+01  0.61458016720E+01  0.16868703907E+02  0.00000000000E+00 0.  1.
</event>
<event>
 7    1  0.1385632E-008  0.4614232E+02  0.7816164E-02  0.1320468E+00
        -11   -1    0    0    0    0  0.00000000000E+00  0.00000000000E+00  0.45593999997E+02  0.45594000000E+02  0.51100000000E-03 0. -1.
         11   -1    0    0    0    0 -0.00000000000E+00 -0.00000000000E+00 -0.45593999997E+02  0.45594000000E+02  0.51100000000E-03 0.  1.
    9900012    2    1    2    0    0 -0.31252613124E+02  0.23954624345E+02  0.21876093293E+02  0.46142319715E+02  0.10000017814E+02 0.  0.
         12    1    1    2    0    0  0.31252613124E+02 -0.23954624345E+02 -0.21876093293E+02  0.45045680285E+02  0.00000000000E+00 0. -1.
         11    1    3    3    0    0 -0.12185494551E+02  0.83509503521E+01  0.13502405861E+02  0.20013485792E+02  0.51100000000E-03 0. -1.
        -11    1    3    3    0    0 -0.12635431720E+02  0.11739939706E+02  0.58040117386E+01  0.18197990866E+02  0.51100000000E-03 0.  1.
         12    1    3    3    0    0 -0.64316868529E+01  0.38637342877E+01  0.25696756932E+01  0.79308430566E+01  0.00000000000E+00 0. -1.
</event>
<event>
 7    1  0.1385632E-008  0.4614232E+02  0.7816164E-02  0.1320468E+00
        -11   -1    0    0    0    0  0.00000000000E+00  0.00000000000E+00  0.45593999997E+02  0.45594000000E+02  0.51100000000E-03 0. -1.
         11   -1    0    0    0    0 -0.00000000000E+00 -0.00000000000E+00 -0.45593999997E+02  0.45594000000E+02  0.51100000000E-03 0.  1.
    9900012    2    1    2    0    0 -0.34213679440E+02  0.24233872305E+02 -0.16469882390E+02  0.46142318146E+02  0.10000003508E+02 0.  0.
         12    1    1    2    0    0  0.34213679440E+02 -0.24233872305E+02  0.16469882390E+02  0.45045681854E+02  0.00000000000E+00 0. -1.
         11    1    3    3    0    0 -0.13191745616E+01  0.11682984243E+01 -0.16842668083E+01  0.24376008030E+01  0.51100000000E-03 0. -1.
        -11    1    3    3    0    0 -0.95354485102E+01  0.57852447300E+01 -0.83809784151E+01  0.13951151721E+02  0.51100000000E-03 0.  1.
        -12    1    3    3    0    0 -0.23359056369E+02  0.17280329151E+02 -0.64046371668E+01  0.29753565622E+02  0.00000000000E+00 0.  1.
</event>
<event>
 7    1  0.1385632E-008  0.4614232E+02  0.7816164E-02  0.1320468E+00
        -11   -1    0    0    0    0  0.00000000000E+00  0.00000000000E+00  0.45593999997E+02  0.45594000000E+02  0.51100000000E-03 0.  1.
         11   -1    0    0    0    0 -0.00000000000E+00 -0.00000000000E+00 -0.45593999997E+02  0.45594000000E+02  0.51100000000E-03 0. -1.
    9900012    2    1    2    0    0 -0.20572112306E+02  0.24249190589E+02  0.31904206546E+02  0.46142318250E+02  0.10000004459E+02 0.  0.
         12    1    1    2    0    0  0.20572112306E+02 -0.24249190589E+02 -0.31904206546E+02  0.45045681750E+02  0.00000000000E+00 0. -1.
         11    1    3    3    0    0 -0.24261231530E+01  0.11082333958E+01  0.27505216321E+01  0.38313997863E+01  0.51100000000E-03 0. -1.
        -11    1    3    3    0    0 -0.17163699946E+02  0.16345334218E+02  0.21155678431E+02  0.31769880023E+02  0.51100000000E-03 0.  1.
        -12    1    3    3    0    0 -0.98228920740E+00  0.67956229753E+01  0.79980064829E+01  0.10541038441E+02  0.00000000000E+00 0.  1.
</event>
<event>
 7    1  0.1385632E-008  0.4614232E+02  0.7816164E-02  0.1320468E+00
        -11   -1    0    0    0    0  0.00000000000E+00  0.00000000000E+00  0.45593999997E+02  0.45594000000E+02  0.51100000000E-03 0.  1.
         11   -1    0    0    0    0 -0.00000000000E+00 -0.00000000000E+00 -0.45593999997E+02  0.45594000000E+02  0.51100000000E-03 0. -1.
    9900012    2    1    2    0    0 -0.97695523218E+01 -0.19284589006E+02  0.39519283870E+02  0.46142319594E+02  0.10000016709E+02 0.  0.
         12    1    1    2    0    0  0.97695523218E+01  0.19284589006E+02 -0.39519283870E+02  0.45045680406E+02  0.00000000000E+00 0. -1.
         11    1    3    3    0    0  0.92035220151E+00 -0.12433729729E+01  0.13065610231E+01  0.20248769081E+01  0.51100000000E-03 0. -1.
        -11    1    3    3    0    0 -0.10182033318E+02 -0.18429290738E+02  0.35026091861E+02  0.40867342352E+02  0.51100000000E-03 0.  1.
        -12    1    3    3    0    0 -0.50787120558E+00  0.38807470514E+00  0.31866309859E+01  0.32501003336E+01  0.00000000000E+00 0.  1.
</event>
<event>
 7    1  0.1385632E-008  0.4614232E+02  0.7816164E-02  0.1320468E+00
        -11   -1    0    0    0    0  0.00000000000E+00  0.00000000000E+00  0.45593999997E+02  0.45594000000E+02  0.51100000000E-03 0. -1.
         11   -1    0    0    0    0 -0.00000000000E+00 -0.00000000000E+00 -0.45593999997E+02  0.45594000000E+02  0.51100000000E-03 0.  1.
    9900012    2    1    2    0    0 -0.61531402401E+01 -0.43966685397E+02  0.76277665693E+01  0.46142318937E+02  0.10000010719E+02 0.  0.
         12    1    1    2    0    0  0.61531402401E+01  0.43966685397E+02 -0.76277665693E+01  0.45045681063E+02  0.00000000000E+00 0. -1.
         11    1    3    3    0    0  0.73387287877E+00 -0.23663769879E+01  0.20638130840E+01  0.32245362703E+01  0.51100000000E-03 0. -1.
        -11    1    3    3    0    0 -0.66159677871E+01 -0.28994641024E+02  0.19606942918E+01  0.29804438600E+02  0.51100000000E-03 0.  1.
         12    1    3    3    0    0 -0.27104533168E+00 -0.12605667385E+02  0.36032591934E+01  0.13113344067E+02  0.00000000000E+00 0. -1.
</event>
<event>
 7    1  0.1385632E-008  0.4614232E+02  0.7816164E-02  0.1320468E+00
        -11   -1    0    0    0    0  0.00000000000E+00  0.00000000000E+00  0.45593999997E+02  0.45594000000E+02  0.51100000000E-03 0. -1.
         11   -1    0    0    0    0 -0.00000000000E+00 -0.00000000000E+00 -0.45593999997E+02  0.45594000000E+02  0.51100000000E-03 0.  1.
    9900012    2    1    2    0    0 -0.33276545572E+02  0.23255491664E+02 -0.19518377964E+02  0.46142318120E+02  0.10000003269E+02 0.  0.
         12    1    1    2    0    0  0.33276545572E+02 -0.23255491664E+02  0.19518377964E+02  0.45045681880E+02  0.00000000000E+00 0. -1.
         11    1    3    3    0    0 -0.72708969200E+01  0.53844817507E+01 -0.67274623860E+01  0.11274632418E+02  0.51100000000E-03 0. -1.
        -11    1    3    3    0    0 -0.38206230942E+01 -0.16308923487E+00 -0.19345651662E+01  0.42855923243E+01  0.51100000000E-03 0.  1.
        -12    1    3    3    0    0 -0.22185025558E+02  0.18034099148E+02 -0.10856350411E+02  0.30582093377E+02  0.00000000000E+00 0.  1.
</event>
<event>
 7    1  0.1385632E-008  0.4614232E+02  0.7816164E-02  0.1320468E+00
        -11   -1    0    0    0    0  0.00000000000E+00  0.00000000000E+00  0.45593999997E+02  0.45594000000E+02  0.51100000000E-03 0.  1.
         11   -1    0    0    0    0 -0.00000000000E+00 -0.00000000000E+00 -0.45593999997E+02  0.45594000000E+02  0.51100000000E-03 0. -1.
    9900012    2    1    2    0    0  0.35991326335E+02  0.54831031755E+01  0.26526844058E+02  0.46142318216E+02  0.10000004144E+02 0.  0.
         12    1    1    2    0    0 -0.35991326335E+02 -0.54831031755E+01 -0.26526844058E+02  0.45045681784E+02  0.00000000000E+00 0. -1.
         11    1    3    3    0    0  0.22651895665E+02  0.27074288926E+01  0.15184296874E+02  0.27404405124E+02  0.51100000000E-03 0. -1.
        -11    1    3    3    0    0  0.12779497660E+02  0.21283195764E+01  0.78636524286E+01  0.15155274146E+02  0.51100000000E-03 0.  1.
         12    1    3    3    0    0  0.55993300997E+00  0.64735470654E+00  0.34788947554E+01  0.35826389450E+01  0.00000000000E+00 0. -1.
</event>
<event>
 7    1  0.1385632E-008  0.4614232E+02  0.7816164E-02  0.1320468E+00
        -11   -1    0    0    0    0  0.00000000000E+00  0.00000000000E+00  0.45593999997E+02  0.45594000000E+02  0.51100000000E-03 0.  1.
         11   -1    0    0    0    0 -0.00000000000E+00 -0.00000000000E+00 -0.45593999997E+02  0.45594000000E+02  0.51100000000E-03 0. -1.
    9900012    2    1    2    0    0 -0.57469745531E+01  0.27237096204E+02  0.35415058238E+02  0.46142317897E+02  0.10000001241E+02 0.  0.
         12    1    1    2    0    0  0.57469745531E+01 -0.27237096204E+02 -0.35415058238E+02  0.45045682103E+02  0.00000000000E+00 0. -1.
         11    1    3    3    0    0 -0.35006337418E+01  0.36421866828E+01  0.47620599911E+01  0.69424186021E+01  0.51100000000E-03 0. -1.
        -11    1    3    3    0    0 -0.21833625375E+01  0.19545699566E+02  0.21210065811E+02  0.28925219713E+02  0.51100000000E-03 0.  1.
        -12    1    3    3    0    0 -0.62978273800E-01  0.40492099548E+01  0.94429324361E+01  0.10274679582E+02  0.00000000000E+00 0.  1.
</event>
<event>
 7    1  0.1385632E-008  0.4614232E+02  0.7816164E-02  0.1320468E+00
        -11   -1    0    0    0    0  0.00000000000E+00  0.00000000000E+00  0.45593999997E+02  0.45594000000E+02  0.51100000000E-03 0. -1.
         11   -1    0    0    0    0 -0.00000000000E+00 -0.00000000000E+00 -0.45593999997E+02  0.45594000000E+02  0.51100000000E-03 0.  1.
    9900012    2    1    2    0    0 -0.31313411569E+02 -0.84315097700E+01 -0.31264892579E+02  0.46142316421E+02  0.99999877803E+01 0.  0.
         12    1    1    2    0    0  0.31313411569E+02  0.84315097700E+01  0.31264892579E+02  0.45045683579E+02  0.00000000000E+00 0. -1.
         11    1    3    3    0    0 -0.68374446003E+01  0.10712686752E+01 -0.35788432458E+01  0.77914301945E+01  0.51100000000E-03 0. -1.
        -11    1    3    3    0    0 -0.11119249772E+02 -0.56817982251E+01 -0.11022367396E+02  0.16655723635E+02  0.51100000000E-03 0.  1.
         12    1    3    3    0    0 -0.13356717197E+02 -0.38209802201E+01 -0.16663681938E+02  0.21695162591E+02  0.00000000000E+00 0. -1.
</event>
<event>
 7    1  0.1385632E-008  0.4614232E+02  0.7816164E-02  0.1320468E+00
        -11   -1    0    0    0    0  0.00000000000E+00  0.00000000000E+00  0.45593999997E+02  0.45594000000E+02  0.51100000000E-03 0.  1.
         11   -1    0    0    0    0 -0.00000000000E+00 -0.00000000000E+00 -0.45593999997E+02  0.45594000000E+02  0.51100000000E-03 0. -1.
    9900012    2    1    2    0    0 -0.24635890953E+02  0.22049722664E+02  0.30594052987E+02  0.46142317957E+02  0.10000001783E+02 0.  0.
         12    1    1    2    0    0  0.24635890953E+02 -0.22049722664E+02 -0.30594052987E+02  0.45045682043E+02  0.00000000000E+00 0. -1.
         11    1    3    3    0    0 -0.59208424019E+01  0.75212293386E+01  0.14092278814E+02  0.17035773770E+02  0.51100000000E-03 0. -1.
        -11    1    3    3    0    0 -0.83207716768E+01  0.49147141300E+01  0.83331738972E+01  0.12760542455E+02  0.51100000000E-03 0.  1.
         12    1    3    3    0    0 -0.10394276874E+02  0.96137791954E+01  0.81686002754E+01  0.16346001732E+02  0.00000000000E+00 0. -1.
</event>
<event>
 7    1  0.1385632E-008  0.4614232E+02  0.7816164E-02  0.1320468E+00
        -11   -1    0    0    0    0  0.00000000000E+00  0.00000000000E+00  0.45593999997E+02  0.45594000000E+02  0.51100000000E-03 0. -1.
         11   -1    0    0    0    0 -0.00000000000E+00 -0.00000000000E+00 -0.45593999997E+02  0.45594000000E+02  0.51100000000E-03 0.  1.
    9900012    2    1    2    0    0  0.40046196457E+02 -0.76980598572E+01 -0.19135190594E+02  0.46142317684E+02  0.99999993003E+01 0.  0.
         12    1    1    2    0    0 -0.40046196457E+02  0.76980598572E+01  0.19135190594E+02  0.45045682316E+02  0.00000000000E+00 0. -1.
         11    1    3    3    0    0  0.18869164650E-01 -0.11512251266E+00 -0.11289830037E+01  0.11349943269E+01  0.51100000000E-03 0. -1.
        -11    1    3    3    0    0  0.74611658644E+01 -0.29825092898E+01 -0.58666909124E+01  0.99489909158E+01  0.51100000000E-03 0.  1.
         12    1    3    3    0    0  0.32566161428E+02 -0.46004280548E+01 -0.12139516678E+02  0.35058332442E+02  0.00000000000E+00 0. -1.
</event>
<event>
 7    1  0.1385632E-008  0.4614232E+02  0.7816164E-02  0.1320468E+00
        -11   -1    0    0    0    0  0.00000000000E+00  0.00000000000E+00  0.45593999997E+02  0.45594000000E+02  0.51100000000E-03 0.  1.
         11   -1    0    0    0    0 -0.00000000000E+00 -0.00000000000E+00 -0.45593999997E+02  0.45594000000E+02  0.51100000000E-03 0. -1.
    9900012    2    1    2    0    0  0.26952270654E+02  0.28986781190E+02  0.21504768199E+02  0.46142318382E+02  0.10000005658E+02 0.  0.
         12    1    1    2    0    0 -0.26952270654E+02 -0.28986781190E+02 -0.21504768199E+02  0.45045681618E+02  0.00000000000E+00 0. -1.
         11    1    3    3    0    0  0.27010763616E+01  0.49363951966E+00  0.31197499807E+01  0.41559997221E+01  0.51100000000E-03 0. -1.
        -11    1    3    3    0    0  0.23153805057E+02  0.28386879297E+02  0.18023994746E+02  0.40826192471E+02  0.51100000000E-03 0.  1.
        -12    1    3    3    0    0  0.10973892351E+01  0.10626237420E+00  0.36102347175E+00  0.11601261883E+01  0.00000000000E+00 0.  1.
</event>
<event>
 7    1  0.1385632E-008  0.4614230E+02  0.7816164E-02  0.1320468E+00
        -11   -1    0    0    0    0  0.00000000000E+00  0.00000000000E+00  0.45593999997E+02  0.45594000000E+02  0.51100000000E-03 0.  1.
         11   -1    0    0    0    0 -0.00000000000E+00 -0.00000000000E+00 -0.45593999997E+02  0.45594000000E+02  0.51100000000E-03 0. -1.
    9900012    2    1    2    0    0 -0.70244377627E+01  0.44084644285E+02 -0.60262839274E+01  0.46142304472E+02  0.99998788180E+01 0.  0.
         12    1    1    2    0    0  0.70244377627E+01 -0.44084644285E+02  0.60262839274E+01  0.45045695528E+02  0.00000000000E+00 0. -1.
         11    1    3    3    0    0 -0.81809180375E+01  0.26704910579E+02 -0.59586172208E+01  0.28558445133E+02  0.51100000000E-03 0. -1.
        -11    1    3    3    0    0 -0.22797754519E-02  0.14126766939E+02  0.90355647433E-01  0.14127056090E+02  0.51100000000E-03 0.  1.
         12    1    3    3    0    0  0.11587600502E+01  0.32529667671E+01 -0.15802235408E+00  0.34568032496E+01  0.00000000000E+00 0. -1.
</event>
<event>
 7    1  0.1385632E-008  0.4614232E+02  0.7816164E-02  0.1320468E+00
        -11   -1    0    0    0    0  0.00000000000E+00  0.00000000000E+00  0.45593999997E+02  0.45594000000E+02  0.51100000000E-03 0. -1.
         11   -1    0    0    0    0 -0.00000000000E+00 -0.00000000000E+00 -0.45593999997E+02  0.45594000000E+02  0.51100000000E-03 0.  1.
    9900012    2    1    2    0    0  0.17384714838E+02  0.34901408509E+02 -0.22556085285E+02  0.46142316419E+02  0.99999877653E+01 0.  0.
         12    1    1    2    0    0 -0.17384714838E+02 -0.34901408509E+02  0.22556085285E+02  0.45045683581E+02  0.00000000000E+00 0. -1.
         11    1    3    3    0    0  0.50531878192E+01  0.84351404958E+01 -0.10191369342E+02  0.14161578713E+02  0.51100000000E-03 0. -1.
        -11    1    3    3    0    0  0.10043290251E+02  0.21856435579E+02 -0.11833819098E+02  0.26806915712E+02  0.51100000000E-03 0.  1.
         12    1    3    3    0    0  0.22882367680E+01  0.46098324336E+01 -0.53089684515E+00  0.51738219947E+01  0.00000000000E+00 0. -1.
</event>
<event>
 7    1  0.1385632E-008  0.4614232E+02  0.7816164E-02  0.1320468E+00
        -11   -1    0    0    0    0  0.00000000000E+00  0.00000000000E+00  0.45593999997E+02  0.45594000000E+02  0.51100000000E-03 0.  1.
         11   -1    0    0    0    0 -0.00000000000E+00 -0.00000000000E+00 -0.45593999997E+02  0.45594000000E+02  0.51100000000E-03 0. -1.
    9900012    2    1    2    0    0 -0.25284741483E+02 -0.12193870929E+02  0.35229319130E+02  0.46142316894E+02  0.99999920930E+01 0.  0.
         12    1    1    2    0    0  0.25284741483E+02  0.12193870929E+02 -0.35229319130E+02  0.45045683106E+02  0.00000000000E+00 0. -1.
         11    1    3    3    0    0 -0.44224493211E+01 -0.46039309492E+01  0.42369346006E+01  0.76619745010E+01  0.51100000000E-03 0. -1.
        -11    1    3    3    0    0 -0.15232090667E+02 -0.71203111752E+01  0.20063279838E+02  0.26177291980E+02  0.51100000000E-03 0.  1.
        -12    1    3    3    0    0 -0.56302014949E+01 -0.46962880472E+00  0.10929104692E+02  0.12303050413E+02  0.00000000000E+00 0.  1.
</event>
<event>
 7    1  0.1385632E-008  0.4614232E+02  0.7816164E-02  0.1320468E+00
        -11   -1    0    0    0    0  0.00000000000E+00  0.00000000000E+00  0.45593999997E+02  0.45594000000E+02  0.51100000000E-03 0.  1.
         11   -1    0    0    0    0 -0.00000000000E+00 -0.00000000000E+00 -0.45593999997E+02  0.45594000000E+02  0.51100000000E-03 0. -1.
    9900012    2    1    2    0    0 -0.64480105226E+01  0.18307785180E+02  0.40649251558E+02  0.46142317742E+02  0.99999998241E+01 0.  0.
         12    1    1    2    0    0  0.64480105226E+01 -0.18307785180E+02 -0.40649251558E+02  0.45045682258E+02  0.00000000000E+00 0. -1.
         11    1    3    3    0    0 -0.21879259341E+01  0.45295754567E+01  0.16541460612E+02  0.17289418531E+02  0.51100000000E-03 0. -1.
        -11    1    3    3    0    0 -0.18291550080E+01  0.20294085300E+01  0.11805753783E+01  0.29762502432E+01  0.51100000000E-03 0.  1.
         12    1    3    3    0    0 -0.24309295805E+01  0.11748801193E+02  0.22927215568E+02  0.25876648967E+02  0.00000000000E+00 0. -1.
</event>
<event>
 7    1  0.1385632E-008  0.4614232E+02  0.7816164E-02  0.1320468E+00
        -11   -1    0    0    0    0  0.00000000000E+00  0.00000000000E+00  0.45593999997E+02  0.45594000000E+02  0.51100000000E-03 0.  1.
         11   -1    0    0    0    0 -0.00000000000E+00 -0.00000000000E+00 -0.45593999997E+02  0.45594000000E+02  0.51100000000E-03 0. -1.
    9900012    2    1    2    0    0  0.21923125076E+02 -0.17493413388E+02  0.35248695197E+02  0.46142318319E+02  0.10000005088E+02 0.  0.
         12    1    1    2    0    0 -0.21923125076E+02  0.17493413388E+02 -0.35248695197E+02  0.45045681681E+02  0.00000000000E+00 0. -1.
         11    1    3    3    0    0  0.14401109528E+02 -0.10897814738E+02  0.23728334671E+02  0.29819258680E+02  0.51100000000E-03 0. -1.
        -11    1    3    3    0    0  0.27333831590E+01 -0.27006844535E+01  0.87513789270E+01  0.95578090270E+01  0.51100000000E-03 0.  1.
         12    1    3    3    0    0  0.47886323888E+01 -0.38949141964E+01  0.27689815986E+01  0.67652506121E+01  0.00000000000E+00 0. -1.
</event>
<event>
 7    1  0.1385632E-008  0.4614232E+02  0.7816164E-02  0.1320468E+00
        -11   -1    0    0    0    0  0.00000000000E+00  0.00000000000E+00  0.45593999997E+02  0.45594000000E+02  0.51100000000E-03 0.  1.
         11   -1    0    0    0    0 -0.00000000000E+00 -0.00000000000E+00 -0.45593999997E+02  0.45594000000E+02  0.51100000000E-03 0. -1.
    9900012    2    1    2    0    0 -0.30440874923E+02  0.16523960429E+02  0.28799743882E+02  0.46142318942E+02  0.10000010768E+02 0.  0.
         12    1    1    2    0    0  0.30440874923E+02 -0.16523960429E+02 -0.28799743882E+02  0.45045681058E+02  0.00000000000E+00 0. -1.
         11    1    3    3    0    0 -0.39763913370E+01  0.17006018665E+01  0.75230802216E+01  0.86775844020E+01  0.51100000000E-03 0. -1.
        -11    1    3    3    0    0 -0.12650105720E+02  0.43895559266E+01  0.75552327959E+01  0.15374489221E+02  0.51100000000E-03 0.  1.
        -12    1    3    3    0    0 -0.13814377866E+02  0.10433802636E+02  0.13721430865E+02  0.22090245319E+02  0.00000000000E+00 0.  1.
</event>
<event>
 7    1  0.1385632E-008  0.4614232E+02  0.7816164E-02  0.1320468E+00
        -11   -1    0    0    0    0  0.00000000000E+00  0.00000000000E+00  0.45593999997E+02  0.45594000000E+02  0.51100000000E-03 0. -1.
         11   -1    0    0    0    0 -0.00000000000E+00 -0.00000000000E+00 -0.45593999997E+02  0.45594000000E+02  0.51100000000E-03 0.  1.
    9900012    2    1    2    0    0  0.35209494769E+02  0.25513779017E+02 -0.11766564996E+02  0.46142317705E+02  0.99999994884E+01 0.  0.
         12    1    1    2    0    0 -0.35209494769E+02 -0.25513779017E+02  0.11766564996E+02  0.45045682295E+02  0.00000000000E+00 0. -1.
         11    1    3    3    0    0  0.16894032649E+02  0.15933285033E+02 -0.29895915230E+01  0.23414003691E+02  0.51100000000E-03 0. -1.
        -11    1    3    3    0    0  0.13062173928E+02  0.72490692121E+01 -0.46261660716E+01  0.15638759700E+02  0.51100000000E-03 0.  1.
         12    1    3    3    0    0  0.52532881923E+01  0.23314247715E+01 -0.41508074010E+01  0.70895543144E+01  0.00000000000E+00 0. -1.
</event>
<event>
 7    1  0.1385632E-008  0.4614232E+02  0.7816164E-02  0.1320468E+00
        -11   -1    0    0    0    0  0.00000000000E+00  0.00000000000E+00  0.45593999997E+02  0.45594000000E+02  0.51100000000E-03 0.  1.
         11   -1    0    0    0    0 -0.00000000000E+00 -0.00000000000E+00 -0.45593999997E+02  0.45594000000E+02  0.51100000000E-03 0. -1.
    9900012    2    1    2    0    0 -0.65291654007E+01  0.20310130980E+02  0.39673443453E+02  0.46142317225E+02  0.99999951078E+01 0.  0.
         12    1    1    2    0    0  0.65291654007E+01 -0.20310130980E+02 -0.39673443453E+02  0.45045682775E+02  0.00000000000E+00 0. -1.
         11    1    3    3    0    0 -0.16618789767E+01  0.50091198103E+01  0.17148260625E+02  0.17942016768E+02  0.51100000000E-03 0. -1.
        -11    1    3    3    0    0 -0.34179815948E+00  0.80642401634E+01  0.13849626258E+02  0.16030001346E+02  0.51100000000E-03 0.  1.
         12    1    3    3    0    0 -0.45254882645E+01  0.72367710061E+01  0.86755565710E+01  0.12170299111E+02  0.00000000000E+00 0. -1.
</event>
<event>
 7    1  0.1385632E-008  0.4614232E+02  0.7816164E-02  0.1320468E+00
        -11   -1    0    0    0    0  0.00000000000E+00  0.00000000000E+00  0.45593999997E+02  0.45594000000E+02  0.51100000000E-03 0. -1.
         11   -1    0    0    0    0 -0.00000000000E+00 -0.00000000000E+00 -0.45593999997E+02  0.45594000000E+02  0.51100000000E-03 0.  1.
    9900012    2    1    2    0    0  0.24463423513E+01  0.15568865105E+02 -0.42198808010E+02  0.46142317088E+02  0.99999938607E+01 0.  0.
         12    1    1    2    0    0 -0.24463423513E+01 -0.15568865105E+02  0.42198808010E+02  0.45045682912E+02  0.00000000000E+00 0. -1.
         11    1    3    3    0    0  0.52868017486E+01  0.70452788935E+01 -0.15858386602E+02  0.18140414915E+02  0.51100000000E-03 0. -1.
        -11    1    3    3    0    0 -0.17864498315E+01  0.79747318871E+01 -0.21075222454E+02  0.22604264054E+02  0.51100000000E-03 0.  1.
         12    1    3    3    0    0 -0.10540095658E+01  0.54885432409E+00 -0.52651989547E+01  0.53976381193E+01  0.00000000000E+00 0. -1.
</event>
<event>
 7    1  0.1385632E-008  0.4614232E+02  0.7816164E-02  0.1320468E+00
        -11   -1    0    0    0    0  0.00000000000E+00  0.00000000000E+00  0.45593999997E+02  0.45594000000E+02  0.51100000000E-03 0.  1.
         11   -1    0    0    0    0 -0.00000000000E+00 -0.00000000000E+00 -0.45593999997E+02  0.45594000000E+02  0.51100000000E-03 0. -1.
    9900012    2    1    2    0    0 -0.80331288901E+01  0.23691804096E+02  0.37460388898E+02  0.46142317882E+02  0.10000001099E+02 0.  0.
         12    1    1    2    0    0  0.80331288901E+01 -0.23691804096E+02 -0.37460388898E+02  0.45045682118E+02  0.00000000000E+00 0. -1.
         11    1    3    3    0    0 -0.15916876618E+01  0.14167391111E+02  0.25085677929E+02  0.28853763670E+02  0.51100000000E-03 0.  1.
        -11    1    3    3    0    0 -0.19678009123E+01  0.39275597582E+01  0.23959506344E+01  0.50038530942E+01  0.51100000000E-03 0. -1.
        -12    1    3    3    0    0 -0.44736403160E+01  0.55968532264E+01  0.99787603347E+01  0.12284701117E+02  0.00000000000E+00 0.  1.
</event>
<event>
 7    1  0.1385632E-008  0.4614232E+02  0.7816164E-02  0.1320468E+00
        -11   -1    0    0    0    0  0.00000000000E+00  0.00000000000E+00  0.45593999997E+02  0.45594000000E+02  0.51100000000E-03 0. -1.
         11   -1    0    0    0    0 -0.00000000000E+00 -0.00000000000E+00 -0.45593999997E+02  0.45594000000E+02  0.51100000000E-03 0.  1.
    9900012    2    1    2    0    0 -0.42349224478E+02 -0.10252758071E+01 -0.15316839442E+02  0.46142316801E+02  0.99999912473E+01 0.  0.
         12    1    1    2    0    0  0.42349224478E+02  0.10252758071E+01  0.15316839442E+02  0.45045683199E+02  0.00000000000E+00 0. -1.
         11    1    3    3    0    0 -0.36784324785E+01 -0.12934772067E+01 -0.35842730892E+01  0.52963159481E+01  0.51100000000E-03 0. -1.
        -11    1    3    3    0    0 -0.13905357277E+02 -0.15444876709E+01 -0.18192995082E+01  0.14108658836E+02  0.51100000000E-03 0.  1.
         12    1    3    3    0    0 -0.24765434722E+02  0.18126890705E+01 -0.99132668447E+01  0.26737342017E+02  0.00000000000E+00 0. -1.
</event>
<event>
 7    1  0.1385632E-008  0.4614232E+02  0.7816164E-02  0.1320468E+00
        -11   -1    0    0    0    0  0.00000000000E+00  0.00000000000E+00  0.45593999997E+02  0.45594000000E+02  0.51100000000E-03 0.  1.
         11   -1    0    0    0    0 -0.00000000000E+00 -0.00000000000E+00 -0.45593999997E+02  0.45594000000E+02  0.51100000000E-03 0. -1.
    9900012    2    1    2    0    0  0.16455996174E+02  0.15280714367E+02  0.39048859108E+02  0.46142318306E+02  0.10000004972E+02 0.  0.
         12    1    1    2    0    0 -0.16455996174E+02 -0.15280714367E+02 -0.39048859108E+02  0.45045681694E+02  0.00000000000E+00 0. -1.
         11    1    3    3    0    0  0.15760536424E+02  0.10121578144E+02  0.30208174178E+02  0.35543981768E+02  0.51100000000E-03 0. -1.
        -11    1    3    3    0    0 -0.12146663072E+00  0.22490294644E+01  0.61578909277E+01  0.65568672865E+01  0.51100000000E-03 0.  1.
         12    1    3    3    0    0  0.81692638107E+00  0.29101067584E+01  0.26827940022E+01  0.40414692521E+01  0.00000000000E+00 0. -1.
</event>
<event>
 7    1  0.1385632E-008  0.4614232E+02  0.7816164E-02  0.1320468E+00
        -11   -1    0    0    0    0  0.00000000000E+00  0.00000000000E+00  0.45593999997E+02  0.45594000000E+02  0.51100000000E-03 0.  1.
         11   -1    0    0    0    0 -0.00000000000E+00 -0.00000000000E+00 -0.45593999997E+02  0.45594000000E+02  0.51100000000E-03 0. -1.
    9900012    2    1    2    0    0  0.39774479384E+02 -0.21115216459E+02  0.11188824437E+01  0.46142317917E+02  0.10000001422E+02 0.  0.
         12    1    1    2    0    0 -0.39774479384E+02  0.21115216459E+02 -0.11188824437E+01  0.45045682083E+02  0.00000000000E+00 0. -1.
         11    1    3    3    0    0 -0.45425654366E-01 -0.54136893264E-01 -0.26463327872E+00  0.27390751471E+00  0.51100000000E-03 0. -1.
        -11    1    3    3    0    0  0.20394459077E+02 -0.13877945368E+02 -0.25058744743E+01  0.24795377308E+02  0.51100000000E-03 0.  1.
        -12    1    3    3    0    0  0.19425445962E+02 -0.71831341972E+01  0.38893901967E+01  0.21073033095E+02  0.00000000000E+00 0.  1.
</event>
<event>
 7    1  0.1385632E-008  0.4614232E+02  0.7816164E-02  0.1320468E+00
        -11   -1    0    0    0    0  0.00000000000E+00  0.00000000000E+00  0.45593999997E+02  0.45594000000E+02  0.51100000000E-03 0.  1.
         11   -1    0    0    0    0 -0.00000000000E+00 -0.00000000000E+00 -0.45593999997E+02  0.45594000000E+02  0.51100000000E-03 0. -1.
    9900012    2    1    2    0    0  0.14342302530E+02  0.11875577441E+02  0.41016857177E+02  0.46142317032E+02  0.99999933472E+01 0.  0.
         12    1    1    2    0    0 -0.14342302530E+02 -0.11875577441E+02 -0.41016857177E+02  0.45045682968E+02  0.00000000000E+00 0. -1.
         11    1    3    3    0    0  0.49307976389E+01  0.69280983032E+01  0.24496616236E+02  0.25930590405E+02  0.51100000000E-03 0.  1.
        -11    1    3    3    0    0  0.81724716381E+01  0.58843064381E+01  0.14702204822E+02  0.17820470864E+02  0.51100000000E-03 0. -1.
        -12    1    3    3    0    0  0.12390332535E+01 -0.93682730014E+00  0.18180361186E+01  0.23912557626E+01  0.00000000000E+00 0.  1.
</event>
<event>
 7    1  0.1385632E-008  0.4614232E+02  0.7816164E-02  0.1320468E+00
        -11   -1    0    0    0    0  0.00000000000E+00  0.00000000000E+00  0.45593999997E+02  0.45594000000E+02  0.51100000000E-03 0.  1.
         11   -1    0    0    0    0 -0.00000000000E+00 -0.00000000000E+00 -0.45593999997E+02  0.45594000000E+02  0.51100000000E-03 0. -1.
    9900012    2    1    2    0    0  0.11601391737E+02  0.27012380768E+02  0.34129934763E+02  0.46142318165E+02  0.10000003683E+02 0.  0.
         12    1    1    2    0    0 -0.11601391737E+02 -0.27012380768E+02 -0.34129934763E+02  0.45045681835E+02  0.00000000000E+00 0. -1.
         11    1    3    3    0    0  0.48545669842E+01  0.14792172738E+02  0.20313547656E+02  0.25593268911E+02  0.51100000000E-03 0.  1.
        -11    1    3    3    0    0  0.44207479114E+01  0.11152128046E+02  0.86704000424E+01  0.14801648868E+02  0.51100000000E-03 0. -1.
         12    1    3    3    0    0  0.23260768417E+01  0.10680799846E+01  0.51459870652E+01  0.57474003865E+01  0.00000000000E+00 0. -1.
</event>
<event>
 7    1  0.1385632E-008  0.4614232E+02  0.7816164E-02  0.1320468E+00
        -11   -1    0    0    0    0  0.00000000000E+00  0.00000000000E+00  0.45593999997E+02  0.45594000000E+02  0.51100000000E-03 0. -1.
         11   -1    0    0    0    0 -0.00000000000E+00 -0.00000000000E+00 -0.45593999997E+02  0.45594000000E+02  0.51100000000E-03 0.  1.
    9900012    2    1    2    0    0 -0.11813671435E+02 -0.26551403315E+02 -0.34417633385E+02  0.46142319424E+02  0.10000015160E+02 0.  0.
         12    1    1    2    0    0  0.11813671435E+02  0.26551403315E+02  0.34417633385E+02  0.45045680576E+02  0.00000000000E+00 0. -1.
         11    1    3    3    0    0 -0.23253392565E+01 -0.97284940801E+00 -0.37945826994E+01  0.45554908354E+01  0.51100000000E-03 0. -1.
        -11    1    3    3    0    0 -0.55631993774E+01 -0.22359600581E+02 -0.24485169394E+02  0.33621785288E+02  0.51100000000E-03 0.  1.
        -12    1    3    3    0    0 -0.39251328015E+01 -0.32189533267E+01 -0.61378812915E+01  0.79650433004E+01  0.00000000000E+00 0.  1.
</event>
<event>
 7    1  0.1385632E-008  0.4614232E+02  0.7816164E-02  0.1320468E+00
        -11   -1    0    0    0    0  0.00000000000E+00  0.00000000000E+00  0.45593999997E+02  0.45594000000E+02  0.51100000000E-03 0.  1.
         11   -1    0    0    0    0 -0.00000000000E+00 -0.00000000000E+00 -0.45593999997E+02  0.45594000000E+02  0.51100000000E-03 0. -1.
    9900012    2    1    2    0    0  0.11232057834E+02  0.16366954882E+02  0.40436086654E+02  0.46142318307E+02  0.10000004979E+02 0.  0.
         12    1    1    2    0    0 -0.11232057834E+02 -0.16366954882E+02 -0.40436086654E+02  0.45045681693E+02  0.00000000000E+00 0. -1.
         11    1    3    3    0    0  0.45930978960E+01  0.85761480202E+01  0.25601207338E+02  0.27387381777E+02  0.51100000000E-03 0.  1.
        -11    1    3    3    0    0  0.54288204891E+01  0.29337236036E+01  0.10265256522E+02  0.11977241661E+02  0.51100000000E-03 0. -1.
        -12    1    3    3    0    0  0.12101394485E+01  0.48570832587E+01  0.45696227941E+01  0.67776948697E+01  0.00000000000E+00 0.  1.
</event>
<event>
 7    1  0.1385632E-008  0.4614232E+02  0.7816164E-02  0.1320468E+00
        -11   -1    0    0    0    0  0.00000000000E+00  0.00000000000E+00  0.45593999997E+02  0.45594000000E+02  0.51100000000E-03 0.  1.
         11   -1    0    0    0    0 -0.00000000000E+00 -0.00000000000E+00 -0.45593999997E+02  0.45594000000E+02  0.51100000000E-03 0. -1.
    9900012    2    1    2    0    0  0.41391165996E+02 -0.11254603023E+02  0.13755679585E+02  0.46142318381E+02  0.10000005649E+02 0.  0.
         12    1    1    2    0    0 -0.41391165996E+02  0.11254603023E+02 -0.13755679585E+02  0.45045681619E+02  0.00000000000E+00 0. -1.
         11    1    3    3    0    0  0.20388583951E+02 -0.19731171467E+01  0.96681297223E+01  0.22650833967E+02  0.51100000000E-03 0.  1.
        -11    1    3    3    0    0  0.12056804218E+02 -0.68090500242E+01  0.21999795855E+01  0.14020328121E+02  0.51100000000E-03 0. -1.
        -12    1    3    3    0    0  0.89457778272E+01 -0.24724358516E+01  0.18875702772E+01  0.94711562929E+01  0.00000000000E+00 0.  1.
</event>
<event>
 7    1  0.1385632E-008  0.4614233E+02  0.7816164E-02  0.1320468E+00
        -11   -1    0    0    0    0  0.00000000000E+00  0.00000000000E+00  0.45593999997E+02  0.45594000000E+02  0.51100000000E-03 0.  1.
         11   -1    0    0    0    0 -0.00000000000E+00 -0.00000000000E+00 -0.45593999997E+02  0.45594000000E+02  0.51100000000E-03 0. -1.
    9900012    2    1    2    0    0 -0.37748560186E+02 -0.24408418341E+02  0.28961286322E+01  0.46142331583E+02  0.10000126042E+02 0.  0.
         12    1    1    2    0    0  0.37748560186E+02  0.24408418341E+02 -0.28961286322E+01  0.45045668417E+02  0.00000000000E+00 0. -1.
         11    1    3    3    0    0 -0.51689247628E+01 -0.19701554593E+00  0.50611722365E+00  0.51973794583E+01  0.51100000000E-03 0. -1.
        -11    1    3    3    0    0 -0.28356163037E+02 -0.19635414830E+02  0.33135498916E+01  0.34649691353E+02  0.51100000000E-03 0.  1.
         12    1    3    3    0    0 -0.42234723860E+01 -0.45759879654E+01 -0.92353848310E+00  0.62952607717E+01  0.00000000000E+00 0. -1.
</event>
<event>
 7    1  0.1385632E-008  0.4614232E+02  0.7816164E-02  0.1320468E+00
        -11   -1    0    0    0    0  0.00000000000E+00  0.00000000000E+00  0.45593999997E+02  0.45594000000E+02  0.51100000000E-03 0.  1.
         11   -1    0    0    0    0 -0.00000000000E+00 -0.00000000000E+00 -0.45593999997E+02  0.45594000000E+02  0.51100000000E-03 0. -1.
    9900012    2    1    2    0    0 -0.86510298877E+00  0.32761907811E+02  0.30903439386E+02  0.46142316828E+02  0.99999914888E+01 0.  0.
         12    1    1    2    0    0  0.86510298877E+00 -0.32761907811E+02 -0.30903439386E+02  0.45045683172E+02  0.00000000000E+00 0. -1.
         11    1    3    3    0    0  0.23013366684E+01  0.19848531967E+01  0.12750656368E+01  0.32956919324E+01  0.51100000000E-03 0. -1.
        -11    1    3    3    0    0 -0.54358322949E+00  0.32954179046E+01  0.34402721295E+01  0.47948654287E+01  0.51100000000E-03 0.  1.
         12    1    3    3    0    0 -0.26228564277E+01  0.27481636710E+02  0.26188101619E+02  0.38051759467E+02  0.00000000000E+00 0. -1.
</event>
<event>
 7    1  0.1385632E-008  0.4614232E+02  0.7816164E-02  0.1320468E+00
        -11   -1    0    0    0    0  0.00000000000E+00  0.00000000000E+00  0.45593999997E+02  0.45594000000E+02  0.51100000000E-03 0.  1.
         11   -1    0    0    0    0 -0.00000000000E+00 -0.00000000000E+00 -0.45593999997E+02  0.45594000000E+02  0.51100000000E-03 0. -1.
    9900012    2    1    2    0    0 -0.21197325812E+02 -0.78588435190E+00  0.39738763385E+02  0.46142317065E+02  0.99999936497E+01 0.  0.
         12    1    1    2    0    0  0.21197325812E+02  0.78588435190E+00 -0.39738763385E+02  0.45045682935E+02  0.00000000000E+00 0. -1.
         11    1    3    3    0    0 -0.46310070439E+01  0.23458614307E+01  0.66348890336E+01  0.84244314254E+01  0.51100000000E-03 0. -1.
        -11    1    3    3    0    0 -0.22323356754E+01 -0.17822780111E+01  0.10795499871E+02  0.11167034307E+02  0.51100000000E-03 0.  1.
        -12    1    3    3    0    0 -0.14333983092E+02 -0.13494677714E+01  0.22308374480E+02  0.26550851332E+02  0.00000000000E+00 0.  1.
</event>
<event>
 7    1  0.1385632E-008  0.4614232E+02  0.7816164E-02  0.1320468E+00
        -11   -1    0    0    0    0  0.00000000000E+00  0.00000000000E+00  0.45593999997E+02  0.45594000000E+02  0.51100000000E-03 0.  1.
         11   -1    0    0    0    0 -0.00000000000E+00 -0.00000000000E+00 -0.45593999997E+02  0.45594000000E+02  0.51100000000E-03 0. -1.
    9900012    2    1    2    0    0 -0.29191742517E+02  0.14654105299E+02  0.31019553074E+02  0.46142319783E+02  0.10000018438E+02 0.  0.
         12    1    1    2    0    0  0.29191742517E+02 -0.14654105299E+02 -0.31019553074E+02  0.45045680217E+02  0.00000000000E+00 0. -1.
         11    1    3    3    0    0 -0.37538509232E+01  0.22452880046E+01  0.16461347564E+01  0.46735933578E+01  0.51100000000E-03 0. -1.
        -11    1    3    3    0    0 -0.13408013352E+02  0.54071474189E+01  0.20037745973E+02  0.24708770289E+02  0.51100000000E-03 0.  1.
        -12    1    3    3    0    0 -0.12029878242E+02  0.70016698756E+01  0.93356723445E+01  0.16759956136E+02  0.00000000000E+00 0.  1.
</event>
<event>
 7    1  0.1385632E-008  0.4614232E+02  0.7816164E-02  0.1320468E+00
        -11   -1    0    0    0    0  0.00000000000E+00  0.00000000000E+00  0.45593999997E+02  0.45594000000E+02  0.51100000000E-03 0. -1.
         11   -1    0    0    0    0 -0.00000000000E+00 -0.00000000000E+00 -0.45593999997E+02  0.45594000000E+02  0.51100000000E-03 0.  1.
    9900012    2    1    2    0    0 -0.36070073459E+02 -0.93808311207E+01 -0.25299471413E+02  0.46142318236E+02  0.10000004327E+02 0.  0.
         12    1    1    2    0    0  0.36070073459E+02  0.93808311207E+01  0.25299471413E+02  0.45045681764E+02  0.00000000000E+00 0. -1.
         11    1    3    3    0    0 -0.49185865658E+01 -0.25256973992E+01 -0.24634152319E+01  0.60531030079E+01  0.51100000000E-03 0. -1.
        -11    1    3    3    0    0 -0.20694617088E+02 -0.54245041319E+00 -0.15223298684E+02  0.25696502718E+02  0.51100000000E-03 0.  1.
        -12    1    3    3    0    0 -0.10456869806E+02 -0.63126833083E+01 -0.76127574965E+01  0.14392712510E+02  0.00000000000E+00 0.  1.
</event>
<event>
 7    1  0.1385632E-008  0.4614232E+02  0.7816164E-02  0.1320468E+00
        -11   -1    0    0    0    0  0.00000000000E+00  0.00000000000E+00  0.45593999997E+02  0.45594000000E+02  0.51100000000E-03 0.  1.
         11   -1    0    0    0    0 -0.00000000000E+00 -0.00000000000E+00 -0.45593999997E+02  0.45594000000E+02  0.51100000000E-03 0. -1.
    9900012    2    1    2    0    0  0.16971461682E+02  0.18110220044E+02  0.37591260724E+02  0.46142318026E+02  0.10000002419E+02 0.  0.
         12    1    1    2    0    0 -0.16971461682E+02 -0.18110220044E+02 -0.37591260724E+02  0.45045681974E+02  0.00000000000E+00 0. -1.
         11    1    3    3    0    0 -0.69594375302E-01  0.15768866558E+01  0.46352934238E+01  0.48966682845E+01  0.51100000000E-03 0. -1.
        -11    1    3    3    0    0  0.97438413315E+01  0.11929727916E+02  0.25744870781E+02  0.30000987048E+02  0.51100000000E-03 0.  1.
        -12    1    3    3    0    0  0.72972147260E+01  0.46036054721E+01  0.72110965186E+01  0.11244662694E+02  0.00000000000E+00 0.  1.
</event>
<event>
 7    1  0.1385632E-008  0.4614232E+02  0.7816164E-02  0.1320468E+00
        -11   -1    0    0    0    0  0.00000000000E+00  0.00000000000E+00  0.45593999997E+02  0.45594000000E+02  0.51100000000E-03 0.  1.
         11   -1    0    0    0    0 -0.00000000000E+00 -0.00000000000E+00 -0.45593999997E+02  0.45594000000E+02  0.51100000000E-03 0. -1.
    9900012    2    1    2    0    0 -0.38158162618E+02 -0.22013939316E+02  0.94050312107E+01  0.46142317514E+02  0.99999977431E+01 0.  0.
         12    1    1    2    0    0  0.38158162618E+02  0.22013939316E+02 -0.94050312107E+01  0.45045682486E+02  0.00000000000E+00 0. -1.
         11    1    3    3    0    0 -0.12742115608E+02 -0.10816736081E+02 -0.29195981164E+00  0.16716714103E+02  0.51100000000E-03 0. -1.
        -11    1    3    3    0    0 -0.23000718299E+02 -0.10094666684E+02  0.85545766267E+01  0.26535186438E+02  0.51100000000E-03 0.  1.
         12    1    3    3    0    0 -0.24153287111E+01 -0.11025365509E+01  0.11424143956E+01  0.28904169734E+01  0.00000000000E+00 0. -1.
</event>
<event>
 7    1  0.1385632E-008  0.4614232E+02  0.7816164E-02  0.1320468E+00
        -11   -1    0    0    0    0  0.00000000000E+00  0.00000000000E+00  0.45593999997E+02  0.45594000000E+02  0.51100000000E-03 0. -1.
         11   -1    0    0    0    0 -0.00000000000E+00 -0.00000000000E+00 -0.45593999997E+02  0.45594000000E+02  0.51100000000E-03 0.  1.
    9900012    2    1    2    0    0  0.13284810781E+02 -0.34137968777E+02 -0.26215000690E+02  0.46142319065E+02  0.10000011891E+02 0.  0.
         12    1    1    2    0    0 -0.13284810781E+02  0.34137968777E+02  0.26215000690E+02  0.45045680935E+02  0.00000000000E+00 0. -1.
         11    1    3    3    0    0  0.58523915715E+01 -0.75555445907E+01 -0.28647437204E+01  0.99771487918E+01  0.51100000000E-03 0. -1.
        -11    1    3    3    0    0  0.43828277277E+01 -0.17116173843E+02 -0.15195655948E+02  0.23304088608E+02  0.51100000000E-03 0.  1.
         12    1    3    3    0    0  0.30495914817E+01 -0.94662503435E+01 -0.81546010218E+01  0.12861081665E+02  0.00000000000E+00 0. -1.
</event>
<event>
 7    1  0.1385632E-008  0.4614232E+02  0.7816164E-02  0.1320468E+00
        -11   -1    0    0    0    0  0.00000000000E+00  0.00000000000E+00  0.45593999997E+02  0.45594000000E+02  0.51100000000E-03 0. -1.
         11   -1    0    0    0    0 -0.00000000000E+00 -0.00000000000E+00 -0.45593999997E+02  0.45594000000E+02  0.51100000000E-03 0.  1.
    9900012    2    1    2    0    0 -0.28038991200E+02 -0.21351677378E+02 -0.28054126859E+02  0.46142321093E+02  0.10000030383E+02 0.  0.
         12    1    1    2    0    0  0.28038991200E+02  0.21351677378E+02  0.28054126859E+02  0.45045678907E+02  0.00000000000E+00 0. -1.
         11    1    3    3    0    0 -0.10190287215E+02 -0.46111214966E+01 -0.81050877529E+01  0.13812923033E+02  0.51100000000E-03 0. -1.
        -11    1    3    3    0    0 -0.15130186611E+02 -0.10750253633E+02 -0.12426447948E+02  0.22336228619E+02  0.51100000000E-03 0.  1.
         12    1    3    3    0    0 -0.27185173741E+01 -0.59903022483E+01 -0.75225911580E+01  0.99931694407E+01  0.00000000000E+00 0. -1.
</event>
<event>
 7    1  0.1385632E-008  0.4614232E+02  0.7816164E-02  0.1320468E+00
        -11   -1    0    0    0    0  0.00000000000E+00  0.00000000000E+00  0.45593999997E+02  0.45594000000E+02  0.51100000000E-03 0.  1.
         11   -1    0    0    0    0 -0.00000000000E+00 -0.00000000000E+00 -0.45593999997E+02  0.45594000000E+02  0.51100000000E-03 0. -1.
    9900012    2    1    2    0    0 -0.33743025913E+02  0.19355156733E+02  0.22713414215E+02  0.46142322347E+02  0.10000041815E+02 0.  0.
         12    1    1    2    0    0  0.33743025913E+02 -0.19355156733E+02 -0.22713414215E+02  0.45045677653E+02  0.00000000000E+00 0. -1.
         11    1    3    3    0    0 -0.73176928377E+00  0.16450682443E+00  0.21790869900E+01  0.23045540026E+01  0.51100000000E-03 0. -1.
        -11    1    3    3    0    0 -0.31766668628E+02  0.18486880275E+02  0.21004193779E+02  0.42332754866E+02  0.51100000000E-03 0.  1.
        -12    1    3    3    0    0 -0.12445880017E+01  0.70376963354E+00 -0.46986655325E+00  0.15050134780E+01  0.00000000000E+00 0.  1.
</event>
<event>
 7    1  0.1385632E-008  0.4614232E+02  0.7816164E-02  0.1320468E+00
        -11   -1    0    0    0    0  0.00000000000E+00  0.00000000000E+00  0.45593999997E+02  0.45594000000E+02  0.51100000000E-03 0.  1.
         11   -1    0    0    0    0 -0.00000000000E+00 -0.00000000000E+00 -0.45593999997E+02  0.45594000000E+02  0.51100000000E-03 0. -1.
    9900012    2    1    2    0    0 -0.33854523656E+02  0.29687509242E+02  0.12792622720E+01  0.46142317755E+02  0.99999999429E+01 0.  0.
         12    1    1    2    0    0  0.33854523656E+02 -0.29687509242E+02 -0.12792622720E+01  0.45045682245E+02  0.00000000000E+00 0. -1.
         11    1    3    3    0    0 -0.94785319630E+01  0.63841258105E+01  0.34249010473E+01  0.11930196058E+02  0.51100000000E-03 0. -1.
        -11    1    3    3    0    0 -0.73359726626E+01  0.44797950082E+01 -0.19804594625E+01  0.88208433931E+01  0.51100000000E-03 0.  1.
        -12    1    3    3    0    0 -0.17040019030E+02  0.18823588424E+02 -0.16517931283E+00  0.25391278304E+02  0.00000000000E+00 0.  1.
</event>
<event>
 7    1  0.1385632E-008  0.4614232E+02  0.7816164E-02  0.1320468E+00
        -11   -1    0    0    0    0  0.00000000000E+00  0.00000000000E+00  0.45593999997E+02  0.45594000000E+02  0.51100000000E-03 0.  1.
         11   -1    0    0    0    0 -0.00000000000E+00 -0.00000000000E+00 -0.45593999997E+02  0.45594000000E+02  0.51100000000E-03 0. -1.
    9900012    2    1    2    0    0 -0.75563775942E+01  0.39674293527E+02  0.19949061848E+02  0.46142317878E+02  0.10000001065E+02 0.  0.
         12    1    1    2    0    0  0.75563775942E+01 -0.39674293527E+02 -0.19949061848E+02  0.45045682122E+02  0.00000000000E+00 0. -1.
         11    1    3    3    0    0 -0.17976432600E+01  0.27300473631E+02  0.10121083992E+02  0.29171625309E+02  0.51100000000E-03 0. -1.
        -11    1    3    3    0    0 -0.21690641135E+01  0.72540957079E+01  0.57197033602E+01  0.94890331677E+01  0.51100000000E-03 0.  1.
         12    1    3    3    0    0 -0.35896702207E+01  0.51197241888E+01  0.41082744950E+01  0.74816594008E+01  0.00000000000E+00 0. -1.
</event>
<event>
 7    1  0.1385632E-008  0.4614232E+02  0.7816164E-02  0.1320468E+00
        -11   -1    0    0    0    0  0.00000000000E+00  0.00000000000E+00  0.45593999997E+02  0.45594000000E+02  0.51100000000E-03 0.  1.
         11   -1    0    0    0    0 -0.00000000000E+00 -0.00000000000E+00 -0.45593999997E+02  0.45594000000E+02  0.51100000000E-03 0. -1.
    9900012    2    1    2    0    0 -0.29806115531E+02 -0.22371501912E+02  0.25302667548E+02  0.46142316456E+02  0.99999881032E+01 0.  0.
         12    1    1    2    0    0  0.29806115531E+02  0.22371501912E+02 -0.25302667548E+02  0.45045683544E+02  0.00000000000E+00 0. -1.
         11    1    3    3    0    0 -0.34669780591E+01 -0.82938309497E+00  0.52734772957E+01  0.63653260898E+01  0.51100000000E-03 0.  1.
        -11    1    3    3    0    0 -0.24216637353E+02 -0.18838051151E+02  0.19349464826E+02  0.36272847767E+02  0.51100000000E-03 0. -1.
         12    1    3    3    0    0 -0.21225001187E+01 -0.27040676669E+01  0.67972542637E+00  0.35041425993E+01  0.00000000000E+00 0. -1.
</event>
<event>
 7    1  0.1385632E-008  0.4614232E+02  0.7816164E-02  0.1320468E+00
        -11   -1    0    0    0    0  0.00000000000E+00  0.00000000000E+00  0.45593999997E+02  0.45594000000E+02  0.51100000000E-03 0.  1.
         11   -1    0    0    0    0 -0.00000000000E+00 -0.00000000000E+00 -0.45593999997E+02  0.45594000000E+02  0.51100000000E-03 0. -1.
    9900012    2    1    2    0    0 -0.15841372108E+02 -0.37682404873E+02  0.18926195025E+02  0.46142316905E+02  0.99999921969E+01 0.  0.
         12    1    1    2    0    0  0.15841372108E+02  0.37682404873E+02 -0.18926195025E+02  0.45045683095E+02  0.00000000000E+00 0. -1.
         11    1    3    3    0    0 -0.24694362226E+01 -0.87220292539E+01  0.17755361072E+01  0.92371228363E+01  0.51100000000E-03 0. -1.
        -11    1    3    3    0    0 -0.73896888497E+00 -0.22065107454E+01  0.37775297083E+01  0.44367212715E+01  0.51100000000E-03 0.  1.
        -12    1    3    3    0    0 -0.12632967001E+02 -0.26753864874E+02  0.13373129210E+02  0.32468472798E+02  0.00000000000E+00 0.  1.
</event>
<event>
 7    1  0.1385632E-008  0.4614232E+02  0.7816164E-02  0.1320468E+00
        -11   -1    0    0    0    0  0.00000000000E+00  0.00000000000E+00  0.45593999997E+02  0.45594000000E+02  0.51100000000E-03 0.  1.
         11   -1    0    0    0    0 -0.00000000000E+00 -0.00000000000E+00 -0.45593999997E+02  0.45594000000E+02  0.51100000000E-03 0. -1.
    9900012    2    1    2    0    0  0.25289315300E+01  0.36550361483E+02  0.26206656965E+02  0.46142319980E+02  0.10000020234E+02 0.  0.
         12    1    1    2    0    0 -0.25289315300E+01 -0.36550361483E+02 -0.26206656965E+02  0.45045680020E+02  0.00000000000E+00 0. -1.
         11    1    3    3    0    0 -0.51567116745E+00  0.47493575304E+00 -0.58395218927E+00  0.91240404587E+00  0.51100000000E-03 0. -1.
        -11    1    3    3    0    0  0.31651852001E+01  0.16904822488E+02  0.14093310242E+02  0.22235395533E+02  0.51100000000E-03 0.  1.
         12    1    3    3    0    0 -0.12058250262E+00  0.19170603242E+02  0.12697298912E+02  0.22994520401E+02  0.00000000000E+00 0. -1.
</event>
<event>
 7    1  0.1385632E-008  0.4614232E+02  0.7816164E-02  0.1320468E+00
        -11   -1    0    0    0    0  0.00000000000E+00  0.00000000000E+00  0.45593999997E+02  0.45594000000E+02  0.51100000000E-03 0.  1.
         11   -1    0    0    0    0 -0.00000000000E+00 -0.00000000000E+00 -0.45593999997E+02  0.45594000000E+02  0.51100000000E-03 0. -1.
    9900012    2    1    2    0    0 -0.23222803894E+02  0.31519372726E+02  0.22278769525E+02  0.46142322635E+02  0.10000044444E+02 0.  0.
         12    1    1    2    0    0  0.23222803894E+02 -0.31519372726E+02 -0.22278769525E+02  0.45045677365E+02  0.00000000000E+00 0. -1.
         11    1    3    3    0    0 -0.53420237798E+01  0.13799739643E+02  0.60718585498E+01  0.15994921031E+02  0.51100000000E-03 0. -1.
        -11    1    3    3    0    0 -0.45321159507E+01  0.25924510067E+01  0.38774674775E+01  0.65035091691E+01  0.51100000000E-03 0.  1.
        -12    1    3    3    0    0 -0.13348664164E+02  0.15127182076E+02  0.12329443498E+02  0.23643892435E+02  0.00000000000E+00 0.  1.
</event>
<event>
 7    1  0.1385632E-008  0.4614232E+02  0.7816164E-02  0.1320468E+00
        -11   -1    0    0    0    0  0.00000000000E+00  0.00000000000E+00  0.45593999997E+02  0.45594000000E+02  0.51100000000E-03 0. -1.
         11   -1    0    0    0    0 -0.00000000000E+00 -0.00000000000E+00 -0.45593999997E+02  0.45594000000E+02  0.51100000000E-03 0.  1.
    9900012    2    1    2    0    0 -0.33091501022E+02  0.40749825588E+01 -0.30289612022E+02  0.46142317419E+02  0.99999968817E+01 0.  0.
         12    1    1    2    0    0  0.33091501022E+02 -0.40749825588E+01  0.30289612022E+02  0.45045682581E+02  0.00000000000E+00 0. -1.
         11    1    3    3    0    0 -0.90691174297E+01  0.27772867072E+01 -0.12024342358E+02  0.15314928071E+02  0.51100000000E-03 0. -1.
        -11    1    3    3    0    0 -0.83542460546E+01 -0.24258475772E+01 -0.71328139442E+01  0.11249675490E+02  0.51100000000E-03 0.  1.
        -12    1    3    3    0    0 -0.15668137538E+02  0.37235434288E+01 -0.11132455719E+02  0.19577713858E+02  0.00000000000E+00 0.  1.
</event>
<event>
 7    1  0.1385632E-008  0.4614232E+02  0.7816164E-02  0.1320468E+00
        -11   -1    0    0    0    0  0.00000000000E+00  0.00000000000E+00  0.45593999997E+02  0.45594000000E+02  0.51100000000E-03 0.  1.
         11   -1    0    0    0    0 -0.00000000000E+00 -0.00000000000E+00 -0.45593999997E+02  0.45594000000E+02  0.51100000000E-03 0. -1.
    9900012    2    1    2    0    0  0.24689890212E+02 -0.29147935786E+02  0.23873011402E+02  0.46142317491E+02  0.99999975405E+01 0.  0.
         12    1    1    2    0    0 -0.24689890212E+02  0.29147935786E+02 -0.23873011402E+02  0.45045682509E+02  0.00000000000E+00 0. -1.
         11    1    3    3    0    0  0.21790248230E+01 -0.61748228304E+01  0.61800024060E+01  0.90038334150E+01  0.51100000000E-03 0. -1.
        -11    1    3    3    0    0  0.18189910563E+02 -0.15028855287E+02  0.12293026268E+02  0.26605597769E+02  0.51100000000E-03 0.  1.
        -12    1    3    3    0    0  0.43209548258E+01 -0.79442576682E+01  0.53999827277E+01  0.10532886307E+02  0.00000000000E+00 0.  1.
</event>
<event>
 7    1  0.1385632E-008  0.4614232E+02  0.7816164E-02  0.1320468E+00
        -11   -1    0    0    0    0  0.00000000000E+00  0.00000000000E+00  0.45593999997E+02  0.45594000000E+02  0.51100000000E-03 0. -1.
         11   -1    0    0    0    0 -0.00000000000E+00 -0.00000000000E+00 -0.45593999997E+02  0.45594000000E+02  0.51100000000E-03 0.  1.
    9900012    2    1    2    0    0 -0.36195426800E+02 -0.26040679085E+02 -0.63943419120E+01  0.46142317666E+02  0.99999991342E+01 0.  0.
         12    1    1    2    0    0  0.36195426800E+02  0.26040679085E+02  0.63943419120E+01  0.45045682334E+02  0.00000000000E+00 0. -1.
         11    1    3    3    0    0 -0.17819572803E+01 -0.18608875731E+00 -0.13745824479E+01  0.22582023695E+01  0.51100000000E-03 0. -1.
        -11    1    3    3    0    0 -0.18204524736E+02 -0.93582081470E+01 -0.23511615353E+01  0.20603609912E+02  0.51100000000E-03 0.  1.
        -12    1    3    3    0    0 -0.16208944783E+02 -0.16496382181E+02 -0.26685979287E+01  0.23280505384E+02  0.00000000000E+00 0.  1.
</event>
<event>
 7    1  0.1385632E-008  0.4614232E+02  0.7816164E-02  0.1320468E+00
        -11   -1    0    0    0    0  0.00000000000E+00  0.00000000000E+00  0.45593999997E+02  0.45594000000E+02  0.51100000000E-03 0.  1.
         11   -1    0    0    0    0 -0.00000000000E+00 -0.00000000000E+00 -0.45593999997E+02  0.45594000000E+02  0.51100000000E-03 0. -1.
    9900012    2    1    2    0    0 -0.26963938801E+02 -0.36078729473E+02  0.62033080057E+00  0.46142317339E+02  0.99999961540E+01 0.  0.
         12    1    1    2    0    0  0.26963938801E+02  0.36078729473E+02 -0.62033080057E+00  0.45045682661E+02  0.00000000000E+00 0. -1.
         11    1    3    3    0    0 -0.19620825895E+02 -0.27452387701E+02 -0.29529311718E+01  0.33872263020E+02  0.51100000000E-03 0.  1.
        -11    1    3    3    0    0 -0.19010169084E+01 -0.57414479532E+00  0.26380049033E+00  0.20032719466E+01  0.51100000000E-03 0. -1.
         12    1    3    3    0    0 -0.54420959975E+01 -0.80521969767E+01  0.33094614821E+01  0.10266782373E+02  0.00000000000E+00 0. -1.
</event>
<event>
 7    1  0.1385632E-008  0.4614231E+02  0.7816164E-02  0.1320468E+00
        -11   -1    0    0    0    0  0.00000000000E+00  0.00000000000E+00  0.45593999997E+02  0.45594000000E+02  0.51100000000E-03 0.  1.
         11   -1    0    0    0    0 -0.00000000000E+00 -0.00000000000E+00 -0.45593999997E+02  0.45594000000E+02  0.51100000000E-03 0. -1.
    9900012    2    1    2    0    0 -0.38067613106E+01 -0.34874097386E+02  0.28256325983E+02  0.46142311436E+02  0.99999423187E+01 0.  0.
         12    1    1    2    0    0  0.38067613106E+01  0.34874097386E+02 -0.28256325983E+02  0.45045688564E+02  0.00000000000E+00 0. -1.
         11    1    3    3    0    0 -0.83801471431E+00 -0.19659409570E+02  0.12453286211E+02  0.23286884528E+02  0.51100000000E-03 0. -1.
        -11    1    3    3    0    0 -0.34220267771E+01 -0.52807716723E+01  0.41583460360E+01  0.75424570754E+01  0.51100000000E-03 0.  1.
         12    1    3    3    0    0  0.45328018083E+00 -0.99339161441E+01  0.11644693736E+02  0.15312969833E+02  0.00000000000E+00 0. -1.
</event>
<event>
 7    1  0.1385632E-008  0.4614232E+02  0.7816164E-02  0.1320468E+00
        -11   -1    0    0    0    0  0.00000000000E+00  0.00000000000E+00  0.45593999997E+02  0.45594000000E+02  0.51100000000E-03 0.  1.
         11   -1    0    0    0    0 -0.00000000000E+00 -0.00000000000E+00 -0.45593999997E+02  0.45594000000E+02  0.51100000000E-03 0. -1.
    9900012    2    1    2    0    0 -0.37964046409E+02  0.80390909288E+01  0.22873950183E+02  0.46142318746E+02  0.10000008982E+02 0.  0.
         12    1    1    2    0    0  0.37964046409E+02 -0.80390909288E+01 -0.22873950183E+02  0.45045681254E+02  0.00000000000E+00 0. -1.
         11    1    3    3    0    0 -0.98068923693E+00 -0.11625572567E+01  0.64377465055E+00  0.16515861517E+01  0.51100000000E-03 0. -1.
        -11    1    3    3    0    0 -0.18589508702E+02  0.61360934030E+01  0.14219469569E+02  0.24195346477E+02  0.51100000000E-03 0.  1.
         12    1    3    3    0    0 -0.18393848470E+02  0.30655547825E+01  0.80107059626E+01  0.20295386118E+02  0.00000000000E+00 0. -1.
</event>
<event>
 7    1  0.1385632E-008  0.4614232E+02  0.7816164E-02  0.1320468E+00
        -11   -1    0    0    0    0  0.00000000000E+00  0.00000000000E+00  0.45593999997E+02  0.45594000000E+02  0.51100000000E-03 0. -1.
         11   -1    0    0    0    0 -0.00000000000E+00 -0.00000000000E+00 -0.45593999997E+02  0.45594000000E+02  0.51100000000E-03 0.  1.
    9900012    2    1    2    0    0 -0.31320047866E+02 -0.26301576643E+02 -0.18878430509E+02  0.46142317957E+02  0.10000001786E+02 0.  0.
         12    1    1    2    0    0  0.31320047866E+02  0.26301576643E+02  0.18878430509E+02  0.45045682043E+02  0.00000000000E+00 0. -1.
         11    1    3    3    0    0 -0.81636938928E+01 -0.61599089128E+01 -0.83620172126E+01  0.13210363656E+02  0.51100000000E-03 0. -1.
        -11    1    3    3    0    0 -0.20133996332E+02 -0.19671523024E+02 -0.94418211879E+01  0.29689974974E+02  0.51100000000E-03 0.  1.
         12    1    3    3    0    0 -0.30223576411E+01 -0.47014470651E+00 -0.10745921084E+01  0.32419793268E+01  0.00000000000E+00 0. -1.
</event>
<event>
 7    1  0.1385632E-008  0.4614232E+02  0.7816164E-02  0.1320468E+00
        -11   -1    0    0    0    0  0.00000000000E+00  0.00000000000E+00  0.45593999997E+02  0.45594000000E+02  0.51100000000E-03 0. -1.
         11   -1    0    0    0    0 -0.00000000000E+00 -0.00000000000E+00 -0.45593999997E+02  0.45594000000E+02  0.51100000000E-03 0.  1.
    9900012    2    1    2    0    0  0.27351397724E+02  0.68928532474E+00 -0.35784625580E+02  0.46142317636E+02  0.99999988564E+01 0.  0.
         12    1    1    2    0    0 -0.27351397724E+02 -0.68928532474E+00  0.35784625580E+02  0.45045682364E+02  0.00000000000E+00 0. -1.
         11    1    3    3    0    0  0.39605217033E+00 -0.59536109269E+00  0.48227695446E-01  0.71668565218E+00  0.51100000000E-03 0. -1.
        -11    1    3    3    0    0  0.27148291533E+02  0.17724126282E+01 -0.34146202608E+02  0.43659298351E+02  0.51100000000E-03 0.  1.
        -12    1    3    3    0    0 -0.19294597872E+00 -0.48776621079E+00 -0.16866506675E+01  0.17663336325E+01  0.00000000000E+00 0.  1.
</event>
<event>
 7    1  0.1385632E-008  0.4614232E+02  0.7816164E-02  0.1320468E+00
        -11   -1    0    0    0    0  0.00000000000E+00  0.00000000000E+00  0.45593999997E+02  0.45594000000E+02  0.51100000000E-03 0.  1.
         11   -1    0    0    0    0 -0.00000000000E+00 -0.00000000000E+00 -0.45593999997E+02  0.45594000000E+02  0.51100000000E-03 0. -1.
    9900012    2    1    2    0    0  0.31978066314E+02  0.13190702782E+02  0.28853460883E+02  0.46142316855E+02  0.99999917382E+01 0.  0.
         12    1    1    2    0    0 -0.31978066314E+02 -0.13190702782E+02 -0.28853460883E+02  0.45045683145E+02  0.00000000000E+00 0. -1.
         11    1    3    3    0    0  0.71779933822E+01  0.47878236043E+01  0.52612403138E+01  0.10105814849E+02  0.51100000000E-03 0. -1.
        -11    1    3    3    0    0  0.11810082037E+01 -0.14110245604E+00  0.40256420839E+01  0.41976761106E+01  0.51100000000E-03 0.  1.
        -12    1    3    3    0    0  0.23619064728E+02  0.85439816336E+01  0.19566578486E+02  0.31838825896E+02  0.00000000000E+00 0.  1.
</event>
<event>
 7    1  0.1385632E-008  0.4614232E+02  0.7816164E-02  0.1320468E+00
        -11   -1    0    0    0    0  0.00000000000E+00  0.00000000000E+00  0.45593999997E+02  0.45594000000E+02  0.51100000000E-03 0. -1.
         11   -1    0    0    0    0 -0.00000000000E+00 -0.00000000000E+00 -0.45593999997E+02  0.45594000000E+02  0.51100000000E-03 0.  1.
    9900012    2    1    2    0    0 -0.59095774736E+01 -0.39355280789E+02 -0.21103375168E+02  0.46142315685E+02  0.99999810703E+01 0.  0.
         12    1    1    2    0    0  0.59095774736E+01  0.39355280789E+02  0.21103375168E+02  0.45045684315E+02  0.00000000000E+00 0. -1.
         11    1    3    3    0    0 -0.40212615407E+01 -0.96678167903E+01 -0.55517624319E+01  0.11851552313E+02  0.51100000000E-03 0. -1.
        -11    1    3    3    0    0 -0.26356256250E+01 -0.15623803867E+02 -0.47477123346E+01  0.16540572614E+02  0.51100000000E-03 0.  1.
        -12    1    3    3    0    0  0.74730969217E+00 -0.14063660132E+02 -0.10803900401E+02  0.17750190758E+02  0.00000000000E+00 0.  1.
</event>
<event>
 7    1  0.1385632E-008  0.4614232E+02  0.7816164E-02  0.1320468E+00
        -11   -1    0    0    0    0  0.00000000000E+00  0.00000000000E+00  0.45593999997E+02  0.45594000000E+02  0.51100000000E-03 0. -1.
         11   -1    0    0    0    0 -0.00000000000E+00 -0.00000000000E+00 -0.45593999997E+02  0.45594000000E+02  0.51100000000E-03 0.  1.
    9900012    2    1    2    0    0 -0.14966529649E+02 -0.37334220931E+02 -0.20279851895E+02  0.46142318130E+02  0.10000003360E+02 0.  0.
         12    1    1    2    0    0  0.14966529649E+02  0.37334220931E+02  0.20279851895E+02  0.45045681870E+02  0.00000000000E+00 0. -1.
         11    1    3    3    0    0 -0.34844696032E+01 -0.95728267802E+01 -0.79236023117E+01  0.12905968187E+02  0.51100000000E-03 0. -1.
        -11    1    3    3    0    0 -0.92632654045E+01 -0.26857310544E+02 -0.11878775090E+02  0.30793319300E+02  0.51100000000E-03 0.  1.
         12    1    3    3    0    0 -0.22187946417E+01 -0.90408360703E+00 -0.47747449276E+00  0.24430306428E+01  0.00000000000E+00 0. -1.
</event>
<event>
 7    1  0.1385632E-008  0.4614232E+02  0.7816164E-02  0.1320468E+00
        -11   -1    0    0    0    0  0.00000000000E+00  0.00000000000E+00  0.45593999997E+02  0.45594000000E+02  0.51100000000E-03 0.  1.
         11   -1    0    0    0    0 -0.00000000000E+00 -0.00000000000E+00 -0.45593999997E+02  0.45594000000E+02  0.51100000000E-03 0. -1.
    9900012    2    1    2    0    0 -0.43218163002E+02  0.74833627951E+01  0.10261733215E+02  0.46142317626E+02  0.99999987692E+01 0.  0.
         12    1    1    2    0    0  0.43218163002E+02 -0.74833627951E+01 -0.10261733215E+02  0.45045682374E+02  0.00000000000E+00 0. -1.
         11    1    3    3    0    0 -0.13346847352E+02 -0.19934166233E+01  0.47836119346E+01  0.14317646017E+02  0.51100000000E-03 0.  1.
        -11    1    3    3    0    0 -0.15097457167E+02  0.50974250959E+01  0.24843482504E+01  0.16127273235E+02  0.51100000000E-03 0. -1.
        -12    1    3    3    0    0 -0.14773858483E+02  0.43793543224E+01  0.29937730296E+01  0.15697398373E+02  0.00000000000E+00 0.  1.
</event>
<event>
 7    1  0.1385632E-008  0.4614232E+02  0.7816164E-02  0.1320468E+00
        -11   -1    0    0    0    0  0.00000000000E+00  0.00000000000E+00  0.45593999997E+02  0.45594000000E+02  0.51100000000E-03 0.  1.
         11   -1    0    0    0    0 -0.00000000000E+00 -0.00000000000E+00 -0.45593999997E+02  0.45594000000E+02  0.51100000000E-03 0. -1.
    9900012    2    1    2    0    0  0.39257096240E+02 -0.18621827322E+02  0.11883659961E+02  0.46142318386E+02  0.10000005700E+02 0.  0.
         12    1    1    2    0    0 -0.39257096240E+02  0.18621827322E+02 -0.11883659961E+02  0.45045681614E+02  0.00000000000E+00 0. -1.
         11    1    3    3    0    0  0.20208975838E+01 -0.20200673119E+01 -0.10367995360E+00  0.28592741706E+01  0.51100000000E-03 0. -1.
        -11    1    3    3    0    0  0.22310778262E+02 -0.14195835831E+02  0.68644023293E+01  0.27320552725E+02  0.51100000000E-03 0.  1.
        -12    1    3    3    0    0  0.14925420394E+02 -0.24059241795E+01  0.51229375849E+01  0.15962491491E+02  0.00000000000E+00 0.  1.
</event>
<event>
 7    1  0.1385632E-008  0.4614232E+02  0.7816164E-02  0.1320468E+00
        -11   -1    0    0    0    0  0.00000000000E+00  0.00000000000E+00  0.45593999997E+02  0.45594000000E+02  0.51100000000E-03 0.  1.
         11   -1    0    0    0    0 -0.00000000000E+00 -0.00000000000E+00 -0.45593999997E+02  0.45594000000E+02  0.51100000000E-03 0. -1.
    9900012    2    1    2    0    0  0.13905221968E+02 -0.25777021054E+02  0.34224310582E+02  0.46142318218E+02  0.10000004166E+02 0.  0.
         12    1    1    2    0    0 -0.13905221968E+02  0.25777021054E+02 -0.34224310582E+02  0.45045681782E+02  0.00000000000E+00 0. -1.
         11    1    3    3    0    0  0.75535236584E+01 -0.10232254746E+02  0.10835220494E+02  0.16707984925E+02  0.51100000000E-03 0. -1.
        -11    1    3    3    0    0  0.55799839903E+01 -0.14986505937E+02  0.18501477825E+02  0.24454779972E+02  0.51100000000E-03 0.  1.
         12    1    3    3    0    0  0.77171431915E+00 -0.55826037073E+00  0.48876122638E+01  0.49795533206E+01  0.00000000000E+00 0. -1.
</event>
<event>
 7    1  0.1385632E-008  0.4614232E+02  0.7816164E-02  0.1320468E+00
        -11   -1    0    0    0    0  0.00000000000E+00  0.00000000000E+00  0.45593999997E+02  0.45594000000E+02  0.51100000000E-03 0. -1.
         11   -1    0    0    0    0 -0.00000000000E+00 -0.00000000000E+00 -0.45593999997E+02  0.45594000000E+02  0.51100000000E-03 0.  1.
    9900012    2    1    2    0    0 -0.36982745839E+02  0.19162986954E+02  0.17151377365E+02  0.46142319804E+02  0.10000018628E+02 0.  0.
         12    1    1    2    0    0  0.36982745839E+02 -0.19162986954E+02 -0.17151377365E+02  0.45045680196E+02  0.00000000000E+00 0. -1.
         11    1    3    3    0    0 -0.11667944440E+02  0.46042624998E+01  0.58892729367E+01  0.13857261512E+02  0.51100000000E-03 0.  1.
        -11    1    3    3    0    0 -0.18562020929E+02  0.11407316485E+02  0.45525303892E+01  0.22257605971E+02  0.51100000000E-03 0. -1.
         12    1    3    3    0    0 -0.67527804706E+01  0.31514079697E+01  0.67095740391E+01  0.10027452322E+02  0.00000000000E+00 0. -1.
</event>
<event>
 7    1  0.1385632E-008  0.4614232E+02  0.7816164E-02  0.1320468E+00
        -11   -1    0    0    0    0  0.00000000000E+00  0.00000000000E+00  0.45593999997E+02  0.45594000000E+02  0.51100000000E-03 0.  1.
         11   -1    0    0    0    0 -0.00000000000E+00 -0.00000000000E+00 -0.45593999997E+02  0.45594000000E+02  0.51100000000E-03 0. -1.
    9900012    2    1    2    0    0  0.26636447117E+02 -0.71802296512E+01  0.35609797798E+02  0.46142315278E+02  0.99999773600E+01 0.  0.
         12    1    1    2    0    0 -0.26636447117E+02  0.71802296512E+01 -0.35609797798E+02  0.45045684722E+02  0.00000000000E+00 0. -1.
         11    1    3    3    0    0  0.21617751342E+02 -0.38658147029E+01  0.22242697038E+02  0.31257147474E+02  0.51100000000E-03 0. -1.
        -11    1    3    3    0    0  0.31835534835E+01 -0.62643625727E+00  0.75882444117E+01  0.82528109563E+01  0.51100000000E-03 0.  1.
         12    1    3    3    0    0  0.18351422909E+01 -0.26879786911E+01  0.57788563477E+01  0.66323568479E+01  0.00000000000E+00 0. -1.
</event>
<event>
 7    1  0.1385632E-008  0.4614232E+02  0.7816164E-02  0.1320468E+00
        -11   -1    0    0    0    0  0.00000000000E+00  0.00000000000E+00  0.45593999997E+02  0.45594000000E+02  0.51100000000E-03 0. -1.
         11   -1    0    0    0    0 -0.00000000000E+00 -0.00000000000E+00 -0.45593999997E+02  0.45594000000E+02  0.51100000000E-03 0.  1.
    9900012    2    1    2    0    0  0.34261377304E+02  0.21902158435E+02  0.19379548440E+02  0.46142318557E+02  0.10000007261E+02 0.  0.
         12    1    1    2    0    0 -0.34261377304E+02 -0.21902158435E+02 -0.19379548440E+02  0.45045681443E+02  0.00000000000E+00 0. -1.
         11    1    3    3    0    0  0.26192685296E+00  0.17428277163E+01  0.13143949006E+00  0.17672947478E+01  0.51100000000E-03 0. -1.
        -11    1    3    3    0    0  0.19300236960E+02  0.10320969141E+02  0.13771309918E+02  0.25858664464E+02  0.51100000000E-03 0.  1.
        -12    1    3    3    0    0  0.14699213491E+02  0.98383615779E+01  0.54767990319E+01  0.18516359346E+02  0.00000000000E+00 0.  1.
</event>
<event>
 7    1  0.1385632E-008  0.4614232E+02  0.7816164E-02  0.1320468E+00
        -11   -1    0    0    0    0  0.00000000000E+00  0.00000000000E+00  0.45593999997E+02  0.45594000000E+02  0.51100000000E-03 0. -1.
         11   -1    0    0    0    0 -0.00000000000E+00 -0.00000000000E+00 -0.45593999997E+02  0.45594000000E+02  0.51100000000E-03 0.  1.
    9900012    2    1    2    0    0  0.42602984199E+02  0.11267273577E+02 -0.93353012141E+01  0.46142316908E+02  0.99999922162E+01 0.  0.
         12    1    1    2    0    0 -0.42602984199E+02 -0.11267273577E+02  0.93353012141E+01  0.45045683092E+02  0.00000000000E+00 0. -1.
         11    1    3    3    0    0  0.30575000905E+02  0.95289102851E+01 -0.46291144925E+01  0.32358298979E+02  0.51100000000E-03 0. -1.
        -11    1    3    3    0    0  0.11050529211E+02  0.27755862018E+01 -0.35066441490E+01  0.11921184004E+02  0.51100000000E-03 0.  1.
         12    1    3    3    0    0  0.97745408321E+00 -0.10372229095E+01 -0.11995425726E+01  0.18628339251E+01  0.00000000000E+00 0. -1.
</event>
<event>
 7    1  0.1385632E-008  0.4614232E+02  0.7816164E-02  0.1320468E+00
        -11   -1    0    0    0    0  0.00000000000E+00  0.00000000000E+00  0.45593999997E+02  0.45594000000E+02  0.51100000000E-03 0.  1.
         11   -1    0    0    0    0 -0.00000000000E+00 -0.00000000000E+00 -0.45593999997E+02  0.45594000000E+02  0.51100000000E-03 0. -1.
    9900012    2    1    2    0    0 -0.27831466029E+02  0.20725063768E+02  0.28722714664E+02  0.46142321992E+02  0.10000038582E+02 0.  0.
         12    1    1    2    0    0  0.27831466029E+02 -0.20725063768E+02 -0.28722714664E+02  0.45045678008E+02  0.00000000000E+00 0. -1.
         11    1    3    3    0    0 -0.12058469033E+02  0.87600039140E+01  0.96344119259E+01  0.17747288170E+02  0.51100000000E-03 0.  1.
        -11    1    3    3    0    0 -0.14738204584E+02  0.99115869506E+01  0.13367388838E+02  0.22229289571E+02  0.51100000000E-03 0. -1.
         12    1    3    3    0    0 -0.10347924119E+01  0.20534729033E+01  0.57209139011E+01  0.61657442506E+01  0.00000000000E+00 0. -1.
</event>
<event>
 7    1  0.1385632E-008  0.4614232E+02  0.7816164E-02  0.1320468E+00
        -11   -1    0    0    0    0  0.00000000000E+00  0.00000000000E+00  0.45593999997E+02  0.45594000000E+02  0.51100000000E-03 0.  1.
         11   -1    0    0    0    0 -0.00000000000E+00 -0.00000000000E+00 -0.45593999997E+02  0.45594000000E+02  0.51100000000E-03 0. -1.
    9900012    2    1    2    0    0 -0.89520512988E+01  0.17466491534E+02  0.40544983652E+02  0.46142320425E+02  0.10000024294E+02 0.  0.
         12    1    1    2    0    0  0.89520512988E+01 -0.17466491534E+02 -0.40544983652E+02  0.45045679575E+02  0.00000000000E+00 0. -1.
         11    1    3    3    0    0  0.89875152267E-01 -0.84066892428E+00  0.21568077842E+01  0.23165970436E+01  0.51100000000E-03 0. -1.
        -11    1    3    3    0    0 -0.32742856757E+01  0.12527105874E+02  0.24665448144E+02  0.27857380721E+02  0.51100000000E-03 0.  1.
         12    1    3    3    0    0 -0.57676407754E+01  0.57800545851E+01  0.13722727724E+02  0.15968342660E+02  0.00000000000E+00 0. -1.
</event>
<event>
 7    1  0.1385632E-008  0.4614232E+02  0.7816164E-02  0.1320468E+00
        -11   -1    0    0    0    0  0.00000000000E+00  0.00000000000E+00  0.45593999997E+02  0.45594000000E+02  0.51100000000E-03 0.  1.
         11   -1    0    0    0    0 -0.00000000000E+00 -0.00000000000E+00 -0.45593999997E+02  0.45594000000E+02  0.51100000000E-03 0. -1.
    9900012    2    1    2    0    0 -0.23770944650E+02  0.37704416301E+02  0.65140373467E+01  0.46142317624E+02  0.99999987514E+01 0.  0.
         12    1    1    2    0    0  0.23770944650E+02 -0.37704416301E+02 -0.65140373467E+01  0.45045682376E+02  0.00000000000E+00 0. -1.
         11    1    3    3    0    0 -0.13975841896E+02  0.15422689815E+02  0.23539518561E+00  0.20814392352E+02  0.51100000000E-03 0. -1.
        -11    1    3    3    0    0 -0.80293009025E+01  0.18238053276E+02  0.63511913817E+01  0.20914920333E+02  0.51100000000E-03 0.  1.
         12    1    3    3    0    0 -0.17658018511E+01  0.40436732099E+01 -0.72549220626E-01  0.44130049394E+01  0.00000000000E+00 0. -1.
</event>
<event>
 7    1  0.1385632E-008  0.4614232E+02  0.7816164E-02  0.1320468E+00
        -11   -1    0    0    0    0  0.00000000000E+00  0.00000000000E+00  0.45593999997E+02  0.45594000000E+02  0.51100000000E-03 0.  1.
         11   -1    0    0    0    0 -0.00000000000E+00 -0.00000000000E+00 -0.45593999997E+02  0.45594000000E+02  0.51100000000E-03 0. -1.
    9900012    2    1    2    0    0  0.24456945126E+02  0.23288658761E+00  0.37827462410E+02  0.46142319703E+02  0.10000017706E+02 0.  0.
         12    1    1    2    0    0 -0.24456945126E+02 -0.23288658761E+00 -0.37827462410E+02  0.45045680297E+02  0.00000000000E+00 0. -1.
         11    1    3    3    0    0  0.14164042099E+01 -0.44030740242E+00  0.93415217909E+01  0.94585464594E+01  0.51100000000E-03 0. -1.
        -11    1    3    3    0    0  0.18788567707E+02  0.93617485817E+00  0.22336161260E+02  0.29202582077E+02  0.51100000000E-03 0.  1.
         12    1    3    3    0    0  0.42519732091E+01 -0.26298086813E+00  0.61497793584E+01  0.74811911662E+01  0.00000000000E+00 0. -1.
</event>
<event>
 7    1  0.1385632E-008  0.4614232E+02  0.7816164E-02  0.1320468E+00
        -11   -1    0    0    0    0  0.00000000000E+00  0.00000000000E+00  0.45593999997E+02  0.45594000000E+02  0.51100000000E-03 0.  1.
         11   -1    0    0    0    0 -0.00000000000E+00 -0.00000000000E+00 -0.45593999997E+02  0.45594000000E+02  0.51100000000E-03 0. -1.
    9900012    2    1    2    0    0  0.13354269390E+02  0.18998426309E+02  0.38598400419E+02  0.46142320651E+02  0.10000026350E+02 0.  0.
         12    1    1    2    0    0 -0.13354269390E+02 -0.18998426309E+02 -0.38598400419E+02  0.45045679349E+02  0.00000000000E+00 0. -1.
         11    1    3    3    0    0  0.53461058682E+01  0.15554297398E+01  0.58257280162E+01  0.80584934578E+01  0.51100000000E-03 0. -1.
        -11    1    3    3    0    0  0.68959266280E+01  0.12039405344E+02  0.23932654995E+02  0.27663569192E+02  0.51100000000E-03 0.  1.
         12    1    3    3    0    0  0.11122368940E+01  0.54035912244E+01  0.88400174079E+01  0.10420258001E+02  0.00000000000E+00 0. -1.
</event>
<event>
 7    1  0.1385632E-008  0.4614232E+02  0.7816164E-02  0.1320468E+00
        -11   -1    0    0    0    0  0.00000000000E+00  0.00000000000E+00  0.45593999997E+02  0.45594000000E+02  0.51100000000E-03 0.  1.
         11   -1    0    0    0    0 -0.00000000000E+00 -0.00000000000E+00 -0.45593999997E+02  0.45594000000E+02  0.51100000000E-03 0. -1.
    9900012    2    1    2    0    0  0.26765224504E+02  0.54215669388E+01  0.35823775053E+02  0.46142317744E+02  0.99999998428E+01 0.  0.
         12    1    1    2    0    0 -0.26765224504E+02 -0.54215669388E+01 -0.35823775053E+02  0.45045682256E+02  0.00000000000E+00 0. -1.
         11    1    3    3    0    0  0.17329392873E+02  0.46518886088E+01  0.23375545230E+02  0.29468017239E+02  0.51100000000E-03 0. -1.
        -11    1    3    3    0    0  0.65259229338E+01  0.25154393865E+01  0.10884724819E+02  0.12938019172E+02  0.51100000000E-03 0.  1.
         12    1    3    3    0    0  0.29099086979E+01 -0.17457610565E+01  0.15635050043E+01  0.37362813324E+01  0.00000000000E+00 0. -1.
</event>
<event>
 7    1  0.1385632E-008  0.4614232E+02  0.7816164E-02  0.1320468E+00
        -11   -1    0    0    0    0  0.00000000000E+00  0.00000000000E+00  0.45593999997E+02  0.45594000000E+02  0.51100000000E-03 0.  1.
         11   -1    0    0    0    0 -0.00000000000E+00 -0.00000000000E+00 -0.45593999997E+02  0.45594000000E+02  0.51100000000E-03 0. -1.
    9900012    2    1    2    0    0 -0.33888445796E+02 -0.15340518332E+02  0.25403842269E+02  0.46142318041E+02  0.10000002549E+02 0.  0.
         12    1    1    2    0    0  0.33888445796E+02  0.15340518332E+02 -0.25403842269E+02  0.45045681959E+02  0.00000000000E+00 0. -1.
         11    1    3    3    0    0 -0.98827871695E+01 -0.80484835850E+00  0.93969933033E+01  0.13660920413E+02  0.51100000000E-03 0. -1.
        -11    1    3    3    0    0 -0.23717393148E+02 -0.14043556775E+02  0.16072870615E+02  0.31907262413E+02  0.51100000000E-03 0.  1.
        -12    1    3    3    0    0 -0.28826547784E+00 -0.49211319909E+00 -0.66021649613E-01  0.57413521460E+00  0.00000000000E+00 0.  1.
</event>
<event>
 7    1  0.1385632E-008  0.4614232E+02  0.7816164E-02  0.1320468E+00
        -11   -1    0    0    0    0  0.00000000000E+00  0.00000000000E+00  0.45593999997E+02  0.45594000000E+02  0.51100000000E-03 0. -1.
         11   -1    0    0    0    0 -0.00000000000E+00 -0.00000000000E+00 -0.45593999997E+02  0.45594000000E+02  0.51100000000E-03 0.  1.
    9900012    2    1    2    0    0 -0.37252695634E+02 -0.22523012062E+02  0.11578608534E+02  0.46142316745E+02  0.99999907338E+01 0.  0.
         12    1    1    2    0    0  0.37252695634E+02  0.22523012062E+02 -0.11578608534E+02  0.45045683255E+02  0.00000000000E+00 0. -1.
         11    1    3    3    0    0 -0.12327507241E-01 -0.10504261554E+01  0.34169103962E+00  0.11046719436E+01  0.51100000000E-03 0. -1.
        -11    1    3    3    0    0 -0.32782866555E+00  0.44475418408E+00 -0.23770749097E+00  0.60148402356E+00  0.51100000000E-03 0.  1.
        -12    1    3    3    0    0 -0.36912539461E+02 -0.21917340091E+02  0.11474624985E+02  0.44436160778E+02  0.00000000000E+00 0.  1.
</event>
<event>
 7    1  0.1385632E-008  0.4614232E+02  0.7816164E-02  0.1320468E+00
        -11   -1    0    0    0    0  0.00000000000E+00  0.00000000000E+00  0.45593999997E+02  0.45594000000E+02  0.51100000000E-03 0.  1.
         11   -1    0    0    0    0 -0.00000000000E+00 -0.00000000000E+00 -0.45593999997E+02  0.45594000000E+02  0.51100000000E-03 0. -1.
    9900012    2    1    2    0    0 -0.22329058385E+02 -0.39117463966E+02  0.59218859691E+00  0.46142317378E+02  0.99999965101E+01 0.  0.
         12    1    1    2    0    0  0.22329058385E+02  0.39117463966E+02 -0.59218859691E+00  0.45045682622E+02  0.00000000000E+00 0. -1.
         11    1    3    3    0    0 -0.53685054819E+01 -0.16398911259E+02  0.16689701321E+01  0.17335818503E+02  0.51100000000E-03 0. -1.
        -11    1    3    3    0    0 -0.11849588762E+02 -0.19245765045E+02 -0.10877060670E+01  0.22627313821E+02  0.51100000000E-03 0.  1.
         12    1    3    3    0    0 -0.51109641411E+01 -0.34727876621E+01  0.10924531775E-01  0.61791850549E+01  0.00000000000E+00 0. -1.
</event>
<event>
 7    1  0.1385632E-008  0.4614232E+02  0.7816164E-02  0.1320468E+00
        -11   -1    0    0    0    0  0.00000000000E+00  0.00000000000E+00  0.45593999997E+02  0.45594000000E+02  0.51100000000E-03 0.  1.
         11   -1    0    0    0    0 -0.00000000000E+00 -0.00000000000E+00 -0.45593999997E+02  0.45594000000E+02  0.51100000000E-03 0. -1.
    9900012    2    1    2    0    0  0.14599909024E+02 -0.36189980814E+02  0.22499810266E+02  0.46142317446E+02  0.99999971248E+01 0.  0.
         12    1    1    2    0    0 -0.14599909024E+02  0.36189980814E+02 -0.22499810266E+02  0.45045682554E+02  0.00000000000E+00 0. -1.
         11    1    3    3    0    0  0.99355203813E+01 -0.21614620314E+02  0.15135868956E+02  0.28195760424E+02  0.51100000000E-03 0.  1.
        -11    1    3    3    0    0  0.42836088871E+01 -0.11279252443E+02  0.29430630732E+01  0.12419036246E+02  0.51100000000E-03 0. -1.
        -12    1    3    3    0    0  0.38077975520E+00 -0.32961080560E+01  0.44208782368E+01  0.55275207755E+01  0.00000000000E+00 0.  1.
</event>
<event>
 7    1  0.1385632E-008  0.4614232E+02  0.7816164E-02  0.1320468E+00
        -11   -1    0    0    0    0  0.00000000000E+00  0.00000000000E+00  0.45593999997E+02  0.45594000000E+02  0.51100000000E-03 0. -1.
         11   -1    0    0    0    0 -0.00000000000E+00 -0.00000000000E+00 -0.45593999997E+02  0.45594000000E+02  0.51100000000E-03 0.  1.
    9900012    2    1    2    0    0 -0.90320508734E+00  0.20260922326E+02 -0.40221794175E+02  0.46142317858E+02  0.10000000886E+02 0.  0.
         12    1    1    2    0    0  0.90320508734E+00 -0.20260922326E+02  0.40221794175E+02  0.45045682142E+02  0.00000000000E+00 0. -1.
         11    1    3    3    0    0 -0.93973373802E+00  0.31942384953E+00 -0.27905093173E+00  0.10310192906E+01  0.51100000000E-03 0. -1.
        -11    1    3    3    0    0  0.25968248539E+01  0.62358457338E+01 -0.98287594076E+01  0.11926180574E+02  0.51100000000E-03 0.  1.
        -12    1    3    3    0    0 -0.25602962032E+01  0.13705652743E+02 -0.30113983836E+02  0.33185117993E+02  0.00000000000E+00 0.  1.
</event>
<event>
 7    1  0.1385632E-008  0.4614230E+02  0.7816164E-02  0.1320468E+00
        -11   -1    0    0    0    0  0.00000000000E+00  0.00000000000E+00  0.45593999997E+02  0.45594000000E+02  0.51100000000E-03 0. -1.
         11   -1    0    0    0    0 -0.00000000000E+00 -0.00000000000E+00 -0.45593999997E+02  0.45594000000E+02  0.51100000000E-03 0.  1.
    9900012    2    1    2    0    0 -0.22180853872E+02 -0.38006265093E+02 -0.96254021256E+01  0.46142302859E+02  0.99998641111E+01 0.  0.
         12    1    1    2    0    0  0.22180853872E+02  0.38006265093E+02  0.96254021256E+01  0.45045697141E+02  0.00000000000E+00 0. -1.
         11    1    3    3    0    0 -0.22539248695E+01 -0.25616370348E+01  0.14432767914E+01  0.37047550220E+01  0.51100000000E-03 0. -1.
        -11    1    3    3    0    0 -0.13723744051E+02 -0.21535991348E+02 -0.48812351358E+01  0.25999356354E+02  0.51100000000E-03 0.  1.
         12    1    3    3    0    0 -0.62031849512E+01 -0.13908636711E+02 -0.61874437812E+01  0.16438191483E+02  0.00000000000E+00 0. -1.
</event>
<event>
 7    1  0.1385632E-008  0.4614232E+02  0.7816164E-02  0.1320468E+00
        -11   -1    0    0    0    0  0.00000000000E+00  0.00000000000E+00  0.45593999997E+02  0.45594000000E+02  0.51100000000E-03 0.  1.
         11   -1    0    0    0    0 -0.00000000000E+00 -0.00000000000E+00 -0.45593999997E+02  0.45594000000E+02  0.51100000000E-03 0. -1.
    9900012    2    1    2    0    0  0.62422197709E+01 -0.38146911410E+02  0.23129235395E+02  0.46142315548E+02  0.99999798163E+01 0.  0.
         12    1    1    2    0    0 -0.62422197709E+01  0.38146911410E+02 -0.23129235395E+02  0.45045684452E+02  0.00000000000E+00 0. -1.
         11    1    3    3    0    0  0.42720701691E+01 -0.19859805243E+02  0.79464962726E+01  0.21813052311E+02  0.51100000000E-03 0.  1.
        -11    1    3    3    0    0  0.27957077515E+01 -0.12295052104E+02  0.12352126544E+02  0.17651042986E+02  0.51100000000E-03 0. -1.
         12    1    3    3    0    0 -0.82555814969E+00 -0.59920540628E+01  0.28306125782E+01  0.66782202508E+01  0.00000000000E+00 0. -1.
</event>
<event>
 7    1  0.1385632E-008  0.4614232E+02  0.7816164E-02  0.1320468E+00
        -11   -1    0    0    0    0  0.00000000000E+00  0.00000000000E+00  0.45593999997E+02  0.45594000000E+02  0.51100000000E-03 0.  1.
         11   -1    0    0    0    0 -0.00000000000E+00 -0.00000000000E+00 -0.45593999997E+02  0.45594000000E+02  0.51100000000E-03 0. -1.
    9900012    2    1    2    0    0  0.25671311067E+02  0.13091933236E+02  0.34622226803E+02  0.46142317448E+02  0.99999971450E+01 0.  0.
         12    1    1    2    0    0 -0.25671311067E+02 -0.13091933236E+02 -0.34622226803E+02  0.45045682552E+02  0.00000000000E+00 0. -1.
         11    1    3    3    0    0  0.54988380624E+01  0.56710133924E-01  0.56616111346E+01  0.78926723596E+01  0.51100000000E-03 0. -1.
        -11    1    3    3    0    0  0.10909153925E+02  0.88106321284E+01  0.11944747738E+02  0.18420474387E+02  0.51100000000E-03 0.  1.
         12    1    3    3    0    0  0.92633190798E+01  0.42245909737E+01  0.17015867931E+02  0.19829170702E+02  0.00000000000E+00 0. -1.
</event>
<event>
 7    1  0.1385632E-008  0.4614232E+02  0.7816164E-02  0.1320468E+00
        -11   -1    0    0    0    0  0.00000000000E+00  0.00000000000E+00  0.45593999997E+02  0.45594000000E+02  0.51100000000E-03 0. -1.
         11   -1    0    0    0    0 -0.00000000000E+00 -0.00000000000E+00 -0.45593999997E+02  0.45594000000E+02  0.51100000000E-03 0.  1.
    9900012    2    1    2    0    0 -0.34383952335E+02 -0.18515962855E+01 -0.29041844953E+02  0.46142319349E+02  0.10000014483E+02 0.  0.
         12    1    1    2    0    0  0.34383952335E+02  0.18515962855E+01  0.29041844953E+02  0.45045680651E+02  0.00000000000E+00 0. -1.
         11    1    3    3    0    0 -0.43757876649E+01 -0.16265722923E+01 -0.83261270603E+00  0.47419931769E+01  0.51100000000E-03 0. -1.
        -11    1    3    3    0    0 -0.14030764313E+02 -0.85689478844E+00 -0.10535746308E+02  0.17566973741E+02  0.51100000000E-03 0.  1.
         12    1    3    3    0    0 -0.15977400357E+02  0.63187079525E+00 -0.17673485939E+02  0.23833352431E+02  0.00000000000E+00 0. -1.
</event>
<event>
 7    1  0.1385632E-008  0.4614232E+02  0.7816164E-02  0.1320468E+00
        -11   -1    0    0    0    0  0.00000000000E+00  0.00000000000E+00  0.45593999997E+02  0.45594000000E+02  0.51100000000E-03 0.  1.
         11   -1    0    0    0    0 -0.00000000000E+00 -0.00000000000E+00 -0.45593999997E+02  0.45594000000E+02  0.51100000000E-03 0. -1.
    9900012    2    1    2    0    0  0.13224506191E+02 -0.43009828956E+02 -0.20929764723E+01  0.46142317617E+02  0.99999986895E+01 0.  0.
         12    1    1    2    0    0 -0.13224506191E+02  0.43009828956E+02  0.20929764723E+01  0.45045682383E+02  0.00000000000E+00 0. -1.
         11    1    3    3    0    0  0.92324787248E-01  0.28994675160E+00  0.71336837092E+00  0.77555636730E+00  0.51100000000E-03 0. -1.
        -11    1    3    3    0    0  0.42369475416E+01 -0.13896440571E+02 -0.99526825927E-01  0.14528340954E+02  0.51100000000E-03 0.  1.
         12    1    3    3    0    0  0.88952338620E+01 -0.29403335136E+02 -0.27068180173E+01  0.30838420296E+02  0.00000000000E+00 0. -1.
</event>
<event>
 7    1  0.1385632E-008  0.4614232E+02  0.7816164E-02  0.1320468E+00
        -11   -1    0    0    0    0  0.00000000000E+00  0.00000000000E+00  0.45593999997E+02  0.45594000000E+02  0.51100000000E-03 0.  1.
         11   -1    0    0    0    0 -0.00000000000E+00 -0.00000000000E+00 -0.45593999997E+02  0.45594000000E+02  0.51100000000E-03 0. -1.
    9900012    2    1    2    0    0 -0.16687710814E+02 -0.41799302670E+02 -0.18579711920E+01  0.46142318155E+02  0.10000003596E+02 0.  0.
         12    1    1    2    0    0  0.16687710814E+02  0.41799302670E+02  0.18579711920E+01  0.45045681845E+02  0.00000000000E+00 0. -1.
         11    1    3    3    0    0 -0.21545932401E+01 -0.83756487379E+01 -0.12563434039E+01  0.87391168215E+01  0.51100000000E-03 0. -1.
        -11    1    3    3    0    0 -0.11269786340E+02 -0.29089300660E+02 -0.32516881218E+01  0.31365091630E+02  0.51100000000E-03 0.  1.
        -12    1    3    3    0    0 -0.32633312339E+01 -0.43343532718E+01  0.26500603338E+01  0.60381097042E+01  0.00000000000E+00 0.  1.
</event>
<event>
 7    1  0.1385632E-008  0.4614232E+02  0.7816164E-02  0.1320468E+00
        -11   -1    0    0    0    0  0.00000000000E+00  0.00000000000E+00  0.45593999997E+02  0.45594000000E+02  0.51100000000E-03 0.  1.
         11   -1    0    0    0    0 -0.00000000000E+00 -0.00000000000E+00 -0.45593999997E+02  0.45594000000E+02  0.51100000000E-03 0. -1.
    9900012    2    1    2    0    0  0.17250406936E+02 -0.12459419049E+02  0.39702641440E+02  0.46142318744E+02  0.10000008958E+02 0.  0.
         12    1    1    2    0    0 -0.17250406936E+02  0.12459419049E+02 -0.39702641440E+02  0.45045681256E+02  0.00000000000E+00 0. -1.
         11    1    3    3    0    0  0.78966155334E+00 -0.29374687659E+01  0.31012736245E+01  0.43439827894E+01  0.51100000000E-03 0. -1.
        -11    1    3    3    0    0  0.35307916487E+01 -0.20307119326E+01  0.14921163478E+02  0.15467107048E+02  0.51100000000E-03 0.  1.
        -12    1    3    3    0    0  0.12929953734E+02 -0.74912383505E+01  0.21680204338E+02  0.26331228906E+02  0.00000000000E+00 0.  1.
</event>
<event>
 7    1  0.1385632E-008  0.4614231E+02  0.7816164E-02  0.1320468E+00
        -11   -1    0    0    0    0  0.00000000000E+00  0.00000000000E+00  0.45593999997E+02  0.45594000000E+02  0.51100000000E-03 0.  1.
         11   -1    0    0    0    0 -0.00000000000E+00 -0.00000000000E+00 -0.45593999997E+02  0.45594000000E+02  0.51100000000E-03 0. -1.
    9900012    2    1    2    0    0  0.26300998528E+02  0.33327919551E+02  0.15053945203E+02  0.46142311956E+02  0.99999470649E+01 0.  0.
         12    1    1    2    0    0 -0.26300998528E+02 -0.33327919551E+02 -0.15053945203E+02  0.45045688044E+02  0.00000000000E+00 0. -1.
         11    1    3    3    0    0  0.87397978521E+01  0.88306102769E+01  0.66598934826E+01  0.14096734580E+02  0.51100000000E-03 0. -1.
        -11    1    3    3    0    0 -0.19330280611E+00  0.31656101007E+01  0.76424239123E+00  0.32622875376E+01  0.51100000000E-03 0.  1.
        -12    1    3    3    0    0  0.17754503482E+02  0.21331699173E+02  0.76298093288E+01  0.28783289838E+02  0.00000000000E+00 0.  1.
</event>
<event>
 7    1  0.1385632E-008  0.4614232E+02  0.7816164E-02  0.1320468E+00
        -11   -1    0    0    0    0  0.00000000000E+00  0.00000000000E+00  0.45593999997E+02  0.45594000000E+02  0.51100000000E-03 0.  1.
         11   -1    0    0    0    0 -0.00000000000E+00 -0.00000000000E+00 -0.45593999997E+02  0.45594000000E+02  0.51100000000E-03 0. -1.
    9900012    2    1    2    0    0  0.98001412083E+01  0.24660449881E+02  0.36399626684E+02  0.46142318978E+02  0.10000011092E+02 0.  0.
         12    1    1    2    0    0 -0.98001412083E+01 -0.24660449881E+02 -0.36399626684E+02  0.45045681022E+02  0.00000000000E+00 0. -1.
         11    1    3    3    0    0  0.47374621696E+00  0.49482819465E+01  0.11428708283E+02  0.12462957233E+02  0.51100000000E-03 0. -1.
        -11    1    3    3    0    0 -0.41276756010E+00  0.34686567810E+01  0.25224163420E+01  0.43086588849E+01  0.51100000000E-03 0.  1.
         12    1    3    3    0    0  0.97391625514E+01  0.16243511153E+02  0.22448502059E+02  0.29370702860E+02  0.00000000000E+00 0. -1.
</event>
<event>
 7    1  0.1385632E-008  0.4614232E+02  0.7816164E-02  0.1320468E+00
        -11   -1    0    0    0    0  0.00000000000E+00  0.00000000000E+00  0.45593999997E+02  0.45594000000E+02  0.51100000000E-03 0.  1.
         11   -1    0    0    0    0 -0.00000000000E+00 -0.00000000000E+00 -0.45593999997E+02  0.45594000000E+02  0.51100000000E-03 0. -1.
    9900012    2    1    2    0    0 -0.41395402067E+02 -0.17707924893E+02 -0.14012713008E+01  0.46142317881E+02  0.10000001090E+02 0.  0.
         12    1    1    2    0    0  0.41395402067E+02  0.17707924893E+02  0.14012713008E+01  0.45045682119E+02  0.00000000000E+00 0. -1.
         11    1    3    3    0    0 -0.93042436419E+01 -0.53428002712E+01 -0.32281991719E+01  0.11204273053E+02  0.51100000000E-03 0. -1.
        -11    1    3    3    0    0 -0.16796484245E+02 -0.56393948557E+01  0.37783783485E+01  0.18116313106E+02  0.51100000000E-03 0.  1.
        -12    1    3    3    0    0 -0.15294674181E+02 -0.67257297659E+01 -0.19514504775E+01  0.16821731722E+02  0.00000000000E+00 0.  1.
</event>
<event>
 7    1  0.1385632E-008  0.4614232E+02  0.7816164E-02  0.1320468E+00
        -11   -1    0    0    0    0  0.00000000000E+00  0.00000000000E+00  0.45593999997E+02  0.45594000000E+02  0.51100000000E-03 0. -1.
         11   -1    0    0    0    0 -0.00000000000E+00 -0.00000000000E+00 -0.45593999997E+02  0.45594000000E+02  0.51100000000E-03 0.  1.
    9900012    2    1    2    0    0 -0.15186743837E+02 -0.42372035704E+02  0.17569597137E+01  0.46142317571E+02  0.99999982669E+01 0.  0.
         12    1    1    2    0    0  0.15186743837E+02  0.42372035704E+02 -0.17569597137E+01  0.45045682429E+02  0.00000000000E+00 0. -1.
         11    1    3    3    0    0  0.39295723396E+00 -0.75889131263E+01 -0.79282991857E+00  0.76403270458E+01  0.51100000000E-03 0. -1.
        -11    1    3    3    0    0 -0.47139195908E+01 -0.12895939817E+02 -0.11882919659E+01  0.13781811917E+02  0.51100000000E-03 0.  1.
         12    1    3    3    0    0 -0.10865781480E+02 -0.21887182761E+02  0.37380815982E+01  0.24720178608E+02  0.00000000000E+00 0. -1.
</event>
<event>
 7    1  0.1385632E-008  0.4614232E+02  0.7816164E-02  0.1320468E+00
        -11   -1    0    0    0    0  0.00000000000E+00  0.00000000000E+00  0.45593999997E+02  0.45594000000E+02  0.51100000000E-03 0. -1.
         11   -1    0    0    0    0 -0.00000000000E+00 -0.00000000000E+00 -0.45593999997E+02  0.45594000000E+02  0.51100000000E-03 0.  1.
    9900012    2    1    2    0    0 -0.44022609700E+02 -0.80116625715E+00 -0.95121750262E+01  0.46142317567E+02  0.99999982295E+01 0.  0.
         12    1    1    2    0    0  0.44022609700E+02  0.80116625715E+00  0.95121750262E+01  0.45045682433E+02  0.00000000000E+00 0. -1.
         11    1    3    3    0    0 -0.40052664911E+01 -0.22454120587E+01  0.21390115159E+00  0.45967150164E+01  0.51100000000E-03 0. -1.
        -11    1    3    3    0    0 -0.21820699541E+02  0.84599625132E-02 -0.78772472576E+01  0.23199009131E+02  0.51100000000E-03 0.  1.
        -12    1    3    3    0    0 -0.18196643667E+02  0.14357858391E+01 -0.18488289202E+01  0.18346593420E+02  0.00000000000E+00 0.  1.
</event>
<event>
 7    1  0.1385632E-008  0.4614232E+02  0.7816164E-02  0.1320468E+00
        -11   -1    0    0    0    0  0.00000000000E+00  0.00000000000E+00  0.45593999997E+02  0.45594000000E+02  0.51100000000E-03 0.  1.
         11   -1    0    0    0    0 -0.00000000000E+00 -0.00000000000E+00 -0.45593999997E+02  0.45594000000E+02  0.51100000000E-03 0. -1.
    9900012    2    1    2    0    0 -0.40057838138E+01  0.76433934404E+01  0.44211376030E+02  0.46142317214E+02  0.99999950082E+01 0.  0.
         12    1    1    2    0    0  0.40057838138E+01 -0.76433934404E+01 -0.44211376030E+02  0.45045682786E+02  0.00000000000E+00 0. -1.
         11    1    3    3    0    0  0.57399456373E+00 -0.15474063583E+01  0.20640600001E+01  0.26427788674E+01  0.51100000000E-03 0. -1.
        -11    1    3    3    0    0 -0.62285049404E+00  0.48294948472E+01  0.18537672503E+02  0.19166566341E+02  0.51100000000E-03 0.  1.
         12    1    3    3    0    0 -0.39569278835E+01  0.43613049514E+01  0.23609643527E+02  0.24332972006E+02  0.00000000000E+00 0. -1.
</event>
<event>
 7    1  0.1385632E-008  0.4614232E+02  0.7816164E-02  0.1320468E+00
        -11   -1    0    0    0    0  0.00000000000E+00  0.00000000000E+00  0.45593999997E+02  0.45594000000E+02  0.51100000000E-03 0.  1.
         11   -1    0    0    0    0 -0.00000000000E+00 -0.00000000000E+00 -0.45593999997E+02  0.45594000000E+02  0.51100000000E-03 0. -1.
    9900012    2    1    2    0    0 -0.35813736498E+02 -0.53795693872E+01  0.26787127132E+02  0.46142315759E+02  0.99999817473E+01 0.  0.
         12    1    1    2    0    0  0.35813736498E+02  0.53795693872E+01 -0.26787127132E+02  0.45045684241E+02  0.00000000000E+00 0. -1.
         11    1    3    3    0    0 -0.13551561312E+02  0.15648721087E+00  0.12345411441E+02  0.18332443540E+02  0.51100000000E-03 0. -1.
        -11    1    3    3    0    0 -0.45173620804E+01 -0.13184310773E+01  0.27253100261E+00  0.47137134066E+01  0.51100000000E-03 0.  1.
        -12    1    3    3    0    0 -0.17744813105E+02 -0.42176255208E+01  0.14169184688E+02  0.23096158813E+02  0.00000000000E+00 0.  1.
</event>
<event>
 7    1  0.1385632E-008  0.4614232E+02  0.7816164E-02  0.1320468E+00
        -11   -1    0    0    0    0  0.00000000000E+00  0.00000000000E+00  0.45593999997E+02  0.45594000000E+02  0.51100000000E-03 0. -1.
         11   -1    0    0    0    0 -0.00000000000E+00 -0.00000000000E+00 -0.45593999997E+02  0.45594000000E+02  0.51100000000E-03 0.  1.
    9900012    2    1    2    0    0 -0.11122630904E+02 -0.25666336841E+02 -0.35307785848E+02  0.46142317559E+02  0.99999981565E+01 0.  0.
         12    1    1    2    0    0  0.11122630904E+02  0.25666336841E+02  0.35307785848E+02  0.45045682441E+02  0.00000000000E+00 0. -1.
         11    1    3    3    0    0 -0.13065290054E+01 -0.12127567408E+02 -0.10137820550E+02  0.15860653046E+02  0.51100000000E-03 0. -1.
        -11    1    3    3    0    0 -0.81690882370E+01 -0.12273336015E+02 -0.21615235146E+02  0.26164616761E+02  0.51100000000E-03 0.  1.
         12    1    3    3    0    0 -0.16470136618E+01 -0.12654334176E+01 -0.35547301524E+01  0.41170477521E+01  0.00000000000E+00 0. -1.
</event>
<event>
 7    1  0.1385632E-008  0.4614232E+02  0.7816164E-02  0.1320468E+00
        -11   -1    0    0    0    0  0.00000000000E+00  0.00000000000E+00  0.45593999997E+02  0.45594000000E+02  0.51100000000E-03 0.  1.
         11   -1    0    0    0    0 -0.00000000000E+00 -0.00000000000E+00 -0.45593999997E+02  0.45594000000E+02  0.51100000000E-03 0. -1.
    9900012    2    1    2    0    0 -0.37391415535E+02  0.26160824291E+01  0.24983029181E+02  0.46142316632E+02  0.99999897062E+01 0.  0.
         12    1    1    2    0    0  0.37391415535E+02 -0.26160824291E+01 -0.24983029181E+02  0.45045683368E+02  0.00000000000E+00 0. -1.
         11    1    3    3    0    0 -0.30996295522E+02 -0.17168138422E+00  0.17851539740E+02  0.35769781687E+02  0.51100000000E-03 0.  1.
        -11    1    3    3    0    0  0.80882699177E-01  0.73193165169E+00  0.75197349703E+00  0.10524876983E+01  0.51100000000E-03 0. -1.
        -12    1    3    3    0    0 -0.64760027129E+01  0.20558321617E+01  0.63795159435E+01  0.93200472471E+01  0.00000000000E+00 0.  1.
</event>
<event>
 7    1  0.1385632E-008  0.4614232E+02  0.7816164E-02  0.1320468E+00
        -11   -1    0    0    0    0  0.00000000000E+00  0.00000000000E+00  0.45593999997E+02  0.45594000000E+02  0.51100000000E-03 0. -1.
         11   -1    0    0    0    0 -0.00000000000E+00 -0.00000000000E+00 -0.45593999997E+02  0.45594000000E+02  0.51100000000E-03 0.  1.
    9900012    2    1    2    0    0  0.37448985046E+02  0.12282655123E+02  0.21813377078E+02  0.46142317439E+02  0.99999970603E+01 0.  0.
         12    1    1    2    0    0 -0.37448985046E+02 -0.12282655123E+02 -0.21813377078E+02  0.45045682561E+02  0.00000000000E+00 0. -1.
         11    1    3    3    0    0  0.33004830898E+02  0.91481287100E+01  0.20049758561E+02  0.39686268911E+02  0.51100000000E-03 0. -1.
        -11    1    3    3    0    0  0.48907231565E+01  0.27533006563E+01  0.17062123549E+01  0.58660888468E+01  0.51100000000E-03 0.  1.
         12    1    3    3    0    0 -0.44656900851E+00  0.38122575688E+00  0.57406162468E-01  0.58995968045E+00  0.00000000000E+00 0. -1.
</event>
<event>
 7    1  0.1385632E-008  0.4614231E+02  0.7816164E-02  0.1320468E+00
        -11   -1    0    0    0    0  0.00000000000E+00  0.00000000000E+00  0.45593999997E+02  0.45594000000E+02  0.51100000000E-03 0.  1.
         11   -1    0    0    0    0 -0.00000000000E+00 -0.00000000000E+00 -0.45593999997E+02  0.45594000000E+02  0.51100000000E-03 0. -1.
    9900012    2    1    2    0    0 -0.20052721314E+02  0.20916072164E+02  0.34489421663E+02  0.46142313042E+02  0.99999569683E+01 0.  0.
         12    1    1    2    0    0  0.20052721314E+02 -0.20916072164E+02 -0.34489421663E+02  0.45045686958E+02  0.00000000000E+00 0. -1.
         11    1    3    3    0    0 -0.41043840171E+01  0.38429279925E+01  0.31729078155E+01  0.64561140001E+01  0.51100000000E-03 0. -1.
        -11    1    3    3    0    0  0.48889561791E+00  0.67917768663E+00  0.27582678468E+01  0.28824196487E+01  0.51100000000E-03 0.  1.
        -12    1    3    3    0    0 -0.16437232915E+02  0.16393966485E+02  0.28558246001E+02  0.36803779393E+02  0.00000000000E+00 0.  1.
</event>
<event>
 7    1  0.1385632E-008  0.4614232E+02  0.7816164E-02  0.1320468E+00
        -11   -1    0    0    0    0  0.00000000000E+00  0.00000000000E+00  0.45593999997E+02  0.45594000000E+02  0.51100000000E-03 0.  1.
         11   -1    0    0    0    0 -0.00000000000E+00 -0.00000000000E+00 -0.45593999997E+02  0.45594000000E+02  0.51100000000E-03 0. -1.
    9900012    2    1    2    0    0 -0.13957497144E+02 -0.25669463590E+02  0.34283821532E+02  0.46142317562E+02  0.99999981819E+01 0.  0.
         12    1    1    2    0    0  0.13957497144E+02  0.25669463590E+02 -0.34283821532E+02  0.45045682438E+02  0.00000000000E+00 0. -1.
         11    1    3    3    0    0 -0.11824482469E+02 -0.14317301428E+02  0.18345650263E+02  0.26102995799E+02  0.51100000000E-03 0. -1.
        -11    1    3    3    0    0 -0.17502069322E+01 -0.64418385427E+01  0.12005922420E+02  0.13736909461E+02  0.51100000000E-03 0.  1.
        -12    1    3    3    0    0 -0.38280774195E+00 -0.49103236197E+01  0.39322488479E+01  0.63024123016E+01  0.00000000000E+00 0.  1.
</event>
<event>
 7    1  0.1385632E-008  0.4614232E+02  0.7816164E-02  0.1320468E+00
        -11   -1    0    0    0    0  0.00000000000E+00  0.00000000000E+00  0.45593999997E+02  0.45594000000E+02  0.51100000000E-03 0. -1.
         11   -1    0    0    0    0 -0.00000000000E+00 -0.00000000000E+00 -0.45593999997E+02  0.45594000000E+02  0.51100000000E-03 0.  1.
    9900012    2    1    2    0    0  0.25284079924E+02  0.33352025704E+02 -0.16657467670E+02  0.46142317128E+02  0.99999942281E+01 0.  0.
         12    1    1    2    0    0 -0.25284079924E+02 -0.33352025704E+02  0.16657467670E+02  0.45045682872E+02  0.00000000000E+00 0. -1.
         11    1    3    3    0    0  0.19087281826E+02  0.28237465942E+02 -0.12197835075E+02  0.36200358991E+02  0.51100000000E-03 0. -1.
        -11    1    3    3    0    0  0.65072575465E+01  0.38456339487E+01 -0.40355944162E+01  0.85685076762E+01  0.51100000000E-03 0.  1.
         12    1    3    3    0    0 -0.31045944836E+00  0.12689258140E+01 -0.42403817929E+00  0.13734504607E+01  0.00000000000E+00 0. -1.
</event>
<event>
 7    1  0.1385632E-008  0.4614232E+02  0.7816164E-02  0.1320468E+00
        -11   -1    0    0    0    0  0.00000000000E+00  0.00000000000E+00  0.45593999997E+02  0.45594000000E+02  0.51100000000E-03 0.  1.
         11   -1    0    0    0    0 -0.00000000000E+00 -0.00000000000E+00 -0.45593999997E+02  0.45594000000E+02  0.51100000000E-03 0. -1.
    9900012    2    1    2    0    0  0.18353487948E+02 -0.24443643903E+02  0.33087326811E+02  0.46142318269E+02  0.10000004635E+02 0.  0.
         12    1    1    2    0    0 -0.18353487948E+02  0.24443643903E+02 -0.33087326811E+02  0.45045681731E+02  0.00000000000E+00 0. -1.
         11    1    3    3    0    0  0.70695680281E-02 -0.62786585983E+00 -0.31604787260E-01  0.62870075587E+00  0.51100000000E-03 0. -1.
        -11    1    3    3    0    0  0.16219604464E+02 -0.14808321905E+02  0.23123881740E+02  0.31891627014E+02  0.51100000000E-03 0.  1.
        -12    1    3    3    0    0  0.21268139161E+01 -0.90074561382E+01  0.99950498577E+01  0.13621990500E+02  0.00000000000E+00 0.  1.
</event>
<event>
 7    1  0.1385632E-008  0.4614232E+02  0.7816164E-02  0.1320468E+00
        -11   -1    0    0    0    0  0.00000000000E+00  0.00000000000E+00  0.45593999997E+02  0.45594000000E+02  0.51100000000E-03 0.  1.
         11   -1    0    0    0    0 -0.00000000000E+00 -0.00000000000E+00 -0.45593999997E+02  0.45594000000E+02  0.51100000000E-03 0. -1.
    9900012    2    1    2    0    0 -0.16576453678E+02 -0.14376858857E+02  0.39340064310E+02  0.46142317110E+02  0.99999940594E+01 0.  0.
         12    1    1    2    0    0  0.16576453678E+02  0.14376858857E+02 -0.39340064310E+02  0.45045682890E+02  0.00000000000E+00 0. -1.
         11    1    3    3    0    0 -0.67611688294E+01 -0.99083002122E+00  0.10528402241E+02  0.12551589624E+02  0.51100000000E-03 0. -1.
        -11    1    3    3    0    0 -0.23251481951E+01 -0.19896618101E+01  0.24871236526E+01  0.39434569317E+01  0.51100000000E-03 0.  1.
        -12    1    3    3    0    0 -0.74901366529E+01 -0.11396367026E+02  0.26324538416E+02  0.29647270554E+02  0.00000000000E+00 0.  1.
</event>
<event>
 7    1  0.1385632E-008  0.4614232E+02  0.7816164E-02  0.1320468E+00
        -11   -1    0    0    0    0  0.00000000000E+00  0.00000000000E+00  0.45593999997E+02  0.45594000000E+02  0.51100000000E-03 0. -1.
         11   -1    0    0    0    0 -0.00000000000E+00 -0.00000000000E+00 -0.45593999997E+02  0.45594000000E+02  0.51100000000E-03 0.  1.
    9900012    2    1    2    0    0 -0.27216670084E+02 -0.29619088128E+02 -0.20275007080E+02  0.46142318475E+02  0.10000006507E+02 0.  0.
         12    1    1    2    0    0  0.27216670084E+02  0.29619088128E+02  0.20275007080E+02  0.45045681525E+02  0.00000000000E+00 0. -1.
         11    1    3    3    0    0 -0.73301573413E+01 -0.55651327127E+01 -0.82235863369E+01  0.12342174900E+02  0.51100000000E-03 0. -1.
        -11    1    3    3    0    0 -0.18368845786E+02 -0.23465562585E+02 -0.12121092938E+02  0.32170918812E+02  0.51100000000E-03 0.  1.
        -12    1    3    3    0    0 -0.15176669563E+01 -0.58839282979E+00  0.69672194077E-01  0.16292247626E+01  0.00000000000E+00 0.  1.
</event>
<event>
 7    1  0.1984924E-008  0.4614232E+02  0.7816164E-02  0.1320468E+00
        -11   -1    0    0    0    0  0.00000000000E+00  0.00000000000E+00  0.45593999997E+02  0.45594000000E+02  0.51100000000E-03 0. -1.
         11   -1    0    0    0    0 -0.00000000000E+00 -0.00000000000E+00 -0.45593999997E+02  0.45594000000E+02  0.51100000000E-03 0.  1.
    9900012    2    1    2    0    0  0.19864892159E+02 -0.13537696581E+02 -0.38095016465E+02  0.46142318201E+02  0.10000004014E+02 0.  0.
         12    1    1    2    0    0 -0.19864892159E+02  0.13537696581E+02  0.38095016465E+02  0.45045681799E+02  0.00000000000E+00 0. -1.
         11    1    3    3    0    0 -0.48269051322E+00 -0.15293135922E+01 -0.42466436660E+00  0.16589545745E+01  0.51100000000E-03 0. -1.
        -11    1    3    3    0    0  0.14863387639E+02 -0.90037359820E+01 -0.28621672046E+02  0.33484140496E+02  0.51100000000E-03 0.  1.
         12    1    3    3    0    0  0.54841950330E+01 -0.30046470068E+01 -0.90486800527E+01  0.10999223131E+02  0.00000000000E+00 0. -1.
</event>
<event>
 7    1  0.1385632E-008  0.4614232E+02  0.7816164E-02  0.1320468E+00
        -11   -1    0    0    0    0  0.00000000000E+00  0.00000000000E+00  0.45593999997E+02  0.45594000000E+02  0.51100000000E-03 0.  1.
         11   -1    0    0    0    0 -0.00000000000E+00 -0.00000000000E+00 -0.45593999997E+02  0.45594000000E+02  0.51100000000E-03 0. -1.
    9900012    2    1    2    0    0  0.34845543505E+02  0.17367520056E+02  0.22655479291E+02  0.46142318776E+02  0.10000009252E+02 0.  0.
         12    1    1    2    0    0 -0.34845543505E+02 -0.17367520056E+02 -0.22655479291E+02  0.45045681224E+02  0.00000000000E+00 0. -1.
         11    1    3    3    0    0  0.18118577168E+02  0.54680994333E+01  0.10859530500E+02  0.21819998922E+02  0.51100000000E-03 0. -1.
        -11    1    3    3    0    0  0.14388381821E+02  0.89279819754E+01  0.11620261479E+02  0.20536914828E+02  0.51100000000E-03 0.  1.
         12    1    3    3    0    0  0.23385845164E+01  0.29714386476E+01  0.17568731213E+00  0.37854050256E+01  0.00000000000E+00 0. -1.
</event>
<event>
 7    1  0.1385632E-008  0.4614232E+02  0.7816164E-02  0.1320468E+00
        -11   -1    0    0    0    0  0.00000000000E+00  0.00000000000E+00  0.45593999997E+02  0.45594000000E+02  0.51100000000E-03 0. -1.
         11   -1    0    0    0    0 -0.00000000000E+00 -0.00000000000E+00 -0.45593999997E+02  0.45594000000E+02  0.51100000000E-03 0.  1.
    9900012    2    1    2    0    0  0.24745608743E+02 -0.92137365960E+01 -0.36494869023E+02  0.46142316976E+02  0.99999928397E+01 0.  0.
         12    1    1    2    0    0 -0.24745608743E+02  0.92137365960E+01  0.36494869023E+02  0.45045683024E+02  0.00000000000E+00 0. -1.
         11    1    3    3    0    0  0.72619279823E+01  0.16404552561E-01 -0.50610279150E+01  0.88515462461E+01  0.51100000000E-03 0. -1.
        -11    1    3    3    0    0  0.13194039019E+02 -0.56679974698E+01 -0.24437753692E+02  0.28344535041E+02  0.51100000000E-03 0.  1.
        -12    1    3    3    0    0  0.42896417412E+01 -0.35621436788E+01 -0.69960874162E+01  0.89462356884E+01  0.00000000000E+00 0.  1.
</event>
<event>
 7    1  0.1385632E-008  0.4614232E+02  0.7816164E-02  0.1320468E+00
        -11   -1    0    0    0    0  0.00000000000E+00  0.00000000000E+00  0.45593999997E+02  0.45594000000E+02  0.51100000000E-03 0. -1.
         11   -1    0    0    0    0 -0.00000000000E+00 -0.00000000000E+00 -0.45593999997E+02  0.45594000000E+02  0.51100000000E-03 0.  1.
    9900012    2    1    2    0    0 -0.39584680980E+02 -0.16702620615E+02 -0.13534732496E+02  0.46142317772E+02  0.10000000096E+02 0.  0.
         12    1    1    2    0    0  0.39584680980E+02  0.16702620615E+02  0.13534732496E+02  0.45045682228E+02  0.00000000000E+00 0. -1.
         11    1    3    3    0    0 -0.80656634634E+01 -0.15859524339E+01  0.12031848784E+00  0.82209883242E+01  0.51100000000E-03 0.  1.
        -11    1    3    3    0    0 -0.12625768514E+02 -0.89614644360E+01 -0.66749010052E+01  0.16860373042E+02  0.51100000000E-03 0. -1.
        -12    1    3    3    0    0 -0.18893249002E+02 -0.61552037449E+01 -0.69801499784E+01  0.21060956406E+02  0.00000000000E+00 0.  1.
</event>
<event>
 7    1  0.1385632E-008  0.4614232E+02  0.7816164E-02  0.1320468E+00
        -11   -1    0    0    0    0  0.00000000000E+00  0.00000000000E+00  0.45593999997E+02  0.45594000000E+02  0.51100000000E-03 0.  1.
         11   -1    0    0    0    0 -0.00000000000E+00 -0.00000000000E+00 -0.45593999997E+02  0.45594000000E+02  0.51100000000E-03 0. -1.
    9900012    2    1    2    0    0 -0.15597331627E+01 -0.44176319359E+02  0.86679607731E+01  0.46142317592E+02  0.99999984581E+01 0.  0.
         12    1    1    2    0    0  0.15597331627E+01  0.44176319359E+02 -0.86679607731E+01  0.45045682408E+02  0.00000000000E+00 0. -1.
         11    1    3    3    0    0  0.11383664514E+01 -0.61541430916E+00  0.82259368878E+00  0.15333863139E+01  0.51100000000E-03 0. -1.
        -11    1    3    3    0    0 -0.23964799858E+01 -0.80239706765E+01  0.13658124891E+01  0.84848491888E+01  0.51100000000E-03 0.  1.
        -12    1    3    3    0    0 -0.30161962829E+00 -0.35536934373E+02  0.64795545952E+01  0.36124082089E+02  0.00000000000E+00 0.  1.
</event>
<event>
 7    1  0.1385632E-008  0.4614232E+02  0.7816164E-02  0.1320468E+00
        -11   -1    0    0    0    0  0.00000000000E+00  0.00000000000E+00  0.45593999997E+02  0.45594000000E+02  0.51100000000E-03 0. -1.
         11   -1    0    0    0    0 -0.00000000000E+00 -0.00000000000E+00 -0.45593999997E+02  0.45594000000E+02  0.51100000000E-03 0.  1.
    9900012    2    1    2    0    0 -0.36583793433E+02  0.26030762426E+02 -0.36247640713E+01  0.46142318198E+02  0.10000003984E+02 0.  0.
         12    1    1    2    0    0  0.36583793433E+02 -0.26030762426E+02  0.36247640713E+01  0.45045681802E+02  0.00000000000E+00 0. -1.
         11    1    3    3    0    0 -0.16486000244E+02  0.10317561431E+02  0.70535946373E+00  0.19461187275E+02  0.51100000000E-03 0. -1.
        -11    1    3    3    0    0 -0.18115417432E+02  0.15958676132E+02 -0.31132485197E+01  0.24342144713E+02  0.51100000000E-03 0.  1.
         12    1    3    3    0    0 -0.19823757571E+01 -0.24547513737E+00 -0.12168750153E+01  0.23389862095E+01  0.00000000000E+00 0. -1.
</event>
<event>
 7    1  0.1385632E-008  0.4614232E+02  0.7816164E-02  0.1320468E+00
        -11   -1    0    0    0    0  0.00000000000E+00  0.00000000000E+00  0.45593999997E+02  0.45594000000E+02  0.51100000000E-03 0.  1.
         11   -1    0    0    0    0 -0.00000000000E+00 -0.00000000000E+00 -0.45593999997E+02  0.45594000000E+02  0.51100000000E-03 0. -1.
    9900012    2    1    2    0    0  0.32579743133E+01 -0.28296719758E+02  0.34896917678E+02  0.46142316421E+02  0.99999877802E+01 0.  0.
         12    1    1    2    0    0 -0.32579743133E+01  0.28296719758E+02 -0.34896917678E+02  0.45045683579E+02  0.00000000000E+00 0. -1.
         11    1    3    3    0    0  0.23115586066E+01 -0.34487108900E+01  0.18768942092E+01  0.45562750277E+01  0.51100000000E-03 0. -1.
        -11    1    3    3    0    0  0.19834717878E+01 -0.22505676891E+02  0.28265331713E+02  0.36185199043E+02  0.51100000000E-03 0.  1.
        -12    1    3    3    0    0 -0.10370560811E+01 -0.23423319768E+01  0.47546917552E+01  0.54008423502E+01  0.00000000000E+00 0.  1.
</event>
<event>
 7    1  0.1385632E-008  0.4614232E+02  0.7816164E-02  0.1320468E+00
        -11   -1    0    0    0    0  0.00000000000E+00  0.00000000000E+00  0.45593999997E+02  0.45594000000E+02  0.51100000000E-03 0.  1.
         11   -1    0    0    0    0 -0.00000000000E+00 -0.00000000000E+00 -0.45593999997E+02  0.45594000000E+02  0.51100000000E-03 0. -1.
    9900012    2    1    2    0    0  0.15886407017E+02 -0.26870064317E+02  0.32476688886E+02  0.46142316463E+02  0.99999881619E+01 0.  0.
         12    1    1    2    0    0 -0.15886407017E+02  0.26870064317E+02 -0.32476688886E+02  0.45045683537E+02  0.00000000000E+00 0. -1.
         11    1    3    3    0    0  0.26046287858E+00 -0.47177926744E+01  0.63037149343E+01  0.78779585467E+01  0.51100000000E-03 0. -1.
        -11    1    3    3    0    0  0.72205861720E+01 -0.13279705512E+02  0.10571439049E+02  0.18445670684E+02  0.51100000000E-03 0.  1.
        -12    1    3    3    0    0  0.84053579667E+01 -0.88725661309E+01  0.15601534903E+02  0.19818687232E+02  0.00000000000E+00 0.  1.
</event>
<event>
 7    1  0.1385632E-008  0.4614232E+02  0.7816164E-02  0.1320468E+00
        -11   -1    0    0    0    0  0.00000000000E+00  0.00000000000E+00  0.45593999997E+02  0.45594000000E+02  0.51100000000E-03 0. -1.
         11   -1    0    0    0    0 -0.00000000000E+00 -0.00000000000E+00 -0.45593999997E+02  0.45594000000E+02  0.51100000000E-03 0.  1.
    9900012    2    1    2    0    0  0.50142775352E+01 -0.44746542604E+02  0.13104865011E+01  0.46142318420E+02  0.10000006004E+02 0.  0.
         12    1    1    2    0    0 -0.50142775352E+01  0.44746542604E+02 -0.13104865011E+01  0.45045681580E+02  0.00000000000E+00 0. -1.
         11    1    3    3    0    0  0.36488219983E+01 -0.22176564821E+02  0.24335648294E+01  0.22606109070E+02  0.51100000000E-03 0. -1.
        -11    1    3    3    0    0  0.12100811979E+01 -0.49577793366E+01  0.22935158919E+01  0.55950056178E+01  0.51100000000E-03 0.  1.
        -12    1    3    3    0    0  0.15537433901E+00 -0.17612198446E+02 -0.34165942202E+01  0.17941203732E+02  0.00000000000E+00 0.  1.
</event>
<event>
 7    1  0.1385632E-008  0.4614232E+02  0.7816164E-02  0.1320468E+00
        -11   -1    0    0    0    0  0.00000000000E+00  0.00000000000E+00  0.45593999997E+02  0.45594000000E+02  0.51100000000E-03 0.  1.
         11   -1    0    0    0    0 -0.00000000000E+00 -0.00000000000E+00 -0.45593999997E+02  0.45594000000E+02  0.51100000000E-03 0. -1.
    9900012    2    1    2    0    0 -0.17149735290E+02  0.93713422782E+01  0.40585440983E+02  0.46142317671E+02  0.99999991826E+01 0.  0.
         12    1    1    2    0    0  0.17149735290E+02 -0.93713422782E+01 -0.40585440983E+02  0.45045682329E+02  0.00000000000E+00 0. -1.
         11    1    3    3    0    0 -0.60316125667E+01  0.76081353964E+00  0.76764697422E+01  0.97922099325E+01  0.51100000000E-03 0. -1.
        -11    1    3    3    0    0 -0.10196902554E+01 -0.73897029800E+00  0.59486020568E+01  0.60804368272E+01  0.51100000000E-03 0.  1.
         12    1    3    3    0    0 -0.10098432468E+02  0.93494990366E+01  0.26960369184E+02  0.30269670912E+02  0.00000000000E+00 0. -1.
</event>
<event>
 7    1  0.1385632E-008  0.4614232E+02  0.7816164E-02  0.1320468E+00
        -11   -1    0    0    0    0  0.00000000000E+00  0.00000000000E+00  0.45593999997E+02  0.45594000000E+02  0.51100000000E-03 0.  1.
         11   -1    0    0    0    0 -0.00000000000E+00 -0.00000000000E+00 -0.45593999997E+02  0.45594000000E+02  0.51100000000E-03 0. -1.
    9900012    2    1    2    0    0  0.89022686493E+01 -0.41099965142E+01  0.43965566910E+02  0.46142317275E+02  0.99999955709E+01 0.  0.
         12    1    1    2    0    0 -0.89022686493E+01  0.41099965142E+01 -0.43965566910E+02  0.45045682725E+02  0.00000000000E+00 0. -1.
         11    1    3    3    0    0 -0.16849304566E+00  0.14386555521E+01  0.16498510998E+02  0.16561974071E+02  0.51100000000E-03 0. -1.
        -11    1    3    3    0    0  0.77856633964E+01 -0.34608380080E+01  0.21790126989E+02  0.23396657639E+02  0.51100000000E-03 0.  1.
         12    1    3    3    0    0  0.12850982985E+01 -0.20878140583E+01  0.56769289224E+01  0.61836855652E+01  0.00000000000E+00 0. -1.
</event>
<event>
 7    1  0.1385632E-008  0.4614232E+02  0.7816164E-02  0.1320468E+00
        -11   -1    0    0    0    0  0.00000000000E+00  0.00000000000E+00  0.45593999997E+02  0.45594000000E+02  0.51100000000E-03 0.  1.
         11   -1    0    0    0    0 -0.00000000000E+00 -0.00000000000E+00 -0.45593999997E+02  0.45594000000E+02  0.51100000000E-03 0. -1.
    9900012    2    1    2    0    0  0.23571455899E+02 -0.27985940784E+02  0.26273314850E+02  0.46142317766E+02  0.10000000041E+02 0.  0.
         12    1    1    2    0    0 -0.23571455899E+02  0.27985940784E+02 -0.26273314850E+02  0.45045682234E+02  0.00000000000E+00 0. -1.
         11    1    3    3    0    0  0.17940016691E+02 -0.16884670153E+02  0.13589996392E+02  0.28135818581E+02  0.51100000000E-03 0. -1.
        -11    1    3    3    0    0  0.57641396595E+01 -0.97628870044E+01  0.10563538548E+02  0.15496051613E+02  0.51100000000E-03 0.  1.
        -12    1    3    3    0    0 -0.13270045136E+00 -0.13383836266E+01  0.21197799106E+01  0.25104475718E+01  0.00000000000E+00 0.  1.
</event>
<event>
 7    1  0.1385632E-008  0.4614232E+02  0.7816164E-02  0.1320468E+00
        -11   -1    0    0    0    0  0.00000000000E+00  0.00000000000E+00  0.45593999997E+02  0.45594000000E+02  0.51100000000E-03 0. -1.
         11   -1    0    0    0    0 -0.00000000000E+00 -0.00000000000E+00 -0.45593999997E+02  0.45594000000E+02  0.51100000000E-03 0.  1.
    9900012    2    1    2    0    0  0.53869219821E+01 -0.37046071094E+02  0.25053604463E+02  0.46142318648E+02  0.10000008084E+02 0.  0.
         12    1    1    2    0    0 -0.53869219821E+01  0.37046071094E+02 -0.25053604463E+02  0.45045681352E+02  0.00000000000E+00 0. -1.
         11    1    3    3    0    0  0.11058907309E+01 -0.67748154529E+01  0.12068895362E+01  0.69697705374E+01  0.51100000000E-03 0. -1.
        -11    1    3    3    0    0  0.63787145761E+00 -0.21506459291E+02  0.17737462728E+02  0.27884623998E+02  0.51100000000E-03 0.  1.
        -12    1    3    3    0    0  0.36431597936E+01 -0.87647963502E+01  0.61092521984E+01  0.11287924112E+02  0.00000000000E+00 0.  1.
</event>
<event>
 7    1  0.1385632E-008  0.4614232E+02  0.7816164E-02  0.1320468E+00
        -11   -1    0    0    0    0  0.00000000000E+00  0.00000000000E+00  0.45593999997E+02  0.45594000000E+02  0.51100000000E-03 0.  1.
         11   -1    0    0    0    0 -0.00000000000E+00 -0.00000000000E+00 -0.45593999997E+02  0.45594000000E+02  0.51100000000E-03 0. -1.
    9900012    2    1    2    0    0  0.14931669095E+02  0.27675282310E+02  0.32252709802E+02  0.46142320046E+02  0.10000020835E+02 0.  0.
         12    1    1    2    0    0 -0.14931669095E+02 -0.27675282310E+02 -0.32252709802E+02  0.45045679954E+02  0.00000000000E+00 0. -1.
         11    1    3    3    0    0  0.38889903165E+01  0.19561676113E+01  0.36798175789E+01  0.57001662327E+01  0.51100000000E-03 0. -1.
        -11    1    3    3    0    0  0.51834540308E+01  0.10991717855E+02  0.83356711777E+01  0.14736670972E+02  0.51100000000E-03 0.  1.
        -12    1    3    3    0    0  0.58592247479E+01  0.14727396845E+02  0.20237221046E+02  0.25705482842E+02  0.00000000000E+00 0.  1.
</event>
<event>
 7    1  0.1385632E-008  0.4614232E+02  0.7816164E-02  0.1320468E+00
        -11   -1    0    0    0    0  0.00000000000E+00  0.00000000000E+00  0.45593999997E+02  0.45594000000E+02  0.51100000000E-03 0.  1.
         11   -1    0    0    0    0 -0.00000000000E+00 -0.00000000000E+00 -0.45593999997E+02  0.45594000000E+02  0.51100000000E-03 0. -1.
    9900012    2    1    2    0    0  0.14755424653E+02  0.12372221936E+02  0.40722463564E+02  0.46142317953E+02  0.10000001749E+02 0.  0.
         12    1    1    2    0    0 -0.14755424653E+02 -0.12372221936E+02 -0.40722463564E+02  0.45045682047E+02  0.00000000000E+00 0. -1.
         11    1    3    3    0    0  0.76245221478E+00  0.46609020126E+01  0.68164052607E+01  0.82926908715E+01  0.51100000000E-03 0. -1.
        -11    1    3    3    0    0  0.11599211394E+02  0.77208208057E+01  0.31554438617E+02  0.34493990427E+02  0.51100000000E-03 0.  1.
        -12    1    3    3    0    0  0.23937610451E+01 -0.95008821568E-02  0.23516196869E+01  0.33556366549E+01  0.00000000000E+00 0.  1.
</event>
<event>
 7    1  0.1385632E-008  0.4614232E+02  0.7816164E-02  0.1320468E+00
        -11   -1    0    0    0    0  0.00000000000E+00  0.00000000000E+00  0.45593999997E+02  0.45594000000E+02  0.51100000000E-03 0. -1.
         11   -1    0    0    0    0 -0.00000000000E+00 -0.00000000000E+00 -0.45593999997E+02  0.45594000000E+02  0.51100000000E-03 0.  1.
    9900012    2    1    2    0    0 -0.20797459375E+02  0.11646315896E+02 -0.38222275424E+02  0.46142319530E+02  0.10000016132E+02 0.  0.
         12    1    1    2    0    0  0.20797459375E+02 -0.11646315896E+02  0.38222275424E+02  0.45045680470E+02  0.00000000000E+00 0. -1.
         11    1    3    3    0    0 -0.24920237074E+01  0.46352876205E+01 -0.87541444479E+01  0.10214260559E+02  0.51100000000E-03 0. -1.
        -11    1    3    3    0    0 -0.18526990017E+01 -0.92870055093E+00 -0.48321884248E+01  0.52578535105E+01  0.51100000000E-03 0.  1.
        -12    1    3    3    0    0 -0.16452736666E+02  0.79397288269E+01 -0.24635942551E+02  0.30670205461E+02  0.00000000000E+00 0.  1.
</event>
<event>
 7    1  0.1385632E-008  0.4614233E+02  0.7816164E-02  0.1320468E+00
        -11   -1    0    0    0    0  0.00000000000E+00  0.00000000000E+00  0.45593999997E+02  0.45594000000E+02  0.51100000000E-03 0. -1.
         11   -1    0    0    0    0 -0.00000000000E+00 -0.00000000000E+00 -0.45593999997E+02  0.45594000000E+02  0.51100000000E-03 0.  1.
    9900012    2    1    2    0    0  0.20234374904E+02  0.28096966770E+02 -0.28813932924E+02  0.46142332062E+02  0.10000130404E+02 0.  0.
         12    1    1    2    0    0 -0.20234374904E+02 -0.28096966770E+02  0.28813932924E+02  0.45045667938E+02  0.00000000000E+00 0. -1.
         11    1    3    3    0    0  0.10576323663E+02  0.98840604739E+01 -0.75917566349E+01  0.16345887640E+02  0.51100000000E-03 0. -1.
        -11    1    3    3    0    0  0.94701870446E+01  0.17441131894E+02 -0.19157245067E+02  0.27584009194E+02  0.51100000000E-03 0.  1.
         12    1    3    3    0    0  0.18786419627E+00  0.77177440234E+00 -0.20649312218E+01  0.22124352274E+01  0.00000000000E+00 0. -1.
</event>
<event>
 7    1  0.1536068E-008  0.4614232E+02  0.7816164E-02  0.1320468E+00
        -11   -1    0    0    0    0  0.00000000000E+00  0.00000000000E+00  0.45593999997E+02  0.45594000000E+02  0.51100000000E-03 0. -1.
         11   -1    0    0    0    0 -0.00000000000E+00 -0.00000000000E+00 -0.45593999997E+02  0.45594000000E+02  0.51100000000E-03 0.  1.
    9900012    2    1    2    0    0 -0.40250185765E+02  0.17118929396E+02 -0.10769322038E+02  0.46142317688E+02  0.99999993325E+01 0.  0.
         12    1    1    2    0    0  0.40250185765E+02 -0.17118929396E+02  0.10769322038E+02  0.45045682312E+02  0.00000000000E+00 0. -1.
         11    1    3    3    0    0 -0.19156950203E+00 -0.65561413394E+00 -0.61548710547E+00  0.91943102235E+00  0.51100000000E-03 0. -1.
        -11    1    3    3    0    0 -0.35126251893E+02  0.17060034773E+02 -0.95654246745E+01  0.40204423985E+02  0.51100000000E-03 0.  1.
        -12    1    3    3    0    0 -0.49323643701E+01  0.71450875697E+00 -0.58841025846E+00  0.50184626804E+01  0.00000000000E+00 0.  1.
</event>
<event>
 7    1  0.1385632E-008  0.4614232E+02  0.7816164E-02  0.1320468E+00
        -11   -1    0    0    0    0  0.00000000000E+00  0.00000000000E+00  0.45593999997E+02  0.45594000000E+02  0.51100000000E-03 0. -1.
         11   -1    0    0    0    0 -0.00000000000E+00 -0.00000000000E+00 -0.45593999997E+02  0.45594000000E+02  0.51100000000E-03 0.  1.
    9900012    2    1    2    0    0  0.11002939997E+02 -0.23909976253E+02 -0.36556283171E+02  0.46142317718E+02  0.99999996031E+01 0.  0.
         12    1    1    2    0    0 -0.11002939997E+02  0.23909976253E+02  0.36556283171E+02  0.45045682282E+02  0.00000000000E+00 0. -1.
         11    1    3    3    0    0  0.13221210218E+01 -0.79757581759E+00  0.18069001500E+00  0.15545997311E+01  0.51100000000E-03 0. -1.
        -11    1    3    3    0    0  0.45764792905E+01 -0.11812288977E+02 -0.21364381554E+02  0.24837695807E+02  0.51100000000E-03 0.  1.
         12    1    3    3    0    0  0.51043396851E+01 -0.11300111458E+02 -0.15372591632E+02  0.19750022179E+02  0.00000000000E+00 0. -1.
</event>
<event>
 7    1  0.1385632E-008  0.4614232E+02  0.7816164E-02  0.1320468E+00
        -11   -1    0    0    0    0  0.00000000000E+00  0.00000000000E+00  0.45593999997E+02  0.45594000000E+02  0.51100000000E-03 0.  1.
         11   -1    0    0    0    0 -0.00000000000E+00 -0.00000000000E+00 -0.45593999997E+02  0.45594000000E+02  0.51100000000E-03 0. -1.
    9900012    2    1    2    0    0  0.34443270294E+02 -0.28326063864E+02  0.63567869907E+01  0.46142317594E+02  0.99999984775E+01 0.  0.
         12    1    1    2    0    0 -0.34443270294E+02  0.28326063864E+02 -0.63567869907E+01  0.45045682406E+02  0.00000000000E+00 0. -1.
         11    1    3    3    0    0  0.16219406272E+02 -0.17682634171E+02  0.47663377180E+01  0.24463496613E+02  0.51100000000E-03 0. -1.
        -11    1    3    3    0    0  0.11752502952E+02 -0.52768673700E+01 -0.88992426817E+00  0.12913505347E+02  0.51100000000E-03 0.  1.
        -12    1    3    3    0    0  0.64713610702E+01 -0.53665623226E+01  0.24803735409E+01  0.87653156341E+01  0.00000000000E+00 0.  1.
</event>
<event>
 7    1  0.1385632E-008  0.4614232E+02  0.7816164E-02  0.1320468E+00
        -11   -1    0    0    0    0  0.00000000000E+00  0.00000000000E+00  0.45593999997E+02  0.45594000000E+02  0.51100000000E-03 0.  1.
         11   -1    0    0    0    0 -0.00000000000E+00 -0.00000000000E+00 -0.45593999997E+02  0.45594000000E+02  0.51100000000E-03 0. -1.
    9900012    2    1    2    0    0 -0.39201739418E+02 -0.21932416636E+02 -0.33624738904E+01  0.46142317592E+02  0.99999984605E+01 0.  0.
         12    1    1    2    0    0  0.39201739418E+02  0.21932416636E+02  0.33624738904E+01  0.45045682408E+02  0.00000000000E+00 0. -1.
         11    1    3    3    0    0 -0.94451203087E+01 -0.80310341554E+01 -0.16207789646E+00  0.12398954664E+02  0.51100000000E-03 0. -1.
        -11    1    3    3    0    0 -0.20261329188E+02 -0.97088774405E+01 -0.54583628228E+01  0.23120931785E+02  0.51100000000E-03 0.  1.
        -12    1    3    3    0    0 -0.94952899212E+01 -0.41925050398E+01  0.22579668288E+01  0.10622431143E+02  0.00000000000E+00 0.  1.
</event>
<event>
 7    1  0.1385632E-008  0.4614231E+02  0.7816164E-02  0.1320468E+00
        -11   -1    0    0    0    0  0.00000000000E+00  0.00000000000E+00  0.45593999997E+02  0.45594000000E+02  0.51100000000E-03 0. -1.
         11   -1    0    0    0    0 -0.00000000000E+00 -0.00000000000E+00 -0.45593999997E+02  0.45594000000E+02  0.51100000000E-03 0.  1.
    9900012    2    1    2    0    0  0.44321281069E+02 -0.14667917049E+01 -0.79111512759E+01  0.46142314879E+02  0.99999737172E+01 0.  0.
         12    1    1    2    0    0 -0.44321281069E+02  0.14667917049E+01  0.79111512759E+01  0.45045685121E+02  0.00000000000E+00 0. -1.
         11    1    3    3    0    0  0.61280710191E+01  0.20421313281E+01  0.13254034754E+01  0.65939555208E+01  0.51100000000E-03 0. -1.
        -11    1    3    3    0    0  0.37472343142E+02 -0.32206809836E+01 -0.86970567538E+01  0.38602954330E+02  0.51100000000E-03 0.  1.
         12    1    3    3    0    0  0.72086690837E+00 -0.28824204944E+00 -0.53949799748E+00  0.94540502851E+00  0.00000000000E+00 0. -1.
</event>
<event>
 7    1  0.1385632E-008  0.4614232E+02  0.7816164E-02  0.1320468E+00
        -11   -1    0    0    0    0  0.00000000000E+00  0.00000000000E+00  0.45593999997E+02  0.45594000000E+02  0.51100000000E-03 0. -1.
         11   -1    0    0    0    0 -0.00000000000E+00 -0.00000000000E+00 -0.45593999997E+02  0.45594000000E+02  0.51100000000E-03 0.  1.
    9900012    2    1    2    0    0  0.43592196348E+02  0.87056831068E+01 -0.72831957975E+01  0.46142318278E+02  0.10000004710E+02 0.  0.
         12    1    1    2    0    0 -0.43592196348E+02 -0.87056831068E+01  0.72831957975E+01  0.45045681722E+02  0.00000000000E+00 0. -1.
         11    1    3    3    0    0  0.20499201930E+02  0.38600869967E+01 -0.32430001473E+01  0.21110059252E+02  0.51100000000E-03 0. -1.
        -11    1    3    3    0    0  0.19269872603E+02  0.11126804033E+01 -0.38708039644E+01  0.19686268600E+02  0.51100000000E-03 0.  1.
         12    1    3    3    0    0  0.38231218152E+01  0.37329157069E+01 -0.16939168581E+00  0.53459904257E+01  0.00000000000E+00 0. -1.
</event>
<event>
 7    1  0.1385632E-008  0.4614232E+02  0.7816164E-02  0.1320468E+00
        -11   -1    0    0    0    0  0.00000000000E+00  0.00000000000E+00  0.45593999997E+02  0.45594000000E+02  0.51100000000E-03 0.  1.
         11   -1    0    0    0    0 -0.00000000000E+00 -0.00000000000E+00 -0.45593999997E+02  0.45594000000E+02  0.51100000000E-03 0. -1.
    9900012    2    1    2    0    0 -0.11597667721E+02  0.92661867351E+01  0.42529345915E+02  0.46142318996E+02  0.10000011261E+02 0.  0.
         12    1    1    2    0    0  0.11597667721E+02 -0.92661867351E+01 -0.42529345915E+02  0.45045681004E+02  0.00000000000E+00 0. -1.
         11    1    3    3    0    0  0.42278618677E+00  0.43864079062E+01  0.83137313062E+01  0.94094341473E+01  0.51100000000E-03 0. -1.
        -11    1    3    3    0    0 -0.11822158600E+02  0.41327178918E+01  0.31197235588E+02  0.33617113197E+02  0.51100000000E-03 0.  1.
        -12    1    3    3    0    0 -0.19829530855E+00  0.74706093705E+00  0.30183790205E+01  0.31157716516E+01  0.00000000000E+00 0.  1.
</event>
<event>
 7    1  0.1385632E-008  0.4614232E+02  0.7816164E-02  0.1320468E+00
        -11   -1    0    0    0    0  0.00000000000E+00  0.00000000000E+00  0.45593999997E+02  0.45594000000E+02  0.51100000000E-03 0.  1.
         11   -1    0    0    0    0 -0.00000000000E+00 -0.00000000000E+00 -0.45593999997E+02  0.45594000000E+02  0.51100000000E-03 0. -1.
    9900012    2    1    2    0    0 -0.37733271982E+01 -0.33000640052E+02  0.30427509035E+02  0.46142317098E+02  0.99999939576E+01 0.  0.
         12    1    1    2    0    0  0.37733271982E+01  0.33000640052E+02 -0.30427509035E+02  0.45045682902E+02  0.00000000000E+00 0. -1.
         11    1    3    3    0    0 -0.47751579273E+00 -0.27523918299E+02  0.27497404232E+02  0.38908885099E+02  0.51100000000E-03 0.  1.
        -11    1    3    3    0    0 -0.23184994547E+01 -0.26302297970E+01  0.95616954370E+00  0.36342549393E+01  0.51100000000E-03 0. -1.
        -12    1    3    3    0    0 -0.97731195074E+00 -0.28464919556E+01  0.19739352591E+01  0.35991770600E+01  0.00000000000E+00 0.  1.
</event>
<event>
 7    1  0.1683425E-008  0.4614232E+02  0.7816164E-02  0.1320468E+00
        -11   -1    0    0    0    0  0.00000000000E+00  0.00000000000E+00  0.45593999997E+02  0.45594000000E+02  0.51100000000E-03 0. -1.
         11   -1    0    0    0    0 -0.00000000000E+00 -0.00000000000E+00 -0.45593999997E+02  0.45594000000E+02  0.51100000000E-03 0.  1.
    9900012    2    1    2    0    0 -0.21996490000E+01 -0.28618692426E+02 -0.34716644800E+02  0.46142318320E+02  0.10000005092E+02 0.  0.
         12    1    1    2    0    0  0.21996490000E+01  0.28618692426E+02  0.34716644800E+02  0.45045681680E+02  0.00000000000E+00 0. -1.
         11    1    3    3    0    0 -0.10477290148E+01 -0.35354324056E+00 -0.12849377061E+01  0.16952268524E+01  0.51100000000E-03 0. -1.
        -11    1    3    3    0    0  0.12755231054E+01 -0.16177526159E+02 -0.23780874944E+02  0.28790090746E+02  0.51100000000E-03 0.  1.
        -12    1    3    3    0    0 -0.24274430906E+01 -0.12087623027E+02 -0.96508321496E+01  0.15657000721E+02  0.00000000000E+00 0.  1.
</event>
<event>
 7    1  0.1385632E-008  0.4614232E+02  0.7816164E-02  0.1320468E+00
        -11   -1    0    0    0    0  0.00000000000E+00  0.00000000000E+00  0.45593999997E+02  0.45594000000E+02  0.51100000000E-03 0.  1.
         11   -1    0    0    0    0 -0.00000000000E+00 -0.00000000000E+00 -0.45593999997E+02  0.45594000000E+02  0.51100000000E-03 0. -1.
    9900012    2    1    2    0    0 -0.38759276146E+02  0.31119433152E+01  0.22740883802E+02  0.46142317913E+02  0.10000001386E+02 0.  0.
         12    1    1    2    0    0  0.38759276146E+02 -0.31119433152E+01 -0.22740883802E+02  0.45045682087E+02  0.00000000000E+00 0. -1.
         11    1    3    3    0    0 -0.21910452589E+00 -0.29913805213E+00  0.15631298895E+01  0.16065072923E+01  0.51100000000E-03 0. -1.
        -11    1    3    3    0    0 -0.13925071650E+02  0.96901011080E+00  0.11065553029E+02  0.17812722003E+02  0.51100000000E-03 0.  1.
         12    1    3    3    0    0 -0.24615099971E+02  0.24420712566E+01  0.10112200883E+02  0.26723088618E+02  0.00000000000E+00 0. -1.
</event>
<event>
 7    1  0.1385632E-008  0.4614231E+02  0.7816164E-02  0.1320468E+00
        -11   -1    0    0    0    0  0.00000000000E+00  0.00000000000E+00  0.45593999997E+02  0.45594000000E+02  0.51100000000E-03 0.  1.
         11   -1    0    0    0    0 -0.00000000000E+00 -0.00000000000E+00 -0.45593999997E+02  0.45594000000E+02  0.51100000000E-03 0. -1.
    9900012    2    1    2    0    0  0.33020997945E+02 -0.13958666142E+02  0.27274227064E+02  0.46142310664E+02  0.99999352860E+01 0.  0.
         12    1    1    2    0    0 -0.33020997945E+02  0.13958666142E+02 -0.27274227064E+02  0.45045689336E+02  0.00000000000E+00 0. -1.
         11    1    3    3    0    0  0.66937422177E+01 -0.41177860568E+01  0.11420385612E+02  0.13863172605E+02  0.51100000000E-03 0. -1.
        -11    1    3    3    0    0  0.24604198798E+02 -0.93818663696E+01  0.14945930480E+02  0.30278158023E+02  0.51100000000E-03 0.  1.
         12    1    3    3    0    0  0.17230569295E+01 -0.45901371553E+00  0.90791097207E+00  0.20009800365E+01  0.00000000000E+00 0. -1.
</event>
<event>
 7    1  0.1385632E-008  0.4614232E+02  0.7816164E-02  0.1320468E+00
        -11   -1    0    0    0    0  0.00000000000E+00  0.00000000000E+00  0.45593999997E+02  0.45594000000E+02  0.51100000000E-03 0.  1.
         11   -1    0    0    0    0 -0.00000000000E+00 -0.00000000000E+00 -0.45593999997E+02  0.45594000000E+02  0.51100000000E-03 0. -1.
    9900012    2    1    2    0    0 -0.19836054938E+02 -0.27428401339E+02  0.29720820902E+02  0.46142317959E+02  0.10000001800E+02 0.  0.
         12    1    1    2    0    0  0.19836054938E+02  0.27428401339E+02 -0.29720820902E+02  0.45045682041E+02  0.00000000000E+00 0. -1.
         11    1    3    3    0    0 -0.11777462617E+02 -0.19873610589E+02  0.18546309104E+02  0.29624898399E+02  0.51100000000E-03 0. -1.
        -11    1    3    3    0    0 -0.85258881094E+01 -0.77372046410E+01  0.11130521538E+02  0.16013856927E+02  0.51100000000E-03 0.  1.
        -12    1    3    3    0    0  0.46729578876E+00  0.18241389087E+00  0.43990260362E-01  0.50356263243E+00  0.00000000000E+00 0.  1.
</event>
<event>
 7    1  0.1385632E-008  0.4614233E+02  0.7816164E-02  0.1320468E+00
        -11   -1    0    0    0    0  0.00000000000E+00  0.00000000000E+00  0.45593999997E+02  0.45594000000E+02  0.51100000000E-03 0.  1.
         11   -1    0    0    0    0 -0.00000000000E+00 -0.00000000000E+00 -0.45593999997E+02  0.45594000000E+02  0.51100000000E-03 0. -1.
    9900012    2    1    2    0    0 -0.36935657516E+02 -0.14510747736E+02  0.21314493489E+02  0.46142331744E+02  0.10000127502E+02 0.  0.
         12    1    1    2    0    0  0.36935657516E+02  0.14510747736E+02 -0.21314493489E+02  0.45045668256E+02  0.00000000000E+00 0. -1.
         11    1    3    3    0    0 -0.53165352950E+01  0.32624315237E+00  0.12099955654E+01  0.54622405354E+01  0.51100000000E-03 0. -1.
        -11    1    3    3    0    0 -0.27934551165E+02 -0.14135012956E+02  0.16140945589E+02  0.35223115490E+02  0.51100000000E-03 0.  1.
        -12    1    3    3    0    0 -0.36845710564E+01 -0.70197793235E+00  0.39635523338E+01  0.54569757183E+01  0.00000000000E+00 0.  1.
</event>
<event>
 7    1  0.1385632E-008  0.4614232E+02  0.7816164E-02  0.1320468E+00
        -11   -1    0    0    0    0  0.00000000000E+00  0.00000000000E+00  0.45593999997E+02  0.45594000000E+02  0.51100000000E-03 0.  1.
         11   -1    0    0    0    0 -0.00000000000E+00 -0.00000000000E+00 -0.45593999997E+02  0.45594000000E+02  0.51100000000E-03 0. -1.
    9900012    2    1    2    0    0 -0.89752615017E-01 -0.28439538060E+02  0.34932768968E+02  0.46142315097E+02  0.99999757085E+01 0.  0.
         12    1    1    2    0    0  0.89752615017E-01  0.28439538060E+02 -0.34932768968E+02  0.45045684903E+02  0.00000000000E+00 0. -1.
         11    1    3    3    0    0 -0.16977433633E+01 -0.29858411068E+01  0.18434983861E+01  0.38982132065E+01  0.51100000000E-03 0. -1.
        -11    1    3    3    0    0 -0.15542367325E+01 -0.18877668450E+02  0.23080738758E+02  0.29858039450E+02  0.51100000000E-03 0.  1.
        -12    1    3    3    0    0  0.31622274808E+01 -0.65760285032E+01  0.10008531824E+02  0.12386062441E+02  0.00000000000E+00 0.  1.
</event>
<event>
 7    1  0.1385632E-008  0.4614232E+02  0.7816164E-02  0.1320468E+00
        -11   -1    0    0    0    0  0.00000000000E+00  0.00000000000E+00  0.45593999997E+02  0.45594000000E+02  0.51100000000E-03 0.  1.
         11   -1    0    0    0    0 -0.00000000000E+00 -0.00000000000E+00 -0.45593999997E+02  0.45594000000E+02  0.51100000000E-03 0. -1.
    9900012    2    1    2    0    0 -0.23854730080E+02 -0.16062584668E+02  0.34670718867E+02  0.46142317408E+02  0.99999967814E+01 0.  0.
         12    1    1    2    0    0  0.23854730080E+02  0.16062584668E+02 -0.34670718867E+02  0.45045682592E+02  0.00000000000E+00 0. -1.
         11    1    3    3    0    0 -0.54170029444E+01 -0.84789079778E+01  0.85128857311E+01  0.13179720222E+02  0.51100000000E-03 0. -1.
        -11    1    3    3    0    0 -0.87583843699E+01 -0.41293698854E+01  0.11073812216E+02  0.14710211068E+02  0.51100000000E-03 0.  1.
         12    1    3    3    0    0 -0.96793427658E+01 -0.34543068046E+01  0.15084020920E+02  0.18252386118E+02  0.00000000000E+00 0. -1.
</event>
<event>
 7    1  0.1547673E-008  0.4614232E+02  0.7816164E-02  0.1320468E+00
        -11   -1    0    0    0    0  0.00000000000E+00  0.00000000000E+00  0.45593999997E+02  0.45594000000E+02  0.51100000000E-03 0.  1.
         11   -1    0    0    0    0 -0.00000000000E+00 -0.00000000000E+00 -0.45593999997E+02  0.45594000000E+02  0.51100000000E-03 0. -1.
    9900012    2    1    2    0    0 -0.36257981744E+02  0.26554272781E+02  0.30565957707E+01  0.46142318511E+02  0.10000006838E+02 0.  0.
         12    1    1    2    0    0  0.36257981744E+02 -0.26554272781E+02 -0.30565957707E+01  0.45045681489E+02  0.00000000000E+00 0. -1.
         11    1    3    3    0    0  0.43690159525E+00  0.53696085103E+00  0.14662558768E+00  0.70760814266E+00  0.51100000000E-03 0. -1.
        -11    1    3    3    0    0 -0.32263207955E+02  0.20824551789E+02  0.36233867213E+01  0.38570785271E+02  0.51100000000E-03 0.  1.
        -12    1    3    3    0    0 -0.44316753842E+01  0.51927601407E+01 -0.71341653829E+00  0.68639250977E+01  0.00000000000E+00 0.  1.
</event>
<event>
 7    1  0.1385632E-008  0.4614232E+02  0.7816164E-02  0.1320468E+00
        -11   -1    0    0    0    0  0.00000000000E+00  0.00000000000E+00  0.45593999997E+02  0.45594000000E+02  0.51100000000E-03 0.  1.
         11   -1    0    0    0    0 -0.00000000000E+00 -0.00000000000E+00 -0.45593999997E+02  0.45594000000E+02  0.51100000000E-03 0. -1.
    9900012    2    1    2    0    0  0.42959931588E+02 -0.13227999890E+02  0.29287942211E+01  0.46142317202E+02  0.99999949016E+01 0.  0.
         12    1    1    2    0    0 -0.42959931588E+02  0.13227999890E+02 -0.29287942211E+01  0.45045682798E+02  0.00000000000E+00 0. -1.
         11    1    3    3    0    0  0.44713889760E+01 -0.10702591424E+01 -0.19911630125E+01  0.50103397499E+01  0.51100000000E-03 0. -1.
        -11    1    3    3    0    0  0.23541898801E+02 -0.10154203828E+02  0.46028033973E+01  0.26048313840E+02  0.51100000000E-03 0.  1.
         12    1    3    3    0    0  0.14946643811E+02 -0.20035369199E+01  0.31715383628E+00  0.15083663612E+02  0.00000000000E+00 0. -1.
</event>
<event>
 7    1  0.1385632E-008  0.4614232E+02  0.7816164E-02  0.1320468E+00
        -11   -1    0    0    0    0  0.00000000000E+00  0.00000000000E+00  0.45593999997E+02  0.45594000000E+02  0.51100000000E-03 0. -1.
         11   -1    0    0    0    0 -0.00000000000E+00 -0.00000000000E+00 -0.45593999997E+02  0.45594000000E+02  0.51100000000E-03 0.  1.
    9900012    2    1    2    0    0 -0.37887902603E+02  0.24071681260E+02  0.37648696461E+01  0.46142320453E+02  0.10000024548E+02 0.  0.
         12    1    1    2    0    0  0.37887902603E+02 -0.24071681260E+02 -0.37648696461E+01  0.45045679547E+02  0.00000000000E+00 0. -1.
         11    1    3    3    0    0 -0.41266641057E+01  0.37929627257E+01 -0.17106343969E+01  0.58602212570E+01  0.51100000000E-03 0. -1.
        -11    1    3    3    0    0 -0.20710340299E+02  0.11494067323E+02  0.63604128220E+01  0.24525224371E+02  0.51100000000E-03 0.  1.
        -12    1    3    3    0    0 -0.13050898199E+02  0.87846512118E+01 -0.88490877893E+00  0.15756874825E+02  0.00000000000E+00 0.  1.
</event>
<event>
 7    1  0.1385632E-008  0.4614232E+02  0.7816164E-02  0.1320468E+00
        -11   -1    0    0    0    0  0.00000000000E+00  0.00000000000E+00  0.45593999997E+02  0.45594000000E+02  0.51100000000E-03 0. -1.
         11   -1    0    0    0    0 -0.00000000000E+00 -0.00000000000E+00 -0.45593999997E+02  0.45594000000E+02  0.51100000000E-03 0.  1.
    9900012    2    1    2    0    0  0.34286842742E+02  0.79998493557E+01 -0.28098546456E+02  0.46142317767E+02  0.10000000054E+02 0.  0.
         12    1    1    2    0    0 -0.34286842742E+02 -0.79998493557E+01  0.28098546456E+02  0.45045682233E+02  0.00000000000E+00 0. -1.
         11    1    3    3    0    0  0.20063787753E+01  0.14432365844E+01 -0.44100659637E+00  0.25105725856E+01  0.51100000000E-03 0. -1.
        -11    1    3    3    0    0  0.10769725293E+02  0.17963439097E+01 -0.49339052722E+01  0.11981538124E+02  0.51100000000E-03 0.  1.
        -12    1    3    3    0    0  0.21510738674E+02  0.47602688615E+01 -0.22723634587E+02  0.31650207057E+02  0.00000000000E+00 0.  1.
</event>
<event>
 7    1  0.1385632E-008  0.4614232E+02  0.7816164E-02  0.1320468E+00
        -11   -1    0    0    0    0  0.00000000000E+00  0.00000000000E+00  0.45593999997E+02  0.45594000000E+02  0.51100000000E-03 0.  1.
         11   -1    0    0    0    0 -0.00000000000E+00 -0.00000000000E+00 -0.45593999997E+02  0.45594000000E+02  0.51100000000E-03 0. -1.
    9900012    2    1    2    0    0 -0.36372231204E+02 -0.23759080132E+02  0.11902942408E+02  0.46142321745E+02  0.10000036324E+02 0.  0.
         12    1    1    2    0    0  0.36372231204E+02  0.23759080132E+02 -0.11902942408E+02  0.45045678255E+02  0.00000000000E+00 0. -1.
         11    1    3    3    0    0 -0.68548010231E+00 -0.30499732867E+00  0.13258918800E+01  0.15234486797E+01  0.51100000000E-03 0. -1.
        -11    1    3    3    0    0 -0.18563871602E+02 -0.14015442336E+02  0.22552329613E+01  0.23369553455E+02  0.51100000000E-03 0.  1.
        -12    1    3    3    0    0 -0.17122879500E+02 -0.94386404680E+01  0.83218175672E+01  0.21249319609E+02  0.00000000000E+00 0.  1.
</event>
<event>
 7    1  0.1385632E-008  0.4614232E+02  0.7816164E-02  0.1320468E+00
        -11   -1    0    0    0    0  0.00000000000E+00  0.00000000000E+00  0.45593999997E+02  0.45594000000E+02  0.51100000000E-03 0.  1.
         11   -1    0    0    0    0 -0.00000000000E+00 -0.00000000000E+00 -0.45593999997E+02  0.45594000000E+02  0.51100000000E-03 0. -1.
    9900012    2    1    2    0    0 -0.21763343476E+02 -0.11403019365E+02  0.37755017951E+02  0.46142319293E+02  0.10000013971E+02 0.  0.
         12    1    1    2    0    0  0.21763343476E+02  0.11403019365E+02 -0.37755017951E+02  0.45045680707E+02  0.00000000000E+00 0. -1.
         11    1    3    3    0    0 -0.33720108044E+01 -0.83348326891E+00  0.17733475199E+01  0.38999888348E+01  0.51100000000E-03 0.  1.
        -11    1    3    3    0    0 -0.71370328067E+01 -0.14018355961E+01  0.15682955680E+02  0.17287494886E+02  0.51100000000E-03 0. -1.
        -12    1    3    3    0    0 -0.11254299864E+02 -0.91677004999E+01  0.20298714751E+02  0.24954835573E+02  0.00000000000E+00 0.  1.
</event>
<event>
 7    1  0.1385632E-008  0.4614232E+02  0.7816164E-02  0.1320468E+00
        -11   -1    0    0    0    0  0.00000000000E+00  0.00000000000E+00  0.45593999997E+02  0.45594000000E+02  0.51100000000E-03 0.  1.
         11   -1    0    0    0    0 -0.00000000000E+00 -0.00000000000E+00 -0.45593999997E+02  0.45594000000E+02  0.51100000000E-03 0. -1.
    9900012    2    1    2    0    0 -0.15719908602E+02  0.32361339674E+01  0.42089492335E+02  0.46142318137E+02  0.10000003425E+02 0.  0.
         12    1    1    2    0    0  0.15719908602E+02 -0.32361339674E+01 -0.42089492335E+02  0.45045681863E+02  0.00000000000E+00 0. -1.
         11    1    3    3    0    0 -0.93154444460E+01  0.52875072584E+01  0.28304563929E+02  0.30263568489E+02  0.51100000000E-03 0. -1.
        -11    1    3    3    0    0 -0.17826602390E+01  0.12699673988E+01  0.39321951750E+01  0.45003170863E+01  0.51100000000E-03 0.  1.
         12    1    3    3    0    0 -0.46218039168E+01 -0.33213406898E+01  0.98527332313E+01  0.11378432561E+02  0.00000000000E+00 0. -1.
</event>
<event>
 7    1  0.1385632E-008  0.4614232E+02  0.7816164E-02  0.1320468E+00
        -11   -1    0    0    0    0  0.00000000000E+00  0.00000000000E+00  0.45593999997E+02  0.45594000000E+02  0.51100000000E-03 0. -1.
         11   -1    0    0    0    0 -0.00000000000E+00 -0.00000000000E+00 -0.45593999997E+02  0.45594000000E+02  0.51100000000E-03 0.  1.
    9900012    2    1    2    0    0 -0.38869681806E+01 -0.44389392796E+02  0.66020354586E+01  0.46142316670E+02  0.99999900539E+01 0.  0.
         12    1    1    2    0    0  0.38869681806E+01  0.44389392796E+02 -0.66020354586E+01  0.45045683330E+02  0.00000000000E+00 0. -1.
         11    1    3    3    0    0 -0.10062089778E+01 -0.45652311105E+01  0.30114239863E+01  0.55607972707E+01  0.51100000000E-03 0. -1.
        -11    1    3    3    0    0 -0.31116882880E+01 -0.84670217185E+01  0.18432384597E-01  0.90207206363E+01  0.51100000000E-03 0.  1.
        -12    1    3    3    0    0  0.23092908513E+00 -0.31357139967E+02  0.35721790877E+01  0.31560798763E+02  0.00000000000E+00 0.  1.
</event>
<event>
 7    1  0.1385632E-008  0.4614232E+02  0.7816164E-02  0.1320468E+00
        -11   -1    0    0    0    0  0.00000000000E+00  0.00000000000E+00  0.45593999997E+02  0.45594000000E+02  0.51100000000E-03 0.  1.
         11   -1    0    0    0    0 -0.00000000000E+00 -0.00000000000E+00 -0.45593999997E+02  0.45594000000E+02  0.51100000000E-03 0. -1.
    9900012    2    1    2    0    0 -0.40404807613E+02 -0.19807255077E+02 -0.20585581607E+01  0.46142317703E+02  0.99999994658E+01 0.  0.
         12    1    1    2    0    0  0.40404807613E+02  0.19807255077E+02  0.20585581607E+01  0.45045682297E+02  0.00000000000E+00 0. -1.
         11    1    3    3    0    0 -0.33971653354E+01  0.42633594542E-01  0.94025185601E+00  0.35251416643E+01  0.51100000000E-03 0. -1.
        -11    1    3    3    0    0 -0.12757977826E+02 -0.38364209903E+01 -0.24888794250E+01  0.13552809497E+02  0.51100000000E-03 0.  1.
         12    1    3    3    0    0 -0.24249664452E+02 -0.16013467682E+02 -0.50993059174E+00  0.29064366541E+02  0.00000000000E+00 0. -1.
</event>
<event>
 7    1  0.1385632E-008  0.4614232E+02  0.7816164E-02  0.1320468E+00
        -11   -1    0    0    0    0  0.00000000000E+00  0.00000000000E+00  0.45593999997E+02  0.45594000000E+02  0.51100000000E-03 0. -1.
         11   -1    0    0    0    0 -0.00000000000E+00 -0.00000000000E+00 -0.45593999997E+02  0.45594000000E+02  0.51100000000E-03 0.  1.
    9900012    2    1    2    0    0  0.34620240692E+02  0.34845639464E+01 -0.28607868689E+02  0.46142318716E+02  0.10000008703E+02 0.  0.
         12    1    1    2    0    0 -0.34620240692E+02 -0.34845639464E+01  0.28607868689E+02  0.45045681284E+02  0.00000000000E+00 0. -1.
         11    1    3    3    0    0  0.14254117480E+02  0.51727860201E+01 -0.97298588646E+01  0.18016873595E+02  0.51100000000E-03 0. -1.
        -11    1    3    3    0    0  0.13732156559E+02 -0.27728274333E+01 -0.14114702934E+02  0.19886818120E+02  0.51100000000E-03 0.  1.
         12    1    3    3    0    0  0.66339666522E+01  0.10846053597E+01 -0.47633068902E+01  0.82386270009E+01  0.00000000000E+00 0. -1.
</event>
<event>
 7    1  0.1385632E-008  0.4614232E+02  0.7816164E-02  0.1320468E+00
        -11   -1    0    0    0    0  0.00000000000E+00  0.00000000000E+00  0.45593999997E+02  0.45594000000E+02  0.51100000000E-03 0. -1.
         11   -1    0    0    0    0 -0.00000000000E+00 -0.00000000000E+00 -0.45593999997E+02  0.45594000000E+02  0.51100000000E-03 0.  1.
    9900012    2    1    2    0    0 -0.44878037012E+02 -0.26293259917E+01 -0.28569265907E+01  0.46142316624E+02  0.99999896336E+01 0.  0.
         12    1    1    2    0    0  0.44878037012E+02  0.26293259917E+01  0.28569265907E+01  0.45045683376E+02  0.00000000000E+00 0. -1.
         11    1    3    3    0    0 -0.81931170796E+01 -0.32453542675E+01 -0.61814230676E+00  0.88341152344E+01  0.51100000000E-03 0. -1.
        -11    1    3    3    0    0 -0.25043973319E+02  0.18443368401E+01 -0.41352489020E+01  0.25449999248E+02  0.51100000000E-03 0.  1.
        -12    1    3    3    0    0 -0.11640946614E+02 -0.12283085643E+01  0.18964646180E+01  0.11858202142E+02  0.00000000000E+00 0.  1.
</event>
<event>
 7    1  0.1385632E-008  0.4614232E+02  0.7816164E-02  0.1320468E+00
        -11   -1    0    0    0    0  0.00000000000E+00  0.00000000000E+00  0.45593999997E+02  0.45594000000E+02  0.51100000000E-03 0.  1.
         11   -1    0    0    0    0 -0.00000000000E+00 -0.00000000000E+00 -0.45593999997E+02  0.45594000000E+02  0.51100000000E-03 0. -1.
    9900012    2    1    2    0    0  0.27791424434E+02  0.35404049159E+02 -0.18175572216E+01  0.46142317819E+02  0.10000000526E+02 0.  0.
         12    1    1    2    0    0 -0.27791424434E+02 -0.35404049159E+02  0.18175572216E+01  0.45045682181E+02  0.00000000000E+00 0. -1.
         11    1    3    3    0    0  0.51560647470E+01  0.44903817524E+01 -0.16528359573E+01  0.70342305137E+01  0.51100000000E-03 0. -1.
        -11    1    3    3    0    0  0.18053665939E+02  0.19354795028E+02  0.17598715574E+01  0.26526215195E+02  0.51100000000E-03 0.  1.
        -12    1    3    3    0    0  0.45816937475E+01  0.11558872379E+02 -0.19245928218E+01  0.12581872110E+02  0.00000000000E+00 0.  1.
</event>
<event>
 7    1  0.1385632E-008  0.4614232E+02  0.7816164E-02  0.1320468E+00
        -11   -1    0    0    0    0  0.00000000000E+00  0.00000000000E+00  0.45593999997E+02  0.45594000000E+02  0.51100000000E-03 0.  1.
         11   -1    0    0    0    0 -0.00000000000E+00 -0.00000000000E+00 -0.45593999997E+02  0.45594000000E+02  0.51100000000E-03 0. -1.
    9900012    2    1    2    0    0 -0.29555957548E+02  0.30405491370E+02  0.15200820672E+02  0.46142317842E+02  0.10000000734E+02 0.  0.
         12    1    1    2    0    0  0.29555957548E+02 -0.30405491370E+02 -0.15200820672E+02  0.45045682158E+02  0.00000000000E+00 0. -1.
         11    1    3    3    0    0 -0.77423571347E+01  0.12555707586E+02  0.88094929262E+01  0.17181299510E+02  0.51100000000E-03 0. -1.
        -11    1    3    3    0    0 -0.71213915068E+01  0.55216211385E+01  0.11939148430E+01  0.90899917438E+01  0.51100000000E-03 0.  1.
         12    1    3    3    0    0 -0.14692208907E+02  0.12328162646E+02  0.51974129025E+01  0.19871026588E+02  0.00000000000E+00 0. -1.
</event>
<event>
 7    1  0.1385632E-008  0.4614232E+02  0.7816164E-02  0.1320468E+00
        -11   -1    0    0    0    0  0.00000000000E+00  0.00000000000E+00  0.45593999997E+02  0.45594000000E+02  0.51100000000E-03 0. -1.
         11   -1    0    0    0    0 -0.00000000000E+00 -0.00000000000E+00 -0.45593999997E+02  0.45594000000E+02  0.51100000000E-03 0.  1.
    9900012    2    1    2    0    0  0.54385760883E+01  0.20917793709E+02 -0.39521908899E+02  0.46142317781E+02  0.10000000185E+02 0.  0.
         12    1    1    2    0    0 -0.54385760883E+01 -0.20917793709E+02  0.39521908899E+02  0.45045682219E+02  0.00000000000E+00 0. -1.
         11    1    3    3    0    0 -0.24791576843E+00  0.25369379103E+01 -0.13135010640E+01  0.28675427626E+01  0.51100000000E-03 0. -1.
        -11    1    3    3    0    0  0.36760803889E+01  0.54860629431E+01 -0.80389871626E+01  0.10403642079E+02  0.51100000000E-03 0.  1.
         12    1    3    3    0    0  0.20104114678E+01  0.12894792855E+02 -0.30169420673E+02  0.32871132940E+02  0.00000000000E+00 0. -1.
</event>
<event>
 7    1  0.1385632E-008  0.4614232E+02  0.7816164E-02  0.1320468E+00
        -11   -1    0    0    0    0  0.00000000000E+00  0.00000000000E+00  0.45593999997E+02  0.45594000000E+02  0.51100000000E-03 0. -1.
         11   -1    0    0    0    0 -0.00000000000E+00 -0.00000000000E+00 -0.45593999997E+02  0.45594000000E+02  0.51100000000E-03 0.  1.
    9900012    2    1    2    0    0  0.30311664182E+02  0.33287098696E+02  0.15117756904E+01  0.46142318844E+02  0.10000009874E+02 0.  0.
         12    1    1    2    0    0 -0.30311664182E+02 -0.33287098696E+02 -0.15117756904E+01  0.45045681156E+02  0.00000000000E+00 0. -1.
         11    1    3    3    0    0  0.83022745028E+00  0.24805698933E+01 -0.23287007356E-01  0.26159218567E+01  0.51100000000E-03 0. -1.
        -11    1    3    3    0    0  0.35580179749E+01  0.49044882176E+00 -0.22904692009E+00  0.35989574475E+01  0.51100000000E-03 0.  1.
        -12    1    3    3    0    0  0.25923418757E+02  0.30316079981E+02  0.17641096179E+01  0.39927439540E+02  0.00000000000E+00 0.  1.
</event>
<event>
 7    1  0.1385632E-008  0.4614233E+02  0.7816164E-02  0.1320468E+00
        -11   -1    0    0    0    0  0.00000000000E+00  0.00000000000E+00  0.45593999997E+02  0.45594000000E+02  0.51100000000E-03 0.  1.
         11   -1    0    0    0    0 -0.00000000000E+00 -0.00000000000E+00 -0.45593999997E+02  0.45594000000E+02  0.51100000000E-03 0. -1.
    9900012    2    1    2    0    0  0.33370855238E+02 -0.20897086274E+02  0.21881727285E+02  0.46142332250E+02  0.10000132124E+02 0.  0.
         12    1    1    2    0    0 -0.33370855238E+02  0.20897086274E+02 -0.21881727285E+02  0.45045667750E+02  0.00000000000E+00 0. -1.
         11    1    3    3    0    0  0.41446352177E+01 -0.46041740287E+01  0.32633311447E+01  0.70018390439E+01  0.51100000000E-03 0. -1.
        -11    1    3    3    0    0  0.16640009747E+02 -0.46388591956E+01  0.94935980250E+01  0.19711350607E+02  0.51100000000E-03 0.  1.
        -12    1    3    3    0    0  0.12586210273E+02 -0.11654053050E+02  0.91247981150E+01  0.19429142600E+02  0.00000000000E+00 0.  1.
</event>
<event>
 7    1  0.1385632E-008  0.4614231E+02  0.7816164E-02  0.1320468E+00
        -11   -1    0    0    0    0  0.00000000000E+00  0.00000000000E+00  0.45593999997E+02  0.45594000000E+02  0.51100000000E-03 0. -1.
         11   -1    0    0    0    0 -0.00000000000E+00 -0.00000000000E+00 -0.45593999997E+02  0.45594000000E+02  0.51100000000E-03 0.  1.
    9900012    2    1    2    0    0 -0.39648580966E+01  0.15662519375E+02 -0.42048537203E+02  0.46142311041E+02  0.99999387206E+01 0.  0.
         12    1    1    2    0    0  0.39648580966E+01 -0.15662519375E+02  0.42048537203E+02  0.45045688959E+02  0.00000000000E+00 0. -1.
         11    1    3    3    0    0 -0.10320858562E+01 -0.59708656285E+00 -0.24170354123E+01  0.26951389618E+01  0.51100000000E-03 0. -1.
        -11    1    3    3    0    0 -0.21774393265E+00  0.13295738945E+02 -0.25549912023E+02  0.28803161131E+02  0.51100000000E-03 0.  1.
        -12    1    3    3    0    0 -0.27150283078E+01  0.29638669929E+01 -0.14081589767E+02  0.14644010948E+02  0.00000000000E+00 0.  1.
</event>
<event>
 7    1  0.1385632E-008  0.4614232E+02  0.7816164E-02  0.1320468E+00
        -11   -1    0    0    0    0  0.00000000000E+00  0.00000000000E+00  0.45593999997E+02  0.45594000000E+02  0.51100000000E-03 0. -1.
         11   -1    0    0    0    0 -0.00000000000E+00 -0.00000000000E+00 -0.45593999997E+02  0.45594000000E+02  0.51100000000E-03 0.  1.
    9900012    2    1    2    0    0 -0.39168386019E+02  0.12298165396E+02 -0.18539313957E+02  0.46142317661E+02  0.99999990859E+01 0.  0.
         12    1    1    2    0    0  0.39168386019E+02 -0.12298165396E+02  0.18539313957E+02  0.45045682339E+02  0.00000000000E+00 0. -1.
         11    1    3    3    0    0 -0.67410469553E+01  0.38765985702E+01 -0.11265789318E+01  0.78574112072E+01  0.51100000000E-03 0. -1.
        -11    1    3    3    0    0 -0.23042678977E+02  0.79117861840E+01 -0.10087439083E+02  0.26368880192E+02  0.51100000000E-03 0.  1.
        -12    1    3    3    0    0 -0.93846600862E+01  0.50978064218E+00 -0.73252959417E+01  0.11916026262E+02  0.00000000000E+00 0.  1.
</event>
<event>
 7    1  0.1385632E-008  0.4614232E+02  0.7816164E-02  0.1320468E+00
        -11   -1    0    0    0    0  0.00000000000E+00  0.00000000000E+00  0.45593999997E+02  0.45594000000E+02  0.51100000000E-03 0.  1.
         11   -1    0    0    0    0 -0.00000000000E+00 -0.00000000000E+00 -0.45593999997E+02  0.45594000000E+02  0.51100000000E-03 0. -1.
    9900012    2    1    2    0    0 -0.13186612978E+02 -0.10304215951E+02  0.41821643439E+02  0.46142317764E+02  0.10000000022E+02 0.  0.
         12    1    1    2    0    0  0.13186612978E+02  0.10304215951E+02 -0.41821643439E+02  0.45045682236E+02  0.00000000000E+00 0. -1.
         11    1    3    3    0    0 -0.30870357554E+01 -0.16970081813E+01  0.14546598630E+02  0.14967069134E+02  0.51100000000E-03 0. -1.
        -11    1    3    3    0    0 -0.10492811677E+02 -0.77367437678E+01  0.20236768591E+02  0.24072455302E+02  0.51100000000E-03 0.  1.
        -12    1    3    3    0    0  0.39323445427E+00 -0.87046400166E+00  0.70382762192E+01  0.71027933275E+01  0.00000000000E+00 0.  1.
</event>
<event>
 7    1  0.1385632E-008  0.4614232E+02  0.7816164E-02  0.1320468E+00
        -11   -1    0    0    0    0  0.00000000000E+00  0.00000000000E+00  0.45593999997E+02  0.45594000000E+02  0.51100000000E-03 0.  1.
         11   -1    0    0    0    0 -0.00000000000E+00 -0.00000000000E+00 -0.45593999997E+02  0.45594000000E+02  0.51100000000E-03 0. -1.
    9900012    2    1    2    0    0  0.35209129213E+01 -0.23368607774E+02  0.38348729214E+02  0.46142315530E+02  0.99999796532E+01 0.  0.
         12    1    1    2    0    0 -0.35209129213E+01  0.23368607774E+02 -0.38348729214E+02  0.45045684470E+02  0.00000000000E+00 0. -1.
         11    1    3    3    0    0  0.47396067117E+00 -0.12908503765E+02  0.17337062886E+02  0.21620079971E+02  0.51100000000E-03 0. -1.
        -11    1    3    3    0    0  0.72357184018E+00 -0.96373991476E+01  0.19089669740E+02  0.21396693894E+02  0.51100000000E-03 0.  1.
         12    1    3    3    0    0  0.23233804100E+01 -0.82270486099E+00  0.19219965877E+01  0.31255416652E+01  0.00000000000E+00 0. -1.
</event>
<event>
 7    1  0.1385632E-008  0.4614232E+02  0.7816164E-02  0.1320468E+00
        -11   -1    0    0    0    0  0.00000000000E+00  0.00000000000E+00  0.45593999997E+02  0.45594000000E+02  0.51100000000E-03 0. -1.
         11   -1    0    0    0    0 -0.00000000000E+00 -0.00000000000E+00 -0.45593999997E+02  0.45594000000E+02  0.51100000000E-03 0.  1.
    9900012    2    1    2    0    0 -0.90381041353E+00 -0.44098009626E+02 -0.91467025213E+01  0.46142317707E+02  0.99999995034E+01 0.  0.
         12    1    1    2    0    0  0.90381041353E+00  0.44098009626E+02  0.91467025213E+01  0.45045682293E+02  0.00000000000E+00 0. -1.
         11    1    3    3    0    0  0.26655121272E+01 -0.81976144444E+01  0.54242965551E+00  0.86371330701E+01  0.51100000000E-03 0. -1.
        -11    1    3    3    0    0 -0.31297329962E+01 -0.21832244332E+02 -0.72773648785E+01  0.23225033068E+02  0.51100000000E-03 0.  1.
        -12    1    3    3    0    0 -0.43958954460E+00 -0.14068150850E+02 -0.24117672984E+01  0.14280151568E+02  0.00000000000E+00 0.  1.
</event>
<event>
 7    1  0.1385632E-008  0.4614232E+02  0.7816164E-02  0.1320468E+00
        -11   -1    0    0    0    0  0.00000000000E+00  0.00000000000E+00  0.45593999997E+02  0.45594000000E+02  0.51100000000E-03 0.  1.
         11   -1    0    0    0    0 -0.00000000000E+00 -0.00000000000E+00 -0.45593999997E+02  0.45594000000E+02  0.51100000000E-03 0. -1.
    9900012    2    1    2    0    0  0.29434735948E+02 -0.22138120798E+02  0.25934791785E+02  0.46142317657E+02  0.99999990517E+01 0.  0.
         12    1    1    2    0    0 -0.29434735948E+02  0.22138120798E+02 -0.25934791785E+02  0.45045682343E+02  0.00000000000E+00 0. -1.
         11    1    3    3    0    0  0.26031817964E+02 -0.19517138241E+02  0.18586495915E+02  0.37470415827E+02  0.51100000000E-03 0. -1.
        -11    1    3    3    0    0  0.26207442596E+01 -0.26842797482E+01  0.65763277498E+01  0.75711125454E+01  0.51100000000E-03 0.  1.
         12    1    3    3    0    0  0.78217372509E+00  0.63297191039E-01  0.77196812014E+00  0.11007892846E+01  0.00000000000E+00 0. -1.
</event>
<event>
 7    1  0.1385632E-008  0.4614232E+02  0.7816164E-02  0.1320468E+00
        -11   -1    0    0    0    0  0.00000000000E+00  0.00000000000E+00  0.45593999997E+02  0.45594000000E+02  0.51100000000E-03 0. -1.
         11   -1    0    0    0    0 -0.00000000000E+00 -0.00000000000E+00 -0.45593999997E+02  0.45594000000E+02  0.51100000000E-03 0.  1.
    9900012    2    1    2    0    0  0.33800740084E+02 -0.26157142890E+02  0.14227687495E+02  0.46142320453E+02  0.10000024543E+02 0.  0.
         12    1    1    2    0    0 -0.33800740084E+02  0.26157142890E+02 -0.14227687495E+02  0.45045679547E+02  0.00000000000E+00 0. -1.
         11    1    3    3    0    0  0.16438703591E+02 -0.77963448023E+01  0.67543275128E+01  0.19407083976E+02  0.51100000000E-03 0. -1.
        -11    1    3    3    0    0  0.99732525752E+01 -0.81344394899E+01  0.21792320585E+01  0.13053119373E+02  0.51100000000E-03 0.  1.
         12    1    3    3    0    0  0.73887839179E+01 -0.10226358598E+02  0.52941279241E+01  0.13682117104E+02  0.00000000000E+00 0. -1.
</event>
<event>
 7    1  0.1385632E-008  0.4614231E+02  0.7816164E-02  0.1320468E+00
        -11   -1    0    0    0    0  0.00000000000E+00  0.00000000000E+00  0.45593999997E+02  0.45594000000E+02  0.51100000000E-03 0. -1.
         11   -1    0    0    0    0 -0.00000000000E+00 -0.00000000000E+00 -0.45593999997E+02  0.45594000000E+02  0.51100000000E-03 0.  1.
    9900012    2    1    2    0    0  0.11788757767E+02  0.42550024383E+02 -0.89238511563E+01  0.46142306486E+02  0.99998971868E+01 0.  0.
         12    1    1    2    0    0 -0.11788757767E+02 -0.42550024383E+02  0.89238511563E+01  0.45045693514E+02  0.00000000000E+00 0. -1.
         11    1    3    3    0    0  0.93290539372E+01  0.25014691906E+02 -0.25454819130E+01  0.26818753457E+02  0.51100000000E-03 0. -1.
        -11    1    3    3    0    0 -0.23067772733E-01  0.12388174918E+02 -0.54497670657E+01  0.13533934064E+02  0.51100000000E-03 0.  1.
        -12    1    3    3    0    0  0.24827716027E+01  0.51471575584E+01 -0.92860217762E+00  0.57896189656E+01  0.00000000000E+00 0.  1.
</event>
<event>
 7    1  0.1385632E-008  0.4614232E+02  0.7816164E-02  0.1320468E+00
        -11   -1    0    0    0    0  0.00000000000E+00  0.00000000000E+00  0.45593999997E+02  0.45594000000E+02  0.51100000000E-03 0.  1.
         11   -1    0    0    0    0 -0.00000000000E+00 -0.00000000000E+00 -0.45593999997E+02  0.45594000000E+02  0.51100000000E-03 0. -1.
    9900012    2    1    2    0    0 -0.28443669697E+02 -0.31095524652E+01  0.34790831053E+02  0.46142316658E+02  0.99999899436E+01 0.  0.
         12    1    1    2    0    0  0.28443669697E+02  0.31095524652E+01 -0.34790831053E+02  0.45045683342E+02  0.00000000000E+00 0. -1.
         11    1    3    3    0    0 -0.10602326734E+01  0.16212230894E+00  0.17926633383E+00  0.10874344322E+01  0.51100000000E-03 0. -1.
        -11    1    3    3    0    0 -0.80271639036E+01 -0.49001094837E+01  0.11974838011E+02  0.15226397438E+02  0.51100000000E-03 0.  1.
        -12    1    3    3    0    0 -0.19356273120E+02  0.16284347095E+01  0.22636726708E+02  0.29828484788E+02  0.00000000000E+00 0.  1.
</event>
<event>
 7    1  0.1385632E-008  0.4614232E+02  0.7816164E-02  0.1320468E+00
        -11   -1    0    0    0    0  0.00000000000E+00  0.00000000000E+00  0.45593999997E+02  0.45594000000E+02  0.51100000000E-03 0. -1.
         11   -1    0    0    0    0 -0.00000000000E+00 -0.00000000000E+00 -0.45593999997E+02  0.45594000000E+02  0.51100000000E-03 0.  1.
    9900012    2    1    2    0    0  0.37108627099E+02  0.24570787535E+02 -0.69526690179E+01  0.46142318612E+02  0.10000007761E+02 0.  0.
         12    1    1    2    0    0 -0.37108627099E+02 -0.24570787535E+02  0.69526690179E+01  0.45045681388E+02  0.00000000000E+00 0. -1.
         11    1    3    3    0    0  0.16288363159E+01  0.26973822790E+01  0.45520262338E+00  0.31837381476E+01  0.51100000000E-03 0. -1.
        -11    1    3    3    0    0  0.29541448315E+02  0.20798915388E+02 -0.50523054659E+01  0.36480376103E+02  0.51100000000E-03 0.  1.
        -12    1    3    3    0    0  0.59383424679E+01  0.10744898680E+01 -0.23555661753E+01  0.64782043615E+01  0.00000000000E+00 0.  1.
</event>
<event>
 7    1  0.1385632E-008  0.4614232E+02  0.7816164E-02  0.1320468E+00
        -11   -1    0    0    0    0  0.00000000000E+00  0.00000000000E+00  0.45593999997E+02  0.45594000000E+02  0.51100000000E-03 0.  1.
         11   -1    0    0    0    0 -0.00000000000E+00 -0.00000000000E+00 -0.45593999997E+02  0.45594000000E+02  0.51100000000E-03 0. -1.
    9900012    2    1    2    0    0  0.29526248131E+02 -0.18176443169E+02  0.28756410323E+02  0.46142317081E+02  0.99999937966E+01 0.  0.
         12    1    1    2    0    0 -0.29526248131E+02  0.18176443169E+02 -0.28756410323E+02  0.45045682919E+02  0.00000000000E+00 0. -1.
         11    1    3    3    0    0  0.34304102138E+01 -0.42078523334E+01  0.10539014658E+01  0.55303204298E+01  0.51100000000E-03 0. -1.
        -11    1    3    3    0    0  0.66308843339E+01 -0.29774365646E+01  0.80707695682E+01  0.10861449131E+02  0.51100000000E-03 0.  1.
        -12    1    3    3    0    0  0.19464953584E+02 -0.10991154271E+02  0.19631739289E+02  0.29750547520E+02  0.00000000000E+00 0.  1.
</event>
<event>
 7    1  0.1385632E-008  0.4614232E+02  0.7816164E-02  0.1320468E+00
        -11   -1    0    0    0    0  0.00000000000E+00  0.00000000000E+00  0.45593999997E+02  0.45594000000E+02  0.51100000000E-03 0.  1.
         11   -1    0    0    0    0 -0.00000000000E+00 -0.00000000000E+00 -0.45593999997E+02  0.45594000000E+02  0.51100000000E-03 0. -1.
    9900012    2    1    2    0    0  0.31833335027E+01  0.36269100812E+02  0.26524180658E+02  0.46142318237E+02  0.10000004339E+02 0.  0.
         12    1    1    2    0    0 -0.31833335027E+01 -0.36269100812E+02 -0.26524180658E+02  0.45045681763E+02  0.00000000000E+00 0. -1.
         11    1    3    3    0    0  0.52696877187E+01  0.16440895046E+02  0.97499763176E+01  0.19827624089E+02  0.51100000000E-03 0. -1.
        -11    1    3    3    0    0  0.91382565964E+00  0.37265446873E+01  0.24222252595E+01  0.45375530974E+01  0.51100000000E-03 0.  1.
         12    1    3    3    0    0 -0.30001798757E+01  0.16101661079E+02  0.14351979081E+02  0.21777141051E+02  0.00000000000E+00 0. -1.
</event>
<event>
 7    1  0.1385632E-008  0.4614232E+02  0.7816164E-02  0.1320468E+00
        -11   -1    0    0    0    0  0.00000000000E+00  0.00000000000E+00  0.45593999997E+02  0.45594000000E+02  0.51100000000E-03 0.  1.
         11   -1    0    0    0    0 -0.00000000000E+00 -0.00000000000E+00 -0.45593999997E+02  0.45594000000E+02  0.51100000000E-03 0. -1.
    9900012    2    1    2    0    0 -0.17779795428E+02 -0.39715041839E+02 -0.11649370169E+02  0.46142317642E+02  0.99999989166E+01 0.  0.
         12    1    1    2    0    0  0.17779795428E+02  0.39715041839E+02  0.11649370169E+02  0.45045682358E+02  0.00000000000E+00 0. -1.
         11    1    3    3    0    0 -0.21720601153E+01 -0.77893070708E+01  0.55987663376E+00  0.81058381364E+01  0.51100000000E-03 0. -1.
        -11    1    3    3    0    0 -0.10883738318E+02 -0.18036117948E+02 -0.95382219435E+01  0.23124337580E+02  0.51100000000E-03 0.  1.
        -12    1    3    3    0    0 -0.47239969947E+01 -0.13889616820E+02 -0.26710248596E+01  0.14912141926E+02  0.00000000000E+00 0.  1.
</event>
<event>
 7    1  0.1385632E-008  0.4614232E+02  0.7816164E-02  0.1320468E+00
        -11   -1    0    0    0    0  0.00000000000E+00  0.00000000000E+00  0.45593999997E+02  0.45594000000E+02  0.51100000000E-03 0.  1.
         11   -1    0    0    0    0 -0.00000000000E+00 -0.00000000000E+00 -0.45593999997E+02  0.45594000000E+02  0.51100000000E-03 0. -1.
    9900012    2    1    2    0    0  0.23904395588E+01 -0.82317851024E+01  0.44222585108E+02  0.46142317400E+02  0.99999967058E+01 0.  0.
         12    1    1    2    0    0 -0.23904395588E+01  0.82317851024E+01 -0.44222585108E+02  0.45045682600E+02  0.00000000000E+00 0. -1.
         11    1    3    3    0    0  0.24159721778E+01 -0.50505721567E+00  0.25159463231E+02  0.25280241192E+02  0.51100000000E-03 0.  1.
        -11    1    3    3    0    0 -0.15858084089E+01 -0.42250327287E+01  0.84804234054E+01  0.96064182329E+01  0.51100000000E-03 0. -1.
         12    1    3    3    0    0  0.15602757899E+01 -0.35016951580E+01  0.10582698471E+02  0.11255657975E+02  0.00000000000E+00 0. -1.
</event>
<event>
 7    1  0.1385632E-008  0.4614232E+02  0.7816164E-02  0.1320468E+00
        -11   -1    0    0    0    0  0.00000000000E+00  0.00000000000E+00  0.45593999997E+02  0.45594000000E+02  0.51100000000E-03 0. -1.
         11   -1    0    0    0    0 -0.00000000000E+00 -0.00000000000E+00 -0.45593999997E+02  0.45594000000E+02  0.51100000000E-03 0.  1.
    9900012    2    1    2    0    0  0.41369570899E+02 -0.35391112561E+01  0.17468451386E+02  0.46142317647E+02  0.99999989583E+01 0.  0.
         12    1    1    2    0    0 -0.41369570899E+02  0.35391112561E+01 -0.17468451386E+02  0.45045682353E+02  0.00000000000E+00 0. -1.
         11    1    3    3    0    0  0.60877905633E+01  0.25742097974E+00 -0.52609891688E-02  0.60932329221E+01  0.51100000000E-03 0. -1.
        -11    1    3    3    0    0  0.17689939614E+02 -0.11536948003E+00  0.11542234660E+02  0.21122747333E+02  0.51100000000E-03 0.  1.
        -12    1    3    3    0    0  0.17591840721E+02 -0.36811627558E+01  0.59314777156E+01  0.18926337392E+02  0.00000000000E+00 0.  1.
</event>
<event>
 7    1  0.1385632E-008  0.4614231E+02  0.7816164E-02  0.1320468E+00
        -11   -1    0    0    0    0  0.00000000000E+00  0.00000000000E+00  0.45593999997E+02  0.45594000000E+02  0.51100000000E-03 0.  1.
         11   -1    0    0    0    0 -0.00000000000E+00 -0.00000000000E+00 -0.45593999997E+02  0.45594000000E+02  0.51100000000E-03 0. -1.
    9900012    2    1    2    0    0 -0.30527063241E+01 -0.43530786696E+01  0.44730811573E+02  0.46142314149E+02  0.99999670595E+01 0.  0.
         12    1    1    2    0    0  0.30527063241E+01  0.43530786696E+01 -0.44730811573E+02  0.45045685851E+02  0.00000000000E+00 0. -1.
         11    1    3    3    0    0 -0.34131508426E+01 -0.42681370150E+01  0.11806852237E+02  0.13010317147E+02  0.51100000000E-03 0. -1.
        -11    1    3    3    0    0 -0.15825493217E+01 -0.30464576683E+00  0.19484170843E+02  0.19550708046E+02  0.51100000000E-03 0.  1.
         12    1    3    3    0    0  0.19429938402E+01  0.21970411226E+00  0.13439788494E+02  0.13581288957E+02  0.00000000000E+00 0. -1.
</event>
<event>
 7    1  0.1385632E-008  0.4614232E+02  0.7816164E-02  0.1320468E+00
        -11   -1    0    0    0    0  0.00000000000E+00  0.00000000000E+00  0.45593999997E+02  0.45594000000E+02  0.51100000000E-03 0.  1.
         11   -1    0    0    0    0 -0.00000000000E+00 -0.00000000000E+00 -0.45593999997E+02  0.45594000000E+02  0.51100000000E-03 0. -1.
    9900012    2    1    2    0    0 -0.53236882999E+01 -0.23834119956E+02  0.37851111291E+02  0.46142316998E+02  0.99999930380E+01 0.  0.
         12    1    1    2    0    0  0.53236882999E+01  0.23834119956E+02 -0.37851111291E+02  0.45045683002E+02  0.00000000000E+00 0. -1.
         11    1    3    3    0    0  0.10235889697E+01 -0.14320320264E+01  0.16430662231E+01  0.24079279429E+01  0.51100000000E-03 0. -1.
        -11    1    3    3    0    0 -0.80289705208E+01 -0.16462662239E+02  0.28135534808E+02  0.33572189902E+02  0.51100000000E-03 0.  1.
        -12    1    3    3    0    0  0.16816932512E+01 -0.59394256909E+01  0.80725102601E+01  0.10162199153E+02  0.00000000000E+00 0.  1.
</event>
<event>
 7    1  0.1385632E-008  0.4614232E+02  0.7816164E-02  0.1320468E+00
        -11   -1    0    0    0    0  0.00000000000E+00  0.00000000000E+00  0.45593999997E+02  0.45594000000E+02  0.51100000000E-03 0.  1.
         11   -1    0    0    0    0 -0.00000000000E+00 -0.00000000000E+00 -0.45593999997E+02  0.45594000000E+02  0.51100000000E-03 0. -1.
    9900012    2    1    2    0    0  0.20377635654E+02  0.17123839268E+02  0.36340604894E+02  0.46142317963E+02  0.10000001839E+02 0.  0.
         12    1    1    2    0    0 -0.20377635654E+02 -0.17123839268E+02 -0.36340604894E+02  0.45045682037E+02  0.00000000000E+00 0. -1.
         11    1    3    3    0    0 -0.82405823087E+00  0.24228136277E+01  0.36084052810E+01  0.44237638698E+01  0.51100000000E-03 0. -1.
        -11    1    3    3    0    0  0.11786110544E+02  0.90082864160E+01  0.17818024862E+02  0.23184987301E+02  0.51100000000E-03 0.  1.
         12    1    3    3    0    0  0.94155833409E+01  0.56927392245E+01  0.14914174751E+02  0.18533566792E+02  0.00000000000E+00 0. -1.
</event>
<event>
 7    1  0.1385632E-008  0.4614232E+02  0.7816164E-02  0.1320468E+00
        -11   -1    0    0    0    0  0.00000000000E+00  0.00000000000E+00  0.45593999997E+02  0.45594000000E+02  0.51100000000E-03 0. -1.
         11   -1    0    0    0    0 -0.00000000000E+00 -0.00000000000E+00 -0.45593999997E+02  0.45594000000E+02  0.51100000000E-03 0.  1.
    9900012    2    1    2    0    0  0.28018200492E+02  0.24149103754E+02 -0.25708262203E+02  0.46142317450E+02  0.99999971605E+01 0.  0.
         12    1    1    2    0    0 -0.28018200492E+02 -0.24149103754E+02  0.25708262203E+02  0.45045682550E+02  0.00000000000E+00 0. -1.
         11    1    3    3    0    0  0.47270489325E+01  0.10761866853E+01 -0.41292185084E+01  0.63681720410E+01  0.51100000000E-03 0. -1.
        -11    1    3    3    0    0  0.20570455870E+02  0.20368964167E+02 -0.21275931454E+02  0.35926363794E+02  0.51100000000E-03 0.  1.
        -12    1    3    3    0    0  0.27206956896E+01  0.27039529013E+01 -0.30311224083E+00  0.38477816152E+01  0.00000000000E+00 0.  1.
</event>
<event>
 7    1  0.1385632E-008  0.4614232E+02  0.7816164E-02  0.1320468E+00
        -11   -1    0    0    0    0  0.00000000000E+00  0.00000000000E+00  0.45593999997E+02  0.45594000000E+02  0.51100000000E-03 0. -1.
         11   -1    0    0    0    0 -0.00000000000E+00 -0.00000000000E+00 -0.45593999997E+02  0.45594000000E+02  0.51100000000E-03 0.  1.
    9900012    2    1    2    0    0 -0.23592815801E+02 -0.34333021945E+02 -0.17138726981E+02  0.46142319677E+02  0.10000017466E+02 0.  0.
         12    1    1    2    0    0  0.23592815801E+02  0.34333021945E+02  0.17138726981E+02  0.45045680323E+02  0.00000000000E+00 0. -1.
         11    1    3    3    0    0 -0.73654036806E+01 -0.53184457845E+01 -0.16525355749E+01  0.92339542466E+01  0.51100000000E-03 0. -1.
        -11    1    3    3    0    0 -0.99740241226E+01 -0.19294130723E+02 -0.80438404876E+01  0.23161347276E+02  0.51100000000E-03 0.  1.
         12    1    3    3    0    0 -0.62533879976E+01 -0.97204454371E+01 -0.74423509183E+01  0.13747018154E+02  0.00000000000E+00 0. -1.
</event>
<event>
 7    1  0.1385632E-008  0.4614232E+02  0.7816164E-02  0.1320468E+00
        -11   -1    0    0    0    0  0.00000000000E+00  0.00000000000E+00  0.45593999997E+02  0.45594000000E+02  0.51100000000E-03 0.  1.
         11   -1    0    0    0    0 -0.00000000000E+00 -0.00000000000E+00 -0.45593999997E+02  0.45594000000E+02  0.51100000000E-03 0. -1.
    9900012    2    1    2    0    0  0.12180313252E+02  0.30331706978E+02  0.30995823699E+02  0.46142316901E+02  0.99999921530E+01 0.  0.
         12    1    1    2    0    0 -0.12180313252E+02 -0.30331706978E+02 -0.30995823699E+02  0.45045683099E+02  0.00000000000E+00 0. -1.
         11    1    3    3    0    0 -0.11146253949E+01  0.57933586154E+00  0.19871592677E+01  0.23509194005E+01  0.51100000000E-03 0. -1.
        -11    1    3    3    0    0  0.63380510273E+01  0.14977098492E+02  0.16954346598E+02  0.23493280718E+02  0.51100000000E-03 0.  1.
         12    1    3    3    0    0  0.69568876193E+01  0.14775272625E+02  0.12054317833E+02  0.20298116782E+02  0.00000000000E+00 0. -1.
</event>
<event>
 7    1  0.1385632E-008  0.4614232E+02  0.7816164E-02  0.1320468E+00
        -11   -1    0    0    0    0  0.00000000000E+00  0.00000000000E+00  0.45593999997E+02  0.45594000000E+02  0.51100000000E-03 0. -1.
         11   -1    0    0    0    0 -0.00000000000E+00 -0.00000000000E+00 -0.45593999997E+02  0.45594000000E+02  0.51100000000E-03 0.  1.
    9900012    2    1    2    0    0 -0.26032517408E+02  0.29714546150E+02 -0.21644104285E+02  0.46142318011E+02  0.10000002282E+02 0.  0.
         12    1    1    2    0    0  0.26032517408E+02 -0.29714546150E+02  0.21644104285E+02  0.45045681989E+02  0.00000000000E+00 0. -1.
         11    1    3    3    0    0 -0.32323816332E+01  0.92794609892E+01 -0.60312977702E+01  0.11529667832E+02  0.51100000000E-03 0. -1.
        -11    1    3    3    0    0 -0.21311314525E+02  0.19242414168E+02 -0.15657017558E+02  0.32704507776E+02  0.51100000000E-03 0.  1.
         12    1    3    3    0    0 -0.14888212507E+01  0.11926709931E+01  0.44211043793E-01  0.19081424032E+01  0.00000000000E+00 0. -1.
</event>
<event>
 7    1  0.1385632E-008  0.4614232E+02  0.7816164E-02  0.1320468E+00
        -11   -1    0    0    0    0  0.00000000000E+00  0.00000000000E+00  0.45593999997E+02  0.45594000000E+02  0.51100000000E-03 0. -1.
         11   -1    0    0    0    0 -0.00000000000E+00 -0.00000000000E+00 -0.45593999997E+02  0.45594000000E+02  0.51100000000E-03 0.  1.
    9900012    2    1    2    0    0  0.42250048315E+02  0.14607544629E+02 -0.55377423336E+01  0.46142317267E+02  0.99999954927E+01 0.  0.
         12    1    1    2    0    0 -0.42250048315E+02 -0.14607544629E+02  0.55377423336E+01  0.45045682733E+02  0.00000000000E+00 0. -1.
         11    1    3    3    0    0  0.92484719080E+01  0.52279790435E+01  0.22822569527E+01  0.10866218044E+02  0.51100000000E-03 0. -1.
        -11    1    3    3    0    0  0.24221400018E+02  0.59380498941E+01 -0.50228076824E+01  0.25439442852E+02  0.51100000000E-03 0.  1.
         12    1    3    3    0    0  0.87801763897E+01  0.34415156918E+01 -0.27971916039E+01  0.98366563709E+01  0.00000000000E+00 0. -1.
</event>
<event>
 7    1  0.1385632E-008  0.4614232E+02  0.7816164E-02  0.1320468E+00
        -11   -1    0    0    0    0  0.00000000000E+00  0.00000000000E+00  0.45593999997E+02  0.45594000000E+02  0.51100000000E-03 0.  1.
         11   -1    0    0    0    0 -0.00000000000E+00 -0.00000000000E+00 -0.45593999997E+02  0.45594000000E+02  0.51100000000E-03 0. -1.
    9900012    2    1    2    0    0 -0.43864418220E+02 -0.94909790795E+01  0.38662181782E+01  0.46142317491E+02  0.99999975379E+01 0.  0.
         12    1    1    2    0    0  0.43864418220E+02  0.94909790795E+01 -0.38662181782E+01  0.45045682509E+02  0.00000000000E+00 0. -1.
         11    1    3    3    0    0 -0.20492717587E+02 -0.52142709553E+01  0.61376779871E+01  0.22018428351E+02  0.51100000000E-03 0. -1.
        -11    1    3    3    0    0 -0.22773293730E+02 -0.45756859539E+01 -0.26092255913E+01  0.23374513208E+02  0.51100000000E-03 0.  1.
        -12    1    3    3    0    0 -0.59840690333E+00  0.29897782967E+00  0.33776578243E+00  0.74937593260E+00  0.00000000000E+00 0.  1.
</event>
<event>
 7    1  0.1385632E-008  0.4614232E+02  0.7816164E-02  0.1320468E+00
        -11   -1    0    0    0    0  0.00000000000E+00  0.00000000000E+00  0.45593999997E+02  0.45594000000E+02  0.51100000000E-03 0.  1.
         11   -1    0    0    0    0 -0.00000000000E+00 -0.00000000000E+00 -0.45593999997E+02  0.45594000000E+02  0.51100000000E-03 0. -1.
    9900012    2    1    2    0    0 -0.29573434716E+02 -0.33971165747E+02 -0.69664012651E+00  0.46142318180E+02  0.10000003824E+02 0.  0.
         12    1    1    2    0    0  0.29573434716E+02  0.33971165747E+02  0.69664012651E+00  0.45045681820E+02  0.00000000000E+00 0. -1.
         11    1    3    3    0    0 -0.82335936929E+01 -0.10611389313E+02  0.37797444303E+01  0.13952781675E+02  0.51100000000E-03 0. -1.
        -11    1    3    3    0    0 -0.59577774608E+01 -0.92369028615E+01 -0.13330364629E+01  0.11072148537E+02  0.51100000000E-03 0.  1.
         12    1    3    3    0    0 -0.15382063562E+02 -0.14122873573E+02 -0.31433480939E+01  0.21117387969E+02  0.00000000000E+00 0. -1.
</event>
<event>
 7    1  0.1385632E-008  0.4614232E+02  0.7816164E-02  0.1320468E+00
        -11   -1    0    0    0    0  0.00000000000E+00  0.00000000000E+00  0.45593999997E+02  0.45594000000E+02  0.51100000000E-03 0.  1.
         11   -1    0    0    0    0 -0.00000000000E+00 -0.00000000000E+00 -0.45593999997E+02  0.45594000000E+02  0.51100000000E-03 0. -1.
    9900012    2    1    2    0    0  0.58017541392E+01  0.44513281378E+02 -0.37444426959E+01  0.46142318506E+02  0.10000006795E+02 0.  0.
         12    1    1    2    0    0 -0.58017541392E+01 -0.44513281378E+02  0.37444426959E+01  0.45045681494E+02  0.00000000000E+00 0. -1.
         11    1    3    3    0    0 -0.10335030475E+01  0.17292094980E+01  0.10625299011E+01  0.22775566050E+01  0.51100000000E-03 0. -1.
        -11    1    3    3    0    0  0.52077860930E+01  0.36307130791E+02 -0.57279246929E+01  0.37123279810E+02  0.51100000000E-03 0.  1.
         12    1    3    3    0    0  0.16274710937E+01  0.64769410888E+01  0.92095209593E+00  0.67414820916E+01  0.00000000000E+00 0. -1.
</event>
<event>
 7    1  0.1385632E-008  0.4614232E+02  0.7816164E-02  0.1320468E+00
        -11   -1    0    0    0    0  0.00000000000E+00  0.00000000000E+00  0.45593999997E+02  0.45594000000E+02  0.51100000000E-03 0.  1.
         11   -1    0    0    0    0 -0.00000000000E+00 -0.00000000000E+00 -0.45593999997E+02  0.45594000000E+02  0.51100000000E-03 0. -1.
    9900012    2    1    2    0    0 -0.21309484006E+02  0.33235391496E+02  0.21689356905E+02  0.46142316972E+02  0.99999928059E+01 0.  0.
         12    1    1    2    0    0  0.21309484006E+02 -0.33235391496E+02 -0.21689356905E+02  0.45045683028E+02  0.00000000000E+00 0. -1.
         11    1    3    3    0    0 -0.10870621659E+02  0.16369839998E+02  0.66206902812E+01  0.20735853415E+02  0.51100000000E-03 0.  1.
        -11    1    3    3    0    0 -0.37624599500E+01  0.77748186689E+01  0.94598050948E+01  0.12809833055E+02  0.51100000000E-03 0. -1.
        -12    1    3    3    0    0 -0.66764023973E+01  0.90907328292E+01  0.56088615287E+01  0.12596630501E+02  0.00000000000E+00 0.  1.
</event>
<event>
 7    1  0.1385632E-008  0.4614232E+02  0.7816164E-02  0.1320468E+00
        -11   -1    0    0    0    0  0.00000000000E+00  0.00000000000E+00  0.45593999997E+02  0.45594000000E+02  0.51100000000E-03 0.  1.
         11   -1    0    0    0    0 -0.00000000000E+00 -0.00000000000E+00 -0.45593999997E+02  0.45594000000E+02  0.51100000000E-03 0. -1.
    9900012    2    1    2    0    0  0.62699056351E+00  0.46520368989E+01  0.44800434581E+02  0.46142317597E+02  0.99999985052E+01 0.  0.
         12    1    1    2    0    0 -0.62699056351E+00 -0.46520368989E+01 -0.44800434581E+02  0.45045682403E+02  0.00000000000E+00 0. -1.
         11    1    3    3    0    0  0.12255558993E+01  0.65640460445E+01  0.19445797816E+02  0.20560343886E+02  0.51100000000E-03 0. -1.
        -11    1    3    3    0    0  0.47327362716E+00 -0.22338137750E+01  0.16829588513E+02  0.16983785258E+02  0.51100000000E-03 0.  1.
        -12    1    3    3    0    0 -0.10718389629E+01  0.32180462939E+00  0.85250482520E+01  0.85981884534E+01  0.00000000000E+00 0.  1.
</event>
<event>
 7    1  0.1385632E-008  0.4614231E+02  0.7816164E-02  0.1320468E+00
        -11   -1    0    0    0    0  0.00000000000E+00  0.00000000000E+00  0.45593999997E+02  0.45594000000E+02  0.51100000000E-03 0. -1.
         11   -1    0    0    0    0 -0.00000000000E+00 -0.00000000000E+00 -0.45593999997E+02  0.45594000000E+02  0.51100000000E-03 0.  1.
    9900012    2    1    2    0    0  0.82408820202E+01 -0.35798011298E+02 -0.26071136139E+02  0.46142313314E+02  0.99999594517E+01 0.  0.
         12    1    1    2    0    0 -0.82408820202E+01  0.35798011298E+02  0.26071136139E+02  0.45045686686E+02  0.00000000000E+00 0. -1.
         11    1    3    3    0    0  0.11941918053E+01 -0.88753620078E+00 -0.28485359920E+01  0.32137162499E+01  0.51100000000E-03 0. -1.
        -11    1    3    3    0    0  0.20296334837E+01 -0.42938590676E+01 -0.12506071102E+01  0.49112784665E+01  0.51100000000E-03 0.  1.
        -12    1    3    3    0    0  0.50170567311E+01 -0.30616616030E+02 -0.21971993037E+02  0.38017318598E+02  0.00000000000E+00 0.  1.
</event>
<event>
 7    1  0.1385632E-008  0.4614232E+02  0.7816164E-02  0.1320468E+00
        -11   -1    0    0    0    0  0.00000000000E+00  0.00000000000E+00  0.45593999997E+02  0.45594000000E+02  0.51100000000E-03 0.  1.
         11   -1    0    0    0    0 -0.00000000000E+00 -0.00000000000E+00 -0.45593999997E+02  0.45594000000E+02  0.51100000000E-03 0. -1.
    9900012    2    1    2    0    0  0.22102911730E+02  0.14058666245E+01  0.39224970696E+02  0.46142317698E+02  0.99999994288E+01 0.  0.
         12    1    1    2    0    0 -0.22102911730E+02 -0.14058666245E+01 -0.39224970696E+02  0.45045682302E+02  0.00000000000E+00 0. -1.
         11    1    3    3    0    0  0.78339518274E+01 -0.58745746475E+00  0.18752480956E+02  0.20331538303E+02  0.51100000000E-03 0.  1.
        -11    1    3    3    0    0  0.45313648340E+01 -0.14306959502E+01  0.33369528221E+01  0.58064974433E+01  0.51100000000E-03 0. -1.
        -12    1    3    3    0    0  0.97375950684E+01  0.34240200394E+01  0.17135536918E+02  0.20004281952E+02  0.00000000000E+00 0.  1.
</event>
<event>
 7    1  0.1385632E-008  0.4614232E+02  0.7816164E-02  0.1320468E+00
        -11   -1    0    0    0    0  0.00000000000E+00  0.00000000000E+00  0.45593999997E+02  0.45594000000E+02  0.51100000000E-03 0.  1.
         11   -1    0    0    0    0 -0.00000000000E+00 -0.00000000000E+00 -0.45593999997E+02  0.45594000000E+02  0.51100000000E-03 0. -1.
    9900012    2    1    2    0    0  0.37372068015E+01  0.37453372942E+02  0.24746546864E+02  0.46142318286E+02  0.10000004784E+02 0.  0.
         12    1    1    2    0    0 -0.37372068015E+01 -0.37453372942E+02 -0.24746546864E+02  0.45045681714E+02  0.00000000000E+00 0. -1.
         11    1    3    3    0    0 -0.23364684023E+00  0.37306481233E+01  0.92023732403E+00  0.38495666326E+01  0.51100000000E-03 0. -1.
        -11    1    3    3    0    0  0.44706538791E+01  0.25925046894E+02  0.14203350134E+02  0.29896989110E+02  0.51100000000E-03 0.  1.
        -12    1    3    3    0    0 -0.49980023739E+00  0.77976779252E+01  0.96229594061E+01  0.12395762543E+02  0.00000000000E+00 0.  1.
</event>
<event>
 7    1  0.1385632E-008  0.4614232E+02  0.7816164E-02  0.1320468E+00
        -11   -1    0    0    0    0  0.00000000000E+00  0.00000000000E+00  0.45593999997E+02  0.45594000000E+02  0.51100000000E-03 0.  1.
         11   -1    0    0    0    0 -0.00000000000E+00 -0.00000000000E+00 -0.45593999997E+02  0.45594000000E+02  0.51100000000E-03 0. -1.
    9900012    2    1    2    0    0 -0.26313113722E+02 -0.29770212171E+02  0.21224232003E+02  0.46142317515E+02  0.99999977552E+01 0.  0.
         12    1    1    2    0    0  0.26313113722E+02  0.29770212171E+02 -0.21224232003E+02  0.45045682485E+02  0.00000000000E+00 0. -1.
         11    1    3    3    0    0 -0.70434587364E+01 -0.97213146557E+01  0.33003757184E+01  0.12450170672E+02  0.51100000000E-03 0. -1.
        -11    1    3    3    0    0 -0.74689396220E+01 -0.92321052094E+01  0.11219177310E+02  0.16336669350E+02  0.51100000000E-03 0.  1.
        -12    1    3    3    0    0 -0.11800715363E+02 -0.10816792306E+02  0.67046789741E+01  0.17355477493E+02  0.00000000000E+00 0.  1.
</event>
<event>
 7    1  0.1385632E-008  0.4614232E+02  0.7816164E-02  0.1320468E+00
        -11   -1    0    0    0    0  0.00000000000E+00  0.00000000000E+00  0.45593999997E+02  0.45594000000E+02  0.51100000000E-03 0. -1.
         11   -1    0    0    0    0 -0.00000000000E+00 -0.00000000000E+00 -0.45593999997E+02  0.45594000000E+02  0.51100000000E-03 0.  1.
    9900012    2    1    2    0    0 -0.17178938792E+02  0.29547041368E+02 -0.29342288678E+02  0.46142317671E+02  0.99999991797E+01 0.  0.
         12    1    1    2    0    0  0.17178938792E+02 -0.29547041368E+02  0.29342288678E+02  0.45045682329E+02  0.00000000000E+00 0. -1.
         11    1    3    3    0    0 -0.14486289701E+02  0.26023478564E+02 -0.21097551171E+02  0.36499050557E+02  0.51100000000E-03 0. -1.
        -11    1    3    3    0    0 -0.31095653164E+01  0.32005417447E+01 -0.75630024482E+01  0.87813364706E+01  0.51100000000E-03 0.  1.
         12    1    3    3    0    0  0.41691622561E+00  0.32302105843E+00 -0.68173505897E+00  0.86193064338E+00  0.00000000000E+00 0. -1.
</event>
<event>
 7    1  0.1385632E-008  0.4614232E+02  0.7816164E-02  0.1320468E+00
        -11   -1    0    0    0    0  0.00000000000E+00  0.00000000000E+00  0.45593999997E+02  0.45594000000E+02  0.51100000000E-03 0. -1.
         11   -1    0    0    0    0 -0.00000000000E+00 -0.00000000000E+00 -0.45593999997E+02  0.45594000000E+02  0.51100000000E-03 0.  1.
    9900012    2    1    2    0    0 -0.28542491866E+02 -0.34483901825E+02 -0.50299304162E+01  0.46142317332E+02  0.99999960879E+01 0.  0.
         12    1    1    2    0    0  0.28542491866E+02  0.34483901825E+02  0.50299304162E+01  0.45045682668E+02  0.00000000000E+00 0. -1.
         11    1    3    3    0    0 -0.23521752247E+02 -0.22490470811E+02 -0.31176345057E+01  0.32692717098E+02  0.51100000000E-03 0. -1.
        -11    1    3    3    0    0 -0.17574242934E+01 -0.30692539488E+01 -0.17501041839E+01  0.39461024904E+01  0.51100000000E-03 0.  1.
         12    1    3    3    0    0 -0.32633153259E+01 -0.89241770652E+01 -0.16219172656E+00  0.95034977437E+01  0.00000000000E+00 0. -1.
</event>
<event>
 7    1  0.1385632E-008  0.4614232E+02  0.7816164E-02  0.1320468E+00
        -11   -1    0    0    0    0  0.00000000000E+00  0.00000000000E+00  0.45593999997E+02  0.45594000000E+02  0.51100000000E-03 0.  1.
         11   -1    0    0    0    0 -0.00000000000E+00 -0.00000000000E+00 -0.45593999997E+02  0.45594000000E+02  0.51100000000E-03 0. -1.
    9900012    2    1    2    0    0  0.15054993986E+02 -0.36140274043E+02  0.22278716955E+02  0.46142317843E+02  0.10000000745E+02 0.  0.
         12    1    1    2    0    0 -0.15054993986E+02  0.36140274043E+02 -0.22278716955E+02  0.45045682157E+02  0.00000000000E+00 0. -1.
         11    1    3    3    0    0 -0.23010222697E+00 -0.32089493191E+01 -0.30512338355E+00  0.32316254901E+01  0.51100000000E-03 0. -1.
        -11    1    3    3    0    0  0.73059283544E+01 -0.18339940867E+02  0.10557177905E+02  0.22387139739E+02  0.51100000000E-03 0.  1.
         12    1    3    3    0    0  0.79791678587E+01 -0.14591383857E+02  0.12026662434E+02  0.20523552613E+02  0.00000000000E+00 0. -1.
</event>
<event>
 7    1  0.1385632E-008  0.4614232E+02  0.7816164E-02  0.1320468E+00
        -11   -1    0    0    0    0  0.00000000000E+00  0.00000000000E+00  0.45593999997E+02  0.45594000000E+02  0.51100000000E-03 0. -1.
         11   -1    0    0    0    0 -0.00000000000E+00 -0.00000000000E+00 -0.45593999997E+02  0.45594000000E+02  0.51100000000E-03 0.  1.
    9900012    2    1    2    0    0  0.33711628639E+02  0.12162285769E+02 -0.27289529673E+02  0.46142317295E+02  0.99999957494E+01 0.  0.
         12    1    1    2    0    0 -0.33711628639E+02 -0.12162285769E+02  0.27289529673E+02  0.45045682705E+02  0.00000000000E+00 0. -1.
         11    1    3    3    0    0  0.80274894978E+00  0.10068619096E+01  0.36358432042E+00  0.13380473088E+01  0.51100000000E-03 0. -1.
        -11    1    3    3    0    0  0.22624109671E+02  0.95040899707E+01 -0.16662466932E+02  0.29661690260E+02  0.51100000000E-03 0.  1.
         12    1    3    3    0    0  0.10284770018E+02  0.16513338891E+01 -0.10990647061E+02  0.15142579726E+02  0.00000000000E+00 0. -1.
</event>
<event>
 7    1  0.1385632E-008  0.4614232E+02  0.7816164E-02  0.1320468E+00
        -11   -1    0    0    0    0  0.00000000000E+00  0.00000000000E+00  0.45593999997E+02  0.45594000000E+02  0.51100000000E-03 0.  1.
         11   -1    0    0    0    0 -0.00000000000E+00 -0.00000000000E+00 -0.45593999997E+02  0.45594000000E+02  0.51100000000E-03 0. -1.
    9900012    2    1    2    0    0 -0.15855721950E+02  0.32998833489E+02  0.26244747007E+02  0.46142315683E+02  0.99999810470E+01 0.  0.
         12    1    1    2    0    0  0.15855721950E+02 -0.32998833489E+02 -0.26244747007E+02  0.45045684317E+02  0.00000000000E+00 0. -1.
         11    1    3    3    0    0 -0.33292966485E+01  0.13602453790E+02  0.12771002152E+02  0.18952821993E+02  0.51100000000E-03 0. -1.
        -11    1    3    3    0    0 -0.12713342754E+02  0.18793032622E+02  0.13716064075E+02  0.26512969903E+02  0.51100000000E-03 0.  1.
        -12    1    3    3    0    0  0.18691745324E+00  0.60334707646E+00 -0.24231921962E+00  0.67652378613E+00  0.00000000000E+00 0.  1.
</event>
<event>
 7    1  0.1385632E-008  0.4614232E+02  0.7816164E-02  0.1320468E+00
        -11   -1    0    0    0    0  0.00000000000E+00  0.00000000000E+00  0.45593999997E+02  0.45594000000E+02  0.51100000000E-03 0.  1.
         11   -1    0    0    0    0 -0.00000000000E+00 -0.00000000000E+00 -0.45593999997E+02  0.45594000000E+02  0.51100000000E-03 0. -1.
    9900012    2    1    2    0    0  0.17677931104E+02 -0.34627138538E+02  0.22750067491E+02  0.46142317162E+02  0.99999945391E+01 0.  0.
         12    1    1    2    0    0 -0.17677931104E+02  0.34627138538E+02 -0.22750067491E+02  0.45045682838E+02  0.00000000000E+00 0. -1.
         11    1    3    3    0    0  0.11733995346E+01 -0.85077943474E+00 -0.60635012806E-01  0.14506443328E+01  0.51100000000E-03 0. -1.
        -11    1    3    3    0    0  0.16155236802E+02 -0.33748503035E+02  0.21120305291E+02  0.42965339857E+02  0.51100000000E-03 0.  1.
        -12    1    3    3    0    0  0.34929476814E+00 -0.27856069150E-01  0.16903972125E+01  0.17263329724E+01  0.00000000000E+00 0.  1.
</event>
<event>
 7    1  0.1385632E-008  0.4614232E+02  0.7816164E-02  0.1320468E+00
        -11   -1    0    0    0    0  0.00000000000E+00  0.00000000000E+00  0.45593999997E+02  0.45594000000E+02  0.51100000000E-03 0. -1.
         11   -1    0    0    0    0 -0.00000000000E+00 -0.00000000000E+00 -0.45593999997E+02  0.45594000000E+02  0.51100000000E-03 0.  1.
    9900012    2    1    2    0    0  0.26377225784E+02  0.36484789879E+02  0.14884628905E+01  0.46142318139E+02  0.10000003443E+02 0.  0.
         12    1    1    2    0    0 -0.26377225784E+02 -0.36484789879E+02 -0.14884628905E+01  0.45045681861E+02  0.00000000000E+00 0. -1.
         11    1    3    3    0    0  0.27816747441E+01  0.14242959535E+01  0.19725209075E+01  0.36955611667E+01  0.51100000000E-03 0. -1.
        -11    1    3    3    0    0  0.17445635590E+02  0.26985608243E+02  0.12088756527E+01  0.32156408910E+02  0.51100000000E-03 0.  1.
         12    1    3    3    0    0  0.61499154501E+01  0.80748856823E+01 -0.16929336696E+01  0.10290348062E+02  0.00000000000E+00 0. -1.
</event>
<event>
 7    1  0.1385632E-008  0.4614232E+02  0.7816164E-02  0.1320468E+00
        -11   -1    0    0    0    0  0.00000000000E+00  0.00000000000E+00  0.45593999997E+02  0.45594000000E+02  0.51100000000E-03 0.  1.
         11   -1    0    0    0    0 -0.00000000000E+00 -0.00000000000E+00 -0.45593999997E+02  0.45594000000E+02  0.51100000000E-03 0. -1.
    9900012    2    1    2    0    0 -0.41220814458E+02 -0.14379848373E+02  0.11098552567E+02  0.46142318155E+02  0.10000003587E+02 0.  0.
         12    1    1    2    0    0  0.41220814458E+02  0.14379848373E+02 -0.11098552567E+02  0.45045681845E+02  0.00000000000E+00 0. -1.
         11    1    3    3    0    0 -0.52277112585E+01 -0.40703876146E+01  0.34596573877E+01  0.74743728724E+01  0.51100000000E-03 0. -1.
        -11    1    3    3    0    0 -0.13383942870E+02 -0.38086724921E+01  0.57847251773E+01  0.15069802870E+02  0.51100000000E-03 0.  1.
         12    1    3    3    0    0 -0.22609160330E+02 -0.65007882668E+01  0.18541700016E+01  0.23598142412E+02  0.00000000000E+00 0. -1.
</event>
<event>
 7    1  0.1385632E-008  0.4614232E+02  0.7816164E-02  0.1320468E+00
        -11   -1    0    0    0    0  0.00000000000E+00  0.00000000000E+00  0.45593999997E+02  0.45594000000E+02  0.51100000000E-03 0. -1.
         11   -1    0    0    0    0 -0.00000000000E+00 -0.00000000000E+00 -0.45593999997E+02  0.45594000000E+02  0.51100000000E-03 0.  1.
    9900012    2    1    2    0    0  0.33434672554E+02 -0.28530349211E+02 -0.98618165845E+01  0.46142316730E+02  0.99999906002E+01 0.  0.
         12    1    1    2    0    0 -0.33434672554E+02  0.28530349211E+02  0.98618165845E+01  0.45045683270E+02  0.00000000000E+00 0. -1.
         11    1    3    3    0    0  0.71915205407E+01 -0.24029325697E+01 -0.38149215625E+00  0.75919423831E+01  0.51100000000E-03 0.  1.
        -11    1    3    3    0    0  0.25840621602E+02 -0.25573720357E+02 -0.84692533844E+01  0.37329360439E+02  0.51100000000E-03 0. -1.
        -12    1    3    3    0    0  0.40253041119E+00 -0.55369628480E+00 -0.10110710438E+01  0.12210139079E+01  0.00000000000E+00 0.  1.
</event>
<event>
 7    1  0.1385632E-008  0.4614232E+02  0.7816164E-02  0.1320468E+00
        -11   -1    0    0    0    0  0.00000000000E+00  0.00000000000E+00  0.45593999997E+02  0.45594000000E+02  0.51100000000E-03 0.  1.
         11   -1    0    0    0    0 -0.00000000000E+00 -0.00000000000E+00 -0.45593999997E+02  0.45594000000E+02  0.51100000000E-03 0. -1.
    9900012    2    1    2    0    0  0.41389850227E+02 -0.16988433805E+02 -0.52332446439E+01  0.46142318359E+02  0.10000005454E+02 0.  0.
         12    1    1    2    0    0 -0.41389850227E+02  0.16988433805E+02  0.52332446439E+01  0.45045681641E+02  0.00000000000E+00 0. -1.
         11    1    3    3    0    0  0.20135514596E+02 -0.11389782332E+02  0.14557159118E+00  0.23134115089E+02  0.51100000000E-03 0.  1.
        -11    1    3    3    0    0  0.21136786057E+02 -0.56649570219E+01 -0.47857498756E+01  0.22399974666E+02  0.51100000000E-03 0. -1.
         12    1    3    3    0    0  0.11754957388E+00  0.66305548841E-01 -0.59306635947E+00  0.60822860411E+00  0.00000000000E+00 0. -1.
</event>
<event>
 7    1  0.1385632E-008  0.4614232E+02  0.7816164E-02  0.1320468E+00
        -11   -1    0    0    0    0  0.00000000000E+00  0.00000000000E+00  0.45593999997E+02  0.45594000000E+02  0.51100000000E-03 0. -1.
         11   -1    0    0    0    0 -0.00000000000E+00 -0.00000000000E+00 -0.45593999997E+02  0.45594000000E+02  0.51100000000E-03 0.  1.
    9900012    2    1    2    0    0 -0.17823295762E+01 -0.20379220033E+02 -0.40132582467E+02  0.46142317817E+02  0.10000000509E+02 0.  0.
         12    1    1    2    0    0  0.17823295762E+01  0.20379220033E+02  0.40132582467E+02  0.45045682183E+02  0.00000000000E+00 0. -1.
         11    1    3    3    0    0 -0.40774934752E-01 -0.51605648992E+01 -0.45503601696E+01  0.68803248912E+01  0.51100000000E-03 0. -1.
        -11    1    3    3    0    0 -0.30810710888E+01 -0.33126770503E+01 -0.80128423234E+01  0.92017645403E+01  0.51100000000E-03 0.  1.
        -12    1    3    3    0    0  0.13395164473E+01 -0.11905978083E+02 -0.27569379974E+02  0.30060228385E+02  0.00000000000E+00 0.  1.
</event>
<event>
 7    1  0.1385632E-008  0.4614232E+02  0.7816164E-02  0.1320468E+00
        -11   -1    0    0    0    0  0.00000000000E+00  0.00000000000E+00  0.45593999997E+02  0.45594000000E+02  0.51100000000E-03 0.  1.
         11   -1    0    0    0    0 -0.00000000000E+00 -0.00000000000E+00 -0.45593999997E+02  0.45594000000E+02  0.51100000000E-03 0. -1.
    9900012    2    1    2    0    0  0.73001490588E+01 -0.18908193327E+02  0.40228119176E+02  0.46142317369E+02  0.99999964282E+01 0.  0.
         12    1    1    2    0    0 -0.73001490588E+01  0.18908193327E+02 -0.40228119176E+02  0.45045682631E+02  0.00000000000E+00 0. -1.
         11    1    3    3    0    0  0.13763241369E+00 -0.21848516771E+01  0.51889810095E+00  0.22498388903E+01  0.51100000000E-03 0. -1.
        -11    1    3    3    0    0  0.70857675164E+01 -0.16246781908E+02  0.35737572089E+02  0.39891604164E+02  0.51100000000E-03 0.  1.
         12    1    3    3    0    0  0.76749128652E-01 -0.47655974200E+00  0.39716489864E+01  0.40008743154E+01  0.00000000000E+00 0. -1.
</event>
<event>
 7    1  0.1385632E-008  0.4614232E+02  0.7816164E-02  0.1320468E+00
        -11   -1    0    0    0    0  0.00000000000E+00  0.00000000000E+00  0.45593999997E+02  0.45594000000E+02  0.51100000000E-03 0.  1.
         11   -1    0    0    0    0 -0.00000000000E+00 -0.00000000000E+00 -0.45593999997E+02  0.45594000000E+02  0.51100000000E-03 0. -1.
    9900012    2    1    2    0    0  0.25194079008E+02 -0.28087106287E+02  0.24606629825E+02  0.46142318876E+02  0.10000010164E+02 0.  0.
         12    1    1    2    0    0 -0.25194079008E+02  0.28087106287E+02 -0.24606629825E+02  0.45045681124E+02  0.00000000000E+00 0. -1.
         11    1    3    3    0    0  0.37781715517E+01 -0.10489552903E+02  0.68879075531E+01  0.13105287906E+02  0.51100000000E-03 0. -1.
        -11    1    3    3    0    0  0.18016633090E+02 -0.16123575694E+02  0.15290155372E+02  0.28606950425E+02  0.51100000000E-03 0.  1.
         12    1    3    3    0    0  0.33992743658E+01 -0.14739776897E+01  0.24285669003E+01  0.44300805447E+01  0.00000000000E+00 0. -1.
</event>
<event>
 7    1  0.1385632E-008  0.4614232E+02  0.7816164E-02  0.1320468E+00
        -11   -1    0    0    0    0  0.00000000000E+00  0.00000000000E+00  0.45593999997E+02  0.45594000000E+02  0.51100000000E-03 0.  1.
         11   -1    0    0    0    0 -0.00000000000E+00 -0.00000000000E+00 -0.45593999997E+02  0.45594000000E+02  0.51100000000E-03 0. -1.
    9900012    2    1    2    0    0  0.27767679482E+02 -0.35448209159E+02  0.12222841930E+01  0.46142317243E+02  0.99999952797E+01 0.  0.
         12    1    1    2    0    0 -0.27767679482E+02  0.35448209159E+02 -0.12222841930E+01  0.45045682757E+02  0.00000000000E+00 0. -1.
         11    1    3    3    0    0  0.57674290506E+01 -0.73665852883E+01 -0.19428924511E+01  0.95553465663E+01  0.51100000000E-03 0. -1.
        -11    1    3    3    0    0  0.22145409217E+02 -0.25171847504E+02  0.26825244965E+01  0.33633866773E+02  0.51100000000E-03 0.  1.
        -12    1    3    3    0    0 -0.14515878575E+00 -0.29097763664E+01  0.48265214763E+00  0.29531039045E+01  0.00000000000E+00 0.  1.
</event>
<event>
 7    1  0.1385632E-008  0.4614232E+02  0.7816164E-02  0.1320468E+00
        -11   -1    0    0    0    0  0.00000000000E+00  0.00000000000E+00  0.45593999997E+02  0.45594000000E+02  0.51100000000E-03 0. -1.
         11   -1    0    0    0    0 -0.00000000000E+00 -0.00000000000E+00 -0.45593999997E+02  0.45594000000E+02  0.51100000000E-03 0.  1.
    9900012    2    1    2    0    0 -0.17748444197E+02  0.39915554893E+02 -0.10993384206E+02  0.46142319961E+02  0.10000020061E+02 0.  0.
         12    1    1    2    0    0  0.17748444197E+02 -0.39915554893E+02  0.10993384206E+02  0.45045680039E+02  0.00000000000E+00 0. -1.
         11    1    3    3    0    0 -0.20552556581E+01  0.63714677825E+01 -0.52005165381E+01  0.84773256424E+01  0.51100000000E-03 0. -1.
        -11    1    3    3    0    0 -0.10765445779E+02  0.18935625865E+02 -0.28188649605E+01  0.21963577797E+02  0.51100000000E-03 0.  1.
         12    1    3    3    0    0 -0.49277427608E+01  0.14608461246E+02 -0.29740027072E+01  0.15701416522E+02  0.00000000000E+00 0. -1.
</event>
<event>
 7    1  0.1385632E-008  0.4614231E+02  0.7816164E-02  0.1320468E+00
        -11   -1    0    0    0    0  0.00000000000E+00  0.00000000000E+00  0.45593999997E+02  0.45594000000E+02  0.51100000000E-03 0. -1.
         11   -1    0    0    0    0 -0.00000000000E+00 -0.00000000000E+00 -0.45593999997E+02  0.45594000000E+02  0.51100000000E-03 0.  1.
    9900012    2    1    2    0    0  0.35537525278E+02 -0.26968554807E+02  0.62366025121E+01  0.46142313612E+02  0.99999621635E+01 0.  0.
         12    1    1    2    0    0 -0.35537525278E+02  0.26968554807E+02 -0.62366025121E+01  0.45045686388E+02  0.00000000000E+00 0. -1.
         11    1    3    3    0    0  0.59063042607E+01 -0.56515546094E+01 -0.24820317574E+01  0.85431248047E+01  0.51100000000E-03 0. -1.
        -11    1    3    3    0    0  0.11782117728E+02 -0.73061739540E+01  0.27115543025E+01  0.14126252263E+02  0.51100000000E-03 0.  1.
         12    1    3    3    0    0  0.17849103289E+02 -0.14010826244E+02  0.60070799669E+01  0.23472936544E+02  0.00000000000E+00 0. -1.
</event>
<event>
 7    1  0.1385632E-008  0.4614232E+02  0.7816164E-02  0.1320468E+00
        -11   -1    0    0    0    0  0.00000000000E+00  0.00000000000E+00  0.45593999997E+02  0.45594000000E+02  0.51100000000E-03 0.  1.
         11   -1    0    0    0    0 -0.00000000000E+00 -0.00000000000E+00 -0.45593999997E+02  0.45594000000E+02  0.51100000000E-03 0. -1.
    9900012    2    1    2    0    0  0.15828630179E+02  0.27877262381E+02  0.31645320268E+02  0.46142316677E+02  0.99999901119E+01 0.  0.
         12    1    1    2    0    0 -0.15828630179E+02 -0.27877262381E+02 -0.31645320268E+02  0.45045683323E+02  0.00000000000E+00 0. -1.
         11    1    3    3    0    0  0.10127814582E+02  0.12390858883E+02  0.10642292416E+02  0.19218855330E+02  0.51100000000E-03 0. -1.
        -11    1    3    3    0    0  0.47041058595E+01  0.11558541895E+02  0.13419745924E+02  0.18325339931E+02  0.51100000000E-03 0.  1.
         12    1    3    3    0    0  0.99670973751E+00  0.39278616025E+01  0.75832819286E+01  0.85981214156E+01  0.00000000000E+00 0. -1.
</event>
<event>
 7    1  0.1385632E-008  0.4614232E+02  0.7816164E-02  0.1320468E+00
        -11   -1    0    0    0    0  0.00000000000E+00  0.00000000000E+00  0.45593999997E+02  0.45594000000E+02  0.51100000000E-03 0. -1.
         11   -1    0    0    0    0 -0.00000000000E+00 -0.00000000000E+00 -0.45593999997E+02  0.45594000000E+02  0.51100000000E-03 0.  1.
    9900012    2    1    2    0    0 -0.34059597043E+01 -0.14067365904E+01 -0.44894701626E+02  0.46142315374E+02  0.99999782341E+01 0.  0.
         12    1    1    2    0    0  0.34059597043E+01  0.14067365904E+01  0.44894701626E+02  0.45045684626E+02  0.00000000000E+00 0. -1.
         11    1    3    3    0    0  0.23179233742E+01 -0.26798084516E+01 -0.18669411139E+02  0.19002659147E+02  0.51100000000E-03 0. -1.
        -11    1    3    3    0    0 -0.75514999759E+00 -0.93752144360E+00 -0.22130422812E+01  0.25192765579E+01  0.51100000000E-03 0.  1.
         12    1    3    3    0    0 -0.49687330809E+01  0.22105933047E+01 -0.24012248206E+02  0.24620379670E+02  0.00000000000E+00 0. -1.
</event>
<event>
 7    1  0.1385632E-008  0.4614232E+02  0.7816164E-02  0.1320468E+00
        -11   -1    0    0    0    0  0.00000000000E+00  0.00000000000E+00  0.45593999997E+02  0.45594000000E+02  0.51100000000E-03 0. -1.
         11   -1    0    0    0    0 -0.00000000000E+00 -0.00000000000E+00 -0.45593999997E+02  0.45594000000E+02  0.51100000000E-03 0.  1.
    9900012    2    1    2    0    0  0.30366937698E+02  0.32966630903E+01 -0.33107317060E+02  0.46142319457E+02  0.10000015465E+02 0.  0.
         12    1    1    2    0    0 -0.30366937698E+02 -0.32966630903E+01  0.33107317060E+02  0.45045680543E+02  0.00000000000E+00 0. -1.
         11    1    3    3    0    0  0.22315140098E+02  0.42703465718E+01 -0.17981151131E+02  0.28974525599E+02  0.51100000000E-03 0. -1.
        -11    1    3    3    0    0  0.70266299087E+01 -0.72309723298E+00 -0.13078903300E+02  0.14864525195E+02  0.51100000000E-03 0.  1.
         12    1    3    3    0    0  0.10251676911E+01 -0.25058624853E+00 -0.20472626282E+01  0.23032686625E+01  0.00000000000E+00 0. -1.
</event>
<event>
 7    1  0.1385632E-008  0.4614232E+02  0.7816164E-02  0.1320468E+00
        -11   -1    0    0    0    0  0.00000000000E+00  0.00000000000E+00  0.45593999997E+02  0.45594000000E+02  0.51100000000E-03 0. -1.
         11   -1    0    0    0    0 -0.00000000000E+00 -0.00000000000E+00 -0.45593999997E+02  0.45594000000E+02  0.51100000000E-03 0.  1.
    9900012    2    1    2    0    0 -0.35313121276E+02  0.27763066207E+02 -0.33629095296E+01  0.46142317189E+02  0.99999947786E+01 0.  0.
         12    1    1    2    0    0  0.35313121276E+02 -0.27763066207E+02  0.33629095296E+01  0.45045682811E+02  0.00000000000E+00 0. -1.
         11    1    3    3    0    0 -0.12550900600E+02  0.44855843186E+01 -0.10983344812E+00  0.13328827263E+02  0.51100000000E-03 0. -1.
        -11    1    3    3    0    0 -0.12086594659E+02  0.11806285337E+02 -0.28737621364E+01  0.17138630429E+02  0.51100000000E-03 0.  1.
         12    1    3    3    0    0 -0.10675626017E+02  0.11471196551E+02 -0.37931394502E+00  0.15674859497E+02  0.00000000000E+00 0. -1.
</event>
<event>
 7    1  0.1385632E-008  0.4614232E+02  0.7816164E-02  0.1320468E+00
        -11   -1    0    0    0    0  0.00000000000E+00  0.00000000000E+00  0.45593999997E+02  0.45594000000E+02  0.51100000000E-03 0.  1.
         11   -1    0    0    0    0 -0.00000000000E+00 -0.00000000000E+00 -0.45593999997E+02  0.45594000000E+02  0.51100000000E-03 0. -1.
    9900012    2    1    2    0    0 -0.21154475766E+02  0.27716702229E+02  0.28519928112E+02  0.46142315113E+02  0.99999758566E+01 0.  0.
         12    1    1    2    0    0  0.21154475766E+02 -0.27716702229E+02 -0.28519928112E+02  0.45045684887E+02  0.00000000000E+00 0. -1.
         11    1    3    3    0    0  0.10376071251E+00  0.16538376360E+01  0.15436372622E+01  0.22646769019E+01  0.51100000000E-03 0. -1.
        -11    1    3    3    0    0 -0.15025359427E+02  0.16910876287E+02  0.13157444688E+02  0.26169782454E+02  0.51100000000E-03 0.  1.
        -12    1    3    3    0    0 -0.62328770515E+01  0.91519883056E+01  0.13818846161E+02  0.17707855757E+02  0.00000000000E+00 0.  1.
</event>
<event>
 7    1  0.1385632E-008  0.4614232E+02  0.7816164E-02  0.1320468E+00
        -11   -1    0    0    0    0  0.00000000000E+00  0.00000000000E+00  0.45593999997E+02  0.45594000000E+02  0.51100000000E-03 0.  1.
         11   -1    0    0    0    0 -0.00000000000E+00 -0.00000000000E+00 -0.45593999997E+02  0.45594000000E+02  0.51100000000E-03 0. -1.
    9900012    2    1    2    0    0  0.23260004809E+02 -0.14004612661E+02  0.35943797902E+02  0.46142316443E+02  0.99999879824E+01 0.  0.
         12    1    1    2    0    0 -0.23260004809E+02  0.14004612661E+02 -0.35943797902E+02  0.45045683557E+02  0.00000000000E+00 0. -1.
         11    1    3    3    0    0  0.70406710785E+01 -0.36651218438E+01  0.11793528905E+02  0.14215888704E+02  0.51100000000E-03 0. -1.
        -11    1    3    3    0    0  0.16017292495E+02 -0.10559127951E+02  0.24715378559E+02  0.31287358143E+02  0.51100000000E-03 0.  1.
         12    1    3    3    0    0  0.20204123486E+00  0.21963713373E+00 -0.56510956230E+00  0.63906959597E+00  0.00000000000E+00 0. -1.
</event>
<event>
 7    1  0.1385632E-008  0.4614232E+02  0.7816164E-02  0.1320468E+00
        -11   -1    0    0    0    0  0.00000000000E+00  0.00000000000E+00  0.45593999997E+02  0.45594000000E+02  0.51100000000E-03 0. -1.
         11   -1    0    0    0    0 -0.00000000000E+00 -0.00000000000E+00 -0.45593999997E+02  0.45594000000E+02  0.51100000000E-03 0.  1.
    9900012    2    1    2    0    0  0.66546714925E+01 -0.10091769909E+02 -0.43393373770E+02  0.46142319189E+02  0.10000013020E+02 0.  0.
         12    1    1    2    0    0 -0.66546714925E+01  0.10091769909E+02  0.43393373770E+02  0.45045680811E+02  0.00000000000E+00 0. -1.
         11    1    3    3    0    0  0.32395601803E+01 -0.96201939989E+00 -0.22858284955E+02  0.23106739770E+02  0.51100000000E-03 0.  1.
        -11    1    3    3    0    0  0.25731716022E+01 -0.35755592703E+01 -0.59287208814E+01  0.73861740935E+01  0.51100000000E-03 0. -1.
         12    1    3    3    0    0  0.84193971003E+00 -0.55541912393E+01 -0.14606367934E+02  0.15649405325E+02  0.00000000000E+00 0. -1.
</event>
<event>
 7    1  0.1385632E-008  0.4614231E+02  0.7816164E-02  0.1320468E+00
        -11   -1    0    0    0    0  0.00000000000E+00  0.00000000000E+00  0.45593999997E+02  0.45594000000E+02  0.51100000000E-03 0.  1.
         11   -1    0    0    0    0 -0.00000000000E+00 -0.00000000000E+00 -0.45593999997E+02  0.45594000000E+02  0.51100000000E-03 0. -1.
    9900012    2    1    2    0    0 -0.25402490773E+02  0.71261244598E+00  0.37193001882E+02  0.46142314935E+02  0.99999742276E+01 0.  0.
         12    1    1    2    0    0  0.25402490773E+02 -0.71261244598E+00 -0.37193001882E+02  0.45045685065E+02  0.00000000000E+00 0. -1.
         11    1    3    3    0    0 -0.52469691652E+01 -0.31461108336E+01  0.12603097611E+02  0.14009524205E+02  0.51100000000E-03 0. -1.
        -11    1    3    3    0    0 -0.15260670901E+02  0.39549096072E+01  0.19406229685E+02  0.25002622607E+02  0.51100000000E-03 0.  1.
         12    1    3    3    0    0 -0.48948507065E+01 -0.96186327582E-01  0.51836745865E+01  0.71301681233E+01  0.00000000000E+00 0. -1.
</event>
<event>
 7    1  0.1385632E-008  0.4614232E+02  0.7816164E-02  0.1320468E+00
        -11   -1    0    0    0    0  0.00000000000E+00  0.00000000000E+00  0.45593999997E+02  0.45594000000E+02  0.51100000000E-03 0.  1.
         11   -1    0    0    0    0 -0.00000000000E+00 -0.00000000000E+00 -0.45593999997E+02  0.45594000000E+02  0.51100000000E-03 0. -1.
    9900012    2    1    2    0    0 -0.28685826402E+02  0.14482260584E+02  0.31567403826E+02  0.46142317717E+02  0.99999995993E+01 0.  0.
         12    1    1    2    0    0  0.28685826402E+02 -0.14482260584E+02 -0.31567403826E+02  0.45045682283E+02  0.00000000000E+00 0. -1.
         11    1    3    3    0    0 -0.25486513160E+02  0.11542328339E+02  0.22125962869E+02  0.35669958364E+02  0.51100000000E-03 0. -1.
        -11    1    3    3    0    0 -0.26061255765E+01  0.24798030527E+01  0.64214540713E+01  0.73604610149E+01  0.51100000000E-03 0.  1.
         12    1    3    3    0    0 -0.59318766631E+00  0.46012919275E+00  0.30199868856E+01  0.31118983387E+01  0.00000000000E+00 0. -1.
</event>
<event>
 7    1  0.1385632E-008  0.4614232E+02  0.7816164E-02  0.1320468E+00
        -11   -1    0    0    0    0  0.00000000000E+00  0.00000000000E+00  0.45593999997E+02  0.45594000000E+02  0.51100000000E-03 0. -1.
         11   -1    0    0    0    0 -0.00000000000E+00 -0.00000000000E+00 -0.45593999997E+02  0.45594000000E+02  0.51100000000E-03 0.  1.
    9900012    2    1    2    0    0  0.89584453783E+01  0.35932604200E+02 -0.25645812131E+02  0.46142317986E+02  0.10000002052E+02 0.  0.
         12    1    1    2    0    0 -0.89584453783E+01 -0.35932604200E+02  0.25645812131E+02  0.45045682014E+02  0.00000000000E+00 0. -1.
         11    1    3    3    0    0 -0.19677231382E+01  0.76582113288E+01 -0.59060955974E+01  0.98692502538E+01  0.51100000000E-03 0. -1.
        -11    1    3    3    0    0  0.92163363621E+01  0.25647188594E+02 -0.18275817694E+02  0.32813482768E+02  0.51100000000E-03 0.  1.
         12    1    3    3    0    0  0.17098321544E+01  0.26272042779E+01 -0.14638988402E+01  0.34595849647E+01  0.00000000000E+00 0. -1.
</event>
<event>
 7    1  0.1385632E-008  0.4614232E+02  0.7816164E-02  0.1320468E+00
        -11   -1    0    0    0    0  0.00000000000E+00  0.00000000000E+00  0.45593999997E+02  0.45594000000E+02  0.51100000000E-03 0.  1.
         11   -1    0    0    0    0 -0.00000000000E+00 -0.00000000000E+00 -0.45593999997E+02  0.45594000000E+02  0.51100000000E-03 0. -1.
    9900012    2    1    2    0    0 -0.95808971765E+00 -0.23919837325E+02  0.38158053261E+02  0.46142316719E+02  0.99999904980E+01 0.  0.
         12    1    1    2    0    0  0.95808971765E+00  0.23919837325E+02 -0.38158053261E+02  0.45045683281E+02  0.00000000000E+00 0. -1.
         11    1    3    3    0    0  0.32156757831E+00 -0.35626066400E+01  0.13532299166E+01  0.38245003918E+01  0.51100000000E-03 0. -1.
        -11    1    3    3    0    0 -0.26632566196E+01 -0.17323244055E+02  0.31638571333E+02  0.36168866677E+02  0.51100000000E-03 0.  1.
         12    1    3    3    0    0  0.13835993237E+01 -0.30339866300E+01  0.51662520114E+01  0.61489496505E+01  0.00000000000E+00 0. -1.
</event>
<event>
 7    1  0.1385632E-008  0.4614232E+02  0.7816164E-02  0.1320468E+00
        -11   -1    0    0    0    0  0.00000000000E+00  0.00000000000E+00  0.45593999997E+02  0.45594000000E+02  0.51100000000E-03 0.  1.
         11   -1    0    0    0    0 -0.00000000000E+00 -0.00000000000E+00 -0.45593999997E+02  0.45594000000E+02  0.51100000000E-03 0. -1.
    9900012    2    1    2    0    0  0.32910828794E+02  0.21850887499E+02  0.21645539324E+02  0.46142319751E+02  0.10000018148E+02 0.  0.
         12    1    1    2    0    0 -0.32910828794E+02 -0.21850887499E+02 -0.21645539324E+02  0.45045680249E+02  0.00000000000E+00 0. -1.
         11    1    3    3    0    0  0.11653015613E+01  0.19893453617E+01  0.30779663979E+01  0.38456859082E+01  0.51100000000E-03 0. -1.
        -11    1    3    3    0    0  0.29702168801E+02  0.20057667909E+02  0.16776982975E+02  0.39572667733E+02  0.51100000000E-03 0.  1.
        -12    1    3    3    0    0  0.20433584315E+01 -0.19612577159E+00  0.17905899512E+01  0.27239661105E+01  0.00000000000E+00 0.  1.
</event>
<event>
 7    1  0.1385632E-008  0.4614232E+02  0.7816164E-02  0.1320468E+00
        -11   -1    0    0    0    0  0.00000000000E+00  0.00000000000E+00  0.45593999997E+02  0.45594000000E+02  0.51100000000E-03 0.  1.
         11   -1    0    0    0    0 -0.00000000000E+00 -0.00000000000E+00 -0.45593999997E+02  0.45594000000E+02  0.51100000000E-03 0. -1.
    9900012    2    1    2    0    0  0.15630459042E+02 -0.24833337299E+02  0.34177589844E+02  0.46142317201E+02  0.99999948921E+01 0.  0.
         12    1    1    2    0    0 -0.15630459042E+02  0.24833337299E+02 -0.34177589844E+02  0.45045682799E+02  0.00000000000E+00 0. -1.
         11    1    3    3    0    0  0.12423207331E+02 -0.14098367452E+02  0.21654842614E+02  0.28671104864E+02  0.51100000000E-03 0. -1.
        -11    1    3    3    0    0  0.16990829986E+01 -0.78018236030E+01  0.11533799289E+02  0.14027967096E+02  0.51100000000E-03 0.  1.
        -12    1    3    3    0    0  0.15081687123E+01 -0.29331462447E+01  0.98894794101E+00  0.34432452407E+01  0.00000000000E+00 0.  1.
</event>
<event>
 7    1  0.1385632E-008  0.4614232E+02  0.7816164E-02  0.1320468E+00
        -11   -1    0    0    0    0  0.00000000000E+00  0.00000000000E+00  0.45593999997E+02  0.45594000000E+02  0.51100000000E-03 0. -1.
         11   -1    0    0    0    0 -0.00000000000E+00 -0.00000000000E+00 -0.45593999997E+02  0.45594000000E+02  0.51100000000E-03 0.  1.
    9900012    2    1    2    0    0  0.14744798567E+01  0.42419437465E+02 -0.15084120929E+02  0.46142317967E+02  0.10000001873E+02 0.  0.
         12    1    1    2    0    0 -0.14744798567E+01 -0.42419437465E+02  0.15084120929E+02  0.45045682033E+02  0.00000000000E+00 0. -1.
         11    1    3    3    0    0 -0.30059598864E+01  0.74279124806E+01 -0.49461928006E+01  0.94167139778E+01  0.51100000000E-03 0. -1.
        -11    1    3    3    0    0  0.37587027885E+01  0.32058621290E+02 -0.92742188813E+01  0.33584135865E+02  0.51100000000E-03 0.  1.
         12    1    3    3    0    0  0.72173695454E+00  0.29329036941E+01 -0.86370924702E+00  0.31414681239E+01  0.00000000000E+00 0. -1.
</event>
<event>
 7    1  0.1385632E-008  0.4614232E+02  0.7816164E-02  0.1320468E+00
        -11   -1    0    0    0    0  0.00000000000E+00  0.00000000000E+00  0.45593999997E+02  0.45594000000E+02  0.51100000000E-03 0.  1.
         11   -1    0    0    0    0 -0.00000000000E+00 -0.00000000000E+00 -0.45593999997E+02  0.45594000000E+02  0.51100000000E-03 0. -1.
    9900012    2    1    2    0    0 -0.37504749937E+02 -0.24456748779E+02  0.49370708571E+01  0.46142317662E+02  0.99999990948E+01 0.  0.
         12    1    1    2    0    0  0.37504749937E+02  0.24456748779E+02 -0.49370708571E+01  0.45045682338E+02  0.00000000000E+00 0. -1.
         11    1    3    3    0    0 -0.95840875598E+01 -0.87627877036E+01  0.56229087136E+00  0.12998359665E+02  0.51100000000E-03 0. -1.
        -11    1    3    3    0    0 -0.26866414356E+02 -0.16476595681E+02  0.44490596635E+01  0.31828863595E+02  0.51100000000E-03 0.  1.
         12    1    3    3    0    0 -0.10542480213E+01  0.78263460577E+00 -0.74279677806E-01  0.13150944024E+01  0.00000000000E+00 0. -1.
</event>
<event>
 7    1  0.1385632E-008  0.4614232E+02  0.7816164E-02  0.1320468E+00
        -11   -1    0    0    0    0  0.00000000000E+00  0.00000000000E+00  0.45593999997E+02  0.45594000000E+02  0.51100000000E-03 0.  1.
         11   -1    0    0    0    0 -0.00000000000E+00 -0.00000000000E+00 -0.45593999997E+02  0.45594000000E+02  0.51100000000E-03 0. -1.
    9900012    2    1    2    0    0 -0.39116781881E+02  0.14541640040E+02  0.16956755538E+02  0.46142317875E+02  0.10000001037E+02 0.  0.
         12    1    1    2    0    0  0.39116781881E+02 -0.14541640040E+02 -0.16956755538E+02  0.45045682125E+02  0.00000000000E+00 0. -1.
         11    1    3    3    0    0 -0.66116206842E+01  0.53610439281E+01  0.57202240857E+01  0.10255500179E+02  0.51100000000E-03 0. -1.
        -11    1    3    3    0    0 -0.23170337715E+02  0.43644252038E+01  0.78622976921E+01  0.24854144171E+02  0.51100000000E-03 0.  1.
        -12    1    3    3    0    0 -0.93348234811E+01  0.48161709083E+01  0.33742337601E+01  0.11032673525E+02  0.00000000000E+00 0.  1.
</event>
<event>
 7    1  0.1385632E-008  0.4614232E+02  0.7816164E-02  0.1320468E+00
        -11   -1    0    0    0    0  0.00000000000E+00  0.00000000000E+00  0.45593999997E+02  0.45594000000E+02  0.51100000000E-03 0.  1.
         11   -1    0    0    0    0 -0.00000000000E+00 -0.00000000000E+00 -0.45593999997E+02  0.45594000000E+02  0.51100000000E-03 0. -1.
    9900012    2    1    2    0    0 -0.25482783459E+02 -0.34665646339E+02  0.13342946272E+02  0.46142317586E+02  0.99999983994E+01 0.  0.
         12    1    1    2    0    0  0.25482783459E+02  0.34665646339E+02 -0.13342946272E+02  0.45045682414E+02  0.00000000000E+00 0. -1.
         11    1    3    3    0    0 -0.94901309878E+01 -0.13506104350E+02  0.50627309419E+01  0.17265824213E+02  0.51100000000E-03 0. -1.
        -11    1    3    3    0    0 -0.10741734550E+02 -0.17063538926E+02  0.91835635003E+01  0.22155971219E+02  0.51100000000E-03 0.  1.
         12    1    3    3    0    0 -0.52509179212E+01 -0.40960030635E+01 -0.90334817025E+00  0.67205221544E+01  0.00000000000E+00 0. -1.
</event>
<event>
 7    1  0.1385632E-008  0.4614232E+02  0.7816164E-02  0.1320468E+00
        -11   -1    0    0    0    0  0.00000000000E+00  0.00000000000E+00  0.45593999997E+02  0.45594000000E+02  0.51100000000E-03 0. -1.
         11   -1    0    0    0    0 -0.00000000000E+00 -0.00000000000E+00 -0.45593999997E+02  0.45594000000E+02  0.51100000000E-03 0.  1.
    9900012    2    1    2    0    0 -0.33860630162E+02 -0.20887406030E+02 -0.21125516788E+02  0.46142318018E+02  0.10000002342E+02 0.  0.
         12    1    1    2    0    0  0.33860630162E+02  0.20887406030E+02  0.21125516788E+02  0.45045681982E+02  0.00000000000E+00 0. -1.
         11    1    3    3    0    0 -0.22316547423E+02 -0.13724474702E+02 -0.16918449663E+02  0.31186911261E+02  0.51100000000E-03 0.  1.
        -11    1    3    3    0    0 -0.44000138714E+01 -0.33853084703E+01 -0.40511224240E+01  0.68725561957E+01  0.51100000000E-03 0. -1.
         12    1    3    3    0    0 -0.71440688685E+01 -0.37776228576E+01 -0.15594470094E+00  0.80828505616E+01  0.00000000000E+00 0. -1.
</event>
<event>
 7    1  0.1385632E-008  0.4614232E+02  0.7816164E-02  0.1320468E+00
        -11   -1    0    0    0    0  0.00000000000E+00  0.00000000000E+00  0.45593999997E+02  0.45594000000E+02  0.51100000000E-03 0.  1.
         11   -1    0    0    0    0 -0.00000000000E+00 -0.00000000000E+00 -0.45593999997E+02  0.45594000000E+02  0.51100000000E-03 0. -1.
    9900012    2    1    2    0    0  0.48588778590E+01  0.43684275797E+02 -0.98584402049E+01  0.46142317751E+02  0.99999999087E+01 0.  0.
         12    1    1    2    0    0 -0.48588778590E+01 -0.43684275797E+02  0.98584402049E+01  0.45045682249E+02  0.00000000000E+00 0. -1.
         11    1    3    3    0    0  0.57714028624E+00  0.22399298697E+01 -0.93403234553E+00  0.24945527485E+01  0.51100000000E-03 0. -1.
        -11    1    3    3    0    0 -0.29826578773E+01  0.11758109505E+02 -0.17648743305E+01  0.12258228616E+02  0.51100000000E-03 0.  1.
        -12    1    3    3    0    0  0.72643954500E+01  0.29686236423E+02 -0.71595335288E+01  0.31389536386E+02  0.00000000000E+00 0.  1.
</event>
<event>
 7    1  0.1385632E-008  0.4614232E+02  0.7816164E-02  0.1320468E+00
        -11   -1    0    0    0    0  0.00000000000E+00  0.00000000000E+00  0.45593999997E+02  0.45594000000E+02  0.51100000000E-03 0.  1.
         11   -1    0    0    0    0 -0.00000000000E+00 -0.00000000000E+00 -0.45593999997E+02  0.45594000000E+02  0.51100000000E-03 0. -1.
    9900012    2    1    2    0    0  0.20547098355E+02 -0.17087339705E+02  0.36262282489E+02  0.46142316963E+02  0.99999927209E+01 0.  0.
         12    1    1    2    0    0 -0.20547098355E+02  0.17087339705E+02 -0.36262282489E+02  0.45045683037E+02  0.00000000000E+00 0. -1.
         11    1    3    3    0    0 -0.41716142789E-01 -0.29189050529E+00  0.23684432047E+01  0.23867265823E+01  0.51100000000E-03 0. -1.
        -11    1    3    3    0    0  0.82069511661E+01 -0.11001199658E+02  0.13894299221E+02  0.19530283983E+02  0.51100000000E-03 0.  1.
        -12    1    3    3    0    0  0.12381863331E+02 -0.57942495411E+01  0.19999540063E+02  0.24225306397E+02  0.00000000000E+00 0.  1.
</event>
<event>
 7    1  0.1385632E-008  0.4614231E+02  0.7816164E-02  0.1320468E+00
        -11   -1    0    0    0    0  0.00000000000E+00  0.00000000000E+00  0.45593999997E+02  0.45594000000E+02  0.51100000000E-03 0.  1.
         11   -1    0    0    0    0 -0.00000000000E+00 -0.00000000000E+00 -0.45593999997E+02  0.45594000000E+02  0.51100000000E-03 0. -1.
    9900012    2    1    2    0    0  0.11120683697E+02  0.79717096312E+01  0.42917316679E+02  0.46142313955E+02  0.99999652953E+01 0.  0.
         12    1    1    2    0    0 -0.11120683697E+02 -0.79717096312E+01 -0.42917316679E+02  0.45045686045E+02  0.00000000000E+00 0. -1.
         11    1    3    3    0    0  0.97530353184E+00 -0.47952312473E+00  0.44508962833E+00  0.11744208976E+01  0.51100000000E-03 0. -1.
        -11    1    3    3    0    0  0.61286813671E+01  0.77413883384E+01  0.22310700971E+02  0.24397893491E+02  0.51100000000E-03 0.  1.
        -12    1    3    3    0    0  0.40166987978E+01  0.70984441749E+00  0.20161526079E+02  0.20569999567E+02  0.00000000000E+00 0.  1.
</event>
<event>
 7    1  0.1385632E-008  0.4614232E+02  0.7816164E-02  0.1320468E+00
        -11   -1    0    0    0    0  0.00000000000E+00  0.00000000000E+00  0.45593999997E+02  0.45594000000E+02  0.51100000000E-03 0. -1.
         11   -1    0    0    0    0 -0.00000000000E+00 -0.00000000000E+00 -0.45593999997E+02  0.45594000000E+02  0.51100000000E-03 0.  1.
    9900012    2    1    2    0    0  0.16717342868E+01 -0.44697799197E+02  0.53315750656E+01  0.46142316064E+02  0.99999845244E+01 0.  0.
         12    1    1    2    0    0 -0.16717342868E+01  0.44697799197E+02 -0.53315750656E+01  0.45045683936E+02  0.00000000000E+00 0. -1.
         11    1    3    3    0    0 -0.72890471321E+00 -0.12048316620E+02  0.14713948115E+00  0.12071242096E+02  0.51100000000E-03 0. -1.
        -11    1    3    3    0    0  0.42976022076E+01 -0.22778080423E+02  0.10551284528E+01  0.23203957179E+02  0.51100000000E-03 0.  1.
        -12    1    3    3    0    0 -0.18969632075E+01 -0.98714021548E+01  0.41293071317E+01  0.10867116789E+02  0.00000000000E+00 0.  1.
</event>
<event>
 7    1  0.1385632E-008  0.4614232E+02  0.7816164E-02  0.1320468E+00
        -11   -1    0    0    0    0  0.00000000000E+00  0.00000000000E+00  0.45593999997E+02  0.45594000000E+02  0.51100000000E-03 0.  1.
         11   -1    0    0    0    0 -0.00000000000E+00 -0.00000000000E+00 -0.45593999997E+02  0.45594000000E+02  0.51100000000E-03 0. -1.
    9900012    2    1    2    0    0  0.98542607152E+01  0.55270922481E+01  0.43605711815E+02  0.46142319787E+02  0.10000018473E+02 0.  0.
         12    1    1    2    0    0 -0.98542607152E+01 -0.55270922481E+01 -0.43605711815E+02  0.45045680213E+02  0.00000000000E+00 0. -1.
         11    1    3    3    0    0  0.49947733574E+01  0.20724609817E+01  0.21145745053E+02  0.21826254593E+02  0.51100000000E-03 0.  1.
        -11    1    3    3    0    0  0.44603110335E+01  0.48153963610E+01  0.11312837693E+02  0.13079094524E+02  0.51100000000E-03 0. -1.
         12    1    3    3    0    0  0.39917632429E+00 -0.13607650946E+01  0.11147129069E+02  0.11236970671E+02  0.00000000000E+00 0. -1.
</event>
<event>
 7    1  0.1385632E-008  0.4614232E+02  0.7816164E-02  0.1320468E+00
        -11   -1    0    0    0    0  0.00000000000E+00  0.00000000000E+00  0.45593999997E+02  0.45594000000E+02  0.51100000000E-03 0. -1.
         11   -1    0    0    0    0 -0.00000000000E+00 -0.00000000000E+00 -0.45593999997E+02  0.45594000000E+02  0.51100000000E-03 0.  1.
    9900012    2    1    2    0    0 -0.32565248606E+02 -0.31101486356E+02 -0.11470584540E+01  0.46142316373E+02  0.99999873415E+01 0.  0.
         12    1    1    2    0    0  0.32565248606E+02  0.31101486356E+02  0.11470584540E+01  0.45045683627E+02  0.00000000000E+00 0. -1.
         11    1    3    3    0    0 -0.43916784824E+01 -0.27262888192E+01  0.23074951066E+01  0.56607441690E+01  0.51100000000E-03 0. -1.
        -11    1    3    3    0    0 -0.54918499167E+01 -0.63710848788E+01 -0.28280863551E+01  0.88740752044E+01  0.51100000000E-03 0.  1.
         12    1    3    3    0    0 -0.22681720207E+02 -0.22004112658E+02 -0.62646720542E+00  0.31607497000E+02  0.00000000000E+00 0. -1.
</event>
<event>
 7    1  0.1385632E-008  0.4614232E+02  0.7816164E-02  0.1320468E+00
        -11   -1    0    0    0    0  0.00000000000E+00  0.00000000000E+00  0.45593999997E+02  0.45594000000E+02  0.51100000000E-03 0.  1.
         11   -1    0    0    0    0 -0.00000000000E+00 -0.00000000000E+00 -0.45593999997E+02  0.45594000000E+02  0.51100000000E-03 0. -1.
    9900012    2    1    2    0    0  0.37241192536E+02  0.24347693857E+02  0.70282811275E+01  0.46142319261E+02  0.10000013676E+02 0.  0.
         12    1    1    2    0    0 -0.37241192536E+02 -0.24347693857E+02 -0.70282811275E+01  0.45045680739E+02  0.00000000000E+00 0. -1.
         11    1    3    3    0    0  0.35868517369E+00 -0.40722642912E+00  0.90628337492E+00  0.10563324454E+01  0.51100000000E-03 0. -1.
        -11    1    3    3    0    0  0.13148049176E+02  0.88161234813E+01 -0.84303981555E-01  0.15830424435E+02  0.51100000000E-03 0.  1.
        -12    1    3    3    0    0  0.23734458187E+02  0.15938796805E+02  0.62063017341E+01  0.29255562381E+02  0.00000000000E+00 0.  1.
</event>
<event>
 7    1  0.1385632E-008  0.4614232E+02  0.7816164E-02  0.1320468E+00
        -11   -1    0    0    0    0  0.00000000000E+00  0.00000000000E+00  0.45593999997E+02  0.45594000000E+02  0.51100000000E-03 0.  1.
         11   -1    0    0    0    0 -0.00000000000E+00 -0.00000000000E+00 -0.45593999997E+02  0.45594000000E+02  0.51100000000E-03 0. -1.
    9900012    2    1    2    0    0 -0.36570038380E+01  0.38688356808E+02  0.22780492581E+02  0.46142317945E+02  0.10000001675E+02 0.  0.
         12    1    1    2    0    0  0.36570038380E+01 -0.38688356808E+02 -0.22780492581E+02  0.45045682055E+02  0.00000000000E+00 0. -1.
         11    1    3    3    0    0 -0.20429860537E+01  0.11569052798E+02  0.62938925078E+01  0.13327785181E+02  0.51100000000E-03 0. -1.
        -11    1    3    3    0    0  0.29638738451E+01  0.12152915741E+02  0.93282962593E+01  0.15604326981E+02  0.51100000000E-03 0.  1.
        -12    1    3    3    0    0 -0.45778916294E+01  0.14966388269E+02  0.71583038135E+01  0.17210205783E+02  0.00000000000E+00 0.  1.
</event>
<event>
 7    1  0.1385632E-008  0.4614232E+02  0.7816164E-02  0.1320468E+00
        -11   -1    0    0    0    0  0.00000000000E+00  0.00000000000E+00  0.45593999997E+02  0.45594000000E+02  0.51100000000E-03 0.  1.
         11   -1    0    0    0    0 -0.00000000000E+00 -0.00000000000E+00 -0.45593999997E+02  0.45594000000E+02  0.51100000000E-03 0. -1.
    9900012    2    1    2    0    0 -0.24644591373E+02 -0.22131986626E+02  0.30527574489E+02  0.46142317408E+02  0.99999967829E+01 0.  0.
         12    1    1    2    0    0  0.24644591373E+02  0.22131986626E+02 -0.30527574489E+02  0.45045682592E+02  0.00000000000E+00 0. -1.
         11    1    3    3    0    0 -0.70061135164E+00 -0.29216212042E+01  0.23876176391E+01  0.38376353368E+01  0.51100000000E-03 0. -1.
        -11    1    3    3    0    0 -0.24911506522E+01  0.39904153404E+00  0.23344201592E+01  0.34372348565E+01  0.51100000000E-03 0.  1.
        -12    1    3    3    0    0 -0.21452829369E+02 -0.19609406956E+02  0.25805536691E+02  0.38867447215E+02  0.00000000000E+00 0.  1.
</event>
<event>
 7    1  0.1385632E-008  0.4614232E+02  0.7816164E-02  0.1320468E+00
        -11   -1    0    0    0    0  0.00000000000E+00  0.00000000000E+00  0.45593999997E+02  0.45594000000E+02  0.51100000000E-03 0.  1.
         11   -1    0    0    0    0 -0.00000000000E+00 -0.00000000000E+00 -0.45593999997E+02  0.45594000000E+02  0.51100000000E-03 0. -1.
    9900012    2    1    2    0    0 -0.26314202570E+02 -0.64440092257E+01  0.35988206257E+02  0.46142317617E+02  0.99999986839E+01 0.  0.
         12    1    1    2    0    0  0.26314202570E+02  0.64440092257E+01 -0.35988206257E+02  0.45045682383E+02  0.00000000000E+00 0. -1.
         11    1    3    3    0    0 -0.63734019934E+01  0.99819121339E+00  0.12748324043E+02  0.14287631184E+02  0.51100000000E-03 0. -1.
        -11    1    3    3    0    0 -0.18822200773E+02 -0.64077524634E+01  0.22834941755E+02  0.30278195104E+02  0.51100000000E-03 0.  1.
         12    1    3    3    0    0 -0.11185998035E+01 -0.10344479757E+01  0.40494045883E+00  0.15764913289E+01  0.00000000000E+00 0. -1.
</event>
<event>
 7    1  0.1671668E-008  0.4614232E+02  0.7816164E-02  0.1320468E+00
        -11   -1    0    0    0    0  0.00000000000E+00  0.00000000000E+00  0.45593999997E+02  0.45594000000E+02  0.51100000000E-03 0. -1.
         11   -1    0    0    0    0 -0.00000000000E+00 -0.00000000000E+00 -0.45593999997E+02  0.45594000000E+02  0.51100000000E-03 0.  1.
    9900012    2    1    2    0    0 -0.57159058463E+01 -0.29121682465E+02 -0.33887600882E+02  0.46142318045E+02  0.10000002589E+02 0.  0.
         12    1    1    2    0    0  0.57159058463E+01  0.29121682465E+02  0.33887600882E+02  0.45045681955E+02  0.00000000000E+00 0. -1.
         11    1    3    3    0    0  0.14513859790E+01 -0.19617354753E+01 -0.53009174154E+01  0.58356364727E+01  0.51100000000E-03 0. -1.
        -11    1    3    3    0    0 -0.69116076510E+01 -0.20888896094E+02 -0.20523225083E+02  0.30088520542E+02  0.51100000000E-03 0.  1.
        -12    1    3    3    0    0 -0.25568417433E+00 -0.62710508962E+01 -0.80634583829E+01  0.10218161030E+02  0.00000000000E+00 0.  1.
</event>
<event>
 7    1  0.1385632E-008  0.4614232E+02  0.7816164E-02  0.1320468E+00
        -11   -1    0    0    0    0  0.00000000000E+00  0.00000000000E+00  0.45593999997E+02  0.45594000000E+02  0.51100000000E-03 0.  1.
         11   -1    0    0    0    0 -0.00000000000E+00 -0.00000000000E+00 -0.45593999997E+02  0.45594000000E+02  0.51100000000E-03 0. -1.
    9900012    2    1    2    0    0 -0.37071268259E+02 -0.28907411152E+01  0.25425934058E+02  0.46142318329E+02  0.10000005177E+02 0.  0.
         12    1    1    2    0    0  0.37071268259E+02  0.28907411152E+01 -0.25425934058E+02  0.45045681671E+02  0.00000000000E+00 0. -1.
         11    1    3    3    0    0 -0.57963842396E+01 -0.17343770870E+00  0.85592461876E+01  0.10338706227E+02  0.51100000000E-03 0. -1.
        -11    1    3    3    0    0 -0.24069479508E+02 -0.13342581149E+01  0.14310722173E+02  0.28034208708E+02  0.51100000000E-03 0.  1.
         12    1    3    3    0    0 -0.72054045115E+01 -0.13830452916E+01  0.25559656974E+01  0.77694033940E+01  0.00000000000E+00 0. -1.
</event>
<event>
 7    1  0.1385632E-008  0.4614232E+02  0.7816164E-02  0.1320468E+00
        -11   -1    0    0    0    0  0.00000000000E+00  0.00000000000E+00  0.45593999997E+02  0.45594000000E+02  0.51100000000E-03 0.  1.
         11   -1    0    0    0    0 -0.00000000000E+00 -0.00000000000E+00 -0.45593999997E+02  0.45594000000E+02  0.51100000000E-03 0. -1.
    9900012    2    1    2    0    0 -0.38951529071E+02 -0.80615322411E+01  0.21140096368E+02  0.46142316595E+02  0.99999893622E+01 0.  0.
         12    1    1    2    0    0  0.38951529071E+02  0.80615322411E+01 -0.21140096368E+02  0.45045683405E+02  0.00000000000E+00 0. -1.
         11    1    3    3    0    0 -0.19339594144E+02 -0.64876989247E+01  0.15206944641E+02  0.25443295867E+02  0.51100000000E-03 0. -1.
        -11    1    3    3    0    0 -0.13969397015E+02 -0.12636894055E+00  0.47452647062E+01  0.14753899806E+02  0.51100000000E-03 0.  1.
         12    1    3    3    0    0 -0.56425379112E+01 -0.14474643758E+01  0.11878870198E+01  0.59451209214E+01  0.00000000000E+00 0. -1.
</event>
<event>
 7    1  0.1385632E-008  0.4614232E+02  0.7816164E-02  0.1320468E+00
        -11   -1    0    0    0    0  0.00000000000E+00  0.00000000000E+00  0.45593999997E+02  0.45594000000E+02  0.51100000000E-03 0.  1.
         11   -1    0    0    0    0 -0.00000000000E+00 -0.00000000000E+00 -0.45593999997E+02  0.45594000000E+02  0.51100000000E-03 0. -1.
    9900012    2    1    2    0    0  0.33332671833E+02  0.28497586351E+02  0.10292431601E+02  0.46142316659E+02  0.99999899528E+01 0.  0.
         12    1    1    2    0    0 -0.33332671833E+02 -0.28497586351E+02 -0.10292431601E+02  0.45045683341E+02  0.00000000000E+00 0. -1.
         11    1    3    3    0    0  0.52794599505E+01  0.74834408124E+01  0.82819320919E+00  0.91956776811E+01  0.51100000000E-03 0. -1.
        -11    1    3    3    0    0  0.21793026580E+02  0.12630854270E+02  0.56858686281E+01  0.25822540336E+02  0.51100000000E-03 0.  1.
        -12    1    3    3    0    0  0.62601853023E+01  0.83832912689E+01  0.37783697641E+01  0.11124098642E+02  0.00000000000E+00 0.  1.
</event>
<event>
 7    1  0.1385632E-008  0.4614232E+02  0.7816164E-02  0.1320468E+00
        -11   -1    0    0    0    0  0.00000000000E+00  0.00000000000E+00  0.45593999997E+02  0.45594000000E+02  0.51100000000E-03 0.  1.
         11   -1    0    0    0    0 -0.00000000000E+00 -0.00000000000E+00 -0.45593999997E+02  0.45594000000E+02  0.51100000000E-03 0. -1.
    9900012    2    1    2    0    0  0.12433123103E+02 -0.25048282517E+02  0.35314507288E+02  0.46142318385E+02  0.10000005692E+02 0.  0.
         12    1    1    2    0    0 -0.12433123103E+02  0.25048282517E+02 -0.35314507288E+02  0.45045681615E+02  0.00000000000E+00 0. -1.
         11    1    3    3    0    0  0.15856017410E+01 -0.59291200615E+00  0.15799682202E+00  0.17001884557E+01  0.51100000000E-03 0. -1.
        -11    1    3    3    0    0  0.10097586798E+02 -0.21956561432E+02  0.33651081050E+02  0.41430026613E+02  0.51100000000E-03 0.  1.
        -12    1    3    3    0    0  0.74993456343E+00 -0.24988090792E+01  0.15054294156E+01  0.30121033165E+01  0.00000000000E+00 0.  1.
</event>
<event>
 7    1  0.1385632E-008  0.4614232E+02  0.7816164E-02  0.1320468E+00
        -11   -1    0    0    0    0  0.00000000000E+00  0.00000000000E+00  0.45593999997E+02  0.45594000000E+02  0.51100000000E-03 0. -1.
         11   -1    0    0    0    0 -0.00000000000E+00 -0.00000000000E+00 -0.45593999997E+02  0.45594000000E+02  0.51100000000E-03 0.  1.
    9900012    2    1    2    0    0  0.16673793385E+02  0.41665808456E+02  0.38805315378E+01  0.46142317575E+02  0.99999983021E+01 0.  0.
         12    1    1    2    0    0 -0.16673793385E+02 -0.41665808456E+02 -0.38805315378E+01  0.45045682425E+02  0.00000000000E+00 0. -1.
         11    1    3    3    0    0  0.77340696206E+01  0.10888868739E+02 -0.78172031387E+00  0.13378878212E+02  0.51100000000E-03 0. -1.
        -11    1    3    3    0    0  0.42517692679E+01  0.18037108702E+02  0.49651114084E+01  0.19185076591E+02  0.51100000000E-03 0.  1.
         12    1    3    3    0    0  0.46879544965E+01  0.12739831015E+02 -0.30285955676E+00  0.13578362772E+02  0.00000000000E+00 0. -1.
</event>
<event>
 7    1  0.1385632E-008  0.4614232E+02  0.7816164E-02  0.1320468E+00
        -11   -1    0    0    0    0  0.00000000000E+00  0.00000000000E+00  0.45593999997E+02  0.45594000000E+02  0.51100000000E-03 0.  1.
         11   -1    0    0    0    0 -0.00000000000E+00 -0.00000000000E+00 -0.45593999997E+02  0.45594000000E+02  0.51100000000E-03 0. -1.
    9900012    2    1    2    0    0  0.23990644132E+01 -0.41574408351E+02  0.17173424975E+02  0.46142318018E+02  0.10000002346E+02 0.  0.
         12    1    1    2    0    0 -0.23990644132E+01  0.41574408351E+02 -0.17173424975E+02  0.45045681982E+02  0.00000000000E+00 0. -1.
         11    1    3    3    0    0  0.22465858626E+01 -0.12662079068E+02  0.92825815798E+01  0.15860066690E+02  0.51100000000E-03 0. -1.
        -11    1    3    3    0    0 -0.40516110065E+00 -0.25299242540E+02  0.54393880532E+01  0.25880548126E+02  0.51100000000E-03 0.  1.
        -12    1    3    3    0    0  0.55763965122E+00 -0.36130867426E+01  0.24514553415E+01  0.44017032024E+01  0.00000000000E+00 0.  1.
</event>
<event>
 7    1  0.1385632E-008  0.4614232E+02  0.7816164E-02  0.1320468E+00
        -11   -1    0    0    0    0  0.00000000000E+00  0.00000000000E+00  0.45593999997E+02  0.45594000000E+02  0.51100000000E-03 0.  1.
         11   -1    0    0    0    0 -0.00000000000E+00 -0.00000000000E+00 -0.45593999997E+02  0.45594000000E+02  0.51100000000E-03 0. -1.
    9900012    2    1    2    0    0 -0.15530650287E+02 -0.10089688711E+02  0.41062276984E+02  0.46142317546E+02  0.99999980379E+01 0.  0.
         12    1    1    2    0    0  0.15530650287E+02  0.10089688711E+02 -0.41062276984E+02  0.45045682454E+02  0.00000000000E+00 0. -1.
         11    1    3    3    0    0 -0.37659899531E+01 -0.10459301100E+00  0.97862034828E+01  0.10486343447E+02  0.51100000000E-03 0. -1.
        -11    1    3    3    0    0 -0.25653384868E+01 -0.18519388880E+00  0.11229623570E+02  0.11520403817E+02  0.51100000000E-03 0.  1.
        -12    1    3    3    0    0 -0.91993218468E+01 -0.97999018116E+01  0.20046449932E+02  0.24135570282E+02  0.00000000000E+00 0.  1.
</event>
<event>
 7    1  0.1385632E-008  0.4614232E+02  0.7816164E-02  0.1320468E+00
        -11   -1    0    0    0    0  0.00000000000E+00  0.00000000000E+00  0.45593999997E+02  0.45594000000E+02  0.51100000000E-03 0.  1.
         11   -1    0    0    0    0 -0.00000000000E+00 -0.00000000000E+00 -0.45593999997E+02  0.45594000000E+02  0.51100000000E-03 0. -1.
    9900012    2    1    2    0    0  0.23948099146E+02 -0.35184923905E+01  0.37989765957E+02  0.46142316978E+02  0.99999928620E+01 0.  0.
         12    1    1    2    0    0 -0.23948099146E+02  0.35184923905E+01 -0.37989765957E+02  0.45045683022E+02  0.00000000000E+00 0. -1.
         11    1    3    3    0    0  0.21649658654E+01  0.69449379208E-01  0.97714593234E+00  0.23762817276E+01  0.51100000000E-03 0. -1.
        -11    1    3    3    0    0  0.20406810419E+02 -0.31493346760E+01  0.28857457226E+02  0.35483926758E+02  0.51100000000E-03 0.  1.
        -12    1    3    3    0    0  0.13763228612E+01 -0.43860709365E+00  0.81551627990E+01  0.82821084923E+01  0.00000000000E+00 0.  1.
</event>
<event>
 7    1  0.1385632E-008  0.4614232E+02  0.7816164E-02  0.1320468E+00
        -11   -1    0    0    0    0  0.00000000000E+00  0.00000000000E+00  0.45593999997E+02  0.45594000000E+02  0.51100000000E-03 0.  1.
         11   -1    0    0    0    0 -0.00000000000E+00 -0.00000000000E+00 -0.45593999997E+02  0.45594000000E+02  0.51100000000E-03 0. -1.
    9900012    2    1    2    0    0  0.11137596476E+02  0.43425184732E+02  0.43955440436E+01  0.46142317280E+02  0.99999956155E+01 0.  0.
         12    1    1    2    0    0 -0.11137596476E+02 -0.43425184732E+02 -0.43955440436E+01  0.45045682720E+02  0.00000000000E+00 0. -1.
         11    1    3    3    0    0  0.38929646949E+01  0.10144845271E+02  0.37245892154E+01  0.11486758672E+02  0.51100000000E-03 0. -1.
        -11    1    3    3    0    0  0.64258079057E+01  0.33190231857E+02  0.82928018073E+00  0.33816714858E+02  0.51100000000E-03 0.  1.
         12    1    3    3    0    0  0.81882387579E+00  0.90107603447E-01 -0.15832535255E+00  0.83884375006E+00  0.00000000000E+00 0. -1.
</event>
<event>
 7    1  0.1385632E-008  0.4614232E+02  0.7816164E-02  0.1320468E+00
        -11   -1    0    0    0    0  0.00000000000E+00  0.00000000000E+00  0.45593999997E+02  0.45594000000E+02  0.51100000000E-03 0.  1.
         11   -1    0    0    0    0 -0.00000000000E+00 -0.00000000000E+00 -0.45593999997E+02  0.45594000000E+02  0.51100000000E-03 0. -1.
    9900012    2    1    2    0    0  0.16916122614E+02 -0.12347639161E+02  0.39880994127E+02  0.46142322187E+02  0.10000040355E+02 0.  0.
         12    1    1    2    0    0 -0.16916122614E+02  0.12347639161E+02 -0.39880994127E+02  0.45045677813E+02  0.00000000000E+00 0. -1.
         11    1    3    3    0    0  0.25752154446E+01  0.89803949965E+00  0.31453359620E+01  0.41630935738E+01  0.51100000000E-03 0. -1.
        -11    1    3    3    0    0  0.13107212722E+02 -0.12149191624E+02  0.28962401963E+02  0.34032669748E+02  0.51100000000E-03 0.  1.
        -12    1    3    3    0    0  0.12336944472E+01 -0.10964870361E+01  0.77732562016E+01  0.79465588644E+01  0.00000000000E+00 0.  1.
</event>
<event>
 7    1  0.1385632E-008  0.4614231E+02  0.7816164E-02  0.1320468E+00
        -11   -1    0    0    0    0  0.00000000000E+00  0.00000000000E+00  0.45593999997E+02  0.45594000000E+02  0.51100000000E-03 0.  1.
         11   -1    0    0    0    0 -0.00000000000E+00 -0.00000000000E+00 -0.45593999997E+02  0.45594000000E+02  0.51100000000E-03 0. -1.
    9900012    2    1    2    0    0  0.27453350672E+02 -0.33967391054E+02  0.11029247748E+02  0.46142307375E+02  0.99999052939E+01 0.  0.
         12    1    1    2    0    0 -0.27453350672E+02  0.33967391054E+02 -0.11029247748E+02  0.45045692625E+02  0.00000000000E+00 0. -1.
         11    1    3    3    0    0  0.93926873813E+00 -0.30661929858E+01  0.10601943548E+01  0.33775401581E+01  0.51100000000E-03 0. -1.
        -11    1    3    3    0    0  0.62087237618E+01 -0.45209384860E+01 -0.92903343879E+00  0.77362936175E+01  0.51100000000E-03 0.  1.
        -12    1    3    3    0    0  0.20305358172E+02 -0.26380259582E+02  0.10898086832E+02  0.35028473600E+02  0.00000000000E+00 0.  1.
</event>
<event>
 7    1  0.1385632E-008  0.4614232E+02  0.7816164E-02  0.1320468E+00
        -11   -1    0    0    0    0  0.00000000000E+00  0.00000000000E+00  0.45593999997E+02  0.45594000000E+02  0.51100000000E-03 0.  1.
         11   -1    0    0    0    0 -0.00000000000E+00 -0.00000000000E+00 -0.45593999997E+02  0.45594000000E+02  0.51100000000E-03 0. -1.
    9900012    2    1    2    0    0 -0.27912331273E+02  0.34471417669E+02 -0.78572726666E+01  0.46142316445E+02  0.99999879998E+01 0.  0.
         12    1    1    2    0    0  0.27912331273E+02 -0.34471417669E+02  0.78572726666E+01  0.45045683555E+02  0.00000000000E+00 0. -1.
         11    1    3    3    0    0 -0.40368597666E+01  0.90085425728E+01  0.71926926766E+00  0.98978494938E+01  0.51100000000E-03 0. -1.
        -11    1    3    3    0    0 -0.18708892082E+02  0.22411625664E+02 -0.66450136877E+01  0.29940938780E+02  0.51100000000E-03 0.  1.
         12    1    3    3    0    0 -0.51665794243E+01  0.30512494315E+01 -0.19315282465E+01  0.63035281715E+01  0.00000000000E+00 0. -1.
</event>
<event>
 7    1  0.1385632E-008  0.4614232E+02  0.7816164E-02  0.1320468E+00
        -11   -1    0    0    0    0  0.00000000000E+00  0.00000000000E+00  0.45593999997E+02  0.45594000000E+02  0.51100000000E-03 0.  1.
         11   -1    0    0    0    0 -0.00000000000E+00 -0.00000000000E+00 -0.45593999997E+02  0.45594000000E+02  0.51100000000E-03 0. -1.
    9900012    2    1    2    0    0 -0.76937118227E+01 -0.40143927203E+02  0.18931067524E+02  0.46142318625E+02  0.10000007880E+02 0.  0.
         12    1    1    2    0    0  0.76937118227E+01  0.40143927203E+02 -0.18931067524E+02  0.45045681375E+02  0.00000000000E+00 0. -1.
         11    1    3    3    0    0 -0.62196552310E+00  0.93644943707E-01 -0.28303732588E+00  0.68972521802E+00  0.51100000000E-03 0. -1.
        -11    1    3    3    0    0 -0.25496769276E+01 -0.17602920050E+02  0.11199188606E+02  0.21018693404E+02  0.51100000000E-03 0.  1.
        -12    1    3    3    0    0 -0.45220693720E+01 -0.22634652097E+02  0.80149162434E+01  0.24433900003E+02  0.00000000000E+00 0.  1.
</event>
<event>
 7    1  0.1385632E-008  0.4614232E+02  0.7816164E-02  0.1320468E+00
        -11   -1    0    0    0    0  0.00000000000E+00  0.00000000000E+00  0.45593999997E+02  0.45594000000E+02  0.51100000000E-03 0.  1.
         11   -1    0    0    0    0 -0.00000000000E+00 -0.00000000000E+00 -0.45593999997E+02  0.45594000000E+02  0.51100000000E-03 0. -1.
    9900012    2    1    2    0    0  0.37475132923E+02 -0.23746576722E+02  0.77992357386E+01  0.46142316836E+02  0.99999915599E+01 0.  0.
         12    1    1    2    0    0 -0.37475132923E+02  0.23746576722E+02 -0.77992357386E+01  0.45045683164E+02  0.00000000000E+00 0. -1.
         11    1    3    3    0    0  0.34604404982E+01 -0.10723254959E+01  0.34808880331E+01  0.50240533607E+01  0.51100000000E-03 0. -1.
        -11    1    3    3    0    0  0.67236132802E+01 -0.45538410653E+01  0.12434276240E+01  0.82152636297E+01  0.51100000000E-03 0.  1.
         12    1    3    3    0    0  0.27291079145E+02 -0.18120410161E+02  0.30749200815E+01  0.32902999845E+02  0.00000000000E+00 0. -1.
</event>
<event>
 7    1  0.1385632E-008  0.4614233E+02  0.7816164E-02  0.1320468E+00
        -11   -1    0    0    0    0  0.00000000000E+00  0.00000000000E+00  0.45593999997E+02  0.45594000000E+02  0.51100000000E-03 0. -1.
         11   -1    0    0    0    0 -0.00000000000E+00 -0.00000000000E+00 -0.45593999997E+02  0.45594000000E+02  0.51100000000E-03 0.  1.
    9900012    2    1    2    0    0 -0.69712079893E+01 -0.22949588027E+01 -0.44443761682E+02  0.46142328408E+02  0.10000097086E+02 0.  0.
         12    1    1    2    0    0  0.69712079893E+01  0.22949588027E+01  0.44443761682E+02  0.45045671592E+02  0.00000000000E+00 0. -1.
         11    1    3    3    0    0 -0.31455492870E+01 -0.14813325096E+01 -0.19694001080E+02  0.19998562576E+02  0.51100000000E-03 0. -1.
        -11    1    3    3    0    0 -0.16263489033E+01 -0.20656941805E+01 -0.22794694442E+02  0.22945810035E+02  0.51100000000E-03 0.  1.
         12    1    3    3    0    0 -0.21993097990E+01  0.12520678874E+01 -0.19550661600E+01  0.31979557965E+01  0.00000000000E+00 0. -1.
</event>
<event>
 7    1  0.1385632E-008  0.4614232E+02  0.7816164E-02  0.1320468E+00
        -11   -1    0    0    0    0  0.00000000000E+00  0.00000000000E+00  0.45593999997E+02  0.45594000000E+02  0.51100000000E-03 0.  1.
         11   -1    0    0    0    0 -0.00000000000E+00 -0.00000000000E+00 -0.45593999997E+02  0.45594000000E+02  0.51100000000E-03 0. -1.
    9900012    2    1    2    0    0 -0.26162846495E+01  0.11823617379E+02  0.43387447296E+02  0.46142318118E+02  0.10000003258E+02 0.  0.
         12    1    1    2    0    0  0.26162846495E+01 -0.11823617379E+02 -0.43387447296E+02  0.45045681882E+02  0.00000000000E+00 0. -1.
         11    1    3    3    0    0 -0.24940945365E+01  0.50901777244E+01  0.78707941237E+01  0.96994751003E+01  0.51100000000E-03 0. -1.
        -11    1    3    3    0    0 -0.10314930554E+01  0.20198791855E+01  0.21655906688E+02  0.21774346938E+02  0.51100000000E-03 0.  1.
         12    1    3    3    0    0  0.90930294237E+00  0.47135604691E+01  0.13860746485E+02  0.14668496080E+02  0.00000000000E+00 0. -1.
</event>
<event>
 7    1  0.1385632E-008  0.4614232E+02  0.7816164E-02  0.1320468E+00
        -11   -1    0    0    0    0  0.00000000000E+00  0.00000000000E+00  0.45593999997E+02  0.45594000000E+02  0.51100000000E-03 0. -1.
         11   -1    0    0    0    0 -0.00000000000E+00 -0.00000000000E+00 -0.45593999997E+02  0.45594000000E+02  0.51100000000E-03 0.  1.
    9900012    2    1    2    0    0  0.38818078636E+02  0.70730653369E+01 -0.21731126916E+02  0.46142319194E+02  0.10000013064E+02 0.  0.
         12    1    1    2    0    0 -0.38818078636E+02 -0.70730653369E+01  0.21731126916E+02  0.45045680806E+02  0.00000000000E+00 0. -1.
         11    1    3    3    0    0  0.42293785556E+01 -0.13949588673E+01 -0.70177290879E+00  0.45084408264E+01  0.51100000000E-03 0. -1.
        -11    1    3    3    0    0  0.11646414140E+02  0.54380904086E+00 -0.66661126559E+01  0.13430254979E+02  0.51100000000E-03 0.  1.
        -12    1    3    3    0    0  0.22942285940E+02  0.79242151634E+01 -0.14363241351E+02  0.28203623388E+02  0.00000000000E+00 0.  1.
</event>
<event>
 7    1  0.1385632E-008  0.4614232E+02  0.7816164E-02  0.1320468E+00
        -11   -1    0    0    0    0  0.00000000000E+00  0.00000000000E+00  0.45593999997E+02  0.45594000000E+02  0.51100000000E-03 0. -1.
         11   -1    0    0    0    0 -0.00000000000E+00 -0.00000000000E+00 -0.45593999997E+02  0.45594000000E+02  0.51100000000E-03 0.  1.
    9900012    2    1    2    0    0 -0.24154677948E+02  0.29818675579E+02 -0.23590498112E+02  0.46142317840E+02  0.10000000722E+02 0.  0.
         12    1    1    2    0    0  0.24154677948E+02 -0.29818675579E+02  0.23590498112E+02  0.45045682160E+02  0.00000000000E+00 0. -1.
         11    1    3    3    0    0 -0.35180011254E+01  0.34293110750E+01 -0.11765181069E+01  0.50518018057E+01  0.51100000000E-03 0. -1.
        -11    1    3    3    0    0 -0.19139683756E+02  0.26717685084E+02 -0.20977435342E+02  0.38989934397E+02  0.51100000000E-03 0.  1.
        -12    1    3    3    0    0 -0.14969930667E+01 -0.32832057997E+00 -0.14365446636E+01  0.21005816374E+01  0.00000000000E+00 0.  1.
</event>
<event>
 7    1  0.1385632E-008  0.4614232E+02  0.7816164E-02  0.1320468E+00
        -11   -1    0    0    0    0  0.00000000000E+00  0.00000000000E+00  0.45593999997E+02  0.45594000000E+02  0.51100000000E-03 0.  1.
         11   -1    0    0    0    0 -0.00000000000E+00 -0.00000000000E+00 -0.45593999997E+02  0.45594000000E+02  0.51100000000E-03 0. -1.
    9900012    2    1    2    0    0  0.25318906716E+02 -0.33966396933E+02  0.15308506082E+02  0.46142317450E+02  0.99999971641E+01 0.  0.
         12    1    1    2    0    0 -0.25318906716E+02  0.33966396933E+02 -0.15308506082E+02  0.45045682550E+02  0.00000000000E+00 0. -1.
         11    1    3    3    0    0 -0.34236142965E-01 -0.44986339718E+01  0.44065157457E+00  0.45202935521E+01  0.51100000000E-03 0.  1.
        -11    1    3    3    0    0  0.20898623160E+02 -0.24518885651E+02  0.12413415549E+02  0.34525658421E+02  0.51100000000E-03 0. -1.
        -12    1    3    3    0    0  0.44545196991E+01 -0.49488773104E+01  0.24544389579E+01  0.70963654769E+01  0.00000000000E+00 0.  1.
</event>
<event>
 7    1  0.1385632E-008  0.4614232E+02  0.7816164E-02  0.1320468E+00
        -11   -1    0    0    0    0  0.00000000000E+00  0.00000000000E+00  0.45593999997E+02  0.45594000000E+02  0.51100000000E-03 0. -1.
         11   -1    0    0    0    0 -0.00000000000E+00 -0.00000000000E+00 -0.45593999997E+02  0.45594000000E+02  0.51100000000E-03 0.  1.
    9900012    2    1    2    0    0  0.25005324798E+02 -0.37325442979E+02 -0.32647353618E+01  0.46142318089E+02  0.10000002990E+02 0.  0.
         12    1    1    2    0    0 -0.25005324798E+02  0.37325442979E+02  0.32647353618E+01  0.45045681911E+02  0.00000000000E+00 0. -1.
         11    1    3    3    0    0  0.40061178540E+01 -0.98118891512E+01  0.86569191403E+00  0.10633511731E+02  0.51100000000E-03 0. -1.
        -11    1    3    3    0    0  0.37720705950E+01 -0.18420296733E+01 -0.15890006918E+01  0.44884867551E+01  0.51100000000E-03 0.  1.
        -12    1    3    3    0    0  0.17227136349E+02 -0.25671524154E+02 -0.25414265841E+01  0.31020319603E+02  0.00000000000E+00 0.  1.
</event>
<event>
 7    1  0.1385632E-008  0.4614232E+02  0.7816164E-02  0.1320468E+00
        -11   -1    0    0    0    0  0.00000000000E+00  0.00000000000E+00  0.45593999997E+02  0.45594000000E+02  0.51100000000E-03 0. -1.
         11   -1    0    0    0    0 -0.00000000000E+00 -0.00000000000E+00 -0.45593999997E+02  0.45594000000E+02  0.51100000000E-03 0.  1.
    9900012    2    1    2    0    0  0.14629689295E+02 -0.37167742609E+02 -0.20824135071E+02  0.46142317621E+02  0.99999987248E+01 0.  0.
         12    1    1    2    0    0 -0.14629689295E+02  0.37167742609E+02  0.20824135071E+02  0.45045682379E+02  0.00000000000E+00 0. -1.
         11    1    3    3    0    0  0.54096239663E+01 -0.20892944893E+02 -0.89089837210E+01  0.23348429689E+02  0.51100000000E-03 0.  1.
        -11    1    3    3    0    0  0.86636249196E-01 -0.43257905336E+01 -0.34619066742E+01  0.55411882897E+01  0.51100000000E-03 0. -1.
        -12    1    3    3    0    0  0.91334290793E+01 -0.11949007182E+02 -0.84532446761E+01  0.17252699642E+02  0.00000000000E+00 0.  1.
</event>
<event>
 7    1  0.1385632E-008  0.4614232E+02  0.7816164E-02  0.1320468E+00
        -11   -1    0    0    0    0  0.00000000000E+00  0.00000000000E+00  0.45593999997E+02  0.45594000000E+02  0.51100000000E-03 0. -1.
         11   -1    0    0    0    0 -0.00000000000E+00 -0.00000000000E+00 -0.45593999997E+02  0.45594000000E+02  0.51100000000E-03 0.  1.
    9900012    2    1    2    0    0 -0.25771542030E+02  0.26536671086E+02 -0.25704984177E+02  0.46142317605E+02  0.99999985746E+01 0.  0.
         12    1    1    2    0    0  0.25771542030E+02 -0.26536671086E+02  0.25704984177E+02  0.45045682395E+02  0.00000000000E+00 0. -1.
         11    1    3    3    0    0 -0.13592550733E+02  0.13235396527E+02 -0.11506194000E+02  0.22188412681E+02  0.51100000000E-03 0. -1.
        -11    1    3    3    0    0 -0.11836008173E+02  0.13729306526E+02 -0.12123694377E+02  0.21807542566E+02  0.51100000000E-03 0.  1.
        -12    1    3    3    0    0 -0.34298312334E+00 -0.42803196815E+00 -0.20750958009E+01  0.21463623579E+01  0.00000000000E+00 0.  1.
</event>
<event>
 7    1  0.1385632E-008  0.4614232E+02  0.7816164E-02  0.1320468E+00
        -11   -1    0    0    0    0  0.00000000000E+00  0.00000000000E+00  0.45593999997E+02  0.45594000000E+02  0.51100000000E-03 0. -1.
         11   -1    0    0    0    0 -0.00000000000E+00 -0.00000000000E+00 -0.45593999997E+02  0.45594000000E+02  0.51100000000E-03 0.  1.
    9900012    2    1    2    0    0 -0.13917758158E+02 -0.21881511312E+02 -0.36832172445E+02  0.46142318115E+02  0.10000003230E+02 0.  0.
         12    1    1    2    0    0  0.13917758158E+02  0.21881511312E+02  0.36832172445E+02  0.45045681885E+02  0.00000000000E+00 0. -1.
         11    1    3    3    0    0 -0.37539987267E+01 -0.24077585719E+01 -0.58464218769E+01  0.73532616439E+01  0.51100000000E-03 0.  1.
        -11    1    3    3    0    0 -0.17701051428E+01  0.97593640238E-01 -0.10793613588E+01  0.20755283518E+01  0.51100000000E-03 0. -1.
        -12    1    3    3    0    0 -0.83936542887E+01 -0.19571346380E+02 -0.29906389209E+02  0.36713528120E+02  0.00000000000E+00 0.  1.
</event>
<event>
 7    1  0.1385632E-008  0.4614232E+02  0.7816164E-02  0.1320468E+00
        -11   -1    0    0    0    0  0.00000000000E+00  0.00000000000E+00  0.45593999997E+02  0.45594000000E+02  0.51100000000E-03 0.  1.
         11   -1    0    0    0    0 -0.00000000000E+00 -0.00000000000E+00 -0.45593999997E+02  0.45594000000E+02  0.51100000000E-03 0. -1.
    9900012    2    1    2    0    0 -0.27798279710E+01 -0.55852741903E+00  0.44956358324E+02  0.46142317075E+02  0.99999937418E+01 0.  0.
         12    1    1    2    0    0  0.27798279710E+01  0.55852741903E+00 -0.44956358324E+02  0.45045682925E+02  0.00000000000E+00 0. -1.
         11    1    3    3    0    0 -0.14668574800E+01 -0.19226107971E+01  0.26531214122E+01  0.35898686094E+01  0.51100000000E-03 0. -1.
        -11    1    3    3    0    0  0.38442205058E+00  0.11923700108E+01  0.36018002231E+02  0.36039783733E+02  0.51100000000E-03 0.  1.
         12    1    3    3    0    0 -0.16973925416E+01  0.17171336725E+00  0.62852346814E+01  0.65126647327E+01  0.00000000000E+00 0. -1.
</event>
<event>
 7    1  0.1385632E-008  0.4614232E+02  0.7816164E-02  0.1320468E+00
        -11   -1    0    0    0    0  0.00000000000E+00  0.00000000000E+00  0.45593999997E+02  0.45594000000E+02  0.51100000000E-03 0.  1.
         11   -1    0    0    0    0 -0.00000000000E+00 -0.00000000000E+00 -0.45593999997E+02  0.45594000000E+02  0.51100000000E-03 0. -1.
    9900012    2    1    2    0    0 -0.42342296235E+02  0.13359581485E+02  0.76003303305E+01  0.46142317754E+02  0.99999999329E+01 0.  0.
         12    1    1    2    0    0  0.42342296235E+02 -0.13359581485E+02 -0.76003303305E+01  0.45045682246E+02  0.00000000000E+00 0. -1.
         11    1    3    3    0    0 -0.33054977521E+02  0.97783462731E+01  0.27842813954E+01  0.34583230299E+02  0.51100000000E-03 0. -1.
        -11    1    3    3    0    0 -0.72137480406E+01  0.38133179690E+01  0.48114362490E+01  0.94725642656E+01  0.51100000000E-03 0.  1.
         12    1    3    3    0    0 -0.20735706728E+01 -0.23208275696E+00  0.46126861616E-02  0.20865231889E+01  0.00000000000E+00 0. -1.
</event>
<event>
 7    1  0.1385632E-008  0.4614232E+02  0.7816164E-02  0.1320468E+00
        -11   -1    0    0    0    0  0.00000000000E+00  0.00000000000E+00  0.45593999997E+02  0.45594000000E+02  0.51100000000E-03 0.  1.
         11   -1    0    0    0    0 -0.00000000000E+00 -0.00000000000E+00 -0.45593999997E+02  0.45594000000E+02  0.51100000000E-03 0. -1.
    9900012    2    1    2    0    0 -0.27030949059E+02  0.55747155171E+01  0.35600053942E+02  0.46142317623E+02  0.99999987447E+01 0.  0.
         12    1    1    2    0    0  0.27030949059E+02 -0.55747155171E+01 -0.35600053942E+02  0.45045682377E+02  0.00000000000E+00 0. -1.
         11    1    3    3    0    0 -0.15964895113E+01  0.25693112955E+01  0.15065152001E+01  0.33793087462E+01  0.51100000000E-03 0. -1.
        -11    1    3    3    0    0 -0.14195140471E+02  0.28132731505E+01  0.17299713797E+02  0.22554303726E+02  0.51100000000E-03 0.  1.
         12    1    3    3    0    0 -0.11239319076E+02  0.19213107113E+00  0.16793824944E+02  0.20208705152E+02  0.00000000000E+00 0. -1.
</event>
<event>
 7    1  0.1385632E-008  0.4614232E+02  0.7816164E-02  0.1320468E+00
        -11   -1    0    0    0    0  0.00000000000E+00  0.00000000000E+00  0.45593999997E+02  0.45594000000E+02  0.51100000000E-03 0. -1.
         11   -1    0    0    0    0 -0.00000000000E+00 -0.00000000000E+00 -0.45593999997E+02  0.45594000000E+02  0.51100000000E-03 0.  1.
    9900012    2    1    2    0    0 -0.30429874262E+02  0.21680769802E+02 -0.25161090482E+02  0.46142317620E+02  0.99999987134E+01 0.  0.
         12    1    1    2    0    0  0.30429874262E+02 -0.21680769802E+02  0.25161090482E+02  0.45045682380E+02  0.00000000000E+00 0. -1.
         11    1    3    3    0    0 -0.75402906439E+01  0.85875247900E+01 -0.47697915952E+01  0.12383556724E+02  0.51100000000E-03 0. -1.
        -11    1    3    3    0    0 -0.15309986669E+02  0.10511261412E+02 -0.11740549109E+02  0.21970953596E+02  0.51100000000E-03 0.  1.
         12    1    3    3    0    0 -0.75795969492E+01  0.25819836009E+01 -0.86507497782E+01  0.11787807300E+02  0.00000000000E+00 0. -1.
</event>
<event>
 7    1  0.1385632E-008  0.4614232E+02  0.7816164E-02  0.1320468E+00
        -11   -1    0    0    0    0  0.00000000000E+00  0.00000000000E+00  0.45593999997E+02  0.45594000000E+02  0.51100000000E-03 0. -1.
         11   -1    0    0    0    0 -0.00000000000E+00 -0.00000000000E+00 -0.45593999997E+02  0.45594000000E+02  0.51100000000E-03 0.  1.
    9900012    2    1    2    0    0 -0.25325588058E+02  0.53870621960E+01 -0.36860647106E+02  0.46142321466E+02  0.10000033783E+02 0.  0.
         12    1    1    2    0    0  0.25325588058E+02 -0.53870621960E+01  0.36860647106E+02  0.45045678534E+02  0.00000000000E+00 0. -1.
         11    1    3    3    0    0 -0.68131821854E+00  0.22334778370E+01 -0.43783657579E+01  0.49621270373E+01  0.51100000000E-03 0. -1.
        -11    1    3    3    0    0 -0.80032303687E+01 -0.11128786282E+01 -0.11654915238E+02  0.14181933741E+02  0.51100000000E-03 0.  1.
        -12    1    3    3    0    0 -0.16641039470E+02  0.42664629872E+01 -0.20827366110E+02  0.26998260687E+02  0.00000000000E+00 0.  1.
</event>
<event>
 7    1  0.1385632E-008  0.4614232E+02  0.7816164E-02  0.1320468E+00
        -11   -1    0    0    0    0  0.00000000000E+00  0.00000000000E+00  0.45593999997E+02  0.45594000000E+02  0.51100000000E-03 0. -1.
         11   -1    0    0    0    0 -0.00000000000E+00 -0.00000000000E+00 -0.45593999997E+02  0.45594000000E+02  0.51100000000E-03 0.  1.
    9900012    2    1    2    0    0 -0.36303683354E+02 -0.15658375117E+02  0.21586370289E+02  0.46142317425E+02  0.99999969390E+01 0.  0.
         12    1    1    2    0    0  0.36303683354E+02  0.15658375117E+02 -0.21586370289E+02  0.45045682575E+02  0.00000000000E+00 0. -1.
         11    1    3    3    0    0 -0.61482177359E+00 -0.17709642014E+01  0.17995996066E+00  0.18832699924E+01  0.51100000000E-03 0. -1.
        -11    1    3    3    0    0 -0.23993366621E+02 -0.12174740936E+02  0.15381857073E+02  0.30992055207E+02  0.51100000000E-03 0.  1.
        -12    1    3    3    0    0 -0.11695494959E+02 -0.17126699791E+01  0.60245532552E+01  0.13266992226E+02  0.00000000000E+00 0.  1.
</event>
<event>
 7    1  0.1385632E-008  0.4614232E+02  0.7816164E-02  0.1320468E+00
        -11   -1    0    0    0    0  0.00000000000E+00  0.00000000000E+00  0.45593999997E+02  0.45594000000E+02  0.51100000000E-03 0. -1.
         11   -1    0    0    0    0 -0.00000000000E+00 -0.00000000000E+00 -0.45593999997E+02  0.45594000000E+02  0.51100000000E-03 0.  1.
    9900012    2    1    2    0    0 -0.30249098058E+02  0.23609379137E+02 -0.23594548585E+02  0.46142318304E+02  0.10000004947E+02 0.  0.
         12    1    1    2    0    0  0.30249098058E+02 -0.23609379137E+02  0.23594548585E+02  0.45045681696E+02  0.00000000000E+00 0. -1.
         11    1    3    3    0    0 -0.15095487583E+01 -0.38263560551E+00 -0.20698573398E+01  0.25902619806E+01  0.51100000000E-03 0. -1.
        -11    1    3    3    0    0 -0.20422943562E+02  0.13802843832E+02 -0.15182868089E+02  0.28950554490E+02  0.51100000000E-03 0.  1.
        -12    1    3    3    0    0 -0.83166057377E+01  0.10189170911E+02 -0.63418231560E+01  0.14601501833E+02  0.00000000000E+00 0.  1.
</event>
<event>
 7    1  0.1385632E-008  0.4614232E+02  0.7816164E-02  0.1320468E+00
        -11   -1    0    0    0    0  0.00000000000E+00  0.00000000000E+00  0.45593999997E+02  0.45594000000E+02  0.51100000000E-03 0. -1.
         11   -1    0    0    0    0 -0.00000000000E+00 -0.00000000000E+00 -0.45593999997E+02  0.45594000000E+02  0.51100000000E-03 0.  1.
    9900012    2    1    2    0    0  0.38521779372E+02 -0.14050999615E+02 -0.18648201919E+02  0.46142317510E+02  0.99999977097E+01 0.  0.
         12    1    1    2    0    0 -0.38521779372E+02  0.14050999615E+02  0.18648201919E+02  0.45045682490E+02  0.00000000000E+00 0. -1.
         11    1    3    3    0    0  0.33292939834E+01 -0.40560338844E+01 -0.25698592196E+01  0.58429261478E+01  0.51100000000E-03 0. -1.
        -11    1    3    3    0    0  0.10305766762E+02 -0.47093450334E+01 -0.68223593748E+01  0.13226161457E+02  0.51100000000E-03 0.  1.
         12    1    3    3    0    0  0.24886718627E+02 -0.52856206968E+01 -0.92559833250E+01  0.27073229905E+02  0.00000000000E+00 0. -1.
</event>
<event>
 7    1  0.1385632E-008  0.4614232E+02  0.7816164E-02  0.1320468E+00
        -11   -1    0    0    0    0  0.00000000000E+00  0.00000000000E+00  0.45593999997E+02  0.45594000000E+02  0.51100000000E-03 0.  1.
         11   -1    0    0    0    0 -0.00000000000E+00 -0.00000000000E+00 -0.45593999997E+02  0.45594000000E+02  0.51100000000E-03 0. -1.
    9900012    2    1    2    0    0 -0.31655516782E+02 -0.27776020760E+02  0.15985446493E+02  0.46142316837E+02  0.99999915770E+01 0.  0.
         12    1    1    2    0    0  0.31655516782E+02  0.27776020760E+02 -0.15985446493E+02  0.45045683163E+02  0.00000000000E+00 0. -1.
         11    1    3    3    0    0  0.22677956163E+00 -0.12108939249E+01  0.13071335991E+01  0.17961880675E+01  0.51100000000E-03 0. -1.
        -11    1    3    3    0    0 -0.26894342552E+02 -0.23603091279E+02  0.14294224888E+02  0.38532277958E+02  0.51100000000E-03 0.  1.
         12    1    3    3    0    0 -0.49879537920E+01 -0.29620355565E+01  0.38408800548E+00  0.58138508121E+01  0.00000000000E+00 0. -1.
</event>
<event>
 7    1  0.1385632E-008  0.4614232E+02  0.7816164E-02  0.1320468E+00
        -11   -1    0    0    0    0  0.00000000000E+00  0.00000000000E+00  0.45593999997E+02  0.45594000000E+02  0.51100000000E-03 0.  1.
         11   -1    0    0    0    0 -0.00000000000E+00 -0.00000000000E+00 -0.45593999997E+02  0.45594000000E+02  0.51100000000E-03 0. -1.
    9900012    2    1    2    0    0 -0.20345785868E+02 -0.14386515590E+02  0.37525868920E+02  0.46142315728E+02  0.99999814574E+01 0.  0.
         12    1    1    2    0    0  0.20345785868E+02  0.14386515590E+02 -0.37525868920E+02  0.45045684272E+02  0.00000000000E+00 0. -1.
         11    1    3    3    0    0 -0.12433358008E+02 -0.12724781312E+02  0.28207219650E+02  0.33348998358E+02  0.51100000000E-03 0. -1.
        -11    1    3    3    0    0 -0.64520791252E+01 -0.19571677776E+01  0.90401253771E+01  0.11277574998E+02  0.51100000000E-03 0.  1.
         12    1    3    3    0    0 -0.14603487343E+01  0.29543349978E+00  0.27852389210E+00  0.15157423716E+01  0.00000000000E+00 0. -1.
</event>
<event>
 7    1  0.1385632E-008  0.4614232E+02  0.7816164E-02  0.1320468E+00
        -11   -1    0    0    0    0  0.00000000000E+00  0.00000000000E+00  0.45593999997E+02  0.45594000000E+02  0.51100000000E-03 0.  1.
         11   -1    0    0    0    0 -0.00000000000E+00 -0.00000000000E+00 -0.45593999997E+02  0.45594000000E+02  0.51100000000E-03 0. -1.
    9900012    2    1    2    0    0 -0.12556858526E+02 -0.22755206903E+02  0.36791839439E+02  0.46142316671E+02  0.99999900595E+01 0.  0.
         12    1    1    2    0    0  0.12556858526E+02  0.22755206903E+02 -0.36791839439E+02  0.45045683329E+02  0.00000000000E+00 0. -1.
         11    1    3    3    0    0 -0.73177646268E+01 -0.99183826304E+01  0.21058064863E+02  0.24400124778E+02  0.51100000000E-03 0. -1.
        -11    1    3    3    0    0 -0.41362111365E+00 -0.77097870981E+01  0.62667526924E+01  0.99440479229E+01  0.51100000000E-03 0.  1.
        -12    1    3    3    0    0 -0.48254727853E+01 -0.51270371749E+01  0.94670218834E+01  0.11798143970E+02  0.00000000000E+00 0.  1.
</event>
<event>
 7    1  0.1385632E-008  0.4614232E+02  0.7816164E-02  0.1320468E+00
        -11   -1    0    0    0    0  0.00000000000E+00  0.00000000000E+00  0.45593999997E+02  0.45594000000E+02  0.51100000000E-03 0. -1.
         11   -1    0    0    0    0 -0.00000000000E+00 -0.00000000000E+00 -0.45593999997E+02  0.45594000000E+02  0.51100000000E-03 0.  1.
    9900012    2    1    2    0    0 -0.41806594655E+02  0.16157580778E+02  0.45005138329E+01  0.46142318764E+02  0.10000009148E+02 0.  0.
         12    1    1    2    0    0  0.41806594655E+02 -0.16157580778E+02 -0.45005138329E+01  0.45045681236E+02  0.00000000000E+00 0. -1.
         11    1    3    3    0    0 -0.29539894960E+02  0.12057529303E+02  0.50899182889E+01  0.32309389898E+02  0.51100000000E-03 0. -1.
        -11    1    3    3    0    0 -0.50672315658E+01  0.41956841693E+01 -0.81631328788E+00  0.66292510161E+01  0.51100000000E-03 0.  1.
         12    1    3    3    0    0 -0.71994681285E+01 -0.95632693637E-01  0.22690883194E+00  0.72036778498E+01  0.00000000000E+00 0. -1.
</event>
<event>
 7    1  0.1385632E-008  0.4614232E+02  0.7816164E-02  0.1320468E+00
        -11   -1    0    0    0    0  0.00000000000E+00  0.00000000000E+00  0.45593999997E+02  0.45594000000E+02  0.51100000000E-03 0.  1.
         11   -1    0    0    0    0 -0.00000000000E+00 -0.00000000000E+00 -0.45593999997E+02  0.45594000000E+02  0.51100000000E-03 0. -1.
    9900012    2    1    2    0    0  0.21342203514E+02  0.60187249194E+01  0.39209679131E+02  0.46142316100E+02  0.99999848544E+01 0.  0.
         12    1    1    2    0    0 -0.21342203514E+02 -0.60187249194E+01 -0.39209679131E+02  0.45045683900E+02  0.00000000000E+00 0. -1.
         11    1    3    3    0    0  0.82599337560E+01  0.42835591529E+01  0.10284831740E+02  0.13869143768E+02  0.51100000000E-03 0. -1.
        -11    1    3    3    0    0  0.58595761473E+01  0.16202648589E+01  0.19327584596E+02  0.20261180060E+02  0.51100000000E-03 0.  1.
        -12    1    3    3    0    0  0.72226936105E+01  0.11490090754E+00  0.95972627951E+01  0.12011992273E+02  0.00000000000E+00 0.  1.
</event>
<event>
 7    1  0.1385632E-008  0.4614232E+02  0.7816164E-02  0.1320468E+00
        -11   -1    0    0    0    0  0.00000000000E+00  0.00000000000E+00  0.45593999997E+02  0.45594000000E+02  0.51100000000E-03 0.  1.
         11   -1    0    0    0    0 -0.00000000000E+00 -0.00000000000E+00 -0.45593999997E+02  0.45594000000E+02  0.51100000000E-03 0. -1.
    9900012    2    1    2    0    0  0.37707137006E+01  0.41969799417E+02 -0.15919519906E+02  0.46142318087E+02  0.10000002976E+02 0.  0.
         12    1    1    2    0    0 -0.37707137006E+01 -0.41969799417E+02  0.15919519906E+02  0.45045681913E+02  0.00000000000E+00 0. -1.
         11    1    3    3    0    0 -0.23543423588E+01  0.80996080593E+01 -0.38140977678E+01  0.92571010959E+01  0.51100000000E-03 0. -1.
        -11    1    3    3    0    0  0.29917919352E+01  0.28238881785E+02 -0.99727167035E+01  0.30097181632E+02  0.51100000000E-03 0.  1.
         12    1    3    3    0    0  0.31332641242E+01  0.56313095723E+01 -0.21327054352E+01  0.67880353597E+01  0.00000000000E+00 0. -1.
</event>
<event>
 7    1  0.1385632E-008  0.4614232E+02  0.7816164E-02  0.1320468E+00
        -11   -1    0    0    0    0  0.00000000000E+00  0.00000000000E+00  0.45593999997E+02  0.45594000000E+02  0.51100000000E-03 0.  1.
         11   -1    0    0    0    0 -0.00000000000E+00 -0.00000000000E+00 -0.45593999997E+02  0.45594000000E+02  0.51100000000E-03 0. -1.
    9900012    2    1    2    0    0 -0.24776104627E+02  0.35040761034E+02 -0.13689529815E+02  0.46142317400E+02  0.99999967077E+01 0.  0.
         12    1    1    2    0    0  0.24776104627E+02 -0.35040761034E+02  0.13689529815E+02  0.45045682600E+02  0.00000000000E+00 0. -1.
         11    1    3    3    0    0 -0.43490000164E+01  0.88401495706E+01 -0.56617194637E+01  0.11362971140E+02  0.51100000000E-03 0. -1.
        -11    1    3    3    0    0 -0.20728247483E+02  0.24563690812E+02 -0.72818345335E+01  0.32955428452E+02  0.51100000000E-03 0.  1.
         12    1    3    3    0    0  0.30114287302E+00  0.16369206520E+01 -0.74597581783E+00  0.18239178084E+01  0.00000000000E+00 0. -1.
</event>
<event>
 7    1  0.1385632E-008  0.4614232E+02  0.7816164E-02  0.1320468E+00
        -11   -1    0    0    0    0  0.00000000000E+00  0.00000000000E+00  0.45593999997E+02  0.45594000000E+02  0.51100000000E-03 0.  1.
         11   -1    0    0    0    0 -0.00000000000E+00 -0.00000000000E+00 -0.45593999997E+02  0.45594000000E+02  0.51100000000E-03 0. -1.
    9900012    2    1    2    0    0 -0.10817160911E+02 -0.55357627168E+01  0.43375776908E+02  0.46142315841E+02  0.99999824874E+01 0.  0.
         12    1    1    2    0    0  0.10817160911E+02  0.55357627168E+01 -0.43375776908E+02  0.45045684159E+02  0.00000000000E+00 0. -1.
         11    1    3    3    0    0 -0.10427619378E+01 -0.11165599932E+01  0.53239152776E+00  0.16178688690E+01  0.51100000000E-03 0. -1.
        -11    1    3    3    0    0 -0.58867828740E+01  0.63889796742E-01  0.16434924420E+02  0.17457520886E+02  0.51100000000E-03 0.  1.
         12    1    3    3    0    0 -0.38876160992E+01 -0.44830925204E+01  0.26408460960E+02  0.27066926086E+02  0.00000000000E+00 0. -1.
</event>
<event>
 7    1  0.1385632E-008  0.4614232E+02  0.7816164E-02  0.1320468E+00
        -11   -1    0    0    0    0  0.00000000000E+00  0.00000000000E+00  0.45593999997E+02  0.45594000000E+02  0.51100000000E-03 0.  1.
         11   -1    0    0    0    0 -0.00000000000E+00 -0.00000000000E+00 -0.45593999997E+02  0.45594000000E+02  0.51100000000E-03 0. -1.
    9900012    2    1    2    0    0  0.75493259128E+01  0.20741681913E+02  0.39267080194E+02  0.46142320104E+02  0.10000021365E+02 0.  0.
         12    1    1    2    0    0 -0.75493259128E+01 -0.20741681913E+02 -0.39267080194E+02  0.45045679896E+02  0.00000000000E+00 0. -1.
         11    1    3    3    0    0  0.16383885144E+01  0.79396567733E+01  0.10240345974E+02  0.13060901674E+02  0.51100000000E-03 0. -1.
        -11    1    3    3    0    0  0.15811041707E+01  0.45006619390E+00  0.53791080203E+00  0.17296815515E+01  0.51100000000E-03 0.  1.
        -12    1    3    3    0    0  0.43298332277E+01  0.12351958946E+02  0.28488823418E+02  0.31351736879E+02  0.00000000000E+00 0.  1.
</event>
<event>
 7    1  0.1385632E-008  0.4614231E+02  0.7816164E-02  0.1320468E+00
        -11   -1    0    0    0    0  0.00000000000E+00  0.00000000000E+00  0.45593999997E+02  0.45594000000E+02  0.51100000000E-03 0.  1.
         11   -1    0    0    0    0 -0.00000000000E+00 -0.00000000000E+00 -0.45593999997E+02  0.45594000000E+02  0.51100000000E-03 0. -1.
    9900012    2    1    2    0    0  0.20217027528E+02 -0.16386417302E+02  0.36767797954E+02  0.46142313853E+02  0.99999643607E+01 0.  0.
         12    1    1    2    0    0 -0.20217027528E+02  0.16386417302E+02 -0.36767797954E+02  0.45045686147E+02  0.00000000000E+00 0. -1.
         11    1    3    3    0    0  0.12891399537E+02 -0.49985821507E+01  0.22862935676E+02  0.26718679487E+02  0.51100000000E-03 0.  1.
        -11    1    3    3    0    0  0.59393863352E+01 -0.86754147597E+01  0.10928627316E+02  0.15164894545E+02  0.51100000000E-03 0. -1.
        -12    1    3    3    0    0  0.13862416557E+01 -0.27124203916E+01  0.29762349618E+01  0.42587398202E+01  0.00000000000E+00 0.  1.
</event>
<event>
 7    1  0.1385632E-008  0.4614232E+02  0.7816164E-02  0.1320468E+00
        -11   -1    0    0    0    0  0.00000000000E+00  0.00000000000E+00  0.45593999997E+02  0.45594000000E+02  0.51100000000E-03 0.  1.
         11   -1    0    0    0    0 -0.00000000000E+00 -0.00000000000E+00 -0.45593999997E+02  0.45594000000E+02  0.51100000000E-03 0. -1.
    9900012    2    1    2    0    0  0.29219947997E+02  0.13497282810E+02  0.31513988741E+02  0.46142317737E+02  0.99999997775E+01 0.  0.
         12    1    1    2    0    0 -0.29219947997E+02 -0.13497282810E+02 -0.31513988741E+02  0.45045682263E+02  0.00000000000E+00 0. -1.
         11    1    3    3    0    0  0.21096358463E+02  0.73580733688E+01  0.18850470600E+02  0.29232478961E+02  0.51100000000E-03 0. -1.
        -11    1    3    3    0    0  0.16345541236E+01  0.31446079026E+01  0.19896945215E+01  0.40643831751E+01  0.51100000000E-03 0.  1.
         12    1    3    3    0    0  0.64890354112E+01  0.29946015385E+01  0.10673823619E+02  0.12845455601E+02  0.00000000000E+00 0. -1.
</event>
<event>
 7    1  0.1385632E-008  0.4614232E+02  0.7816164E-02  0.1320468E+00
        -11   -1    0    0    0    0  0.00000000000E+00  0.00000000000E+00  0.45593999997E+02  0.45594000000E+02  0.51100000000E-03 0. -1.
         11   -1    0    0    0    0 -0.00000000000E+00 -0.00000000000E+00 -0.45593999997E+02  0.45594000000E+02  0.51100000000E-03 0.  1.
    9900012    2    1    2    0    0 -0.17735030233E+02 -0.15238260677E+02 -0.38501656995E+02  0.46142317886E+02  0.10000001138E+02 0.  0.
         12    1    1    2    0    0  0.17735030233E+02  0.15238260677E+02  0.38501656995E+02  0.45045682114E+02  0.00000000000E+00 0. -1.
         11    1    3    3    0    0  0.28809393136E+00  0.51615864153E+00 -0.38298623642E+00  0.70434123472E+00  0.51100000000E-03 0. -1.
        -11    1    3    3    0    0 -0.33700307172E+01 -0.47351910406E+01 -0.54039063948E+01  0.79360787427E+01  0.51100000000E-03 0.  1.
        -12    1    3    3    0    0 -0.14653093447E+02 -0.11019228278E+02 -0.32714764363E+02  0.37501897908E+02  0.00000000000E+00 0.  1.
</event>
<event>
 7    1  0.1385632E-008  0.4614232E+02  0.7816164E-02  0.1320468E+00
        -11   -1    0    0    0    0  0.00000000000E+00  0.00000000000E+00  0.45593999997E+02  0.45594000000E+02  0.51100000000E-03 0.  1.
         11   -1    0    0    0    0 -0.00000000000E+00 -0.00000000000E+00 -0.45593999997E+02  0.45594000000E+02  0.51100000000E-03 0. -1.
    9900012    2    1    2    0    0 -0.27147974359E+02 -0.42801347139E+01  0.35690068285E+02  0.46142322748E+02  0.10000045471E+02 0.  0.
         12    1    1    2    0    0  0.27147974359E+02  0.42801347139E+01 -0.35690068285E+02  0.45045677252E+02  0.00000000000E+00 0. -1.
         11    1    3    3    0    0 -0.28403974106E+01  0.12415805183E+01  0.28492978004E+01  0.42104486519E+01  0.51100000000E-03 0. -1.
        -11    1    3    3    0    0 -0.24841845864E+02 -0.50604238917E+01  0.32161555960E+02  0.40952300032E+02  0.51100000000E-03 0.  1.
        -12    1    3    3    0    0  0.53426891604E+00 -0.46129134058E+00  0.67921452445E+00  0.97957406344E+00  0.00000000000E+00 0.  1.
</event>
<event>
 7    1  0.1385632E-008  0.4614232E+02  0.7816164E-02  0.1320468E+00
        -11   -1    0    0    0    0  0.00000000000E+00  0.00000000000E+00  0.45593999997E+02  0.45594000000E+02  0.51100000000E-03 0.  1.
         11   -1    0    0    0    0 -0.00000000000E+00 -0.00000000000E+00 -0.45593999997E+02  0.45594000000E+02  0.51100000000E-03 0. -1.
    9900012    2    1    2    0    0  0.41320684302E+02  0.58020893936E+00  0.17927014033E+02  0.46142318457E+02  0.10000006343E+02 0.  0.
         12    1    1    2    0    0 -0.41320684302E+02 -0.58020893936E+00 -0.17927014033E+02  0.45045681543E+02  0.00000000000E+00 0. -1.
         11    1    3    3    0    0  0.28923990068E+02  0.17765698692E+01  0.11325862410E+02  0.31113157370E+02  0.51100000000E-03 0. -1.
        -11    1    3    3    0    0  0.98696049250E+01 -0.11249992947E+01  0.73899371532E+01  0.12380868151E+02  0.51100000000E-03 0.  1.
        -12    1    3    3    0    0  0.25270893088E+01 -0.71361635072E-01 -0.78878553078E+00  0.26482929353E+01  0.00000000000E+00 0.  1.
</event>
<event>
 7    1  0.1385632E-008  0.4614232E+02  0.7816164E-02  0.1320468E+00
        -11   -1    0    0    0    0  0.00000000000E+00  0.00000000000E+00  0.45593999997E+02  0.45594000000E+02  0.51100000000E-03 0.  1.
         11   -1    0    0    0    0 -0.00000000000E+00 -0.00000000000E+00 -0.45593999997E+02  0.45594000000E+02  0.51100000000E-03 0. -1.
    9900012    2    1    2    0    0 -0.21325377733E+02 -0.38070046525E+02  0.11180936556E+02  0.46142317408E+02  0.99999967844E+01 0.  0.
         12    1    1    2    0    0  0.21325377733E+02  0.38070046525E+02 -0.11180936556E+02  0.45045682592E+02  0.00000000000E+00 0. -1.
         11    1    3    3    0    0 -0.41236943535E+01 -0.41712859555E+01  0.19322293013E+01  0.61755964876E+01  0.51100000000E-03 0. -1.
        -11    1    3    3    0    0 -0.94972528108E+01 -0.26565945040E+02  0.59770516471E+01  0.28838730788E+02  0.51100000000E-03 0.  1.
        -12    1    3    3    0    0 -0.77044305690E+01 -0.73328155293E+01  0.32716556075E+01  0.11127990133E+02  0.00000000000E+00 0.  1.
</event>
<event>
 7    1  0.1385632E-008  0.4614232E+02  0.7816164E-02  0.1320468E+00
        -11   -1    0    0    0    0  0.00000000000E+00  0.00000000000E+00  0.45593999997E+02  0.45594000000E+02  0.51100000000E-03 0.  1.
         11   -1    0    0    0    0 -0.00000000000E+00 -0.00000000000E+00 -0.45593999997E+02  0.45594000000E+02  0.51100000000E-03 0. -1.
    9900012    2    1    2    0    0 -0.33796426709E+02 -0.90094025442E+01  0.28385660757E+02  0.46142317309E+02  0.99999958782E+01 0.  0.
         12    1    1    2    0    0  0.33796426709E+02  0.90094025442E+01 -0.28385660757E+02  0.45045682691E+02  0.00000000000E+00 0. -1.
         11    1    3    3    0    0 -0.46256930214E+01  0.66967086174E+00  0.81957569304E+00  0.47452291377E+01  0.51100000000E-03 0. -1.
        -11    1    3    3    0    0 -0.17695343642E+02 -0.73169177009E+01  0.17815647180E+02  0.26154536049E+02  0.51100000000E-03 0.  1.
         12    1    3    3    0    0 -0.11475390045E+02 -0.23621557050E+01  0.97504378837E+01  0.15242552122E+02  0.00000000000E+00 0. -1.
</event>
<event>
 7    1  0.1385632E-008  0.4614232E+02  0.7816164E-02  0.1320468E+00
        -11   -1    0    0    0    0  0.00000000000E+00  0.00000000000E+00  0.45593999997E+02  0.45594000000E+02  0.51100000000E-03 0.  1.
         11   -1    0    0    0    0 -0.00000000000E+00 -0.00000000000E+00 -0.45593999997E+02  0.45594000000E+02  0.51100000000E-03 0. -1.
    9900012    2    1    2    0    0  0.45011495291E+02 -0.48018455391E+00  0.16876710643E+01  0.46142317420E+02  0.99999968861E+01 0.  0.
         12    1    1    2    0    0 -0.45011495291E+02  0.48018455391E+00 -0.16876710643E+01  0.45045682580E+02  0.00000000000E+00 0. -1.
         11    1    3    3    0    0  0.16365297359E+01 -0.14632950567E+01 -0.61024337385E+00  0.22785651704E+01  0.51100000000E-03 0. -1.
        -11    1    3    3    0    0  0.24709325868E+02  0.26509076756E+01  0.34445562501E+01  0.25088703920E+02  0.51100000000E-03 0.  1.
         12    1    3    3    0    0  0.18665639687E+02 -0.16677971728E+01 -0.11466418119E+01  0.18775048329E+02  0.00000000000E+00 0. -1.
</event>
<event>
 7    1  0.1385632E-008  0.4614232E+02  0.7816164E-02  0.1320468E+00
        -11   -1    0    0    0    0  0.00000000000E+00  0.00000000000E+00  0.45593999997E+02  0.45594000000E+02  0.51100000000E-03 0. -1.
         11   -1    0    0    0    0 -0.00000000000E+00 -0.00000000000E+00 -0.45593999997E+02  0.45594000000E+02  0.51100000000E-03 0.  1.
    9900012    2    1    2    0    0 -0.22341193399E+02 -0.44262876412E+01 -0.38863768473E+02  0.46142318246E+02  0.10000004420E+02 0.  0.
         12    1    1    2    0    0  0.22341193399E+02  0.44262876412E+01  0.38863768473E+02  0.45045681754E+02  0.00000000000E+00 0. -1.
         11    1    3    3    0    0 -0.16741871907E+02 -0.34037975569E+01 -0.23819791604E+02  0.29313112852E+02  0.51100000000E-03 0. -1.
        -11    1    3    3    0    0  0.11987144033E+00 -0.10494934841E+00 -0.65285268375E+01  0.65304706153E+01  0.51100000000E-03 0.  1.
        -12    1    3    3    0    0 -0.57191929324E+01 -0.91754073591E+00 -0.85154500319E+01  0.10298734779E+02  0.00000000000E+00 0.  1.
</event>
<event>
 7    1  0.1385632E-008  0.4614232E+02  0.7816164E-02  0.1320468E+00
        -11   -1    0    0    0    0  0.00000000000E+00  0.00000000000E+00  0.45593999997E+02  0.45594000000E+02  0.51100000000E-03 0. -1.
         11   -1    0    0    0    0 -0.00000000000E+00 -0.00000000000E+00 -0.45593999997E+02  0.45594000000E+02  0.51100000000E-03 0.  1.
    9900012    2    1    2    0    0  0.36413949156E+02  0.23179522603E+02 -0.12878175475E+02  0.46142319133E+02  0.10000012510E+02 0.  0.
         12    1    1    2    0    0 -0.36413949156E+02 -0.23179522603E+02  0.12878175475E+02  0.45045680867E+02  0.00000000000E+00 0. -1.
         11    1    3    3    0    0  0.11372243111E+02  0.34595068843E+01 -0.42807027937E+01  0.12634101389E+02  0.51100000000E-03 0. -1.
        -11    1    3    3    0    0  0.11113795219E+02  0.11397817044E+02 -0.22132029473E+01  0.16072490320E+02  0.51100000000E-03 0.  1.
        -12    1    3    3    0    0  0.13927910826E+02  0.83221986749E+01 -0.63842697336E+01  0.17435727424E+02  0.00000000000E+00 0.  1.
</event>
<event>
 7    1  0.1385632E-008  0.4614232E+02  0.7816164E-02  0.1320468E+00
        -11   -1    0    0    0    0  0.00000000000E+00  0.00000000000E+00  0.45593999997E+02  0.45594000000E+02  0.51100000000E-03 0. -1.
         11   -1    0    0    0    0 -0.00000000000E+00 -0.00000000000E+00 -0.45593999997E+02  0.45594000000E+02  0.51100000000E-03 0.  1.
    9900012    2    1    2    0    0 -0.32217425378E+02  0.19655280098E+02 -0.24593106894E+02  0.46142318293E+02  0.10000004851E+02 0.  0.
         12    1    1    2    0    0  0.32217425378E+02 -0.19655280098E+02  0.24593106894E+02  0.45045681707E+02  0.00000000000E+00 0. -1.
         11    1    3    3    0    0 -0.12828926759E+02  0.41673741349E+01 -0.74258712535E+01  0.15397789877E+02  0.51100000000E-03 0. -1.
        -11    1    3    3    0    0 -0.12608271113E+02  0.11237234495E+02 -0.14643756158E+02  0.22353602265E+02  0.51100000000E-03 0.  1.
         12    1    3    3    0    0 -0.67802275062E+01  0.42506714681E+01 -0.25234794825E+01  0.83909261506E+01  0.00000000000E+00 0. -1.
</event>
<event>
 7    1  0.1385632E-008  0.4614232E+02  0.7816164E-02  0.1320468E+00
        -11   -1    0    0    0    0  0.00000000000E+00  0.00000000000E+00  0.45593999997E+02  0.45594000000E+02  0.51100000000E-03 0.  1.
         11   -1    0    0    0    0 -0.00000000000E+00 -0.00000000000E+00 -0.45593999997E+02  0.45594000000E+02  0.51100000000E-03 0. -1.
    9900012    2    1    2    0    0 -0.43859905426E+02  0.10018450587E+02 -0.22478451821E+01  0.46142318030E+02  0.10000002455E+02 0.  0.
         12    1    1    2    0    0  0.43859905426E+02 -0.10018450587E+02  0.22478451821E+01  0.45045681970E+02  0.00000000000E+00 0. -1.
         11    1    3    3    0    0 -0.54635808257E+01  0.37177509914E+01  0.66568371064E+00  0.66419517416E+01  0.51100000000E-03 0. -1.
        -11    1    3    3    0    0 -0.23497844802E+02  0.13322636731E+01 -0.45980124911E-01  0.23535627276E+02  0.51100000000E-03 0.  1.
        -12    1    3    3    0    0 -0.14898479798E+02  0.49684359221E+01 -0.28675487679E+01  0.15964739013E+02  0.00000000000E+00 0.  1.
</event>
<event>
 7    1  0.1385632E-008  0.4614232E+02  0.7816164E-02  0.1320468E+00
        -11   -1    0    0    0    0  0.00000000000E+00  0.00000000000E+00  0.45593999997E+02  0.45594000000E+02  0.51100000000E-03 0.  1.
         11   -1    0    0    0    0 -0.00000000000E+00 -0.00000000000E+00 -0.45593999997E+02  0.45594000000E+02  0.51100000000E-03 0. -1.
    9900012    2    1    2    0    0  0.28778714036E+02 -0.34187899335E+02  0.56645048607E+01  0.46142318100E+02  0.10000003089E+02 0.  0.
         12    1    1    2    0    0 -0.28778714036E+02  0.34187899335E+02 -0.56645048607E+01  0.45045681900E+02  0.00000000000E+00 0. -1.
         11    1    3    3    0    0  0.26537845902E+01 -0.13382304303E+01  0.24970776328E+01  0.38818591295E+01  0.51100000000E-03 0. -1.
        -11    1    3    3    0    0  0.16521010539E+02 -0.17949996591E+02  0.12030837973E+01  0.24425265152E+02  0.51100000000E-03 0.  1.
         12    1    3    3    0    0  0.96039189068E+01 -0.14899672314E+02  0.19643434306E+01  0.17835193818E+02  0.00000000000E+00 0. -1.
</event>
<event>
 7    1  0.1385632E-008  0.4614232E+02  0.7816164E-02  0.1320468E+00
        -11   -1    0    0    0    0  0.00000000000E+00  0.00000000000E+00  0.45593999997E+02  0.45594000000E+02  0.51100000000E-03 0.  1.
         11   -1    0    0    0    0 -0.00000000000E+00 -0.00000000000E+00 -0.45593999997E+02  0.45594000000E+02  0.51100000000E-03 0. -1.
    9900012    2    1    2    0    0  0.22060286040E+02 -0.39150982456E+02 -0.31076994750E+01  0.46142318260E+02  0.10000004548E+02 0.  0.
         12    1    1    2    0    0 -0.22060286040E+02  0.39150982456E+02  0.31076994750E+01  0.45045681740E+02  0.00000000000E+00 0. -1.
         11    1    3    3    0    0  0.15630922101E+01 -0.10226287767E+02  0.11412029706E+01  0.10407812606E+02  0.51100000000E-03 0. -1.
        -11    1    3    3    0    0  0.92281497514E+01 -0.12332986368E+02 -0.24537674319E+01  0.15597508630E+02  0.51100000000E-03 0.  1.
         12    1    3    3    0    0  0.11269044079E+02 -0.16591708320E+02 -0.17951350136E+01  0.20136997024E+02  0.00000000000E+00 0. -1.
</event>
<event>
 7    1  0.1385632E-008  0.4614232E+02  0.7816164E-02  0.1320468E+00
        -11   -1    0    0    0    0  0.00000000000E+00  0.00000000000E+00  0.45593999997E+02  0.45594000000E+02  0.51100000000E-03 0. -1.
         11   -1    0    0    0    0 -0.00000000000E+00 -0.00000000000E+00 -0.45593999997E+02  0.45594000000E+02  0.51100000000E-03 0.  1.
    9900012    2    1    2    0    0  0.30863862635E+02  0.27732253204E+02 -0.17534470134E+02  0.46142317328E+02  0.99999960514E+01 0.  0.
         12    1    1    2    0    0 -0.30863862635E+02 -0.27732253204E+02  0.17534470134E+02  0.45045682672E+02  0.00000000000E+00 0. -1.
         11    1    3    3    0    0  0.10368395465E+02  0.11201407551E+02 -0.51008220916E+01  0.16093276296E+02  0.51100000000E-03 0. -1.
        -11    1    3    3    0    0  0.96256755162E+01  0.12184296884E+02 -0.84826176006E+01  0.17693657658E+02  0.51100000000E-03 0.  1.
        -12    1    3    3    0    0  0.10869791653E+02  0.43465487691E+01 -0.39510304417E+01  0.12355383375E+02  0.00000000000E+00 0.  1.
</event>
<event>
 7    1  0.1385632E-008  0.4614232E+02  0.7816164E-02  0.1320468E+00
        -11   -1    0    0    0    0  0.00000000000E+00  0.00000000000E+00  0.45593999997E+02  0.45594000000E+02  0.51100000000E-03 0.  1.
         11   -1    0    0    0    0 -0.00000000000E+00 -0.00000000000E+00 -0.45593999997E+02  0.45594000000E+02  0.51100000000E-03 0. -1.
    9900012    2    1    2    0    0  0.17613524099E+02  0.22095949731E+02  0.35080568377E+02  0.46142317595E+02  0.99999984820E+01 0.  0.
         12    1    1    2    0    0 -0.17613524099E+02 -0.22095949731E+02 -0.35080568377E+02  0.45045682405E+02  0.00000000000E+00 0. -1.
         11    1    3    3    0    0  0.95915786503E+00 -0.36433473757E+00  0.11693352565E+01  0.15556570362E+01  0.51100000000E-03 0. -1.
        -11    1    3    3    0    0  0.17116886315E+02  0.20174801153E+02  0.29721009854E+02  0.39791315958E+02  0.51100000000E-03 0.  1.
        -12    1    3    3    0    0 -0.46252008097E+00  0.22854833156E+01  0.41902232666E+01  0.47953446002E+01  0.00000000000E+00 0.  1.
</event>
<event>
 7    1  0.1385632E-008  0.4614232E+02  0.7816164E-02  0.1320468E+00
        -11   -1    0    0    0    0  0.00000000000E+00  0.00000000000E+00  0.45593999997E+02  0.45594000000E+02  0.51100000000E-03 0.  1.
         11   -1    0    0    0    0 -0.00000000000E+00 -0.00000000000E+00 -0.45593999997E+02  0.45594000000E+02  0.51100000000E-03 0. -1.
    9900012    2    1    2    0    0  0.64462861205E-01 -0.89520710329E+01  0.44147137016E+02  0.46142318320E+02  0.10000005100E+02 0.  0.
         12    1    1    2    0    0 -0.64462861205E-01  0.89520710329E+01 -0.44147137016E+02  0.45045681680E+02  0.00000000000E+00 0. -1.
         11    1    3    3    0    0  0.11826731684E+01 -0.18368844775E+01  0.29707267612E+01  0.36875572074E+01  0.51100000000E-03 0. -1.
        -11    1    3    3    0    0 -0.16008332886E+01  0.58763729995E+00  0.16785443926E+02  0.16871843790E+02  0.51100000000E-03 0.  1.
        -12    1    3    3    0    0  0.48262298135E+00 -0.77028238553E+01  0.24390966329E+02  0.25582917323E+02  0.00000000000E+00 0.  1.
</event>
<event>
 7    1  0.1385632E-008  0.4614232E+02  0.7816164E-02  0.1320468E+00
        -11   -1    0    0    0    0  0.00000000000E+00  0.00000000000E+00  0.45593999997E+02  0.45594000000E+02  0.51100000000E-03 0.  1.
         11   -1    0    0    0    0 -0.00000000000E+00 -0.00000000000E+00 -0.45593999997E+02  0.45594000000E+02  0.51100000000E-03 0. -1.
    9900012    2    1    2    0    0  0.29399080386E+01  0.41616401775E+01  0.44756576941E+02  0.46142317769E+02  0.10000000070E+02 0.  0.
         12    1    1    2    0    0 -0.29399080386E+01 -0.41616401775E+01 -0.44756576941E+02  0.45045682231E+02  0.00000000000E+00 0. -1.
         11    1    3    3    0    0  0.40734683049E+01  0.48130570818E+01  0.22035182221E+02  0.22919596818E+02  0.51100000000E-03 0. -1.
        -11    1    3    3    0    0 -0.49197416603E+00 -0.26214198540E+01  0.14572032888E+02  0.14814115680E+02  0.51100000000E-03 0.  1.
        -12    1    3    3    0    0 -0.64158610027E+00  0.19700029496E+01  0.81493618308E+01  0.84086052705E+01  0.00000000000E+00 0.  1.
</event>
<event>
 7    1  0.1385632E-008  0.4614232E+02  0.7816164E-02  0.1320468E+00
        -11   -1    0    0    0    0  0.00000000000E+00  0.00000000000E+00  0.45593999997E+02  0.45594000000E+02  0.51100000000E-03 0.  1.
         11   -1    0    0    0    0 -0.00000000000E+00 -0.00000000000E+00 -0.45593999997E+02  0.45594000000E+02  0.51100000000E-03 0. -1.
    9900012    2    1    2    0    0 -0.25287320461E+02  0.48571510414E+00  0.37275045240E+02  0.46142317710E+02  0.99999995367E+01 0.  0.
         12    1    1    2    0    0  0.25287320461E+02 -0.48571510414E+00 -0.37275045240E+02  0.45045682290E+02  0.00000000000E+00 0. -1.
         11    1    3    3    0    0 -0.19033184044E+01 -0.25621923834E+01  0.40246121432E+01  0.51366286533E+01  0.51100000000E-03 0. -1.
        -11    1    3    3    0    0 -0.22281037446E+02  0.38780502606E+01  0.31420605184E+02  0.38713541996E+02  0.51100000000E-03 0.  1.
        -12    1    3    3    0    0 -0.11029646106E+01 -0.83014277310E+00  0.18298279133E+01  0.22921470608E+01  0.00000000000E+00 0.  1.
</event>
<event>
 7    1  0.1452439E-008  0.4614232E+02  0.7816164E-02  0.1320468E+00
        -11   -1    0    0    0    0  0.00000000000E+00  0.00000000000E+00  0.45593999997E+02  0.45594000000E+02  0.51100000000E-03 0. -1.
         11   -1    0    0    0    0 -0.00000000000E+00 -0.00000000000E+00 -0.45593999997E+02  0.45594000000E+02  0.51100000000E-03 0.  1.
    9900012    2    1    2    0    0  0.41718198099E+02  0.11175911334E+02 -0.12798604883E+02  0.46142319478E+02  0.10000015656E+02 0.  0.
         12    1    1    2    0    0 -0.41718198099E+02 -0.11175911334E+02  0.12798604883E+02  0.45045680522E+02  0.00000000000E+00 0. -1.
         11    1    3    3    0    0  0.72506974081E+01 -0.48447566416E+00 -0.91848251810E+00  0.73246801957E+01  0.51100000000E-03 0. -1.
        -11    1    3    3    0    0  0.29780116474E+02  0.11482553829E+02 -0.84808027876E+01  0.33024663447E+02  0.51100000000E-03 0.  1.
        -12    1    3    3    0    0  0.46873842169E+01  0.17783316858E+00 -0.33993195777E+01  0.57929758349E+01  0.00000000000E+00 0.  1.
</event>
<event>
 7    1  0.1385632E-008  0.4614232E+02  0.7816164E-02  0.1320468E+00
        -11   -1    0    0    0    0  0.00000000000E+00  0.00000000000E+00  0.45593999997E+02  0.45594000000E+02  0.51100000000E-03 0. -1.
         11   -1    0    0    0    0 -0.00000000000E+00 -0.00000000000E+00 -0.45593999997E+02  0.45594000000E+02  0.51100000000E-03 0.  1.
    9900012    2    1    2    0    0 -0.33662337399E+02 -0.16648541765E+02 -0.24875421267E+02  0.46142317796E+02  0.10000000318E+02 0.  0.
         12    1    1    2    0    0  0.33662337399E+02  0.16648541765E+02  0.24875421267E+02  0.45045682204E+02  0.00000000000E+00 0. -1.
         11    1    3    3    0    0 -0.23793831818E+02 -0.92739492172E+01 -0.20836260042E+02  0.32959100405E+02  0.51100000000E-03 0.  1.
        -11    1    3    3    0    0 -0.31258175136E+00 -0.46061593985E+00  0.27910694045E+00  0.62271609956E+00  0.51100000000E-03 0. -1.
        -12    1    3    3    0    0 -0.95559238292E+01 -0.69139766075E+01 -0.43182681648E+01  0.12560501292E+02  0.00000000000E+00 0.  1.
</event>
<event>
 7    1  0.1385632E-008  0.4614232E+02  0.7816164E-02  0.1320468E+00
        -11   -1    0    0    0    0  0.00000000000E+00  0.00000000000E+00  0.45593999997E+02  0.45594000000E+02  0.51100000000E-03 0. -1.
         11   -1    0    0    0    0 -0.00000000000E+00 -0.00000000000E+00 -0.45593999997E+02  0.45594000000E+02  0.51100000000E-03 0.  1.
    9900012    2    1    2    0    0  0.54395356512E+01 -0.22209540840E+02 -0.38810583225E+02  0.46142316270E+02  0.99999864017E+01 0.  0.
         12    1    1    2    0    0 -0.54395356512E+01  0.22209540840E+02  0.38810583225E+02  0.45045683730E+02  0.00000000000E+00 0. -1.
         11    1    3    3    0    0 -0.12556439942E+01 -0.69793354376E+01 -0.17047955114E+02  0.18464033655E+02  0.51100000000E-03 0. -1.
        -11    1    3    3    0    0  0.50502148116E+01 -0.11638643679E+02 -0.19043031229E+02  0.22882301785E+02  0.51100000000E-03 0.  1.
         12    1    3    3    0    0  0.16449648337E+01 -0.35915617233E+01 -0.27195968826E+01  0.47959808298E+01  0.00000000000E+00 0. -1.
</event>
<event>
 7    1  0.1385632E-008  0.4614232E+02  0.7816164E-02  0.1320468E+00
        -11   -1    0    0    0    0  0.00000000000E+00  0.00000000000E+00  0.45593999997E+02  0.45594000000E+02  0.51100000000E-03 0. -1.
         11   -1    0    0    0    0 -0.00000000000E+00 -0.00000000000E+00 -0.45593999997E+02  0.45594000000E+02  0.51100000000E-03 0.  1.
    9900012    2    1    2    0    0  0.26928484212E+02 -0.23445025013E+02  0.27464542393E+02  0.46142317092E+02  0.99999938941E+01 0.  0.
         12    1    1    2    0    0 -0.26928484212E+02  0.23445025013E+02 -0.27464542393E+02  0.45045682908E+02  0.00000000000E+00 0. -1.
         11    1    3    3    0    0  0.53411303732E+01 -0.45987211324E+01  0.19581105743E+01  0.73150602868E+01  0.51100000000E-03 0.  1.
        -11    1    3    3    0    0  0.39137136331E+01 -0.20641233369E+01  0.67605706419E+01  0.80797942558E+01  0.51100000000E-03 0. -1.
         12    1    3    3    0    0  0.17673640206E+02 -0.16782180544E+02  0.18745861177E+02  0.30747462549E+02  0.00000000000E+00 0. -1.
</event>
<event>
 7    1  0.1385632E-008  0.4614232E+02  0.7816164E-02  0.1320468E+00
        -11   -1    0    0    0    0  0.00000000000E+00  0.00000000000E+00  0.45593999997E+02  0.45594000000E+02  0.51100000000E-03 0. -1.
         11   -1    0    0    0    0 -0.00000000000E+00 -0.00000000000E+00 -0.45593999997E+02  0.45594000000E+02  0.51100000000E-03 0.  1.
    9900012    2    1    2    0    0  0.15538754060E+02  0.19697188072E+02 -0.37412316105E+02  0.46142317720E+02  0.99999996288E+01 0.  0.
         12    1    1    2    0    0 -0.15538754060E+02 -0.19697188072E+02  0.37412316105E+02  0.45045682280E+02  0.00000000000E+00 0. -1.
         11    1    3    3    0    0  0.13482395480E+02  0.10979763427E+02 -0.26502958548E+02  0.31697586735E+02  0.51100000000E-03 0. -1.
        -11    1    3    3    0    0  0.21975082867E+01  0.31865168920E+01 -0.53299668108E+01  0.65872208888E+01  0.51100000000E-03 0.  1.
         12    1    3    3    0    0 -0.14114970661E+00  0.55309077528E+01 -0.55793907465E+01  0.78575100961E+01  0.00000000000E+00 0. -1.
</event>
<event>
 7    1  0.1385632E-008  0.4614232E+02  0.7816164E-02  0.1320468E+00
        -11   -1    0    0    0    0  0.00000000000E+00  0.00000000000E+00  0.45593999997E+02  0.45594000000E+02  0.51100000000E-03 0.  1.
         11   -1    0    0    0    0 -0.00000000000E+00 -0.00000000000E+00 -0.45593999997E+02  0.45594000000E+02  0.51100000000E-03 0. -1.
    9900012    2    1    2    0    0 -0.22203056536E+02  0.23159423531E+02  0.31619280449E+02  0.46142317477E+02  0.99999974115E+01 0.  0.
         12    1    1    2    0    0  0.22203056536E+02 -0.23159423531E+02 -0.31619280449E+02  0.45045682523E+02  0.00000000000E+00 0. -1.
         11    1    3    3    0    0 -0.69979823223E+00  0.38396401703E+01  0.19535975283E+01  0.43645272100E+01  0.51100000000E-03 0. -1.
        -11    1    3    3    0    0 -0.85508799111E+01  0.61186144658E+01  0.75287628647E+01  0.12932024620E+02  0.51100000000E-03 0.  1.
         12    1    3    3    0    0 -0.12952378393E+02  0.13201168895E+02  0.22136920056E+02  0.28845765647E+02  0.00000000000E+00 0. -1.
</event>
<event>
 7    1  0.1385632E-008  0.4614232E+02  0.7816164E-02  0.1320468E+00
        -11   -1    0    0    0    0  0.00000000000E+00  0.00000000000E+00  0.45593999997E+02  0.45594000000E+02  0.51100000000E-03 0.  1.
         11   -1    0    0    0    0 -0.00000000000E+00 -0.00000000000E+00 -0.45593999997E+02  0.45594000000E+02  0.51100000000E-03 0. -1.
    9900012    2    1    2    0    0 -0.15009979990E+02  0.89381189838E+01  0.41520164982E+02  0.46142316850E+02  0.99999916963E+01 0.  0.
         12    1    1    2    0    0  0.15009979990E+02 -0.89381189838E+01 -0.41520164982E+02  0.45045683150E+02  0.00000000000E+00 0. -1.
         11    1    3    3    0    0 -0.17677328757E+01  0.33717292726E+01  0.57401176443E+01  0.68878435406E+01  0.51100000000E-03 0. -1.
        -11    1    3    3    0    0 -0.12887408986E+02  0.52744258087E+01  0.36101311147E+02  0.38693792070E+02  0.51100000000E-03 0.  1.
        -12    1    3    3    0    0 -0.35483812846E+00  0.29196390254E+00 -0.32126380906E+00  0.56068123992E+00  0.00000000000E+00 0.  1.
</event>
<event>
 7    1  0.1385632E-008  0.4614232E+02  0.7816164E-02  0.1320468E+00
        -11   -1    0    0    0    0  0.00000000000E+00  0.00000000000E+00  0.45593999997E+02  0.45594000000E+02  0.51100000000E-03 0. -1.
         11   -1    0    0    0    0 -0.00000000000E+00 -0.00000000000E+00 -0.45593999997E+02  0.45594000000E+02  0.51100000000E-03 0.  1.
    9900012    2    1    2    0    0 -0.40874011657E+02 -0.17554413667E+02 -0.70902178428E+01  0.46142318107E+02  0.10000003152E+02 0.  0.
         12    1    1    2    0    0  0.40874011657E+02  0.17554413667E+02  0.70902178428E+01  0.45045681893E+02  0.00000000000E+00 0. -1.
         11    1    3    3    0    0 -0.15012293135E+02 -0.85776818380E+01 -0.29703166569E+01  0.17543327853E+02  0.51100000000E-03 0. -1.
        -11    1    3    3    0    0 -0.18515692953E+02 -0.46548967603E+01 -0.57130586277E+01  0.19928321267E+02  0.51100000000E-03 0.  1.
        -12    1    3    3    0    0 -0.73460255697E+01 -0.43218350691E+01  0.15931574417E+01  0.86706689862E+01  0.00000000000E+00 0.  1.
</event>
<event>
 7    1  0.1385632E-008  0.4614232E+02  0.7816164E-02  0.1320468E+00
        -11   -1    0    0    0    0  0.00000000000E+00  0.00000000000E+00  0.45593999997E+02  0.45594000000E+02  0.51100000000E-03 0.  1.
         11   -1    0    0    0    0 -0.00000000000E+00 -0.00000000000E+00 -0.45593999997E+02  0.45594000000E+02  0.51100000000E-03 0. -1.
    9900012    2    1    2    0    0  0.43182782512E+02 -0.12588067029E+02 -0.24292531861E+01  0.46142318653E+02  0.10000008131E+02 0.  0.
         12    1    1    2    0    0 -0.43182782512E+02  0.12588067029E+02  0.24292531861E+01  0.45045681347E+02  0.00000000000E+00 0. -1.
         11    1    3    3    0    0  0.21652650447E+01  0.96384459560E+00 -0.92878848005E+00  0.25455878339E+01  0.51100000000E-03 0. -1.
        -11    1    3    3    0    0  0.17666191940E+02 -0.51053706523E+01  0.20861075090E+01  0.18507052492E+02  0.51100000000E-03 0.  1.
         12    1    3    3    0    0  0.23351325527E+02 -0.84465409725E+01 -0.35865722151E+01  0.25089678326E+02  0.00000000000E+00 0. -1.
</event>
<event>
 7    1  0.1385632E-008  0.4614232E+02  0.7816164E-02  0.1320468E+00
        -11   -1    0    0    0    0  0.00000000000E+00  0.00000000000E+00  0.45593999997E+02  0.45594000000E+02  0.51100000000E-03 0.  1.
         11   -1    0    0    0    0 -0.00000000000E+00 -0.00000000000E+00 -0.45593999997E+02  0.45594000000E+02  0.51100000000E-03 0. -1.
    9900012    2    1    2    0    0  0.13216290180E+01  0.36640637586E+02  0.26169265501E+02  0.46142317822E+02  0.10000000559E+02 0.  0.
         12    1    1    2    0    0 -0.13216290180E+01 -0.36640637586E+02 -0.26169265501E+02  0.45045682178E+02  0.00000000000E+00 0. -1.
         11    1    3    3    0    0 -0.14215155316E+01  0.89292213928E+01  0.34487777398E+01  0.96770744157E+01  0.51100000000E-03 0. -1.
        -11    1    3    3    0    0  0.41386483382E+01  0.20865350304E+02  0.14858866356E+02  0.25947584917E+02  0.51100000000E-03 0.  1.
        -12    1    3    3    0    0 -0.13955037886E+01  0.68460658891E+01  0.78616214057E+01  0.10517658490E+02  0.00000000000E+00 0.  1.
</event>
<event>
 7    1  0.1385632E-008  0.4614232E+02  0.7816164E-02  0.1320468E+00
        -11   -1    0    0    0    0  0.00000000000E+00  0.00000000000E+00  0.45593999997E+02  0.45594000000E+02  0.51100000000E-03 0.  1.
         11   -1    0    0    0    0 -0.00000000000E+00 -0.00000000000E+00 -0.45593999997E+02  0.45594000000E+02  0.51100000000E-03 0. -1.
    9900012    2    1    2    0    0 -0.35581534123E+02 -0.91857534664E+01  0.26051680267E+02  0.46142315611E+02  0.99999803952E+01 0.  0.
         12    1    1    2    0    0  0.35581534123E+02  0.91857534664E+01 -0.26051680267E+02  0.45045684389E+02  0.00000000000E+00 0. -1.
         11    1    3    3    0    0 -0.17661984438E+01 -0.92330433062E+00 -0.64027516883E+00  0.20932989234E+01  0.51100000000E-03 0. -1.
        -11    1    3    3    0    0 -0.17208195238E+02 -0.35307820276E+01  0.15843784182E+02  0.23656159928E+02  0.51100000000E-03 0.  1.
         12    1    3    3    0    0 -0.16607140442E+02 -0.47316671082E+01  0.10848171254E+02  0.20392856760E+02  0.00000000000E+00 0. -1.
</event>
<event>
 7    1  0.1385632E-008  0.4614232E+02  0.7816164E-02  0.1320468E+00
        -11   -1    0    0    0    0  0.00000000000E+00  0.00000000000E+00  0.45593999997E+02  0.45594000000E+02  0.51100000000E-03 0.  1.
         11   -1    0    0    0    0 -0.00000000000E+00 -0.00000000000E+00 -0.45593999997E+02  0.45594000000E+02  0.51100000000E-03 0. -1.
    9900012    2    1    2    0    0  0.24635844905E+02  0.37683691180E+02  0.14587752815E+01  0.46142318070E+02  0.10000002821E+02 0.  0.
         12    1    1    2    0    0 -0.24635844905E+02 -0.37683691180E+02 -0.14587752815E+01  0.45045681930E+02  0.00000000000E+00 0. -1.
         11    1    3    3    0    0  0.11051043535E+02  0.19821971609E+02 -0.25460329688E+01  0.22836777483E+02  0.51100000000E-03 0. -1.
        -11    1    3    3    0    0  0.12161673145E+02  0.15658556747E+02  0.50859905242E+01  0.20468609942E+02  0.51100000000E-03 0.  1.
        -12    1    3    3    0    0  0.14231282260E+01  0.22031628250E+01 -0.10811822739E+01  0.28369306461E+01  0.00000000000E+00 0.  1.
</event>
<event>
 7    1  0.1385632E-008  0.4614232E+02  0.7816164E-02  0.1320468E+00
        -11   -1    0    0    0    0  0.00000000000E+00  0.00000000000E+00  0.45593999997E+02  0.45594000000E+02  0.51100000000E-03 0.  1.
         11   -1    0    0    0    0 -0.00000000000E+00 -0.00000000000E+00 -0.45593999997E+02  0.45594000000E+02  0.51100000000E-03 0. -1.
    9900012    2    1    2    0    0  0.11099847930E+02  0.23009775381E+02  0.37100634479E+02  0.46142318011E+02  0.10000002275E+02 0.  0.
         12    1    1    2    0    0 -0.11099847930E+02 -0.23009775381E+02 -0.37100634479E+02  0.45045681989E+02  0.00000000000E+00 0. -1.
         11    1    3    3    0    0  0.14944590061E+00 -0.35450601185E+00  0.12081395635E+01  0.12679156343E+01  0.51100000000E-03 0. -1.
        -11    1    3    3    0    0  0.79896506779E+01  0.89103910771E+01  0.18899857904E+02  0.22370387037E+02  0.51100000000E-03 0.  1.
        -12    1    3    3    0    0  0.29607513513E+01  0.14453890315E+02  0.16992637011E+02  0.22504015340E+02  0.00000000000E+00 0.  1.
</event>
<event>
 7    1  0.1385632E-008  0.4614232E+02  0.7816164E-02  0.1320468E+00
        -11   -1    0    0    0    0  0.00000000000E+00  0.00000000000E+00  0.45593999997E+02  0.45594000000E+02  0.51100000000E-03 0.  1.
         11   -1    0    0    0    0 -0.00000000000E+00 -0.00000000000E+00 -0.45593999997E+02  0.45594000000E+02  0.51100000000E-03 0. -1.
    9900012    2    1    2    0    0  0.16398339480E+02 -0.40895991186E+02  0.93662148819E+01  0.46142316367E+02  0.99999872872E+01 0.  0.
         12    1    1    2    0    0 -0.16398339480E+02  0.40895991186E+02 -0.93662148819E+01  0.45045683633E+02  0.00000000000E+00 0. -1.
         11    1    3    3    0    0  0.96335844963E+00 -0.51087089090E+01  0.39153370876E+01  0.65082125803E+01  0.51100000000E-03 0. -1.
        -11    1    3    3    0    0  0.10695567122E+02 -0.19575113772E+02  0.20137782091E+01  0.22397221662E+02  0.51100000000E-03 0.  1.
         12    1    3    3    0    0  0.47394139082E+01 -0.16212168505E+02  0.34370995852E+01  0.17236882125E+02  0.00000000000E+00 0. -1.
</event>
<event>
 7    1  0.1385632E-008  0.4614232E+02  0.7816164E-02  0.1320468E+00
        -11   -1    0    0    0    0  0.00000000000E+00  0.00000000000E+00  0.45593999997E+02  0.45594000000E+02  0.51100000000E-03 0.  1.
         11   -1    0    0    0    0 -0.00000000000E+00 -0.00000000000E+00 -0.45593999997E+02  0.45594000000E+02  0.51100000000E-03 0. -1.
    9900012    2    1    2    0    0  0.96903385093E+01 -0.26994530623E+02  0.34734793450E+02  0.46142320740E+02  0.10000027168E+02 0.  0.
         12    1    1    2    0    0 -0.96903385093E+01  0.26994530623E+02 -0.34734793450E+02  0.45045679260E+02  0.00000000000E+00 0. -1.
         11    1    3    3    0    0  0.12613854679E+01 -0.12797089243E+01  0.70737410495E+01  0.72983944074E+01  0.51100000000E-03 0. -1.
        -11    1    3    3    0    0  0.86332523571E+01 -0.23505161593E+02  0.25709608553E+02  0.35888851194E+02  0.51100000000E-03 0.  1.
         12    1    3    3    0    0 -0.20429931573E+00 -0.22096601054E+01  0.19514438470E+01  0.29550751394E+01  0.00000000000E+00 0. -1.
</event>
<event>
 7    1  0.1385632E-008  0.4614232E+02  0.7816164E-02  0.1320468E+00
        -11   -1    0    0    0    0  0.00000000000E+00  0.00000000000E+00  0.45593999997E+02  0.45594000000E+02  0.51100000000E-03 0. -1.
         11   -1    0    0    0    0 -0.00000000000E+00 -0.00000000000E+00 -0.45593999997E+02  0.45594000000E+02  0.51100000000E-03 0.  1.
    9900012    2    1    2    0    0  0.34001088790E+02 -0.29541382844E+02 -0.58842504321E+00  0.46142316708E+02  0.99999903967E+01 0.  0.
         12    1    1    2    0    0 -0.34001088790E+02  0.29541382844E+02  0.58842504321E+00  0.45045683292E+02  0.00000000000E+00 0. -1.
         11    1    3    3    0    0  0.63750339987E+01 -0.39620916330E+01  0.18915034061E+01  0.77406081149E+01  0.51100000000E-03 0. -1.
        -11    1    3    3    0    0  0.25983382354E+02 -0.25077561511E+02 -0.36920728882E+01  0.36299471792E+02  0.51100000000E-03 0.  1.
        -12    1    3    3    0    0  0.16426724372E+01 -0.50172969957E+00  0.12121444389E+01  0.21022368012E+01  0.00000000000E+00 0.  1.
</event>
<event>
 7    1  0.1385632E-008  0.4614232E+02  0.7816164E-02  0.1320468E+00
        -11   -1    0    0    0    0  0.00000000000E+00  0.00000000000E+00  0.45593999997E+02  0.45594000000E+02  0.51100000000E-03 0.  1.
         11   -1    0    0    0    0 -0.00000000000E+00 -0.00000000000E+00 -0.45593999997E+02  0.45594000000E+02  0.51100000000E-03 0. -1.
    9900012    2    1    2    0    0 -0.28522164873E+02 -0.25076020363E+02 -0.24223806402E+02  0.46142317822E+02  0.10000000555E+02 0.  0.
         12    1    1    2    0    0  0.28522164873E+02  0.25076020363E+02  0.24223806402E+02  0.45045682178E+02  0.00000000000E+00 0. -1.
         11    1    3    3    0    0 -0.88596772820E+01 -0.94946815448E+01 -0.58668023859E+01  0.14249990515E+02  0.51100000000E-03 0. -1.
        -11    1    3    3    0    0 -0.16694374490E+02 -0.92697533175E+01 -0.13060490751E+02  0.23134538792E+02  0.51100000000E-03 0.  1.
        -12    1    3    3    0    0 -0.29681131008E+01 -0.63115855008E+01 -0.52965132652E+01  0.87577885155E+01  0.00000000000E+00 0.  1.
</event>
<event>
 7    1  0.1385632E-008  0.4614232E+02  0.7816164E-02  0.1320468E+00
        -11   -1    0    0    0    0  0.00000000000E+00  0.00000000000E+00  0.45593999997E+02  0.45594000000E+02  0.51100000000E-03 0. -1.
         11   -1    0    0    0    0 -0.00000000000E+00 -0.00000000000E+00 -0.45593999997E+02  0.45594000000E+02  0.51100000000E-03 0.  1.
    9900012    2    1    2    0    0 -0.19826638522E+02 -0.15565495119E+02 -0.37332739142E+02  0.46142316020E+02  0.99999841215E+01 0.  0.
         12    1    1    2    0    0  0.19826638522E+02  0.15565495119E+02  0.37332739142E+02  0.45045683980E+02  0.00000000000E+00 0. -1.
         11    1    3    3    0    0  0.25018155448E+00  0.39635579165E-01  0.68965730230E-01  0.26252299405E+00  0.51100000000E-03 0. -1.
        -11    1    3    3    0    0 -0.63221005177E+00  0.34704747947E-03  0.28403378392E+00  0.69308377671E+00  0.51100000000E-03 0.  1.
        -12    1    3    3    0    0 -0.19444610025E+02 -0.15605477746E+02 -0.37685738656E+02  0.45186709249E+02  0.00000000000E+00 0.  1.
</event>
<event>
 7    1  0.1385632E-008  0.4614232E+02  0.7816164E-02  0.1320468E+00
        -11   -1    0    0    0    0  0.00000000000E+00  0.00000000000E+00  0.45593999997E+02  0.45594000000E+02  0.51100000000E-03 0.  1.
         11   -1    0    0    0    0 -0.00000000000E+00 -0.00000000000E+00 -0.45593999997E+02  0.45594000000E+02  0.51100000000E-03 0. -1.
    9900012    2    1    2    0    0  0.41738427721E+02 -0.16684629679E+02 -0.29394301779E+01  0.46142318010E+02  0.10000002270E+02 0.  0.
         12    1    1    2    0    0 -0.41738427721E+02  0.16684629679E+02  0.29394301779E+01  0.45045681990E+02  0.00000000000E+00 0. -1.
         11    1    3    3    0    0  0.16404983048E+02 -0.62010131943E+01  0.24598290983E+01  0.17709511368E+02  0.51100000000E-03 0. -1.
        -11    1    3    3    0    0  0.22673793218E+02 -0.11007425017E+02 -0.48385334789E+01  0.25664678274E+02  0.51100000000E-03 0.  1.
         12    1    3    3    0    0  0.26596514554E+01  0.52380853309E+00 -0.56072579729E+00  0.27681283683E+01  0.00000000000E+00 0. -1.
</event>
<event>
 7    1  0.1385632E-008  0.4614231E+02  0.7816164E-02  0.1320468E+00
        -11   -1    0    0    0    0  0.00000000000E+00  0.00000000000E+00  0.45593999997E+02  0.45594000000E+02  0.51100000000E-03 0. -1.
         11   -1    0    0    0    0 -0.00000000000E+00 -0.00000000000E+00 -0.45593999997E+02  0.45594000000E+02  0.51100000000E-03 0.  1.
    9900012    2    1    2    0    0  0.10513480698E+02  0.23411190455E+02  0.37020222583E+02  0.46142312137E+02  0.99999487156E+01 0.  0.
         12    1    1    2    0    0 -0.10513480698E+02 -0.23411190455E+02 -0.37020222583E+02  0.45045687863E+02  0.00000000000E+00 0. -1.
         11    1    3    3    0    0  0.53739114987E+01  0.12427906501E+02  0.18052879792E+02  0.22566307936E+02  0.51100000000E-03 0. -1.
        -11    1    3    3    0    0  0.11987700982E+01  0.96704798316E+01  0.14558165949E+02  0.17518431037E+02  0.51100000000E-03 0.  1.
         12    1    3    3    0    0  0.39407991014E+01  0.13128041224E+01  0.44091768418E+01  0.60575731646E+01  0.00000000000E+00 0. -1.
</event>
<event>
 7    1  0.1385632E-008  0.4614232E+02  0.7816164E-02  0.1320468E+00
        -11   -1    0    0    0    0  0.00000000000E+00  0.00000000000E+00  0.45593999997E+02  0.45594000000E+02  0.51100000000E-03 0. -1.
         11   -1    0    0    0    0 -0.00000000000E+00 -0.00000000000E+00 -0.45593999997E+02  0.45594000000E+02  0.51100000000E-03 0.  1.
    9900012    2    1    2    0    0  0.33737493201E+02 -0.27884040966E+02 -0.10647786929E+02  0.46142317026E+02  0.99999933005E+01 0.  0.
         12    1    1    2    0    0 -0.33737493201E+02  0.27884040966E+02  0.10647786929E+02  0.45045682974E+02  0.00000000000E+00 0. -1.
         11    1    3    3    0    0  0.13908590520E+02 -0.16094527966E+02 -0.38893954291E+01  0.21624294619E+02  0.51100000000E-03 0. -1.
        -11    1    3    3    0    0  0.51860051615E+01 -0.28221917291E+01  0.39413126154E+00  0.59173267109E+01  0.51100000000E-03 0.  1.
        -12    1    3    3    0    0  0.14642897520E+02 -0.89673212703E+01 -0.71525227618E+01  0.18600695696E+02  0.00000000000E+00 0.  1.
</event>
<event>
 7    1  0.1385632E-008  0.4614232E+02  0.7816164E-02  0.1320468E+00
        -11   -1    0    0    0    0  0.00000000000E+00  0.00000000000E+00  0.45593999997E+02  0.45594000000E+02  0.51100000000E-03 0.  1.
         11   -1    0    0    0    0 -0.00000000000E+00 -0.00000000000E+00 -0.45593999997E+02  0.45594000000E+02  0.51100000000E-03 0. -1.
    9900012    2    1    2    0    0  0.31072968426E+02 -0.22715161441E+02  0.23400975792E+02  0.46142316587E+02  0.99999892976E+01 0.  0.
         12    1    1    2    0    0 -0.31072968426E+02  0.22715161441E+02 -0.23400975792E+02  0.45045683413E+02  0.00000000000E+00 0. -1.
         11    1    3    3    0    0  0.20176864647E+02 -0.10970950462E+02  0.16006743490E+02  0.27994346901E+02  0.51100000000E-03 0.  1.
        -11    1    3    3    0    0  0.15186140782E+01 -0.35383183440E+01  0.43363278441E+00  0.38747803906E+01  0.51100000000E-03 0. -1.
         12    1    3    3    0    0  0.93774897013E+01 -0.82058926343E+01  0.69605995174E+01  0.14273189295E+02  0.00000000000E+00 0. -1.
</event>
<event>
 7    1  0.1385632E-008  0.4614232E+02  0.7816164E-02  0.1320468E+00
        -11   -1    0    0    0    0  0.00000000000E+00  0.00000000000E+00  0.45593999997E+02  0.45594000000E+02  0.51100000000E-03 0. -1.
         11   -1    0    0    0    0 -0.00000000000E+00 -0.00000000000E+00 -0.45593999997E+02  0.45594000000E+02  0.51100000000E-03 0.  1.
    9900012    2    1    2    0    0 -0.12827258727E+02 -0.33914812532E+02 -0.26727521250E+02  0.46142317990E+02  0.10000002086E+02 0.  0.
         12    1    1    2    0    0  0.12827258727E+02  0.33914812532E+02  0.26727521250E+02  0.45045682010E+02  0.00000000000E+00 0. -1.
         11    1    3    3    0    0 -0.25636364757E+01 -0.12481829606E+01 -0.46995234905E+00  0.28898180140E+01  0.51100000000E-03 0. -1.
        -11    1    3    3    0    0 -0.45295903663E+01 -0.19313093643E+02 -0.15278803701E+02  0.25039061839E+02  0.51100000000E-03 0.  1.
         12    1    3    3    0    0 -0.57340318854E+01 -0.13353535929E+02 -0.10978765200E+02  0.18213438137E+02  0.00000000000E+00 0. -1.
</event>
<event>
 7    1  0.1385632E-008  0.4614232E+02  0.7816164E-02  0.1320468E+00
        -11   -1    0    0    0    0  0.00000000000E+00  0.00000000000E+00  0.45593999997E+02  0.45594000000E+02  0.51100000000E-03 0.  1.
         11   -1    0    0    0    0 -0.00000000000E+00 -0.00000000000E+00 -0.45593999997E+02  0.45594000000E+02  0.51100000000E-03 0. -1.
    9900012    2    1    2    0    0  0.48373656395E+01 -0.36424389026E+01  0.44636823778E+02  0.46142317582E+02  0.99999983693E+01 0.  0.
         12    1    1    2    0    0 -0.48373656395E+01  0.36424389026E+01 -0.44636823778E+02  0.45045682418E+02  0.00000000000E+00 0. -1.
         11    1    3    3    0    0 -0.19997094892E+01 -0.11364495989E+01  0.20144139375E+02  0.20275026687E+02  0.51100000000E-03 0. -1.
        -11    1    3    3    0    0  0.14769911882E+01 -0.25070897249E+01  0.10018253654E+02  0.10432277239E+02  0.51100000000E-03 0.  1.
         12    1    3    3    0    0  0.53600839405E+01  0.11004212460E-02  0.14474430749E+02  0.15435013656E+02  0.00000000000E+00 0. -1.
</event>
<event>
 7    1  0.1385632E-008  0.4614232E+02  0.7816164E-02  0.1320468E+00
        -11   -1    0    0    0    0  0.00000000000E+00  0.00000000000E+00  0.45593999997E+02  0.45594000000E+02  0.51100000000E-03 0.  1.
         11   -1    0    0    0    0 -0.00000000000E+00 -0.00000000000E+00 -0.45593999997E+02  0.45594000000E+02  0.51100000000E-03 0. -1.
    9900012    2    1    2    0    0  0.30246433049E+02 -0.33047391727E+02 -0.47049499794E+01  0.46142319114E+02  0.10000012339E+02 0.  0.
         12    1    1    2    0    0 -0.30246433049E+02  0.33047391727E+02  0.47049499794E+01  0.45045680886E+02  0.00000000000E+00 0. -1.
         11    1    3    3    0    0  0.11808801873E+02 -0.91040499481E+01 -0.46369890718E+00  0.14917993969E+02  0.51100000000E-03 0. -1.
        -11    1    3    3    0    0  0.12457437061E+02 -0.10978064403E+02 -0.13727531185E+01  0.16661035009E+02  0.51100000000E-03 0.  1.
         12    1    3    3    0    0  0.59801941146E+01 -0.12965277376E+02 -0.28684979538E+01  0.14563290136E+02  0.00000000000E+00 0. -1.
</event>
<event>
 7    1  0.1385632E-008  0.4614232E+02  0.7816164E-02  0.1320468E+00
        -11   -1    0    0    0    0  0.00000000000E+00  0.00000000000E+00  0.45593999997E+02  0.45594000000E+02  0.51100000000E-03 0.  1.
         11   -1    0    0    0    0 -0.00000000000E+00 -0.00000000000E+00 -0.45593999997E+02  0.45594000000E+02  0.51100000000E-03 0. -1.
    9900012    2    1    2    0    0 -0.42058437653E+02  0.67278853436E+01  0.14660729462E+02  0.46142316441E+02  0.99999879589E+01 0.  0.
         12    1    1    2    0    0  0.42058437653E+02 -0.67278853436E+01 -0.14660729462E+02  0.45045683559E+02  0.00000000000E+00 0. -1.
         11    1    3    3    0    0 -0.28309571172E+02  0.52926555745E+01  0.13445254564E+02  0.31783940812E+02  0.51100000000E-03 0. -1.
        -11    1    3    3    0    0 -0.95502806493E+01  0.16356128660E+01 -0.74974639413E+00  0.97182925375E+01  0.51100000000E-03 0.  1.
        -12    1    3    3    0    0 -0.41985858310E+01 -0.20038309686E+00  0.19652212920E+01  0.46400830911E+01  0.00000000000E+00 0.  1.
</event>
<event>
 7    1  0.1385632E-008  0.4614232E+02  0.7816164E-02  0.1320468E+00
        -11   -1    0    0    0    0  0.00000000000E+00  0.00000000000E+00  0.45593999997E+02  0.45594000000E+02  0.51100000000E-03 0.  1.
         11   -1    0    0    0    0 -0.00000000000E+00 -0.00000000000E+00 -0.45593999997E+02  0.45594000000E+02  0.51100000000E-03 0. -1.
    9900012    2    1    2    0    0  0.44747948985E+02 -0.15434012557E+01  0.49348207786E+01  0.46142317833E+02  0.10000000655E+02 0.  0.
         12    1    1    2    0    0 -0.44747948985E+02  0.15434012557E+01 -0.49348207786E+01  0.45045682167E+02  0.00000000000E+00 0. -1.
         11    1    3    3    0    0  0.14910438527E+01  0.57198473400E+00  0.17439729158E+01  0.23647029620E+01  0.51100000000E-03 0. -1.
        -11    1    3    3    0    0  0.17932732241E+02 -0.35153939223E+01  0.61630892318E+00  0.18284439204E+02  0.51100000000E-03 0.  1.
         12    1    3    3    0    0  0.25324172891E+02  0.14000079326E+01  0.25745389396E+01  0.25493175667E+02  0.00000000000E+00 0. -1.
</event>
<event>
 7    1  0.1385632E-008  0.4614232E+02  0.7816164E-02  0.1320468E+00
        -11   -1    0    0    0    0  0.00000000000E+00  0.00000000000E+00  0.45593999997E+02  0.45594000000E+02  0.51100000000E-03 0.  1.
         11   -1    0    0    0    0 -0.00000000000E+00 -0.00000000000E+00 -0.45593999997E+02  0.45594000000E+02  0.51100000000E-03 0. -1.
    9900012    2    1    2    0    0  0.16278226402E+02 -0.33057918912E+02  0.25909590469E+02  0.46142317234E+02  0.99999951960E+01 0.  0.
         12    1    1    2    0    0 -0.16278226402E+02  0.33057918912E+02 -0.25909590469E+02  0.45045682766E+02  0.00000000000E+00 0. -1.
         11    1    3    3    0    0  0.10806394334E+01 -0.16573261663E+01  0.36878811196E+00  0.20125895108E+01  0.51100000000E-03 0. -1.
        -11    1    3    3    0    0  0.29172762887E+01 -0.11326059414E+02  0.44016993019E+01  0.12496602730E+02  0.51100000000E-03 0.  1.
        -12    1    3    3    0    0  0.12280310680E+02 -0.20074533332E+02  0.21139103055E+02  0.31633124994E+02  0.00000000000E+00 0.  1.
</event>
<event>
 7    1  0.1385632E-008  0.4614231E+02  0.7816164E-02  0.1320468E+00
        -11   -1    0    0    0    0  0.00000000000E+00  0.00000000000E+00  0.45593999997E+02  0.45594000000E+02  0.51100000000E-03 0. -1.
         11   -1    0    0    0    0 -0.00000000000E+00 -0.00000000000E+00 -0.45593999997E+02  0.45594000000E+02  0.51100000000E-03 0.  1.
    9900012    2    1    2    0    0 -0.36154423310E+01 -0.22357065561E+02 -0.38938463464E+02  0.46142314961E+02  0.99999744623E+01 0.  0.
         12    1    1    2    0    0  0.36154423310E+01  0.22357065561E+02  0.38938463464E+02  0.45045685039E+02  0.00000000000E+00 0. -1.
         11    1    3    3    0    0 -0.47296784557E+01 -0.15855160668E+02 -0.23843590791E+02  0.29021936534E+02  0.51100000000E-03 0. -1.
        -11    1    3    3    0    0  0.71540348867E+00 -0.62573835504E+01 -0.88734717143E+01  0.10881413124E+02  0.51100000000E-03 0.  1.
         12    1    3    3    0    0  0.39883263607E+00 -0.24452134203E+00 -0.62214009589E+01  0.62389653028E+01  0.00000000000E+00 0. -1.
</event>
<event>
 7    1  0.1385632E-008  0.4614232E+02  0.7816164E-02  0.1320468E+00
        -11   -1    0    0    0    0  0.00000000000E+00  0.00000000000E+00  0.45593999997E+02  0.45594000000E+02  0.51100000000E-03 0.  1.
         11   -1    0    0    0    0 -0.00000000000E+00 -0.00000000000E+00 -0.45593999997E+02  0.45594000000E+02  0.51100000000E-03 0. -1.
    9900012    2    1    2    0    0 -0.15191669171E+02  0.32820922427E+02  0.26853565197E+02  0.46142315136E+02  0.99999760588E+01 0.  0.
         12    1    1    2    0    0  0.15191669171E+02 -0.32820922427E+02 -0.26853565197E+02  0.45045684864E+02  0.00000000000E+00 0. -1.
         11    1    3    3    0    0 -0.27300332214E+01  0.69117083777E+01  0.23880433079E+01  0.78056098538E+01  0.51100000000E-03 0. -1.
        -11    1    3    3    0    0 -0.10189423456E+02  0.20186174856E+02  0.22433991696E+02  0.31852629238E+02  0.51100000000E-03 0.  1.
        -12    1    3    3    0    0 -0.22722124932E+01  0.57230391929E+01  0.20315301924E+01  0.64840760437E+01  0.00000000000E+00 0.  1.
</event>
<event>
 7    1  0.1385632E-008  0.4614232E+02  0.7816164E-02  0.1320468E+00
        -11   -1    0    0    0    0  0.00000000000E+00  0.00000000000E+00  0.45593999997E+02  0.45594000000E+02  0.51100000000E-03 0.  1.
         11   -1    0    0    0    0 -0.00000000000E+00 -0.00000000000E+00 -0.45593999997E+02  0.45594000000E+02  0.51100000000E-03 0. -1.
    9900012    2    1    2    0    0 -0.30483048372E+02  0.76796565640E+01  0.32263293616E+02  0.46142317877E+02  0.10000001055E+02 0.  0.
         12    1    1    2    0    0  0.30483048372E+02 -0.76796565640E+01 -0.32263293616E+02  0.45045682123E+02  0.00000000000E+00 0. -1.
         11    1    3    3    0    0 -0.61167587553E+01  0.23174008301E+01  0.19565909901E+01  0.68273957584E+01  0.51100000000E-03 0.  1.
        -11    1    3    3    0    0 -0.17517354468E+02  0.33915043294E+01  0.22981392109E+02  0.29094748542E+02  0.51100000000E-03 0. -1.
        -12    1    3    3    0    0 -0.68489351485E+01  0.19707514045E+01  0.73253105169E+01  0.10220173577E+02  0.00000000000E+00 0.  1.
</event>
<event>
 7    1  0.1385632E-008  0.4614232E+02  0.7816164E-02  0.1320468E+00
        -11   -1    0    0    0    0  0.00000000000E+00  0.00000000000E+00  0.45593999997E+02  0.45594000000E+02  0.51100000000E-03 0.  1.
         11   -1    0    0    0    0 -0.00000000000E+00 -0.00000000000E+00 -0.45593999997E+02  0.45594000000E+02  0.51100000000E-03 0. -1.
    9900012    2    1    2    0    0  0.19579841774E+02  0.31557771342E+02  0.25492162945E+02  0.46142317548E+02  0.99999980544E+01 0.  0.
         12    1    1    2    0    0 -0.19579841774E+02 -0.31557771342E+02 -0.25492162945E+02  0.45045682452E+02  0.00000000000E+00 0. -1.
         11    1    3    3    0    0  0.94370273275E+01  0.89715967451E+01  0.11963240151E+02  0.17682368283E+02  0.51100000000E-03 0. -1.
        -11    1    3    3    0    0  0.36518179943E+01  0.12618022692E+02  0.74500153148E+01  0.15101423766E+02  0.51100000000E-03 0.  1.
         12    1    3    3    0    0  0.64909964526E+01  0.99681519043E+01  0.60789074798E+01  0.13358525498E+02  0.00000000000E+00 0. -1.
</event>
<event>
 7    1  0.1385632E-008  0.4614232E+02  0.7816164E-02  0.1320468E+00
        -11   -1    0    0    0    0  0.00000000000E+00  0.00000000000E+00  0.45593999997E+02  0.45594000000E+02  0.51100000000E-03 0.  1.
         11   -1    0    0    0    0 -0.00000000000E+00 -0.00000000000E+00 -0.45593999997E+02  0.45594000000E+02  0.51100000000E-03 0. -1.
    9900012    2    1    2    0    0 -0.26481051157E+02 -0.28043551101E+02  0.23268576687E+02  0.46142317745E+02  0.99999998545E+01 0.  0.
         12    1    1    2    0    0  0.26481051157E+02  0.28043551101E+02 -0.23268576687E+02  0.45045682255E+02  0.00000000000E+00 0. -1.
         11    1    3    3    0    0 -0.15497470304E+02 -0.12559915161E+02  0.80178235983E+01  0.21499036029E+02  0.51100000000E-03 0. -1.
        -11    1    3    3    0    0 -0.11002993849E+02 -0.14414953582E+02  0.15026709778E+02  0.23551194607E+02  0.51100000000E-03 0.  1.
         12    1    3    3    0    0  0.19412995214E-01 -0.10686823593E+01  0.22404331050E+00  0.10920871094E+01  0.00000000000E+00 0. -1.
</event>
<event>
 7    1  0.1385632E-008  0.4614232E+02  0.7816164E-02  0.1320468E+00
        -11   -1    0    0    0    0  0.00000000000E+00  0.00000000000E+00  0.45593999997E+02  0.45594000000E+02  0.51100000000E-03 0.  1.
         11   -1    0    0    0    0 -0.00000000000E+00 -0.00000000000E+00 -0.45593999997E+02  0.45594000000E+02  0.51100000000E-03 0. -1.
    9900012    2    1    2    0    0  0.22544136834E+02 -0.37716557026E+02  0.99164867355E+01  0.46142317758E+02  0.99999999733E+01 0.  0.
         12    1    1    2    0    0 -0.22544136834E+02  0.37716557026E+02 -0.99164867355E+01  0.45045682242E+02  0.00000000000E+00 0. -1.
         11    1    3    3    0    0  0.66175025718E+00 -0.38015255354E+00  0.16459534697E+01  0.18142746353E+01  0.51100000000E-03 0. -1.
        -11    1    3    3    0    0  0.17833521823E+02 -0.27167156375E+02  0.75229201146E+01  0.33356906532E+02  0.51100000000E-03 0.  1.
         12    1    3    3    0    0  0.40488647533E+01 -0.10169248098E+02  0.74761315111E+00  0.10971136590E+02  0.00000000000E+00 0. -1.
</event>
<event>
 7    1  0.1385632E-008  0.4614232E+02  0.7816164E-02  0.1320468E+00
        -11   -1    0    0    0    0  0.00000000000E+00  0.00000000000E+00  0.45593999997E+02  0.45594000000E+02  0.51100000000E-03 0.  1.
         11   -1    0    0    0    0 -0.00000000000E+00 -0.00000000000E+00 -0.45593999997E+02  0.45594000000E+02  0.51100000000E-03 0. -1.
    9900012    2    1    2    0    0 -0.33274293421E+02 -0.26071968537E+02  0.15562370271E+02  0.46142317470E+02  0.99999973498E+01 0.  0.
         12    1    1    2    0    0  0.33274293421E+02  0.26071968537E+02 -0.15562370271E+02  0.45045682530E+02  0.00000000000E+00 0. -1.
         11    1    3    3    0    0 -0.46255141823E+01 -0.55205975426E+01  0.41604262569E+01  0.83175432418E+01  0.51100000000E-03 0. -1.
        -11    1    3    3    0    0 -0.82391335285E+01 -0.20608543674E+01  0.20126767846E+01  0.87281905413E+01  0.51100000000E-03 0.  1.
        -12    1    3    3    0    0 -0.20409645710E+02 -0.18490516628E+02  0.93892672298E+01  0.29096583687E+02  0.00000000000E+00 0.  1.
</event>
<event>
 7    1  0.1385632E-008  0.4614232E+02  0.7816164E-02  0.1320468E+00
        -11   -1    0    0    0    0  0.00000000000E+00  0.00000000000E+00  0.45593999997E+02  0.45594000000E+02  0.51100000000E-03 0.  1.
         11   -1    0    0    0    0 -0.00000000000E+00 -0.00000000000E+00 -0.45593999997E+02  0.45594000000E+02  0.51100000000E-03 0. -1.
    9900012    2    1    2    0    0  0.26160673095E+02 -0.29393316132E+02  0.21926372005E+02  0.46142316086E+02  0.99999847261E+01 0.  0.
         12    1    1    2    0    0 -0.26160673095E+02  0.29393316132E+02 -0.21926372005E+02  0.45045683914E+02  0.00000000000E+00 0. -1.
         11    1    3    3    0    0  0.54197339144E+01 -0.11155196408E+02  0.73742611861E+01  0.14428847872E+02  0.51100000000E-03 0. -1.
        -11    1    3    3    0    0  0.10445156199E+02 -0.64508567612E+01  0.85066568371E+01  0.14935797661E+02  0.51100000000E-03 0.  1.
         12    1    3    3    0    0  0.10295782982E+02 -0.11787262962E+02  0.60454539813E+01  0.16777670553E+02  0.00000000000E+00 0. -1.
</event>
<event>
 7    1  0.1385632E-008  0.4614232E+02  0.7816164E-02  0.1320468E+00
        -11   -1    0    0    0    0  0.00000000000E+00  0.00000000000E+00  0.45593999997E+02  0.45594000000E+02  0.51100000000E-03 0.  1.
         11   -1    0    0    0    0 -0.00000000000E+00 -0.00000000000E+00 -0.45593999997E+02  0.45594000000E+02  0.51100000000E-03 0. -1.
    9900012    2    1    2    0    0 -0.33885915983E+02  0.29546178433E+02 -0.28073996828E+01  0.46142318131E+02  0.10000003375E+02 0.  0.
         12    1    1    2    0    0  0.33885915983E+02 -0.29546178433E+02  0.28073996828E+01  0.45045681869E+02  0.00000000000E+00 0. -1.
         11    1    3    3    0    0 -0.68495007852E+00  0.59842893968E+00 -0.14931536352E+01  0.17483654782E+01  0.51100000000E-03 0. -1.
        -11    1    3    3    0    0 -0.48142466234E+01  0.61125731962E+01  0.12138055920E+01  0.78748870409E+01  0.51100000000E-03 0.  1.
        -12    1    3    3    0    0 -0.28386719282E+02  0.22835176297E+02 -0.25280516395E+01  0.36519065612E+02  0.00000000000E+00 0.  1.
</event>
<event>
 7    1  0.1791897E-008  0.4614232E+02  0.7816164E-02  0.1320468E+00
        -11   -1    0    0    0    0  0.00000000000E+00  0.00000000000E+00  0.45593999997E+02  0.45594000000E+02  0.51100000000E-03 0.  1.
         11   -1    0    0    0    0 -0.00000000000E+00 -0.00000000000E+00 -0.45593999997E+02  0.45594000000E+02  0.51100000000E-03 0. -1.
    9900012    2    1    2    0    0  0.38450995024E+02  0.15865447022E+02  0.17289362833E+02  0.46142317691E+02  0.99999993584E+01 0.  0.
         12    1    1    2    0    0 -0.38450995024E+02 -0.15865447022E+02 -0.17289362833E+02  0.45045682309E+02  0.00000000000E+00 0. -1.
         11    1    3    3    0    0 -0.21943423472E+00 -0.37713925472E+00 -0.46791134525E-01  0.43883376375E+00  0.51100000000E-03 0. -1.
        -11    1    3    3    0    0  0.37985151103E+02  0.14956994371E+02  0.16890660617E+02  0.44180061128E+02  0.51100000000E-03 0.  1.
        -12    1    3    3    0    0  0.68527815493E+00  0.12855919057E+01  0.44549335116E+00  0.15234227987E+01  0.00000000000E+00 0.  1.
</event>
<event>
 7    1  0.1680953E-008  0.4614232E+02  0.7816164E-02  0.1320468E+00
        -11   -1    0    0    0    0  0.00000000000E+00  0.00000000000E+00  0.45593999997E+02  0.45594000000E+02  0.51100000000E-03 0. -1.
         11   -1    0    0    0    0 -0.00000000000E+00 -0.00000000000E+00 -0.45593999997E+02  0.45594000000E+02  0.51100000000E-03 0.  1.
    9900012    2    1    2    0    0 -0.17681717865E+02 -0.13315491124E+02 -0.39232231748E+02  0.46142318093E+02  0.10000003025E+02 0.  0.
         12    1    1    2    0    0  0.17681717865E+02  0.13315491124E+02  0.39232231748E+02  0.45045681907E+02  0.00000000000E+00 0. -1.
         11    1    3    3    0    0  0.52824943419E+00 -0.14589982451E+01 -0.16266599312E+01  0.22480538554E+01  0.51100000000E-03 0. -1.
        -11    1    3    3    0    0 -0.12339564528E+02 -0.44351221877E+01 -0.20195675181E+02  0.24079046033E+02  0.51100000000E-03 0.  1.
        -12    1    3    3    0    0 -0.58704027713E+01 -0.74213706908E+01 -0.17409896636E+02  0.19815218205E+02  0.00000000000E+00 0.  1.
</event>
<event>
 7    1  0.1385632E-008  0.4614232E+02  0.7816164E-02  0.1320468E+00
        -11   -1    0    0    0    0  0.00000000000E+00  0.00000000000E+00  0.45593999997E+02  0.45594000000E+02  0.51100000000E-03 0.  1.
         11   -1    0    0    0    0 -0.00000000000E+00 -0.00000000000E+00 -0.45593999997E+02  0.45594000000E+02  0.51100000000E-03 0. -1.
    9900012    2    1    2    0    0 -0.67066342390E+01 -0.32560401500E+02  0.30396624500E+02  0.46142317969E+02  0.10000001897E+02 0.  0.
         12    1    1    2    0    0  0.67066342390E+01  0.32560401500E+02 -0.30396624500E+02  0.45045682031E+02  0.00000000000E+00 0. -1.
         11    1    3    3    0    0 -0.20010858436E+01 -0.23572235278E+01  0.68859494602E+01  0.75483208427E+01  0.51100000000E-03 0. -1.
        -11    1    3    3    0    0 -0.40494187556E+01 -0.28317991388E+02  0.21817836354E+02  0.35976720417E+02  0.51100000000E-03 0.  1.
         12    1    3    3    0    0 -0.65612963977E+00 -0.18851865836E+01  0.16928386861E+01  0.26172767099E+01  0.00000000000E+00 0. -1.
</event>
<event>
 7    1  0.1385632E-008  0.4614232E+02  0.7816164E-02  0.1320468E+00
        -11   -1    0    0    0    0  0.00000000000E+00  0.00000000000E+00  0.45593999997E+02  0.45594000000E+02  0.51100000000E-03 0.  1.
         11   -1    0    0    0    0 -0.00000000000E+00 -0.00000000000E+00 -0.45593999997E+02  0.45594000000E+02  0.51100000000E-03 0. -1.
    9900012    2    1    2    0    0  0.10582329851E+02  0.40482465651E+01  0.43597470779E+02  0.46142318035E+02  0.10000002501E+02 0.  0.
         12    1    1    2    0    0 -0.10582329851E+02 -0.40482465651E+01 -0.43597470779E+02  0.45045681965E+02  0.00000000000E+00 0. -1.
         11    1    3    3    0    0  0.40244717732E+01  0.52111561139E+01  0.28725033672E+02  0.29469986102E+02  0.51100000000E-03 0.  1.
        -11    1    3    3    0    0  0.69705349911E+00  0.96081626689E+00  0.14571134357E+01  0.18794231309E+01  0.51100000000E-03 0. -1.
         12    1    3    3    0    0  0.58608045789E+01 -0.21237258156E+01  0.13415323671E+02  0.14792908803E+02  0.00000000000E+00 0. -1.
</event>
<event>
 7    1  0.1385632E-008  0.4614232E+02  0.7816164E-02  0.1320468E+00
        -11   -1    0    0    0    0  0.00000000000E+00  0.00000000000E+00  0.45593999997E+02  0.45594000000E+02  0.51100000000E-03 0.  1.
         11   -1    0    0    0    0 -0.00000000000E+00 -0.00000000000E+00 -0.45593999997E+02  0.45594000000E+02  0.51100000000E-03 0. -1.
    9900012    2    1    2    0    0 -0.13935251206E+02 -0.25174628704E+02  0.34657760927E+02  0.46142317087E+02  0.99999938572E+01 0.  0.
         12    1    1    2    0    0  0.13935251206E+02  0.25174628704E+02 -0.34657760927E+02  0.45045682913E+02  0.00000000000E+00 0. -1.
         11    1    3    3    0    0  0.40293900021E+00 -0.20420563624E+01  0.43869569635E+01  0.48556920913E+01  0.51100000000E-03 0. -1.
        -11    1    3    3    0    0 -0.10423492948E+02 -0.13048153730E+02  0.22248134778E+02  0.27818753070E+02  0.51100000000E-03 0.  1.
        -12    1    3    3    0    0 -0.39146972579E+01 -0.10084418612E+02  0.80226691861E+01  0.13467871927E+02  0.00000000000E+00 0.  1.
</event>
<event>
 7    1  0.1385632E-008  0.4614232E+02  0.7816164E-02  0.1320468E+00
        -11   -1    0    0    0    0  0.00000000000E+00  0.00000000000E+00  0.45593999997E+02  0.45594000000E+02  0.51100000000E-03 0.  1.
         11   -1    0    0    0    0 -0.00000000000E+00 -0.00000000000E+00 -0.45593999997E+02  0.45594000000E+02  0.51100000000E-03 0. -1.
    9900012    2    1    2    0    0  0.43176915026E+02  0.91794567243E+01 -0.89780301629E+01  0.46142318270E+02  0.10000004644E+02 0.  0.
         12    1    1    2    0    0 -0.43176915026E+02 -0.91794567243E+01  0.89780301629E+01  0.45045681730E+02  0.00000000000E+00 0. -1.
         11    1    3    3    0    0  0.15582390753E+02  0.64791738892E+01 -0.20955562577E+01  0.17005350692E+02  0.51100000000E-03 0. -1.
        -11    1    3    3    0    0  0.26541288200E+02  0.37220051144E+01 -0.61528586179E+01  0.27498199411E+02  0.51100000000E-03 0.  1.
         12    1    3    3    0    0  0.10532360727E+01 -0.10217222793E+01 -0.72961528727E+00  0.16387681680E+01  0.00000000000E+00 0. -1.
</event>
<event>
 7    1  0.1385632E-008  0.4614232E+02  0.7816164E-02  0.1320468E+00
        -11   -1    0    0    0    0  0.00000000000E+00  0.00000000000E+00  0.45593999997E+02  0.45594000000E+02  0.51100000000E-03 0. -1.
         11   -1    0    0    0    0 -0.00000000000E+00 -0.00000000000E+00 -0.45593999997E+02  0.45594000000E+02  0.51100000000E-03 0.  1.
    9900012    2    1    2    0    0 -0.88203444933E+01 -0.34372227938E+02 -0.27746438789E+02  0.46142318788E+02  0.10000009365E+02 0.  0.
         12    1    1    2    0    0  0.88203444933E+01  0.34372227938E+02  0.27746438789E+02  0.45045681212E+02  0.00000000000E+00 0. -1.
         11    1    3    3    0    0 -0.98328667727E+01 -0.27009586878E+02 -0.24392202289E+02  0.37698575372E+02  0.51100000000E-03 0.  1.
        -11    1    3    3    0    0  0.43918328003E+00 -0.16785092843E+01  0.15030634126E+00  0.17415130285E+01  0.51100000000E-03 0. -1.
        -12    1    3    3    0    0  0.57333899936E+00 -0.56841317754E+01 -0.35045428413E+01  0.67022303881E+01  0.00000000000E+00 0.  1.
</event>
<event>
 7    1  0.1385632E-008  0.4614232E+02  0.7816164E-02  0.1320468E+00
        -11   -1    0    0    0    0  0.00000000000E+00  0.00000000000E+00  0.45593999997E+02  0.45594000000E+02  0.51100000000E-03 0. -1.
         11   -1    0    0    0    0 -0.00000000000E+00 -0.00000000000E+00 -0.45593999997E+02  0.45594000000E+02  0.51100000000E-03 0.  1.
    9900012    2    1    2    0    0 -0.38796344936E+02  0.66740737166E+01 -0.21895518756E+02  0.46142318943E+02  0.10000010773E+02 0.  0.
         12    1    1    2    0    0  0.38796344936E+02 -0.66740737166E+01  0.21895518756E+02  0.45045681057E+02  0.00000000000E+00 0. -1.
         11    1    3    3    0    0 -0.58463706611E+01  0.38975834752E+01 -0.16187520724E+01  0.72105176920E+01  0.51100000000E-03 0. -1.
        -11    1    3    3    0    0 -0.80371743593E+01  0.30990020019E-02 -0.64450131553E+01  0.10302153955E+02  0.51100000000E-03 0.  1.
         12    1    3    3    0    0 -0.24912799915E+02  0.27733912394E+01 -0.13831753528E+02  0.28629647295E+02  0.00000000000E+00 0. -1.
</event>
<event>
 7    1  0.1385632E-008  0.4614232E+02  0.7816164E-02  0.1320468E+00
        -11   -1    0    0    0    0  0.00000000000E+00  0.00000000000E+00  0.45593999997E+02  0.45594000000E+02  0.51100000000E-03 0. -1.
         11   -1    0    0    0    0 -0.00000000000E+00 -0.00000000000E+00 -0.45593999997E+02  0.45594000000E+02  0.51100000000E-03 0.  1.
    9900012    2    1    2    0    0  0.52240022900E+01 -0.20743373125E+02 -0.39642600570E+02  0.46142317538E+02  0.99999979676E+01 0.  0.
         12    1    1    2    0    0 -0.52240022900E+01  0.20743373125E+02  0.39642600570E+02  0.45045682462E+02  0.00000000000E+00 0. -1.
         11    1    3    3    0    0  0.59380980349E+00 -0.66696197430E+00 -0.36766057896E+01  0.37835008592E+01  0.51100000000E-03 0. -1.
        -11    1    3    3    0    0 -0.63489712978E+00 -0.50813702513E+01 -0.34731200634E+01  0.61875666649E+01  0.51100000000E-03 0.  1.
        -12    1    3    3    0    0  0.52650896163E+01 -0.14995040899E+02 -0.32492874717E+02  0.36171250014E+02  0.00000000000E+00 0.  1.
</event>
<event>
 7    1  0.1385632E-008  0.4614231E+02  0.7816164E-02  0.1320468E+00
        -11   -1    0    0    0    0  0.00000000000E+00  0.00000000000E+00  0.45593999997E+02  0.45594000000E+02  0.51100000000E-03 0.  1.
         11   -1    0    0    0    0 -0.00000000000E+00 -0.00000000000E+00 -0.45593999997E+02  0.45594000000E+02  0.51100000000E-03 0. -1.
    9900012    2    1    2    0    0  0.15558769757E+02 -0.28248076658E+02  0.31449721481E+02  0.46142310612E+02  0.99999348053E+01 0.  0.
         12    1    1    2    0    0 -0.15558769757E+02  0.28248076658E+02 -0.31449721481E+02  0.45045689388E+02  0.00000000000E+00 0. -1.
         11    1    3    3    0    0  0.64713576893E+01 -0.16000584733E+02  0.14433231593E+02  0.22499230134E+02  0.51100000000E-03 0. -1.
        -11    1    3    3    0    0  0.14052925730E+01 -0.66828190230E+01  0.58558531214E+01  0.89958842451E+01  0.51100000000E-03 0.  1.
         12    1    3    3    0    0  0.76821194945E+01 -0.55646729019E+01  0.11160636767E+02  0.14647196233E+02  0.00000000000E+00 0. -1.
</event>
<event>
 7    1  0.1385632E-008  0.4614232E+02  0.7816164E-02  0.1320468E+00
        -11   -1    0    0    0    0  0.00000000000E+00  0.00000000000E+00  0.45593999997E+02  0.45594000000E+02  0.51100000000E-03 0.  1.
         11   -1    0    0    0    0 -0.00000000000E+00 -0.00000000000E+00 -0.45593999997E+02  0.45594000000E+02  0.51100000000E-03 0. -1.
    9900012    2    1    2    0    0 -0.13161438916E+02  0.15965021072E+02  0.40012600498E+02  0.46142316846E+02  0.99999916581E+01 0.  0.
         12    1    1    2    0    0  0.13161438916E+02 -0.15965021072E+02 -0.40012600498E+02  0.45045683154E+02  0.00000000000E+00 0. -1.
         11    1    3    3    0    0 -0.92046513703E+01  0.71309238132E+01  0.22910981011E+02  0.25699975339E+02  0.51100000000E-03 0. -1.
        -11    1    3    3    0    0 -0.52857923622E+01  0.79537458501E+01  0.13881961889E+02  0.16849645103E+02  0.51100000000E-03 0.  1.
        -12    1    3    3    0    0  0.13290048166E+01  0.88035140860E+00  0.32196575982E+01  0.35926964045E+01  0.00000000000E+00 0.  1.
</event>
<event>
 7    1  0.1385632E-008  0.4614232E+02  0.7816164E-02  0.1320468E+00
        -11   -1    0    0    0    0  0.00000000000E+00  0.00000000000E+00  0.45593999997E+02  0.45594000000E+02  0.51100000000E-03 0.  1.
         11   -1    0    0    0    0 -0.00000000000E+00 -0.00000000000E+00 -0.45593999997E+02  0.45594000000E+02  0.51100000000E-03 0. -1.
    9900012    2    1    2    0    0 -0.12861054350E+02  0.24004764543E+02  0.35881443649E+02  0.46142318318E+02  0.10000005083E+02 0.  0.
         12    1    1    2    0    0  0.12861054350E+02 -0.24004764543E+02 -0.35881443649E+02  0.45045681682E+02  0.00000000000E+00 0. -1.
         11    1    3    3    0    0  0.41696662678E+00  0.29924468035E+00  0.44541064333E+00  0.67955827482E+00  0.51100000000E-03 0. -1.
        -11    1    3    3    0    0 -0.98810575275E+01  0.12423596459E+02  0.25563537019E+02  0.30091119487E+02  0.51100000000E-03 0.  1.
        -12    1    3    3    0    0 -0.33969634494E+01  0.11281923404E+02  0.98724959876E+01  0.15371640556E+02  0.00000000000E+00 0.  1.
</event>
<event>
 7    1  0.1872554E-008  0.4614232E+02  0.7816164E-02  0.1320468E+00
        -11   -1    0    0    0    0  0.00000000000E+00  0.00000000000E+00  0.45593999997E+02  0.45594000000E+02  0.51100000000E-03 0. -1.
         11   -1    0    0    0    0 -0.00000000000E+00 -0.00000000000E+00 -0.45593999997E+02  0.45594000000E+02  0.51100000000E-03 0.  1.
    9900012    2    1    2    0    0  0.30860612557E+02 -0.31249079074E+02 -0.10011548981E+02  0.46142318039E+02  0.10000002531E+02 0.  0.
         12    1    1    2    0    0 -0.30860612557E+02  0.31249079074E+02  0.10011548981E+02  0.45045681961E+02  0.00000000000E+00 0. -1.
         11    1    3    3    0    0  0.15431910417E+01 -0.14445955338E+00  0.39324030731E+00  0.15990451383E+01  0.51100000000E-03 0. -1.
        -11    1    3    3    0    0  0.22781754766E+02 -0.19674226555E+02 -0.81458570693E+01  0.31183946645E+02  0.51100000000E-03 0.  1.
        -12    1    3    3    0    0  0.65356667496E+01 -0.11430392966E+02 -0.22589322192E+01  0.13359326255E+02  0.00000000000E+00 0.  1.
</event>
<event>
 7    1  0.1385632E-008  0.4614232E+02  0.7816164E-02  0.1320468E+00
        -11   -1    0    0    0    0  0.00000000000E+00  0.00000000000E+00  0.45593999997E+02  0.45594000000E+02  0.51100000000E-03 0. -1.
         11   -1    0    0    0    0 -0.00000000000E+00 -0.00000000000E+00 -0.45593999997E+02  0.45594000000E+02  0.51100000000E-03 0.  1.
    9900012    2    1    2    0    0 -0.37988202546E+02 -0.62848194364E+01 -0.23377577676E+02  0.46142316234E+02  0.99999860700E+01 0.  0.
         12    1    1    2    0    0  0.37988202546E+02  0.62848194364E+01  0.23377577676E+02  0.45045683766E+02  0.00000000000E+00 0. -1.
         11    1    3    3    0    0 -0.22603936666E+00  0.52472972128E+00 -0.17772860923E+01  0.18668639990E+01  0.51100000000E-03 0. -1.
        -11    1    3    3    0    0 -0.33977711673E+02 -0.46615652657E+01 -0.19288364127E+02  0.39347885232E+02  0.51100000000E-03 0.  1.
         12    1    3    3    0    0 -0.37844515064E+01 -0.21479838920E+01 -0.23119274564E+01  0.49275670029E+01  0.00000000000E+00 0. -1.
</event>
<event>
 7    1  0.1385632E-008  0.4614232E+02  0.7816164E-02  0.1320468E+00
        -11   -1    0    0    0    0  0.00000000000E+00  0.00000000000E+00  0.45593999997E+02  0.45594000000E+02  0.51100000000E-03 0. -1.
         11   -1    0    0    0    0 -0.00000000000E+00 -0.00000000000E+00 -0.45593999997E+02  0.45594000000E+02  0.51100000000E-03 0.  1.
    9900012    2    1    2    0    0  0.41211419604E+02  0.12856159504E+02 -0.12862800390E+02  0.46142316779E+02  0.99999910432E+01 0.  0.
         12    1    1    2    0    0 -0.41211419604E+02 -0.12856159504E+02  0.12862800390E+02  0.45045683221E+02  0.00000000000E+00 0. -1.
         11    1    3    3    0    0  0.14328404727E+02  0.47804250873E+01 -0.88475544742E+01  0.17505281102E+02  0.51100000000E-03 0. -1.
        -11    1    3    3    0    0  0.21595872264E+02  0.54245696001E+01 -0.44478559624E+01  0.22706630686E+02  0.51100000000E-03 0.  1.
        -12    1    3    3    0    0  0.52871426130E+01  0.26511648170E+01  0.43261004691E+00  0.59304049904E+01  0.00000000000E+00 0.  1.
</event>
<event>
 7    1  0.1385632E-008  0.4614232E+02  0.7816164E-02  0.1320468E+00
        -11   -1    0    0    0    0  0.00000000000E+00  0.00000000000E+00  0.45593999997E+02  0.45594000000E+02  0.51100000000E-03 0. -1.
         11   -1    0    0    0    0 -0.00000000000E+00 -0.00000000000E+00 -0.45593999997E+02  0.45594000000E+02  0.51100000000E-03 0.  1.
    9900012    2    1    2    0    0  0.19175486423E+02  0.27181217744E+02 -0.30374260139E+02  0.46142317004E+02  0.99999930922E+01 0.  0.
         12    1    1    2    0    0 -0.19175486423E+02 -0.27181217744E+02  0.30374260139E+02  0.45045682996E+02  0.00000000000E+00 0. -1.
         11    1    3    3    0    0  0.34084363790E+01  0.72804866086E+01 -0.77359713744E+01  0.11156530696E+02  0.51100000000E-03 0. -1.
        -11    1    3    3    0    0  0.64586990564E+01  0.53079381702E+01 -0.31831200611E+01  0.89454600052E+01  0.51100000000E-03 0.  1.
        -12    1    3    3    0    0  0.93083509877E+01  0.14592792965E+02 -0.19455168704E+02  0.26040326302E+02  0.00000000000E+00 0.  1.
</event>
<event>
 7    1  0.1385632E-008  0.4614232E+02  0.7816164E-02  0.1320468E+00
        -11   -1    0    0    0    0  0.00000000000E+00  0.00000000000E+00  0.45593999997E+02  0.45594000000E+02  0.51100000000E-03 0.  1.
         11   -1    0    0    0    0 -0.00000000000E+00 -0.00000000000E+00 -0.45593999997E+02  0.45594000000E+02  0.51100000000E-03 0. -1.
    9900012    2    1    2    0    0  0.29928375236E+02  0.77832229575E+01  0.32754039935E+02  0.46142319453E+02  0.10000015426E+02 0.  0.
         12    1    1    2    0    0 -0.29928375236E+02 -0.77832229575E+01 -0.32754039935E+02  0.45045680547E+02  0.00000000000E+00 0. -1.
         11    1    3    3    0    0  0.38890764091E+00  0.78081125690E+00  0.14585238992E+01  0.16994727411E+01  0.51100000000E-03 0. -1.
        -11    1    3    3    0    0  0.62673258200E+01  0.40349203369E+01  0.11712523433E+02  0.13883197056E+02  0.51100000000E-03 0.  1.
        -12    1    3    3    0    0  0.23272141775E+02  0.29674913637E+01  0.19582992603E+02  0.30559649656E+02  0.00000000000E+00 0.  1.
</event>
<event>
 7    1  0.1385632E-008  0.4614232E+02  0.7816164E-02  0.1320468E+00
        -11   -1    0    0    0    0  0.00000000000E+00  0.00000000000E+00  0.45593999997E+02  0.45594000000E+02  0.51100000000E-03 0.  1.
         11   -1    0    0    0    0 -0.00000000000E+00 -0.00000000000E+00 -0.45593999997E+02  0.45594000000E+02  0.51100000000E-03 0. -1.
    9900012    2    1    2    0    0  0.43407363690E+02  0.36540510062E+01  0.11470053962E+02  0.46142318196E+02  0.10000003963E+02 0.  0.
         12    1    1    2    0    0 -0.43407363690E+02 -0.36540510062E+01 -0.11470053962E+02  0.45045681804E+02  0.00000000000E+00 0. -1.
         11    1    3    3    0    0  0.14521089357E+01 -0.38325394304E+00  0.22881196644E+01  0.27369683604E+01  0.51100000000E-03 0. -1.
        -11    1    3    3    0    0  0.20959256306E+02  0.32637522556E+01  0.25027081326E+01  0.21358980593E+02  0.51100000000E-03 0.  1.
         12    1    3    3    0    0  0.20995998449E+02  0.77355269362E+00  0.66792261654E+01  0.22046369243E+02  0.00000000000E+00 0. -1.
</event>
<event>
 7    1  0.1385632E-008  0.4614232E+02  0.7816164E-02  0.1320468E+00
        -11   -1    0    0    0    0  0.00000000000E+00  0.00000000000E+00  0.45593999997E+02  0.45594000000E+02  0.51100000000E-03 0.  1.
         11   -1    0    0    0    0 -0.00000000000E+00 -0.00000000000E+00 -0.45593999997E+02  0.45594000000E+02  0.51100000000E-03 0. -1.
    9900012    2    1    2    0    0 -0.92269974938E+01 -0.42043186059E+02  0.13279554260E+02  0.46142317209E+02  0.99999949657E+01 0.  0.
         12    1    1    2    0    0  0.92269974938E+01  0.42043186059E+02 -0.13279554260E+02  0.45045682791E+02  0.00000000000E+00 0. -1.
         11    1    3    3    0    0 -0.19551322959E+00 -0.88534319380E+01  0.12537488364E+01  0.89439012131E+01  0.51100000000E-03 0. -1.
        -11    1    3    3    0    0 -0.65986616059E+00 -0.82910997678E+00 -0.87005460519E+00  0.13710732951E+01  0.51100000000E-03 0.  1.
        -12    1    3    3    0    0 -0.83716181037E+01 -0.32360644144E+02  0.12895860029E+02  0.35827342701E+02  0.00000000000E+00 0.  1.
</event>
<event>
 7    1  0.1385632E-008  0.4614232E+02  0.7816164E-02  0.1320468E+00
        -11   -1    0    0    0    0  0.00000000000E+00  0.00000000000E+00  0.45593999997E+02  0.45594000000E+02  0.51100000000E-03 0.  1.
         11   -1    0    0    0    0 -0.00000000000E+00 -0.00000000000E+00 -0.45593999997E+02  0.45594000000E+02  0.51100000000E-03 0. -1.
    9900012    2    1    2    0    0  0.28124605285E+01 -0.31622571078E+02  0.31956479241E+02  0.46142317618E+02  0.99999986907E+01 0.  0.
         12    1    1    2    0    0 -0.28124605285E+01  0.31622571078E+02 -0.31956479241E+02  0.45045682382E+02  0.00000000000E+00 0. -1.
         11    1    3    3    0    0 -0.11871592275E+00 -0.58001146802E+00 -0.64237614675E+00  0.87358694381E+00  0.51100000000E-03 0. -1.
        -11    1    3    3    0    0  0.15565632779E+01 -0.15312597569E+02  0.13370162717E+02  0.20387736140E+02  0.51100000000E-03 0.  1.
        -12    1    3    3    0    0  0.13746131733E+01 -0.15729962041E+02  0.19228692670E+02  0.24880994534E+02  0.00000000000E+00 0.  1.
</event>
<event>
 7    1  0.1385632E-008  0.4614232E+02  0.7816164E-02  0.1320468E+00
        -11   -1    0    0    0    0  0.00000000000E+00  0.00000000000E+00  0.45593999997E+02  0.45594000000E+02  0.51100000000E-03 0.  1.
         11   -1    0    0    0    0 -0.00000000000E+00 -0.00000000000E+00 -0.45593999997E+02  0.45594000000E+02  0.51100000000E-03 0. -1.
    9900012    2    1    2    0    0 -0.12600752468E+01 -0.25377379177E+02  0.37195622139E+02  0.46142317967E+02  0.10000001877E+02 0.  0.
         12    1    1    2    0    0  0.12600752468E+01  0.25377379177E+02 -0.37195622139E+02  0.45045682033E+02  0.00000000000E+00 0. -1.
         11    1    3    3    0    0  0.23462254024E+01 -0.43142612054E+01  0.40673778468E+01  0.63766124390E+01  0.51100000000E-03 0. -1.
        -11    1    3    3    0    0 -0.40230734719E+01 -0.18106255127E+02  0.25170924581E+02  0.31266548249E+02  0.51100000000E-03 0.  1.
        -12    1    3    3    0    0  0.41677282265E+00 -0.29568628443E+01  0.79573197110E+01  0.84991572787E+01  0.00000000000E+00 0.  1.
</event>
<event>
 7    1  0.1385632E-008  0.4614231E+02  0.7816164E-02  0.1320468E+00
        -11   -1    0    0    0    0  0.00000000000E+00  0.00000000000E+00  0.45593999997E+02  0.45594000000E+02  0.51100000000E-03 0.  1.
         11   -1    0    0    0    0 -0.00000000000E+00 -0.00000000000E+00 -0.45593999997E+02  0.45594000000E+02  0.51100000000E-03 0. -1.
    9900012    2    1    2    0    0  0.34965623510E+02  0.14537211530E+02  0.24396486345E+02  0.46142313275E+02  0.99999590964E+01 0.  0.
         12    1    1    2    0    0 -0.34965623510E+02 -0.14537211530E+02 -0.24396486345E+02  0.45045686725E+02  0.00000000000E+00 0. -1.
         11    1    3    3    0    0  0.18985670055E+02  0.46630619665E+01  0.14626266565E+02  0.24415722153E+02  0.51100000000E-03 0. -1.
        -11    1    3    3    0    0  0.11638034050E+02  0.60882759890E+01  0.89829447204E+01  0.15912392566E+02  0.51100000000E-03 0.  1.
         12    1    3    3    0    0  0.43419194046E+01  0.37858735741E+01  0.78727505977E+00  0.58141985566E+01  0.00000000000E+00 0. -1.
</event>
<event>
 7    1  0.1385632E-008  0.4614232E+02  0.7816164E-02  0.1320468E+00
        -11   -1    0    0    0    0  0.00000000000E+00  0.00000000000E+00  0.45593999997E+02  0.45594000000E+02  0.51100000000E-03 0. -1.
         11   -1    0    0    0    0 -0.00000000000E+00 -0.00000000000E+00 -0.45593999997E+02  0.45594000000E+02  0.51100000000E-03 0.  1.
    9900012    2    1    2    0    0  0.19475892272E+02 -0.40581090278E+02 -0.17257386534E+01  0.46142318277E+02  0.10000004707E+02 0.  0.
         12    1    1    2    0    0 -0.19475892272E+02  0.40581090278E+02  0.17257386534E+01  0.45045681723E+02  0.00000000000E+00 0. -1.
         11    1    3    3    0    0  0.13161177366E+02 -0.24594642711E+02 -0.11046025632E+01  0.27916539664E+02  0.51100000000E-03 0.  1.
        -11    1    3    3    0    0  0.21114316864E+01 -0.87114730822E+01 -0.30689543370E+01  0.94745125474E+01  0.51100000000E-03 0. -1.
         12    1    3    3    0    0  0.42032832197E+01 -0.72749744848E+01  0.24478182468E+01  0.87512660655E+01  0.00000000000E+00 0. -1.
</event>
<event>
 7    1  0.1385632E-008  0.4614232E+02  0.7816164E-02  0.1320468E+00
        -11   -1    0    0    0    0  0.00000000000E+00  0.00000000000E+00  0.45593999997E+02  0.45594000000E+02  0.51100000000E-03 0. -1.
         11   -1    0    0    0    0 -0.00000000000E+00 -0.00000000000E+00 -0.45593999997E+02  0.45594000000E+02  0.51100000000E-03 0.  1.
    9900012    2    1    2    0    0  0.32970984522E+02 -0.44748194516E+01 -0.30364512369E+02  0.46142318288E+02  0.10000004805E+02 0.  0.
         12    1    1    2    0    0 -0.32970984522E+02  0.44748194516E+01  0.30364512369E+02  0.45045681712E+02  0.00000000000E+00 0. -1.
         11    1    3    3    0    0  0.21141381781E+02 -0.52412974141E+01 -0.17567104890E+02  0.27982716034E+02  0.51100000000E-03 0. -1.
        -11    1    3    3    0    0  0.11090020918E+02 -0.27515484187E-01 -0.12965623865E+02  0.17061556891E+02  0.51100000000E-03 0.  1.
         12    1    3    3    0    0  0.73958182321E+00  0.79399344668E+00  0.16821638584E+00  0.10980453629E+01  0.00000000000E+00 0. -1.
</event>
<event>
 7    1  0.1385632E-008  0.4614232E+02  0.7816164E-02  0.1320468E+00
        -11   -1    0    0    0    0  0.00000000000E+00  0.00000000000E+00  0.45593999997E+02  0.45594000000E+02  0.51100000000E-03 0.  1.
         11   -1    0    0    0    0 -0.00000000000E+00 -0.00000000000E+00 -0.45593999997E+02  0.45594000000E+02  0.51100000000E-03 0. -1.
    9900012    2    1    2    0    0 -0.28800664673E+02  0.34175824164E+02 -0.56256873617E+01  0.46142316509E+02  0.99999885789E+01 0.  0.
         12    1    1    2    0    0  0.28800664673E+02 -0.34175824164E+02  0.56256873617E+01  0.45045683491E+02  0.00000000000E+00 0. -1.
         11    1    3    3    0    0 -0.18384396164E+02  0.15523158177E+02 -0.18545650431E+01  0.24132838081E+02  0.51100000000E-03 0. -1.
        -11    1    3    3    0    0 -0.15870434942E+01  0.62758907680E+01 -0.13875238363E+01  0.66204784300E+01  0.51100000000E-03 0.  1.
         12    1    3    3    0    0 -0.88292250148E+01  0.12376775220E+02 -0.23835984823E+01  0.15388999998E+02  0.00000000000E+00 0. -1.
</event>
<event>
 7    1  0.1385632E-008  0.4614232E+02  0.7816164E-02  0.1320468E+00
        -11   -1    0    0    0    0  0.00000000000E+00  0.00000000000E+00  0.45593999997E+02  0.45594000000E+02  0.51100000000E-03 0.  1.
         11   -1    0    0    0    0 -0.00000000000E+00 -0.00000000000E+00 -0.45593999997E+02  0.45594000000E+02  0.51100000000E-03 0. -1.
    9900012    2    1    2    0    0  0.64488864798E+01 -0.18821233515E+02  0.40413939673E+02  0.46142317768E+02  0.10000000061E+02 0.  0.
         12    1    1    2    0    0 -0.64488864798E+01  0.18821233515E+02 -0.40413939673E+02  0.45045682232E+02  0.00000000000E+00 0. -1.
         11    1    3    3    0    0  0.56499815902E+01 -0.10283204327E+02  0.23498615198E+02  0.26265024266E+02  0.51100000000E-03 0. -1.
        -11    1    3    3    0    0  0.27659727681E+01 -0.54882454810E+01  0.69810440670E+01  0.93008827721E+01  0.51100000000E-03 0.  1.
         12    1    3    3    0    0 -0.19670678785E+01 -0.30497837067E+01  0.99342804086E+01  0.10576410730E+02  0.00000000000E+00 0. -1.
</event>
<event>
 7    1  0.1385632E-008  0.4614231E+02  0.7816164E-02  0.1320468E+00
        -11   -1    0    0    0    0  0.00000000000E+00  0.00000000000E+00  0.45593999997E+02  0.45594000000E+02  0.51100000000E-03 0.  1.
         11   -1    0    0    0    0 -0.00000000000E+00 -0.00000000000E+00 -0.45593999997E+02  0.45594000000E+02  0.51100000000E-03 0. -1.
    9900012    2    1    2    0    0  0.29501280487E+02  0.30482422407E+02  0.15152891378E+02  0.46142314931E+02  0.99999741965E+01 0.  0.
         12    1    1    2    0    0 -0.29501280487E+02 -0.30482422407E+02 -0.15152891378E+02  0.45045685069E+02  0.00000000000E+00 0. -1.
         11    1    3    3    0    0  0.44615925083E+01  0.18060275812E+01  0.18095843606E+01  0.51421920573E+01  0.51100000000E-03 0. -1.
        -11    1    3    3    0    0  0.27815482658E+01  0.27204415839E+01  0.39417403573E+01  0.55385133810E+01  0.51100000000E-03 0.  1.
         12    1    3    3    0    0  0.22258139713E+02  0.25955953241E+02  0.94015666606E+01  0.35461609493E+02  0.00000000000E+00 0. -1.
</event>
<event>
 7    1  0.1385632E-008  0.4614232E+02  0.7816164E-02  0.1320468E+00
        -11   -1    0    0    0    0  0.00000000000E+00  0.00000000000E+00  0.45593999997E+02  0.45594000000E+02  0.51100000000E-03 0.  1.
         11   -1    0    0    0    0 -0.00000000000E+00 -0.00000000000E+00 -0.45593999997E+02  0.45594000000E+02  0.51100000000E-03 0. -1.
    9900012    2    1    2    0    0  0.25614444185E+02  0.43799966311E+00  0.37051611816E+02  0.46142317268E+02  0.99999955052E+01 0.  0.
         12    1    1    2    0    0 -0.25614444185E+02 -0.43799966311E+00 -0.37051611816E+02  0.45045682732E+02  0.00000000000E+00 0. -1.
         11    1    3    3    0    0 -0.64655703661E+00 -0.71722717329E+00  0.16072691555E+01  0.18750373914E+01  0.51100000000E-03 0. -1.
        -11    1    3    3    0    0  0.24866425885E+02  0.13027376013E+01  0.31987766260E+02  0.40537062697E+02  0.51100000000E-03 0.  1.
         12    1    3    3    0    0  0.13945753369E+01 -0.14751076485E+00  0.34565764004E+01  0.37302171797E+01  0.00000000000E+00 0. -1.
</event>
<event>
 7    1  0.1385632E-008  0.4614231E+02  0.7816164E-02  0.1320468E+00
        -11   -1    0    0    0    0  0.00000000000E+00  0.00000000000E+00  0.45593999997E+02  0.45594000000E+02  0.51100000000E-03 0. -1.
         11   -1    0    0    0    0 -0.00000000000E+00 -0.00000000000E+00 -0.45593999997E+02  0.45594000000E+02  0.51100000000E-03 0.  1.
    9900012    2    1    2    0    0  0.25575552451E+02  0.12593434240E+02 -0.34877082224E+02  0.46142308379E+02  0.99999144476E+01 0.  0.
         12    1    1    2    0    0 -0.25575552451E+02 -0.12593434240E+02  0.34877082224E+02  0.45045691621E+02  0.00000000000E+00 0. -1.
         11    1    3    3    0    0  0.56478109801E+01  0.52569568603E+01 -0.15124901356E+02  0.16979281657E+02  0.51100000000E-03 0. -1.
        -11    1    3    3    0    0  0.11626187530E+02  0.33439203683E+01 -0.12878795667E+02  0.17669561907E+02  0.51100000000E-03 0.  1.
         12    1    3    3    0    0  0.83015539410E+01  0.39925570115E+01 -0.68733852014E+01  0.11493464815E+02  0.00000000000E+00 0. -1.
</event>
<event>
 7    1  0.1385632E-008  0.4614231E+02  0.7816164E-02  0.1320468E+00
        -11   -1    0    0    0    0  0.00000000000E+00  0.00000000000E+00  0.45593999997E+02  0.45594000000E+02  0.51100000000E-03 0.  1.
         11   -1    0    0    0    0 -0.00000000000E+00 -0.00000000000E+00 -0.45593999997E+02  0.45594000000E+02  0.51100000000E-03 0. -1.
    9900012    2    1    2    0    0  0.41784442479E+02 -0.15759810798E+02  0.58994197984E+01  0.46142307380E+02  0.99999053371E+01 0.  0.
         12    1    1    2    0    0 -0.41784442479E+02  0.15759810798E+02 -0.58994197984E+01  0.45045692620E+02  0.00000000000E+00 0. -1.
         11    1    3    3    0    0  0.79161148361E+01 -0.69560047388E+01  0.21782131081E+01  0.10760831224E+02  0.51100000000E-03 0. -1.
        -11    1    3    3    0    0  0.82182762027E+01 -0.22225810438E+01  0.24976690368E+01  0.88723323382E+01  0.51100000000E-03 0.  1.
         12    1    3    3    0    0  0.25650051440E+02 -0.65812250156E+01  0.12235376535E+01  0.26509143818E+02  0.00000000000E+00 0. -1.
</event>
<event>
 7    1  0.1385632E-008  0.4614232E+02  0.7816164E-02  0.1320468E+00
        -11   -1    0    0    0    0  0.00000000000E+00  0.00000000000E+00  0.45593999997E+02  0.45594000000E+02  0.51100000000E-03 0.  1.
         11   -1    0    0    0    0 -0.00000000000E+00 -0.00000000000E+00 -0.45593999997E+02  0.45594000000E+02  0.51100000000E-03 0. -1.
    9900012    2    1    2    0    0 -0.13846352768E+02  0.24236890504E+02  0.35354846731E+02  0.46142317258E+02  0.99999954163E+01 0.  0.
         12    1    1    2    0    0  0.13846352768E+02 -0.24236890504E+02 -0.35354846731E+02  0.45045682742E+02  0.00000000000E+00 0. -1.
         11    1    3    3    0    0 -0.74077137011E+01  0.13594059517E+02  0.22297898166E+02  0.27145329972E+02  0.51100000000E-03 0. -1.
        -11    1    3    3    0    0 -0.35798730260E+01  0.10272696173E+02  0.97318353675E+01  0.14596314515E+02  0.51100000000E-03 0.  1.
        -12    1    3    3    0    0 -0.28587660414E+01  0.37013481382E+00  0.33251131978E+01  0.44006727710E+01  0.00000000000E+00 0.  1.
</event>
<event>
 7    1  0.1385632E-008  0.4614232E+02  0.7816164E-02  0.1320468E+00
        -11   -1    0    0    0    0  0.00000000000E+00  0.00000000000E+00  0.45593999997E+02  0.45594000000E+02  0.51100000000E-03 0.  1.
         11   -1    0    0    0    0 -0.00000000000E+00 -0.00000000000E+00 -0.45593999997E+02  0.45594000000E+02  0.51100000000E-03 0. -1.
    9900012    2    1    2    0    0 -0.17337520471E+02  0.28447880027E+02  0.30319004273E+02  0.46142317474E+02  0.99999973852E+01 0.  0.
         12    1    1    2    0    0  0.17337520471E+02 -0.28447880027E+02 -0.30319004273E+02  0.45045682526E+02  0.00000000000E+00 0. -1.
         11    1    3    3    0    0 -0.18784684929E+01  0.39519991979E+01  0.75421920529E+01  0.87196102415E+01  0.51100000000E-03 0. -1.
        -11    1    3    3    0    0 -0.80224819702E+01  0.11315223806E+02  0.14917781377E+02  0.20369946201E+02  0.51100000000E-03 0.  1.
        -12    1    3    3    0    0 -0.74365700077E+01  0.13180657023E+02  0.78590308433E+01  0.17052761032E+02  0.00000000000E+00 0.  1.
</event>
<event>
 7    1  0.1385632E-008  0.4614232E+02  0.7816164E-02  0.1320468E+00
        -11   -1    0    0    0    0  0.00000000000E+00  0.00000000000E+00  0.45593999997E+02  0.45594000000E+02  0.51100000000E-03 0.  1.
         11   -1    0    0    0    0 -0.00000000000E+00 -0.00000000000E+00 -0.45593999997E+02  0.45594000000E+02  0.51100000000E-03 0. -1.
    9900012    2    1    2    0    0  0.21746141783E+02 -0.27056689126E+02  0.28708087282E+02  0.46142318917E+02  0.10000010536E+02 0.  0.
         12    1    1    2    0    0 -0.21746141783E+02  0.27056689126E+02 -0.28708087282E+02  0.45045681083E+02  0.00000000000E+00 0. -1.
         11    1    3    3    0    0  0.17583711107E+01 -0.87946412417E+00  0.87488398803E-01  0.19679889709E+01  0.51100000000E-03 0. -1.
        -11    1    3    3    0    0  0.19240575678E+02 -0.23867642386E+02  0.28306312376E+02  0.41726627303E+02  0.51100000000E-03 0.  1.
        -12    1    3    3    0    0  0.74719499442E+00 -0.23095826155E+01  0.31428650654E+00  0.24477026424E+01  0.00000000000E+00 0.  1.
</event>
<event>
 7    1  0.1385632E-008  0.4614233E+02  0.7816164E-02  0.1320468E+00
        -11   -1    0    0    0    0  0.00000000000E+00  0.00000000000E+00  0.45593999997E+02  0.45594000000E+02  0.51100000000E-03 0. -1.
         11   -1    0    0    0    0 -0.00000000000E+00 -0.00000000000E+00 -0.45593999997E+02  0.45594000000E+02  0.51100000000E-03 0.  1.
    9900012    2    1    2    0    0 -0.27742608861E+02 -0.35398429699E+02  0.25319868696E+01  0.46142332849E+02  0.10000137582E+02 0.  0.
         12    1    1    2    0    0  0.27742608861E+02  0.35398429699E+02 -0.25319868696E+01  0.45045667151E+02  0.00000000000E+00 0. -1.
         11    1    3    3    0    0  0.58908853052E+00 -0.67524600716E+00  0.82979309647E+00  0.12212859252E+01  0.51100000000E-03 0. -1.
        -11    1    3    3    0    0 -0.18080289130E+02 -0.20243745154E+02  0.68910595742E+00  0.27151076225E+02  0.51100000000E-03 0.  1.
         12    1    3    3    0    0 -0.10251408261E+02 -0.14479438538E+02  0.10130878157E+01  0.17769970698E+02  0.00000000000E+00 0. -1.
</event>
<event>
 7    1  0.1385632E-008  0.4614232E+02  0.7816164E-02  0.1320468E+00
        -11   -1    0    0    0    0  0.00000000000E+00  0.00000000000E+00  0.45593999997E+02  0.45594000000E+02  0.51100000000E-03 0.  1.
         11   -1    0    0    0    0 -0.00000000000E+00 -0.00000000000E+00 -0.45593999997E+02  0.45594000000E+02  0.51100000000E-03 0. -1.
    9900012    2    1    2    0    0 -0.13923071195E+02 -0.32111652324E+02  0.28356715797E+02  0.46142318106E+02  0.10000003148E+02 0.  0.
         12    1    1    2    0    0  0.13923071195E+02  0.32111652324E+02 -0.28356715797E+02  0.45045681894E+02  0.00000000000E+00 0. -1.
         11    1    3    3    0    0 -0.21017508549E+01 -0.17832918537E+01 -0.27968216464E-01  0.27564957779E+01  0.51100000000E-03 0. -1.
        -11    1    3    3    0    0 -0.37466097361E+01 -0.13994065301E+02  0.14297799612E+02  0.20354312127E+02  0.51100000000E-03 0.  1.
        -12    1    3    3    0    0 -0.80747106043E+01 -0.16334295169E+02  0.14086884401E+02  0.23031510201E+02  0.00000000000E+00 0.  1.
</event>
<event>
 7    1  0.1385632E-008  0.4614232E+02  0.7816164E-02  0.1320468E+00
        -11   -1    0    0    0    0  0.00000000000E+00  0.00000000000E+00  0.45593999997E+02  0.45594000000E+02  0.51100000000E-03 0.  1.
         11   -1    0    0    0    0 -0.00000000000E+00 -0.00000000000E+00 -0.45593999997E+02  0.45594000000E+02  0.51100000000E-03 0. -1.
    9900012    2    1    2    0    0 -0.53550169412E+01  0.49112003697E+00  0.44723551804E+02  0.46142317728E+02  0.99999997020E+01 0.  0.
         12    1    1    2    0    0  0.53550169412E+01 -0.49112003697E+00 -0.44723551804E+02  0.45045682272E+02  0.00000000000E+00 0. -1.
         11    1    3    3    0    0 -0.14955130601E+00  0.26765478614E+01  0.79419262985E+01  0.83821517309E+01  0.51100000000E-03 0. -1.
        -11    1    3    3    0    0 -0.62070998358E+01 -0.12588920907E+00  0.25123729136E+02  0.25879445559E+02  0.51100000000E-03 0.  1.
        -12    1    3    3    0    0  0.10016342007E+01 -0.20595386154E+01  0.11657896370E+02  0.11880720439E+02  0.00000000000E+00 0.  1.
</event>
<event>
 7    1  0.1385632E-008  0.4614232E+02  0.7816164E-02  0.1320468E+00
        -11   -1    0    0    0    0  0.00000000000E+00  0.00000000000E+00  0.45593999997E+02  0.45594000000E+02  0.51100000000E-03 0. -1.
         11   -1    0    0    0    0 -0.00000000000E+00 -0.00000000000E+00 -0.45593999997E+02  0.45594000000E+02  0.51100000000E-03 0.  1.
    9900012    2    1    2    0    0 -0.38616716035E+02 -0.23037606461E+02 -0.26704451363E+01  0.46142319341E+02  0.10000014406E+02 0.  0.
         12    1    1    2    0    0  0.38616716035E+02  0.23037606461E+02  0.26704451363E+01  0.45045680659E+02  0.00000000000E+00 0. -1.
         11    1    3    3    0    0 -0.17498897083E+01 -0.35735218609E+01  0.11360560324E+01  0.41379700400E+01  0.51100000000E-03 0. -1.
        -11    1    3    3    0    0 -0.34799795298E+02 -0.18900626059E+02 -0.29985571683E+01  0.39714616498E+02  0.51100000000E-03 0.  1.
         12    1    3    3    0    0 -0.20670310291E+01 -0.56345854089E+00 -0.80794400042E+00  0.22897328033E+01  0.00000000000E+00 0. -1.
</event>
<event>
 7    1  0.1385632E-008  0.4614232E+02  0.7816164E-02  0.1320468E+00
        -11   -1    0    0    0    0  0.00000000000E+00  0.00000000000E+00  0.45593999997E+02  0.45594000000E+02  0.51100000000E-03 0.  1.
         11   -1    0    0    0    0 -0.00000000000E+00 -0.00000000000E+00 -0.45593999997E+02  0.45594000000E+02  0.51100000000E-03 0. -1.
    9900012    2    1    2    0    0  0.21489702616E+02 -0.37116190360E+02 -0.13772972632E+02  0.46142315629E+02  0.99999805551E+01 0.  0.
         12    1    1    2    0    0 -0.21489702616E+02  0.37116190360E+02  0.13772972632E+02  0.45045684371E+02  0.00000000000E+00 0. -1.
         11    1    3    3    0    0  0.20582746989E+01 -0.31207184396E+01  0.99666806698E-01  0.37396941117E+01  0.51100000000E-03 0. -1.
        -11    1    3    3    0    0  0.95425495036E+01 -0.88049383768E+01 -0.51725802232E+01  0.13976508050E+02  0.51100000000E-03 0.  1.
        -12    1    3    3    0    0  0.98888784136E+01 -0.25190533543E+02 -0.87000592153E+01  0.28426113467E+02  0.00000000000E+00 0.  1.
</event>
<event>
 7    1  0.1385632E-008  0.4614232E+02  0.7816164E-02  0.1320468E+00
        -11   -1    0    0    0    0  0.00000000000E+00  0.00000000000E+00  0.45593999997E+02  0.45594000000E+02  0.51100000000E-03 0. -1.
         11   -1    0    0    0    0 -0.00000000000E+00 -0.00000000000E+00 -0.45593999997E+02  0.45594000000E+02  0.51100000000E-03 0.  1.
    9900012    2    1    2    0    0 -0.10925521196E+02  0.32707190180E+02 -0.28982514130E+02  0.46142318430E+02  0.10000006096E+02 0.  0.
         12    1    1    2    0    0  0.10925521196E+02 -0.32707190180E+02  0.28982514130E+02  0.45045681570E+02  0.00000000000E+00 0. -1.
         11    1    3    3    0    0 -0.30500433408E+01  0.38804640014E+01 -0.61633405809E+01  0.78960453788E+01  0.51100000000E-03 0. -1.
        -11    1    3    3    0    0 -0.30646970948E+01  0.20070223747E+02 -0.12297531810E+02  0.23736797139E+02  0.51100000000E-03 0.  1.
        -12    1    3    3    0    0 -0.48107807608E+01  0.87565024310E+01 -0.10521641738E+02  0.14509475911E+02  0.00000000000E+00 0.  1.
</event>
<event>
 7    1  0.1385632E-008  0.4614232E+02  0.7816164E-02  0.1320468E+00
        -11   -1    0    0    0    0  0.00000000000E+00  0.00000000000E+00  0.45593999997E+02  0.45594000000E+02  0.51100000000E-03 0. -1.
         11   -1    0    0    0    0 -0.00000000000E+00 -0.00000000000E+00 -0.45593999997E+02  0.45594000000E+02  0.51100000000E-03 0.  1.
    9900012    2    1    2    0    0 -0.17547896458E+02 -0.27659900420E+02 -0.30921104203E+02  0.46142318226E+02  0.10000004238E+02 0.  0.
         12    1    1    2    0    0  0.17547896458E+02  0.27659900420E+02  0.30921104203E+02  0.45045681774E+02  0.00000000000E+00 0. -1.
         11    1    3    3    0    0  0.61496199148E+00 -0.26738029260E+01 -0.37796966526E+01  0.46704932700E+01  0.51100000000E-03 0. -1.
        -11    1    3    3    0    0 -0.88815630958E-01  0.14065385473E+00 -0.83376095340E+00  0.85019369069E+00  0.51100000000E-03 0.  1.
         12    1    3    3    0    0 -0.18074042819E+02 -0.25126751349E+02 -0.26307646597E+02  0.40621631265E+02  0.00000000000E+00 0. -1.
</event>
<event>
 7    1  0.1385632E-008  0.4614232E+02  0.7816164E-02  0.1320468E+00
        -11   -1    0    0    0    0  0.00000000000E+00  0.00000000000E+00  0.45593999997E+02  0.45594000000E+02  0.51100000000E-03 0. -1.
         11   -1    0    0    0    0 -0.00000000000E+00 -0.00000000000E+00 -0.45593999997E+02  0.45594000000E+02  0.51100000000E-03 0.  1.
    9900012    2    1    2    0    0  0.25296322065E+01 -0.13116504782E+02 -0.43019433893E+02  0.46142318417E+02  0.10000005985E+02 0.  0.
         12    1    1    2    0    0 -0.25296322065E+01  0.13116504782E+02  0.43019433893E+02  0.45045681583E+02  0.00000000000E+00 0. -1.
         11    1    3    3    0    0 -0.72581507762E+00  0.12620973298E+01 -0.19443958255E+01  0.24290682544E+01  0.51100000000E-03 0. -1.
        -11    1    3    3    0    0  0.83807977597E+00 -0.59994469671E+01 -0.20229115297E+02  0.21116648588E+02  0.51100000000E-03 0.  1.
         12    1    3    3    0    0  0.24173675081E+01 -0.83791551450E+01 -0.20845922770E+02  0.22596601575E+02  0.00000000000E+00 0. -1.
</event>
<event>
 7    1  0.1385632E-008  0.4614232E+02  0.7816164E-02  0.1320468E+00
        -11   -1    0    0    0    0  0.00000000000E+00  0.00000000000E+00  0.45593999997E+02  0.45594000000E+02  0.51100000000E-03 0.  1.
         11   -1    0    0    0    0 -0.00000000000E+00 -0.00000000000E+00 -0.45593999997E+02  0.45594000000E+02  0.51100000000E-03 0. -1.
    9900012    2    1    2    0    0  0.31147040960E+02  0.28299409192E+02  0.16066073731E+02  0.46142318228E+02  0.10000004254E+02 0.  0.
         12    1    1    2    0    0 -0.31147040960E+02 -0.28299409192E+02 -0.16066073731E+02  0.45045681772E+02  0.00000000000E+00 0. -1.
         11    1    3    3    0    0  0.54568117423E+01  0.90071945814E+01  0.40647856192E+01  0.11288437935E+02  0.51100000000E-03 0. -1.
        -11    1    3    3    0    0  0.53825263154E+01  0.72935707776E+01  0.43666807723E+01  0.10061593584E+02  0.51100000000E-03 0.  1.
        -12    1    3    3    0    0  0.20307702903E+02  0.11998643833E+02  0.76346073396E+01  0.24792286709E+02  0.00000000000E+00 0.  1.
</event>
<event>
 7    1  0.1385632E-008  0.4614232E+02  0.7816164E-02  0.1320468E+00
        -11   -1    0    0    0    0  0.00000000000E+00  0.00000000000E+00  0.45593999997E+02  0.45594000000E+02  0.51100000000E-03 0.  1.
         11   -1    0    0    0    0 -0.00000000000E+00 -0.00000000000E+00 -0.45593999997E+02  0.45594000000E+02  0.51100000000E-03 0. -1.
    9900012    2    1    2    0    0 -0.14701725344E+02 -0.40531976594E+02  0.13043459093E+02  0.46142315636E+02  0.99999806217E+01 0.  0.
         12    1    1    2    0    0  0.14701725344E+02  0.40531976594E+02 -0.13043459093E+02  0.45045684364E+02  0.00000000000E+00 0. -1.
         11    1    3    3    0    0 -0.17605246377E+01 -0.15293770718E+01  0.33133761721E+00  0.23554672796E+01  0.51100000000E-03 0. -1.
        -11    1    3    3    0    0 -0.46024385974E+01 -0.14119067754E+02  0.87763870450E+01  0.17249796669E+02  0.51100000000E-03 0.  1.
        -12    1    3    3    0    0 -0.83387621086E+01 -0.24883531768E+02  0.39357344306E+01  0.26537051687E+02  0.00000000000E+00 0.  1.
</event>
<event>
 7    1  0.1385632E-008  0.4614232E+02  0.7816164E-02  0.1320468E+00
        -11   -1    0    0    0    0  0.00000000000E+00  0.00000000000E+00  0.45593999997E+02  0.45594000000E+02  0.51100000000E-03 0.  1.
         11   -1    0    0    0    0 -0.00000000000E+00 -0.00000000000E+00 -0.45593999997E+02  0.45594000000E+02  0.51100000000E-03 0. -1.
    9900012    2    1    2    0    0  0.20515143575E+02  0.38017465349E+02  0.12763802396E+02  0.46142318308E+02  0.10000004991E+02 0.  0.
         12    1    1    2    0    0 -0.20515143575E+02 -0.38017465349E+02 -0.12763802396E+02  0.45045681692E+02  0.00000000000E+00 0. -1.
         11    1    3    3    0    0 -0.14593127170E+00  0.75716580390E+00  0.63480863686E+00  0.99878839461E+00  0.51100000000E-03 0. -1.
        -11    1    3    3    0    0  0.68719748758E+01  0.73571284027E+01  0.57772134390E+01  0.11607220701E+02  0.51100000000E-03 0.  1.
        -12    1    3    3    0    0  0.13789099970E+02  0.29903171142E+02  0.63517803206E+01  0.33536309213E+02  0.00000000000E+00 0.  1.
</event>
<event>
 7    1  0.1385632E-008  0.4614232E+02  0.7816164E-02  0.1320468E+00
        -11   -1    0    0    0    0  0.00000000000E+00  0.00000000000E+00  0.45593999997E+02  0.45594000000E+02  0.51100000000E-03 0.  1.
         11   -1    0    0    0    0 -0.00000000000E+00 -0.00000000000E+00 -0.45593999997E+02  0.45594000000E+02  0.51100000000E-03 0. -1.
    9900012    2    1    2    0    0  0.39709970062E+02 -0.10884594605E+02  0.18269025229E+02  0.46142318688E+02  0.10000008448E+02 0.  0.
         12    1    1    2    0    0 -0.39709970062E+02  0.10884594605E+02 -0.18269025229E+02  0.45045681312E+02  0.00000000000E+00 0. -1.
         11    1    3    3    0    0  0.89398549401E+01 -0.11726129097E+01  0.13069515715E+01  0.91106613403E+01  0.51100000000E-03 0. -1.
        -11    1    3    3    0    0  0.29225810640E+02 -0.82609357553E+01  0.17193557095E+02  0.34899992450E+02  0.51100000000E-03 0.  1.
         12    1    3    3    0    0  0.15443044822E+01 -0.14510459403E+01 -0.23148343782E+00  0.21316648978E+01  0.00000000000E+00 0. -1.
</event>
<event>
 7    1  0.1385632E-008  0.4614232E+02  0.7816164E-02  0.1320468E+00
        -11   -1    0    0    0    0  0.00000000000E+00  0.00000000000E+00  0.45593999997E+02  0.45594000000E+02  0.51100000000E-03 0.  1.
         11   -1    0    0    0    0 -0.00000000000E+00 -0.00000000000E+00 -0.45593999997E+02  0.45594000000E+02  0.51100000000E-03 0. -1.
    9900012    2    1    2    0    0 -0.10259730668E+02 -0.64836013676E+01  0.43379883240E+02  0.46142318409E+02  0.10000005908E+02 0.  0.
         12    1    1    2    0    0  0.10259730668E+02  0.64836013676E+01 -0.43379883240E+02  0.45045681591E+02  0.00000000000E+00 0. -1.
         11    1    3    3    0    0 -0.89586844402E+00 -0.29725173847E+00  0.63931586373E+00  0.11400280259E+01  0.51100000000E-03 0. -1.
        -11    1    3    3    0    0 -0.54652175594E+01 -0.80600833944E+01  0.30765493470E+02  0.32269941680E+02  0.51100000000E-03 0.  1.
        -12    1    3    3    0    0 -0.38986446647E+01  0.18737337653E+01  0.11975073906E+02  0.12732348703E+02  0.00000000000E+00 0.  1.
</event>
<event>
 7    1  0.1385632E-008  0.4614232E+02  0.7816164E-02  0.1320468E+00
        -11   -1    0    0    0    0  0.00000000000E+00  0.00000000000E+00  0.45593999997E+02  0.45594000000E+02  0.51100000000E-03 0.  1.
         11   -1    0    0    0    0 -0.00000000000E+00 -0.00000000000E+00 -0.45593999997E+02  0.45594000000E+02  0.51100000000E-03 0. -1.
    9900012    2    1    2    0    0 -0.42142760126E+02 -0.12241123516E+02 -0.10161501287E+02  0.46142318249E+02  0.10000004452E+02 0.  0.
         12    1    1    2    0    0  0.42142760126E+02  0.12241123516E+02  0.10161501287E+02  0.45045681751E+02  0.00000000000E+00 0. -1.
         11    1    3    3    0    0 -0.96666254830E+01 -0.33186431285E+01 -0.47535142533E+01  0.11271776189E+02  0.51100000000E-03 0. -1.
        -11    1    3    3    0    0 -0.13098944954E+02 -0.72751976664E+01 -0.29105328014E+01  0.15263749914E+02  0.51100000000E-03 0.  1.
         12    1    3    3    0    0 -0.19377189689E+02 -0.16472827208E+01 -0.24974542319E+01  0.19606792146E+02  0.00000000000E+00 0. -1.
</event>
<event>
 7    1  0.1385632E-008  0.4614232E+02  0.7816164E-02  0.1320468E+00
        -11   -1    0    0    0    0  0.00000000000E+00  0.00000000000E+00  0.45593999997E+02  0.45594000000E+02  0.51100000000E-03 0. -1.
         11   -1    0    0    0    0 -0.00000000000E+00 -0.00000000000E+00 -0.45593999997E+02  0.45594000000E+02  0.51100000000E-03 0.  1.
    9900012    2    1    2    0    0  0.41118380489E+02  0.16753403964E+02 -0.75970882527E+01  0.46142317539E+02  0.99999979791E+01 0.  0.
         12    1    1    2    0    0 -0.41118380489E+02 -0.16753403964E+02  0.75970882527E+01  0.45045682461E+02  0.00000000000E+00 0. -1.
         11    1    3    3    0    0  0.18411455903E+02  0.10023370564E+02 -0.21170204873E+01  0.21069680632E+02  0.51100000000E-03 0. -1.
        -11    1    3    3    0    0  0.22275323238E+02  0.75648856566E+01 -0.53273278108E+01  0.24120488017E+02  0.51100000000E-03 0.  1.
         12    1    3    3    0    0  0.43160134800E+00 -0.83485225679E+00 -0.15273995459E+00  0.95214888961E+00  0.00000000000E+00 0. -1.
</event>
<event>
 7    1  0.1385632E-008  0.4614232E+02  0.7816164E-02  0.1320468E+00
        -11   -1    0    0    0    0  0.00000000000E+00  0.00000000000E+00  0.45593999997E+02  0.45594000000E+02  0.51100000000E-03 0.  1.
         11   -1    0    0    0    0 -0.00000000000E+00 -0.00000000000E+00 -0.45593999997E+02  0.45594000000E+02  0.51100000000E-03 0. -1.
    9900012    2    1    2    0    0 -0.35178690467E+01 -0.15227918731E+02  0.42247468143E+02  0.46142317899E+02  0.10000001256E+02 0.  0.
         12    1    1    2    0    0  0.35178690467E+01  0.15227918731E+02 -0.42247468143E+02  0.45045682101E+02  0.00000000000E+00 0. -1.
         11    1    3    3    0    0 -0.31159428749E+01 -0.59629610573E+01  0.10448184676E+02  0.12427009610E+02  0.51100000000E-03 0. -1.
        -11    1    3    3    0    0  0.21737331563E+01 -0.12372621899E+01  0.10821385676E+02  0.11106679152E+02  0.51100000000E-03 0.  1.
        -12    1    3    3    0    0 -0.25756593281E+01 -0.80276954834E+01  0.20977897790E+02  0.22608629137E+02  0.00000000000E+00 0.  1.
</event>
<event>
 7    1  0.1385632E-008  0.4614232E+02  0.7816164E-02  0.1320468E+00
        -11   -1    0    0    0    0  0.00000000000E+00  0.00000000000E+00  0.45593999997E+02  0.45594000000E+02  0.51100000000E-03 0. -1.
         11   -1    0    0    0    0 -0.00000000000E+00 -0.00000000000E+00 -0.45593999997E+02  0.45594000000E+02  0.51100000000E-03 0.  1.
    9900012    2    1    2    0    0  0.29055334475E+01 -0.34975521731E+02 -0.28237991196E+02  0.46142318834E+02  0.10000009783E+02 0.  0.
         12    1    1    2    0    0 -0.29055334475E+01  0.34975521731E+02  0.28237991196E+02  0.45045681166E+02  0.00000000000E+00 0. -1.
         11    1    3    3    0    0 -0.14808212905E+01 -0.38502580451E+01 -0.27967750420E+01  0.49839010428E+01  0.51100000000E-03 0. -1.
        -11    1    3    3    0    0  0.32426859711E+01 -0.29848746410E+02 -0.21706114402E+02  0.37048860675E+02  0.51100000000E-03 0.  1.
        -12    1    3    3    0    0  0.11436687669E+01 -0.12765172753E+01 -0.37351017512E+01  0.41095571166E+01  0.00000000000E+00 0.  1.
</event>
<event>
 7    1  0.1385632E-008  0.4614232E+02  0.7816164E-02  0.1320468E+00
        -11   -1    0    0    0    0  0.00000000000E+00  0.00000000000E+00  0.45593999997E+02  0.45594000000E+02  0.51100000000E-03 0.  1.
         11   -1    0    0    0    0 -0.00000000000E+00 -0.00000000000E+00 -0.45593999997E+02  0.45594000000E+02  0.51100000000E-03 0. -1.
    9900012    2    1    2    0    0 -0.26562642256E+02 -0.32377521508E+01  0.36236118828E+02  0.46142319738E+02  0.10000018023E+02 0.  0.
         12    1    1    2    0    0  0.26562642256E+02  0.32377521508E+01 -0.36236118828E+02  0.45045680262E+02  0.00000000000E+00 0. -1.
         11    1    3    3    0    0 -0.13677693050E+02 -0.41657598253E+01  0.24233486071E+02  0.28137069668E+02  0.51100000000E-03 0. -1.
        -11    1    3    3    0    0 -0.49591002104E+01 -0.86556943347E+00  0.63640194554E+01  0.81143471229E+01  0.51100000000E-03 0.  1.
         12    1    3    3    0    0 -0.79258489952E+01  0.17935771079E+01  0.56386133017E+01  0.98909029468E+01  0.00000000000E+00 0. -1.
</event>
<event>
 7    1  0.1385632E-008  0.4614232E+02  0.7816164E-02  0.1320468E+00
        -11   -1    0    0    0    0  0.00000000000E+00  0.00000000000E+00  0.45593999997E+02  0.45594000000E+02  0.51100000000E-03 0.  1.
         11   -1    0    0    0    0 -0.00000000000E+00 -0.00000000000E+00 -0.45593999997E+02  0.45594000000E+02  0.51100000000E-03 0. -1.
    9900012    2    1    2    0    0  0.26647455130E+02  0.12510736970E+02  0.34095572505E+02  0.46142317977E+02  0.10000001972E+02 0.  0.
         12    1    1    2    0    0 -0.26647455130E+02 -0.12510736970E+02 -0.34095572505E+02  0.45045682023E+02  0.00000000000E+00 0. -1.
         11    1    3    3    0    0  0.13731865288E+00  0.21752942985E+01  0.31789628912E+01  0.38544217494E+01  0.51100000000E-03 0. -1.
        -11    1    3    3    0    0  0.10639747356E+02  0.36162037289E+01  0.15634121992E+02  0.19253750906E+02  0.51100000000E-03 0.  1.
        -12    1    3    3    0    0  0.15870389121E+02  0.67192389424E+01  0.15282487622E+02  0.23034145322E+02  0.00000000000E+00 0.  1.
</event>
<event>
 7    1  0.1385632E-008  0.4614232E+02  0.7816164E-02  0.1320468E+00
        -11   -1    0    0    0    0  0.00000000000E+00  0.00000000000E+00  0.45593999997E+02  0.45594000000E+02  0.51100000000E-03 0.  1.
         11   -1    0    0    0    0 -0.00000000000E+00 -0.00000000000E+00 -0.45593999997E+02  0.45594000000E+02  0.51100000000E-03 0. -1.
    9900012    2    1    2    0    0  0.26611270388E+02  0.23890349604E+01  0.36266324864E+02  0.46142317423E+02  0.99999969147E+01 0.  0.
         12    1    1    2    0    0 -0.26611270388E+02 -0.23890349604E+01 -0.36266324864E+02  0.45045682577E+02  0.00000000000E+00 0. -1.
         11    1    3    3    0    0  0.69126234930E+01  0.52780567834E+00  0.48456648852E+01  0.84583338094E+01  0.51100000000E-03 0. -1.
        -11    1    3    3    0    0  0.50932461168E+01  0.11486018870E+01  0.13986785320E+02  0.14929521297E+02  0.51100000000E-03 0.  1.
        -12    1    3    3    0    0  0.14605400779E+02  0.71262739510E+00  0.17433874658E+02  0.22754462316E+02  0.00000000000E+00 0.  1.
</event>
<event>
 7    1  0.1385632E-008  0.4614232E+02  0.7816164E-02  0.1320468E+00
        -11   -1    0    0    0    0  0.00000000000E+00  0.00000000000E+00  0.45593999997E+02  0.45594000000E+02  0.51100000000E-03 0.  1.
         11   -1    0    0    0    0 -0.00000000000E+00 -0.00000000000E+00 -0.45593999997E+02  0.45594000000E+02  0.51100000000E-03 0. -1.
    9900012    2    1    2    0    0  0.40594377895E+01 -0.34215900950E+02  0.29015625978E+02  0.46142318033E+02  0.10000002482E+02 0.  0.
         12    1    1    2    0    0 -0.40594377895E+01  0.34215900950E+02 -0.29015625978E+02  0.45045681967E+02  0.00000000000E+00 0. -1.
         11    1    3    3    0    0  0.44275243677E+01 -0.17304373459E+02  0.14199159921E+02  0.22817985353E+02  0.51100000000E-03 0. -1.
        -11    1    3    3    0    0 -0.62599681731E+00 -0.48160086405E+00 -0.43804389034E+00  0.90315785914E+00  0.51100000000E-03 0.  1.
        -12    1    3    3    0    0  0.25791023912E+00 -0.16429926627E+02  0.15254509947E+02  0.22421174821E+02  0.00000000000E+00 0.  1.
</event>
<event>
 7    1  0.1385632E-008  0.4614232E+02  0.7816164E-02  0.1320468E+00
        -11   -1    0    0    0    0  0.00000000000E+00  0.00000000000E+00  0.45593999997E+02  0.45594000000E+02  0.51100000000E-03 0. -1.
         11   -1    0    0    0    0 -0.00000000000E+00 -0.00000000000E+00 -0.45593999997E+02  0.45594000000E+02  0.51100000000E-03 0.  1.
    9900012    2    1    2    0    0 -0.36049361197E+02 -0.86092231482E+01 -0.25601531091E+02  0.46142316965E+02  0.99999927372E+01 0.  0.
         12    1    1    2    0    0  0.36049361197E+02  0.86092231482E+01  0.25601531091E+02  0.45045683035E+02  0.00000000000E+00 0. -1.
         11    1    3    3    0    0 -0.55098045544E+01 -0.27642125329E+01 -0.63438826023E+01  0.88455448610E+01  0.51100000000E-03 0. -1.
        -11    1    3    3    0    0 -0.14870581952E+02 -0.16197024912E+01 -0.13277792298E+02  0.20001435257E+02  0.51100000000E-03 0.  1.
        -12    1    3    3    0    0 -0.15668974690E+02 -0.42253081240E+01 -0.59798561905E+01  0.17295336847E+02  0.00000000000E+00 0.  1.
</event>
<event>
 7    1  0.1385632E-008  0.4614232E+02  0.7816164E-02  0.1320468E+00
        -11   -1    0    0    0    0  0.00000000000E+00  0.00000000000E+00  0.45593999997E+02  0.45594000000E+02  0.51100000000E-03 0.  1.
         11   -1    0    0    0    0 -0.00000000000E+00 -0.00000000000E+00 -0.45593999997E+02  0.45594000000E+02  0.51100000000E-03 0. -1.
    9900012    2    1    2    0    0  0.43636271468E+02  0.89535626092E+01  0.66949963361E+01  0.46142318220E+02  0.10000004187E+02 0.  0.
         12    1    1    2    0    0 -0.43636271468E+02 -0.89535626092E+01 -0.66949963361E+01  0.45045681780E+02  0.00000000000E+00 0. -1.
         11    1    3    3    0    0  0.17868678216E+02  0.50908026344E+01 -0.16043345466E+01  0.18648855789E+02  0.51100000000E-03 0. -1.
        -11    1    3    3    0    0  0.19577773499E+02  0.20972175073E+01  0.71922837843E+01  0.20962263302E+02  0.51100000000E-03 0.  1.
         12    1    3    3    0    0  0.61898197538E+01  0.17655424674E+01  0.11070470985E+01  0.65311991294E+01  0.00000000000E+00 0. -1.
</event>
<event>
 7    1  0.1385632E-008  0.4614232E+02  0.7816164E-02  0.1320468E+00
        -11   -1    0    0    0    0  0.00000000000E+00  0.00000000000E+00  0.45593999997E+02  0.45594000000E+02  0.51100000000E-03 0.  1.
         11   -1    0    0    0    0 -0.00000000000E+00 -0.00000000000E+00 -0.45593999997E+02  0.45594000000E+02  0.51100000000E-03 0. -1.
    9900012    2    1    2    0    0  0.61665212644E+01  0.12757992764E+01  0.44603360254E+02  0.46142318806E+02  0.10000009531E+02 0.  0.
         12    1    1    2    0    0 -0.61665212644E+01 -0.12757992764E+01 -0.44603360254E+02  0.45045681194E+02  0.00000000000E+00 0. -1.
         11    1    3    3    0    0  0.42741525574E+01  0.11873093555E+01  0.23374579805E+02  0.23791785660E+02  0.51100000000E-03 0. -1.
        -11    1    3    3    0    0 -0.10082498179E+01  0.84505125121E+00  0.17576152162E+02  0.17625317143E+02  0.51100000000E-03 0.  1.
         12    1    3    3    0    0  0.29006185249E+01 -0.75656133026E+00  0.36526282867E+01  0.47252160029E+01  0.00000000000E+00 0. -1.
</event>
<event>
 7    1  0.1385632E-008  0.4614232E+02  0.7816164E-02  0.1320468E+00
        -11   -1    0    0    0    0  0.00000000000E+00  0.00000000000E+00  0.45593999997E+02  0.45594000000E+02  0.51100000000E-03 0.  1.
         11   -1    0    0    0    0 -0.00000000000E+00 -0.00000000000E+00 -0.45593999997E+02  0.45594000000E+02  0.51100000000E-03 0. -1.
    9900012    2    1    2    0    0  0.21922918611E+01 -0.19719757239E+02  0.40440555300E+02  0.46142317830E+02  0.10000000632E+02 0.  0.
         12    1    1    2    0    0 -0.21922918611E+01  0.19719757239E+02 -0.40440555300E+02  0.45045682170E+02  0.00000000000E+00 0. -1.
         11    1    3    3    0    0  0.64160381078E-01  0.14936471312E+00  0.34706657586E+01  0.34744708145E+01  0.51100000000E-03 0. -1.
        -11    1    3    3    0    0  0.12710239045E+01 -0.13574745149E+02  0.17477565882E+02  0.22166517928E+02  0.51100000000E-03 0.  1.
        -12    1    3    3    0    0  0.85710757550E+00 -0.62943768028E+01  0.19492323659E+02  0.20501329088E+02  0.00000000000E+00 0.  1.
</event>
<event>
 7    1  0.1385632E-008  0.4614232E+02  0.7816164E-02  0.1320468E+00
        -11   -1    0    0    0    0  0.00000000000E+00  0.00000000000E+00  0.45593999997E+02  0.45594000000E+02  0.51100000000E-03 0.  1.
         11   -1    0    0    0    0 -0.00000000000E+00 -0.00000000000E+00 -0.45593999997E+02  0.45594000000E+02  0.51100000000E-03 0. -1.
    9900012    2    1    2    0    0 -0.10273447178E+02 -0.49939736764E+01  0.43573270297E+02  0.46142319026E+02  0.10000011536E+02 0.  0.
         12    1    1    2    0    0  0.10273447178E+02  0.49939736764E+01 -0.43573270297E+02  0.45045680974E+02  0.00000000000E+00 0. -1.
         11    1    3    3    0    0 -0.38516688121E+01 -0.17304205735E+01  0.17359918655E+02  0.17866070748E+02  0.51100000000E-03 0.  1.
        -11    1    3    3    0    0 -0.41287819438E+01  0.19981257211E+01  0.85343852447E+01  0.96889152387E+01  0.51100000000E-03 0. -1.
        -12    1    3    3    0    0 -0.22929964223E+01 -0.52616788240E+01  0.17678966398E+02  0.18587333040E+02  0.00000000000E+00 0.  1.
</event>
<event>
 7    1  0.1385632E-008  0.4614232E+02  0.7816164E-02  0.1320468E+00
        -11   -1    0    0    0    0  0.00000000000E+00  0.00000000000E+00  0.45593999997E+02  0.45594000000E+02  0.51100000000E-03 0.  1.
         11   -1    0    0    0    0 -0.00000000000E+00 -0.00000000000E+00 -0.45593999997E+02  0.45594000000E+02  0.51100000000E-03 0. -1.
    9900012    2    1    2    0    0 -0.22661411868E+02 -0.31555982558E+02  0.22798985125E+02  0.46142319344E+02  0.10000014435E+02 0.  0.
         12    1    1    2    0    0  0.22661411868E+02  0.31555982558E+02 -0.22798985125E+02  0.45045680656E+02  0.00000000000E+00 0. -1.
         11    1    3    3    0    0 -0.19827282492E+00 -0.21735725310E+00 -0.58731536571E+00  0.65688346645E+00  0.51100000000E-03 0. -1.
        -11    1    3    3    0    0 -0.61267179437E+01 -0.11025238567E+02  0.10475011325E+02  0.16395682991E+02  0.51100000000E-03 0.  1.
        -12    1    3    3    0    0 -0.16336421099E+02 -0.20313386737E+02  0.12911289165E+02  0.29089752886E+02  0.00000000000E+00 0.  1.
</event>
<event>
 7    1  0.1385632E-008  0.4614232E+02  0.7816164E-02  0.1320468E+00
        -11   -1    0    0    0    0  0.00000000000E+00  0.00000000000E+00  0.45593999997E+02  0.45594000000E+02  0.51100000000E-03 0.  1.
         11   -1    0    0    0    0 -0.00000000000E+00 -0.00000000000E+00 -0.45593999997E+02  0.45594000000E+02  0.51100000000E-03 0. -1.
    9900012    2    1    2    0    0  0.54696768047E+01  0.29739734691E+02  0.33387787383E+02  0.46142317297E+02  0.99999957702E+01 0.  0.
         12    1    1    2    0    0 -0.54696768047E+01 -0.29739734691E+02 -0.33387787383E+02  0.45045682703E+02  0.00000000000E+00 0. -1.
         11    1    3    3    0    0 -0.41471177702E+00  0.93134426234E+00  0.29612711186E+01  0.31318548645E+01  0.51100000000E-03 0. -1.
        -11    1    3    3    0    0  0.66702852152E+01  0.20894704989E+02  0.25586100744E+02  0.33700592769E+02  0.51100000000E-03 0.  1.
        -12    1    3    3    0    0 -0.78589663355E+00  0.79136854389E+01  0.48404155206E+01  0.93098696638E+01  0.00000000000E+00 0.  1.
</event>
<event>
 7    1  0.1385632E-008  0.4614232E+02  0.7816164E-02  0.1320468E+00
        -11   -1    0    0    0    0  0.00000000000E+00  0.00000000000E+00  0.45593999997E+02  0.45594000000E+02  0.51100000000E-03 0. -1.
         11   -1    0    0    0    0 -0.00000000000E+00 -0.00000000000E+00 -0.45593999997E+02  0.45594000000E+02  0.51100000000E-03 0.  1.
    9900012    2    1    2    0    0 -0.25362317772E+02 -0.37000483235E+02 -0.41024961425E+01  0.46142318775E+02  0.10000009250E+02 0.  0.
         12    1    1    2    0    0  0.25362317772E+02  0.37000483235E+02  0.41024961425E+01  0.45045681225E+02  0.00000000000E+00 0. -1.
         11    1    3    3    0    0 -0.57650774045E+01 -0.37912992441E+01  0.34371625172E+00  0.69085605275E+01  0.51100000000E-03 0. -1.
        -11    1    3    3    0    0 -0.12534063393E+02 -0.19823477803E+02 -0.54054289710E+01  0.24068478970E+02  0.51100000000E-03 0.  1.
         12    1    3    3    0    0 -0.70631769753E+01 -0.13385706188E+02  0.95921657678E+00  0.15165279278E+02  0.00000000000E+00 0. -1.
</event>
<event>
 7    1  0.1385632E-008  0.4614232E+02  0.7816164E-02  0.1320468E+00
        -11   -1    0    0    0    0  0.00000000000E+00  0.00000000000E+00  0.45593999997E+02  0.45594000000E+02  0.51100000000E-03 0.  1.
         11   -1    0    0    0    0 -0.00000000000E+00 -0.00000000000E+00 -0.45593999997E+02  0.45594000000E+02  0.51100000000E-03 0. -1.
    9900012    2    1    2    0    0  0.66121407858E+01  0.33480422118E+02  0.29401605355E+02  0.46142317983E+02  0.10000002020E+02 0.  0.
         12    1    1    2    0    0 -0.66121407858E+01 -0.33480422118E+02 -0.29401605355E+02  0.45045682017E+02  0.00000000000E+00 0. -1.
         11    1    3    3    0    0  0.16560655371E+01  0.60408501816E+01  0.26814078956E+01  0.68135433178E+01  0.51100000000E-03 0. -1.
        -11    1    3    3    0    0  0.64180473666E+01  0.15078456485E+02  0.14402051574E+02  0.21816742923E+02  0.51100000000E-03 0.  1.
        -12    1    3    3    0    0 -0.14619721179E+01  0.12361115451E+02  0.12318145886E+02  0.17512031742E+02  0.00000000000E+00 0.  1.
</event>
<event>
 7    1  0.1385632E-008  0.4614232E+02  0.7816164E-02  0.1320468E+00
        -11   -1    0    0    0    0  0.00000000000E+00  0.00000000000E+00  0.45593999997E+02  0.45594000000E+02  0.51100000000E-03 0.  1.
         11   -1    0    0    0    0 -0.00000000000E+00 -0.00000000000E+00 -0.45593999997E+02  0.45594000000E+02  0.51100000000E-03 0. -1.
    9900012    2    1    2    0    0  0.99965595219E+01 -0.36317010221E+02  0.24703379002E+02  0.46142319100E+02  0.10000012211E+02 0.  0.
         12    1    1    2    0    0 -0.99965595219E+01  0.36317010221E+02 -0.24703379002E+02  0.45045680900E+02  0.00000000000E+00 0. -1.
         11    1    3    3    0    0  0.16968827102E+01 -0.35754986038E+01  0.15531348276E+00  0.39607731236E+01  0.51100000000E-03 0. -1.
        -11    1    3    3    0    0  0.44421203751E+01 -0.79193284809E+01  0.79916583770E+01  0.12096065513E+02  0.51100000000E-03 0.  1.
         12    1    3    3    0    0  0.38575564366E+01 -0.24822183136E+02  0.16556407142E+02  0.30085480464E+02  0.00000000000E+00 0. -1.
</event>
<event>
 7    1  0.1385632E-008  0.4614232E+02  0.7816164E-02  0.1320468E+00
        -11   -1    0    0    0    0  0.00000000000E+00  0.00000000000E+00  0.45593999997E+02  0.45594000000E+02  0.51100000000E-03 0. -1.
         11   -1    0    0    0    0 -0.00000000000E+00 -0.00000000000E+00 -0.45593999997E+02  0.45594000000E+02  0.51100000000E-03 0.  1.
    9900012    2    1    2    0    0  0.40156699608E+02 -0.19844087602E+02 -0.47712761674E+01  0.46142318604E+02  0.10000007688E+02 0.  0.
         12    1    1    2    0    0 -0.40156699608E+02  0.19844087602E+02  0.47712761674E+01  0.45045681396E+02  0.00000000000E+00 0. -1.
         11    1    3    3    0    0  0.27000806266E+01 -0.39612658062E+01 -0.53945709945E+00  0.48242176984E+01  0.51100000000E-03 0. -1.
        -11    1    3    3    0    0  0.12999469802E+02 -0.38783264415E+01 -0.37295775430E+01  0.14069021999E+02  0.51100000000E-03 0.  1.
        -12    1    3    3    0    0  0.24457149179E+02 -0.12004495355E+02 -0.50224152497E+00  0.27249078906E+02  0.00000000000E+00 0.  1.
</event>
<event>
 7    1  0.1385632E-008  0.4614232E+02  0.7816164E-02  0.1320468E+00
        -11   -1    0    0    0    0  0.00000000000E+00  0.00000000000E+00  0.45593999997E+02  0.45594000000E+02  0.51100000000E-03 0. -1.
         11   -1    0    0    0    0 -0.00000000000E+00 -0.00000000000E+00 -0.45593999997E+02  0.45594000000E+02  0.51100000000E-03 0.  1.
    9900012    2    1    2    0    0 -0.19723709385E+01  0.43560757248E+02 -0.11299720176E+02  0.46142317686E+02  0.99999993111E+01 0.  0.
         12    1    1    2    0    0  0.19723709385E+01 -0.43560757248E+02  0.11299720176E+02  0.45045682314E+02  0.00000000000E+00 0. -1.
         11    1    3    3    0    0 -0.11156493702E+00  0.50365899302E+01 -0.23034967806E+01  0.55394749336E+01  0.51100000000E-03 0. -1.
        -11    1    3    3    0    0 -0.10049806469E+01  0.10553110142E+02  0.15173602182E+01  0.10708898265E+02  0.51100000000E-03 0.  1.
        -12    1    3    3    0    0 -0.85582535462E+00  0.27971057176E+02 -0.10513583614E+02  0.29893944486E+02  0.00000000000E+00 0.  1.
</event>
<event>
 7    1  0.1385632E-008  0.4614232E+02  0.7816164E-02  0.1320468E+00
        -11   -1    0    0    0    0  0.00000000000E+00  0.00000000000E+00  0.45593999997E+02  0.45594000000E+02  0.51100000000E-03 0.  1.
         11   -1    0    0    0    0 -0.00000000000E+00 -0.00000000000E+00 -0.45593999997E+02  0.45594000000E+02  0.51100000000E-03 0. -1.
    9900012    2    1    2    0    0  0.62827700722E+01 -0.30751675338E+01  0.44499255330E+02  0.46142316743E+02  0.99999907194E+01 0.  0.
         12    1    1    2    0    0 -0.62827700722E+01  0.30751675338E+01 -0.44499255330E+02  0.45045683257E+02  0.00000000000E+00 0. -1.
         11    1    3    3    0    0  0.20904531856E+01  0.53648121151E+00  0.33905744028E+01  0.40191792263E+01  0.51100000000E-03 0. -1.
        -11    1    3    3    0    0  0.26824395717E+01 -0.41771107218E+01  0.12224856750E+02  0.13194349504E+02  0.51100000000E-03 0.  1.
        -12    1    3    3    0    0  0.15098773149E+01  0.56546197654E+00  0.28883824178E+02  0.28928788013E+02  0.00000000000E+00 0.  1.
</event>
<event>
 7    1  0.1385632E-008  0.4614232E+02  0.7816164E-02  0.1320468E+00
        -11   -1    0    0    0    0  0.00000000000E+00  0.00000000000E+00  0.45593999997E+02  0.45594000000E+02  0.51100000000E-03 0.  1.
         11   -1    0    0    0    0 -0.00000000000E+00 -0.00000000000E+00 -0.45593999997E+02  0.45594000000E+02  0.51100000000E-03 0. -1.
    9900012    2    1    2    0    0 -0.22793666170E+02  0.94629463502E+01  0.37683086209E+02  0.46142316996E+02  0.99999930250E+01 0.  0.
         12    1    1    2    0    0  0.22793666170E+02 -0.94629463502E+01 -0.37683086209E+02  0.45045683004E+02  0.00000000000E+00 0. -1.
         11    1    3    3    0    0 -0.88415629342E+01  0.73856910461E+01  0.18689064987E+02  0.21954562572E+02  0.51100000000E-03 0. -1.
        -11    1    3    3    0    0 -0.52576106978E+01 -0.64958189145E+00  0.10354693338E+02  0.11631169385E+02  0.51100000000E-03 0.  1.
         12    1    3    3    0    0 -0.86944925376E+01  0.27268371955E+01  0.86393278833E+01  0.12556585039E+02  0.00000000000E+00 0. -1.
</event>
<event>
 7    1  0.1385632E-008  0.4614232E+02  0.7816164E-02  0.1320468E+00
        -11   -1    0    0    0    0  0.00000000000E+00  0.00000000000E+00  0.45593999997E+02  0.45594000000E+02  0.51100000000E-03 0.  1.
         11   -1    0    0    0    0 -0.00000000000E+00 -0.00000000000E+00 -0.45593999997E+02  0.45594000000E+02  0.51100000000E-03 0. -1.
    9900012    2    1    2    0    0 -0.25766229090E+02  0.16373416859E+02  0.33122895261E+02  0.46142317281E+02  0.99999956246E+01 0.  0.
         12    1    1    2    0    0  0.25766229090E+02 -0.16373416859E+02 -0.33122895261E+02  0.45045682719E+02  0.00000000000E+00 0. -1.
         11    1    3    3    0    0 -0.88651867784E+01  0.59965098763E+01  0.15555370405E+02  0.18881716448E+02  0.51100000000E-03 0. -1.
        -11    1    3    3    0    0 -0.16734757573E+01  0.39112736477E+01  0.28736908964E+01  0.51338759516E+01  0.51100000000E-03 0.  1.
        -12    1    3    3    0    0 -0.15227566554E+02  0.64656333354E+01  0.14693833959E+02  0.22126724882E+02  0.00000000000E+00 0.  1.
</event>
<event>
 7    1  0.1385632E-008  0.4614232E+02  0.7816164E-02  0.1320468E+00
        -11   -1    0    0    0    0  0.00000000000E+00  0.00000000000E+00  0.45593999997E+02  0.45594000000E+02  0.51100000000E-03 0. -1.
         11   -1    0    0    0    0 -0.00000000000E+00 -0.00000000000E+00 -0.45593999997E+02  0.45594000000E+02  0.51100000000E-03 0.  1.
    9900012    2    1    2    0    0  0.31487475926E+02  0.28792393443E+02  0.14444726922E+02  0.46142321004E+02  0.10000029570E+02 0.  0.
         12    1    1    2    0    0 -0.31487475926E+02 -0.28792393443E+02 -0.14444726922E+02  0.45045678996E+02  0.00000000000E+00 0. -1.
         11    1    3    3    0    0  0.79651772512E+00  0.19154045132E+00 -0.98961783448E+00  0.12847069512E+01  0.51100000000E-03 0. -1.
        -11    1    3    3    0    0  0.25037333668E+02  0.21880397000E+02  0.11027981153E+02  0.35031931414E+02  0.51100000000E-03 0.  1.
        -12    1    3    3    0    0  0.56536245336E+01  0.67204559917E+01  0.44063636040E+01  0.98256826385E+01  0.00000000000E+00 0.  1.
</event>
<event>
 7    1  0.1385632E-008  0.4614232E+02  0.7816164E-02  0.1320468E+00
        -11   -1    0    0    0    0  0.00000000000E+00  0.00000000000E+00  0.45593999997E+02  0.45594000000E+02  0.51100000000E-03 0.  1.
         11   -1    0    0    0    0 -0.00000000000E+00 -0.00000000000E+00 -0.45593999997E+02  0.45594000000E+02  0.51100000000E-03 0. -1.
    9900012    2    1    2    0    0 -0.26198716464E+02 -0.36477494566E+02 -0.34832565240E+01  0.46142318407E+02  0.10000005889E+02 0.  0.
         12    1    1    2    0    0  0.26198716464E+02  0.36477494566E+02  0.34832565240E+01  0.45045681593E+02  0.00000000000E+00 0. -1.
         11    1    3    3    0    0 -0.46865160723E+00 -0.49757799975E+01 -0.52187270656E+00  0.50249748552E+01  0.51100000000E-03 0. -1.
        -11    1    3    3    0    0 -0.19088899598E+02 -0.26389190727E+02 -0.32497579977E+01  0.32731275600E+02  0.51100000000E-03 0.  1.
        -12    1    3    3    0    0 -0.66411652588E+01 -0.51125238415E+01  0.28837418030E+00  0.83860679518E+01  0.00000000000E+00 0.  1.
</event>
<event>
 7    1  0.1385632E-008  0.4614232E+02  0.7816164E-02  0.1320468E+00
        -11   -1    0    0    0    0  0.00000000000E+00  0.00000000000E+00  0.45593999997E+02  0.45594000000E+02  0.51100000000E-03 0.  1.
         11   -1    0    0    0    0 -0.00000000000E+00 -0.00000000000E+00 -0.45593999997E+02  0.45594000000E+02  0.51100000000E-03 0. -1.
    9900012    2    1    2    0    0 -0.15037931010E+02 -0.27398381030E+02  0.32439216467E+02  0.46142318552E+02  0.10000007207E+02 0.  0.
         12    1    1    2    0    0  0.15037931010E+02  0.27398381030E+02 -0.32439216467E+02  0.45045681448E+02  0.00000000000E+00 0. -1.
         11    1    3    3    0    0  0.39003957465E-01 -0.75246277920E+00  0.28639946013E+00  0.80606851735E+00  0.51100000000E-03 0. -1.
        -11    1    3    3    0    0 -0.62241643992E+00 -0.71927307682E+00 -0.60706671304E+00  0.11283998577E+01  0.51100000000E-03 0.  1.
        -12    1    3    3    0    0 -0.14454518528E+02 -0.25926645174E+02  0.32759883720E+02  0.44207850176E+02  0.00000000000E+00 0.  1.
</event>
<event>
 7    1  0.1385632E-008  0.4614232E+02  0.7816164E-02  0.1320468E+00
        -11   -1    0    0    0    0  0.00000000000E+00  0.00000000000E+00  0.45593999997E+02  0.45594000000E+02  0.51100000000E-03 0.  1.
         11   -1    0    0    0    0 -0.00000000000E+00 -0.00000000000E+00 -0.45593999997E+02  0.45594000000E+02  0.51100000000E-03 0. -1.
    9900012    2    1    2    0    0  0.80991114047E+01 -0.87037479701E+01  0.43448385666E+02  0.46142322613E+02  0.10000044245E+02 0.  0.
         12    1    1    2    0    0 -0.80991114047E+01  0.87037479701E+01 -0.43448385666E+02  0.45045677387E+02  0.00000000000E+00 0. -1.
         11    1    3    3    0    0  0.13216267026E+00  0.19480889220E+00  0.14628029582E+02  0.14629923691E+02  0.51100000000E-03 0. -1.
        -11    1    3    3    0    0  0.71727753166E+01 -0.56501211089E+01  0.23686112077E+02  0.25385123200E+02  0.51100000000E-03 0.  1.
        -12    1    3    3    0    0  0.79417341784E+00 -0.32484357534E+01  0.51342440065E+01  0.61272757225E+01  0.00000000000E+00 0.  1.
</event>
<event>
 7    1  0.1385632E-008  0.4614232E+02  0.7816164E-02  0.1320468E+00
        -11   -1    0    0    0    0  0.00000000000E+00  0.00000000000E+00  0.45593999997E+02  0.45594000000E+02  0.51100000000E-03 0.  1.
         11   -1    0    0    0    0 -0.00000000000E+00 -0.00000000000E+00 -0.45593999997E+02  0.45594000000E+02  0.51100000000E-03 0. -1.
    9900012    2    1    2    0    0 -0.23547983921E+01  0.13179411458E+02  0.43010133182E+02  0.46142317430E+02  0.99999969783E+01 0.  0.
         12    1    1    2    0    0  0.23547983921E+01 -0.13179411458E+02 -0.43010133182E+02  0.45045682570E+02  0.00000000000E+00 0. -1.
         11    1    3    3    0    0 -0.23209752617E+01 -0.24075431872E+00  0.25121214982E+01  0.34286503891E+01  0.51100000000E-03 0. -1.
        -11    1    3    3    0    0  0.23247657159E+00  0.58202667926E+01  0.14498604327E+02  0.15624950515E+02  0.51100000000E-03 0.  1.
         12    1    3    3    0    0 -0.26629970194E+00  0.75998989844E+01  0.25999407357E+02  0.27088716526E+02  0.00000000000E+00 0. -1.
</event>
<event>
 7    1  0.1385632E-008  0.4614232E+02  0.7816164E-02  0.1320468E+00
        -11   -1    0    0    0    0  0.00000000000E+00  0.00000000000E+00  0.45593999997E+02  0.45594000000E+02  0.51100000000E-03 0. -1.
         11   -1    0    0    0    0 -0.00000000000E+00 -0.00000000000E+00 -0.45593999997E+02  0.45594000000E+02  0.51100000000E-03 0.  1.
    9900012    2    1    2    0    0 -0.23270105292E+02 -0.33611237004E+02 -0.18918254916E+02  0.46142318494E+02  0.10000006683E+02 0.  0.
         12    1    1    2    0    0  0.23270105292E+02  0.33611237004E+02  0.18918254916E+02  0.45045681506E+02  0.00000000000E+00 0. -1.
         11    1    3    3    0    0 -0.22366149926E+02 -0.25666919396E+02 -0.15915226520E+02  0.37580977225E+02  0.51100000000E-03 0. -1.
        -11    1    3    3    0    0 -0.23778148640E+00 -0.22708528521E+01 -0.57672603198E+00  0.23549789571E+01  0.51100000000E-03 0.  1.
         12    1    3    3    0    0 -0.66617388012E+00 -0.56734647563E+01 -0.24263023644E+01  0.62063623116E+01  0.00000000000E+00 0. -1.
</event>
<event>
 7    1  0.1385632E-008  0.4614232E+02  0.7816164E-02  0.1320468E+00
        -11   -1    0    0    0    0  0.00000000000E+00  0.00000000000E+00  0.45593999997E+02  0.45594000000E+02  0.51100000000E-03 0.  1.
         11   -1    0    0    0    0 -0.00000000000E+00 -0.00000000000E+00 -0.45593999997E+02  0.45594000000E+02  0.51100000000E-03 0. -1.
    9900012    2    1    2    0    0  0.32128107587E+02 -0.11141634232E+01  0.31554031687E+02  0.46142316823E+02  0.99999914421E+01 0.  0.
         12    1    1    2    0    0 -0.32128107587E+02  0.11141634232E+01 -0.31554031687E+02  0.45045683177E+02  0.00000000000E+00 0. -1.
         11    1    3    3    0    0  0.14907943640E+02  0.33687340470E+00  0.90431594978E+01  0.17439581452E+02  0.51100000000E-03 0. -1.
        -11    1    3    3    0    0  0.17378977284E+02 -0.17332006886E+01  0.22255961211E+02  0.28290645905E+02  0.51100000000E-03 0.  1.
        -12    1    3    3    0    0 -0.15881333741E+00  0.28216386075E+00  0.25491097830E+00  0.41208946518E+00  0.00000000000E+00 0.  1.
</event>
<event>
 7    1  0.1385632E-008  0.4614232E+02  0.7816164E-02  0.1320468E+00
        -11   -1    0    0    0    0  0.00000000000E+00  0.00000000000E+00  0.45593999997E+02  0.45594000000E+02  0.51100000000E-03 0. -1.
         11   -1    0    0    0    0 -0.00000000000E+00 -0.00000000000E+00 -0.45593999997E+02  0.45594000000E+02  0.51100000000E-03 0.  1.
    9900012    2    1    2    0    0 -0.39076141079E+02  0.11422880233E+02 -0.19279172760E+02  0.46142317668E+02  0.99999991473E+01 0.  0.
         12    1    1    2    0    0  0.39076141079E+02 -0.11422880233E+02  0.19279172760E+02  0.45045682332E+02  0.00000000000E+00 0. -1.
         11    1    3    3    0    0 -0.11428852088E+02  0.39183913768E+01 -0.49939033368E+01  0.13073313345E+02  0.51100000000E-03 0. -1.
        -11    1    3    3    0    0 -0.17177376850E+02  0.87519249478E+01 -0.90552954356E+01  0.21299221615E+02  0.51100000000E-03 0.  1.
        -12    1    3    3    0    0 -0.10469912142E+02 -0.12474360912E+01 -0.52299739875E+01  0.11769782707E+02  0.00000000000E+00 0.  1.
</event>
<event>
 7    1  0.1385632E-008  0.4614232E+02  0.7816164E-02  0.1320468E+00
        -11   -1    0    0    0    0  0.00000000000E+00  0.00000000000E+00  0.45593999997E+02  0.45594000000E+02  0.51100000000E-03 0.  1.
         11   -1    0    0    0    0 -0.00000000000E+00 -0.00000000000E+00 -0.45593999997E+02  0.45594000000E+02  0.51100000000E-03 0. -1.
    9900012    2    1    2    0    0 -0.47074271685E+01  0.17702454390E+02  0.41153081414E+02  0.46142324604E+02  0.10000062399E+02 0.  0.
         12    1    1    2    0    0  0.47074271685E+01 -0.17702454390E+02 -0.41153081414E+02  0.45045675396E+02  0.00000000000E+00 0. -1.
         11    1    3    3    0    0 -0.32743104316E+01  0.66189911826E+01  0.10086667660E+02  0.12500920679E+02  0.51100000000E-03 0. -1.
        -11    1    3    3    0    0 -0.16538684946E+01  0.26858844841E+01  0.30310387491E+01  0.43745231305E+01  0.51100000000E-03 0.  1.
        -12    1    3    3    0    0  0.22075175775E+00  0.83975787232E+01  0.28035375006E+02  0.29266880795E+02  0.00000000000E+00 0.  1.
</event>
<event>
 7    1  0.1385632E-008  0.4614232E+02  0.7816164E-02  0.1320468E+00
        -11   -1    0    0    0    0  0.00000000000E+00  0.00000000000E+00  0.45593999997E+02  0.45594000000E+02  0.51100000000E-03 0.  1.
         11   -1    0    0    0    0 -0.00000000000E+00 -0.00000000000E+00 -0.45593999997E+02  0.45594000000E+02  0.51100000000E-03 0. -1.
    9900012    2    1    2    0    0 -0.16788111383E+02 -0.22871257950E+02  0.34988260591E+02  0.46142317597E+02  0.99999985016E+01 0.  0.
         12    1    1    2    0    0  0.16788111383E+02  0.22871257950E+02 -0.34988260591E+02  0.45045682403E+02  0.00000000000E+00 0. -1.
         11    1    3    3    0    0 -0.65385545411E+01 -0.37472785461E+01  0.50997035925E+01  0.90995477350E+01  0.51100000000E-03 0. -1.
        -11    1    3    3    0    0 -0.76835402085E+01 -0.11845097317E+02  0.20449469315E+02  0.24850028493E+02  0.51100000000E-03 0.  1.
         12    1    3    3    0    0 -0.25660166337E+01 -0.72788820862E+01  0.94390876829E+01  0.12192741368E+02  0.00000000000E+00 0. -1.
</event>
<event>
 7    1  0.1385632E-008  0.4614232E+02  0.7816164E-02  0.1320468E+00
        -11   -1    0    0    0    0  0.00000000000E+00  0.00000000000E+00  0.45593999997E+02  0.45594000000E+02  0.51100000000E-03 0. -1.
         11   -1    0    0    0    0 -0.00000000000E+00 -0.00000000000E+00 -0.45593999997E+02  0.45594000000E+02  0.51100000000E-03 0.  1.
    9900012    2    1    2    0    0 -0.21739626942E+02 -0.12239673621E+02 -0.37505894515E+02  0.46142321924E+02  0.10000037963E+02 0.  0.
         12    1    1    2    0    0  0.21739626942E+02  0.12239673621E+02  0.37505894515E+02  0.45045678076E+02  0.00000000000E+00 0. -1.
         11    1    3    3    0    0 -0.13359823836E+02 -0.44360559130E+01 -0.15396158465E+02  0.20861571866E+02  0.51100000000E-03 0. -1.
        -11    1    3    3    0    0 -0.81918794051E+01 -0.55811648993E+01 -0.19268321674E+02  0.21668514260E+02  0.51100000000E-03 0.  1.
         12    1    3    3    0    0 -0.18792370027E+00 -0.22224528090E+01 -0.28414143757E+01  0.36122357979E+01  0.00000000000E+00 0. -1.
</event>
<event>
 7    1  0.1385632E-008  0.4614232E+02  0.7816164E-02  0.1320468E+00
        -11   -1    0    0    0    0  0.00000000000E+00  0.00000000000E+00  0.45593999997E+02  0.45594000000E+02  0.51100000000E-03 0.  1.
         11   -1    0    0    0    0 -0.00000000000E+00 -0.00000000000E+00 -0.45593999997E+02  0.45594000000E+02  0.51100000000E-03 0. -1.
    9900012    2    1    2    0    0 -0.10814461127E+02 -0.16178680029E+02  0.40625254534E+02  0.46142316934E+02  0.99999924585E+01 0.  0.
         12    1    1    2    0    0  0.10814461127E+02  0.16178680029E+02 -0.40625254534E+02  0.45045683066E+02  0.00000000000E+00 0. -1.
         11    1    3    3    0    0 -0.12171151301E+02 -0.13210693597E+02  0.29628715174E+02  0.34648522514E+02  0.51100000000E-03 0. -1.
        -11    1    3    3    0    0  0.66306403882E+00 -0.13118833197E+01  0.62094666044E+01  0.63810788693E+01  0.51100000000E-03 0.  1.
         12    1    3    3    0    0  0.69362613543E+00 -0.16561031129E+01  0.47870727554E+01  0.51127155506E+01  0.00000000000E+00 0. -1.
</event>
<event>
 7    1  0.1385632E-008  0.4614232E+02  0.7816164E-02  0.1320468E+00
        -11   -1    0    0    0    0  0.00000000000E+00  0.00000000000E+00  0.45593999997E+02  0.45594000000E+02  0.51100000000E-03 0.  1.
         11   -1    0    0    0    0 -0.00000000000E+00 -0.00000000000E+00 -0.45593999997E+02  0.45594000000E+02  0.51100000000E-03 0. -1.
    9900012    2    1    2    0    0  0.22864845839E+02  0.20057563865E+01  0.38759375777E+02  0.46142318248E+02  0.10000004435E+02 0.  0.
         12    1    1    2    0    0 -0.22864845839E+02 -0.20057563865E+01 -0.38759375777E+02  0.45045681752E+02  0.00000000000E+00 0. -1.
         11    1    3    3    0    0  0.10122236041E+01 -0.87551572303E+00  0.11031732896E+01  0.17343921050E+01  0.51100000000E-03 0. -1.
        -11    1    3    3    0    0  0.73143008563E+01  0.39546928271E+01  0.18935679559E+02  0.20680874086E+02  0.51100000000E-03 0.  1.
        -12    1    3    3    0    0  0.14538321378E+02 -0.10734207175E+01  0.18720522929E+02  0.23727052056E+02  0.00000000000E+00 0.  1.
</event>
<event>
 7    1  0.1385632E-008  0.4614232E+02  0.7816164E-02  0.1320468E+00
        -11   -1    0    0    0    0  0.00000000000E+00  0.00000000000E+00  0.45593999997E+02  0.45594000000E+02  0.51100000000E-03 0.  1.
         11   -1    0    0    0    0 -0.00000000000E+00 -0.00000000000E+00 -0.45593999997E+02  0.45594000000E+02  0.51100000000E-03 0. -1.
    9900012    2    1    2    0    0  0.26990472183E+02  0.35898547602E+02  0.34528543643E+01  0.46142317501E+02  0.99999976237E+01 0.  0.
         12    1    1    2    0    0 -0.26990472183E+02 -0.35898547602E+02 -0.34528543643E+01  0.45045682499E+02  0.00000000000E+00 0. -1.
         11    1    3    3    0    0  0.56600548274E+01  0.39162235609E+01  0.26309398478E+01  0.73685054368E+01  0.51100000000E-03 0. -1.
        -11    1    3    3    0    0  0.91676415706E+01  0.18072987897E+02 -0.23432198957E+00  0.20266559909E+02  0.51100000000E-03 0.  1.
        -12    1    3    3    0    0  0.12162775785E+02  0.13909336144E+02  0.10562365061E+01  0.18507252155E+02  0.00000000000E+00 0.  1.
</event>
<event>
 7    1  0.1385632E-008  0.4614232E+02  0.7816164E-02  0.1320468E+00
        -11   -1    0    0    0    0  0.00000000000E+00  0.00000000000E+00  0.45593999997E+02  0.45594000000E+02  0.51100000000E-03 0. -1.
         11   -1    0    0    0    0 -0.00000000000E+00 -0.00000000000E+00 -0.45593999997E+02  0.45594000000E+02  0.51100000000E-03 0.  1.
    9900012    2    1    2    0    0 -0.24069365298E+02  0.19390618106E+02 -0.32768629760E+02  0.46142317491E+02  0.99999975330E+01 0.  0.
         12    1    1    2    0    0  0.24069365298E+02 -0.19390618106E+02  0.32768629760E+02  0.45045682509E+02  0.00000000000E+00 0. -1.
         11    1    3    3    0    0 -0.52995000697E+01  0.17874122922E+01 -0.65517013568E+01  0.86141937882E+01  0.51100000000E-03 0. -1.
        -11    1    3    3    0    0 -0.11055488211E+02  0.73165216451E+01 -0.89330695695E+01  0.15986088976E+02  0.51100000000E-03 0.  1.
        -12    1    3    3    0    0 -0.77143770179E+01  0.10286684169E+02 -0.17283858834E+02  0.21542034726E+02  0.00000000000E+00 0.  1.
</event>
<event>
 7    1  0.1385632E-008  0.4614232E+02  0.7816164E-02  0.1320468E+00
        -11   -1    0    0    0    0  0.00000000000E+00  0.00000000000E+00  0.45593999997E+02  0.45594000000E+02  0.51100000000E-03 0.  1.
         11   -1    0    0    0    0 -0.00000000000E+00 -0.00000000000E+00 -0.45593999997E+02  0.45594000000E+02  0.51100000000E-03 0. -1.
    9900012    2    1    2    0    0  0.51205821824E+01  0.31292615323E+01  0.44644158555E+02  0.46142317269E+02  0.99999955144E+01 0.  0.
         12    1    1    2    0    0 -0.51205821824E+01 -0.31292615323E+01 -0.44644158555E+02  0.45045682731E+02  0.00000000000E+00 0. -1.
         11    1    3    3    0    0 -0.27770005586E+00  0.26353754313E+01  0.64058356581E+01  0.69323193611E+01  0.51100000000E-03 0. -1.
        -11    1    3    3    0    0  0.22383911002E+01  0.34063861368E+01  0.23770591304E+02  0.24117522104E+02  0.51100000000E-03 0.  1.
         12    1    3    3    0    0  0.31598911381E+01 -0.29125000358E+01  0.14467731592E+02  0.15092475804E+02  0.00000000000E+00 0. -1.
</event>
<event>
 7    1  0.1385632E-008  0.4614232E+02  0.7816164E-02  0.1320468E+00
        -11   -1    0    0    0    0  0.00000000000E+00  0.00000000000E+00  0.45593999997E+02  0.45594000000E+02  0.51100000000E-03 0. -1.
         11   -1    0    0    0    0 -0.00000000000E+00 -0.00000000000E+00 -0.45593999997E+02  0.45594000000E+02  0.51100000000E-03 0.  1.
    9900012    2    1    2    0    0  0.28412243170E+02  0.17783718298E+02 -0.30093142003E+02  0.46142318808E+02  0.10000009546E+02 0.  0.
         12    1    1    2    0    0 -0.28412243170E+02 -0.17783718298E+02  0.30093142003E+02  0.45045681192E+02  0.00000000000E+00 0. -1.
         11    1    3    3    0    0  0.53715770071E+01  0.18931953168E+01 -0.21667105106E+01  0.60936575838E+01  0.51100000000E-03 0. -1.
        -11    1    3    3    0    0  0.15152279744E+01  0.26716691806E+01 -0.53540687251E+01  0.61725022640E+01  0.51100000000E-03 0.  1.
        -12    1    3    3    0    0  0.21525438189E+02  0.13218853801E+02 -0.22572362767E+02  0.33876158960E+02  0.00000000000E+00 0.  1.
</event>
<event>
 7    1  0.1385632E-008  0.4614232E+02  0.7816164E-02  0.1320468E+00
        -11   -1    0    0    0    0  0.00000000000E+00  0.00000000000E+00  0.45593999997E+02  0.45594000000E+02  0.51100000000E-03 0.  1.
         11   -1    0    0    0    0 -0.00000000000E+00 -0.00000000000E+00 -0.45593999997E+02  0.45594000000E+02  0.51100000000E-03 0. -1.
    9900012    2    1    2    0    0 -0.26834864159E+02  0.24182017210E+02  0.26911589150E+02  0.46142317395E+02  0.99999966607E+01 0.  0.
         12    1    1    2    0    0  0.26834864159E+02 -0.24182017210E+02 -0.26911589150E+02  0.45045682605E+02  0.00000000000E+00 0. -1.
         11    1    3    3    0    0 -0.35219337965E+01  0.28490255370E+01  0.20378518792E+01  0.49672733688E+01  0.51100000000E-03 0. -1.
        -11    1    3    3    0    0 -0.82277089677E+01  0.25278609016E+01  0.51812354292E+01  0.10046416099E+02  0.51100000000E-03 0.  1.
        -12    1    3    3    0    0 -0.15085221395E+02  0.18805130772E+02  0.19692501841E+02  0.31128627927E+02  0.00000000000E+00 0.  1.
</event>
<event>
 7    1  0.1385632E-008  0.4614232E+02  0.7816164E-02  0.1320468E+00
        -11   -1    0    0    0    0  0.00000000000E+00  0.00000000000E+00  0.45593999997E+02  0.45594000000E+02  0.51100000000E-03 0.  1.
         11   -1    0    0    0    0 -0.00000000000E+00 -0.00000000000E+00 -0.45593999997E+02  0.45594000000E+02  0.51100000000E-03 0. -1.
    9900012    2    1    2    0    0 -0.34890706430E+02  0.27232260542E+02  0.83759235580E+01  0.46142317578E+02  0.99999983331E+01 0.  0.
         12    1    1    2    0    0  0.34890706430E+02 -0.27232260542E+02 -0.83759235580E+01  0.45045682422E+02  0.00000000000E+00 0. -1.
         11    1    3    3    0    0 -0.18295889927E+01 -0.84005297310E-01  0.87632750534E+00  0.20303701460E+01  0.51100000000E-03 0. -1.
        -11    1    3    3    0    0 -0.28158546814E+02  0.26134023413E+02  0.69208892814E+01  0.39035748323E+02  0.51100000000E-03 0.  1.
        -12    1    3    3    0    0 -0.49025706233E+01  0.11822424257E+01  0.57870677124E+00  0.50761991092E+01  0.00000000000E+00 0.  1.
</event>
<event>
 7    1  0.1385632E-008  0.4614232E+02  0.7816164E-02  0.1320468E+00
        -11   -1    0    0    0    0  0.00000000000E+00  0.00000000000E+00  0.45593999997E+02  0.45594000000E+02  0.51100000000E-03 0.  1.
         11   -1    0    0    0    0 -0.00000000000E+00 -0.00000000000E+00 -0.45593999997E+02  0.45594000000E+02  0.51100000000E-03 0. -1.
    9900012    2    1    2    0    0  0.39200438248E+02  0.21572564709E+02 -0.52022654786E+01  0.46142317931E+02  0.10000001545E+02 0.  0.
         12    1    1    2    0    0 -0.39200438248E+02 -0.21572564709E+02  0.52022654786E+01  0.45045682069E+02  0.00000000000E+00 0. -1.
         11    1    3    3    0    0  0.17358124703E+02  0.14787345912E+02 -0.19163997397E+01  0.22883240167E+02  0.51100000000E-03 0. -1.
        -11    1    3    3    0    0  0.20225103495E+02  0.69391366944E+01 -0.32934740181E+01  0.21634541844E+02  0.51100000000E-03 0.  1.
         12    1    3    3    0    0  0.16172100506E+01 -0.15391789748E+00  0.76082791670E-02  0.16245359192E+01  0.00000000000E+00 0. -1.
</event>
<event>
 7    1  0.1385632E-008  0.4614231E+02  0.7816164E-02  0.1320468E+00
        -11   -1    0    0    0    0  0.00000000000E+00  0.00000000000E+00  0.45593999997E+02  0.45594000000E+02  0.51100000000E-03 0. -1.
         11   -1    0    0    0    0 -0.00000000000E+00 -0.00000000000E+00 -0.45593999997E+02  0.45594000000E+02  0.51100000000E-03 0.  1.
    9900012    2    1    2    0    0 -0.26861441090E+02 -0.68278634924E+01 -0.35509959936E+02  0.46142312171E+02  0.99999490284E+01 0.  0.
         12    1    1    2    0    0  0.26861441090E+02  0.68278634924E+01  0.35509959936E+02  0.45045687829E+02  0.00000000000E+00 0. -1.
         11    1    3    3    0    0 -0.12480913825E+02  0.64321707009E+00 -0.10610507623E+02  0.16394200511E+02  0.51100000000E-03 0. -1.
        -11    1    3    3    0    0 -0.78615795733E+01 -0.38450386318E+01 -0.12092190594E+02  0.14926815772E+02  0.51100000000E-03 0.  1.
         12    1    3    3    0    0 -0.65189476923E+01 -0.36260419306E+01 -0.12807261719E+02  0.14821295889E+02  0.00000000000E+00 0. -1.
</event>
<event>
 7    1  0.1385632E-008  0.4614232E+02  0.7816164E-02  0.1320468E+00
        -11   -1    0    0    0    0  0.00000000000E+00  0.00000000000E+00  0.45593999997E+02  0.45594000000E+02  0.51100000000E-03 0.  1.
         11   -1    0    0    0    0 -0.00000000000E+00 -0.00000000000E+00 -0.45593999997E+02  0.45594000000E+02  0.51100000000E-03 0. -1.
    9900012    2    1    2    0    0  0.54743509603E+01  0.27956802642E+01  0.44624310215E+02  0.46142318645E+02  0.10000008062E+02 0.  0.
         12    1    1    2    0    0 -0.54743509603E+01 -0.27956802642E+01 -0.44624310215E+02  0.45045681355E+02  0.00000000000E+00 0. -1.
         11    1    3    3    0    0  0.42859022219E+01 -0.29210599410E+01  0.16874660454E+02  0.17653773385E+02  0.51100000000E-03 0. -1.
        -11    1    3    3    0    0  0.28458259844E+00  0.50570585350E+01  0.25202522087E+02  0.25706457323E+02  0.51100000000E-03 0.  1.
         12    1    3    3    0    0  0.90386613993E+00  0.65968167023E+00  0.25471276734E+01  0.27820879371E+01  0.00000000000E+00 0. -1.
</event>
<event>
 7    1  0.1385632E-008  0.4614232E+02  0.7816164E-02  0.1320468E+00
        -11   -1    0    0    0    0  0.00000000000E+00  0.00000000000E+00  0.45593999997E+02  0.45594000000E+02  0.51100000000E-03 0.  1.
         11   -1    0    0    0    0 -0.00000000000E+00 -0.00000000000E+00 -0.45593999997E+02  0.45594000000E+02  0.51100000000E-03 0. -1.
    9900012    2    1    2    0    0  0.31827994447E+02 -0.12480529254E+02  0.29331359747E+02  0.46142317570E+02  0.99999982609E+01 0.  0.
         12    1    1    2    0    0 -0.31827994447E+02  0.12480529254E+02 -0.29331359747E+02  0.45045682430E+02  0.00000000000E+00 0. -1.
         11    1    3    3    0    0  0.10060975011E+01 -0.12747594210E+01 -0.31072982099E+00  0.16534198033E+01  0.51100000000E-03 0. -1.
        -11    1    3    3    0    0  0.22765040338E+02 -0.82297651835E+01  0.18758368257E+02  0.30624377161E+02  0.51100000000E-03 0.  1.
        -12    1    3    3    0    0  0.80568566074E+01 -0.29760046494E+01  0.10883721311E+02  0.13864520606E+02  0.00000000000E+00 0.  1.
</event>
<event>
 7    1  0.1385632E-008  0.4614232E+02  0.7816164E-02  0.1320468E+00
        -11   -1    0    0    0    0  0.00000000000E+00  0.00000000000E+00  0.45593999997E+02  0.45594000000E+02  0.51100000000E-03 0.  1.
         11   -1    0    0    0    0 -0.00000000000E+00 -0.00000000000E+00 -0.45593999997E+02  0.45594000000E+02  0.51100000000E-03 0. -1.
    9900012    2    1    2    0    0 -0.34415033965E+02 -0.14014749086E+01  0.29030238548E+02  0.46142318244E+02  0.10000004405E+02 0.  0.
         12    1    1    2    0    0  0.34415033965E+02  0.14014749086E+01 -0.29030238548E+02  0.45045681756E+02  0.00000000000E+00 0. -1.
         11    1    3    3    0    0 -0.24048327616E+01 -0.19030440820E+01  0.34321828858E+01  0.46026815023E+01  0.51100000000E-03 0. -1.
        -11    1    3    3    0    0 -0.26397068594E+02 -0.17334264487E+01  0.18854187385E+02  0.32485233258E+02  0.51100000000E-03 0.  1.
        -12    1    3    3    0    0 -0.56131326097E+01  0.22349956221E+01  0.67438682763E+01  0.90544034841E+01  0.00000000000E+00 0.  1.
</event>
<event>
 7    1  0.1385632E-008  0.4614232E+02  0.7816164E-02  0.1320468E+00
        -11   -1    0    0    0    0  0.00000000000E+00  0.00000000000E+00  0.45593999997E+02  0.45594000000E+02  0.51100000000E-03 0. -1.
         11   -1    0    0    0    0 -0.00000000000E+00 -0.00000000000E+00 -0.45593999997E+02  0.45594000000E+02  0.51100000000E-03 0.  1.
    9900012    2    1    2    0    0 -0.41689094244E+02 -0.10515298803E+02 -0.13437314317E+02  0.46142317589E+02  0.99999984305E+01 0.  0.
         12    1    1    2    0    0  0.41689094244E+02  0.10515298803E+02  0.13437314317E+02  0.45045682411E+02  0.00000000000E+00 0. -1.
         11    1    3    3    0    0 -0.17916012570E+01 -0.45719751244E+00 -0.32352483545E+01  0.37263516750E+01  0.51100000000E-03 0. -1.
        -11    1    3    3    0    0 -0.31876704887E+02 -0.80096820401E+01 -0.75538742341E+01  0.33724476823E+02  0.51100000000E-03 0.  1.
         12    1    3    3    0    0 -0.80207881009E+01 -0.20484192501E+01 -0.26481917279E+01  0.86914890906E+01  0.00000000000E+00 0. -1.
</event>
<event>
 7    1  0.1385632E-008  0.4614232E+02  0.7816164E-02  0.1320468E+00
        -11   -1    0    0    0    0  0.00000000000E+00  0.00000000000E+00  0.45593999997E+02  0.45594000000E+02  0.51100000000E-03 0.  1.
         11   -1    0    0    0    0 -0.00000000000E+00 -0.00000000000E+00 -0.45593999997E+02  0.45594000000E+02  0.51100000000E-03 0. -1.
    9900012    2    1    2    0    0  0.10913400270E+02  0.43378852675E+02 -0.53184899204E+01  0.46142317634E+02  0.99999988389E+01 0.  0.
         12    1    1    2    0    0 -0.10913400270E+02 -0.43378852675E+02  0.53184899204E+01  0.45045682366E+02  0.00000000000E+00 0. -1.
         11    1    3    3    0    0 -0.15529368688E+01  0.28026321780E+01 -0.89705176315E+00  0.33273205693E+01  0.51100000000E-03 0. -1.
        -11    1    3    3    0    0  0.10281233824E+02  0.36839464180E+02 -0.42532970656E+01  0.38482988790E+02  0.51100000000E-03 0.  1.
         12    1    3    3    0    0  0.21851033148E+01  0.37367563161E+01 -0.16814109163E+00  0.43320082744E+01  0.00000000000E+00 0. -1.
</event>
<event>
 7    1  0.1385632E-008  0.4614232E+02  0.7816164E-02  0.1320468E+00
        -11   -1    0    0    0    0  0.00000000000E+00  0.00000000000E+00  0.45593999997E+02  0.45594000000E+02  0.51100000000E-03 0.  1.
         11   -1    0    0    0    0 -0.00000000000E+00 -0.00000000000E+00 -0.45593999997E+02  0.45594000000E+02  0.51100000000E-03 0. -1.
    9900012    2    1    2    0    0  0.23140842707E+02 -0.11622594846E+01  0.38629832694E+02  0.46142318494E+02  0.10000006686E+02 0.  0.
         12    1    1    2    0    0 -0.23140842707E+02  0.11622594846E+01 -0.38629832694E+02  0.45045681506E+02  0.00000000000E+00 0. -1.
         11    1    3    3    0    0  0.78441008078E+01  0.10516341497E+01  0.79433872828E+01  0.11213084038E+02  0.51100000000E-03 0.  1.
        -11    1    3    3    0    0  0.20367516413E+01  0.14952414017E+00  0.10263946824E+02  0.10465147843E+02  0.51100000000E-03 0. -1.
         12    1    3    3    0    0  0.13259990258E+02 -0.23634177745E+01  0.20422498587E+02  0.24464086612E+02  0.00000000000E+00 0. -1.
</event>
<event>
 7    1  0.1385632E-008  0.4614232E+02  0.7816164E-02  0.1320468E+00
        -11   -1    0    0    0    0  0.00000000000E+00  0.00000000000E+00  0.45593999997E+02  0.45594000000E+02  0.51100000000E-03 0.  1.
         11   -1    0    0    0    0 -0.00000000000E+00 -0.00000000000E+00 -0.45593999997E+02  0.45594000000E+02  0.51100000000E-03 0. -1.
    9900012    2    1    2    0    0  0.22326758824E+02  0.28571931946E+02  0.26725905888E+02  0.46142317629E+02  0.99999987969E+01 0.  0.
         12    1    1    2    0    0 -0.22326758824E+02 -0.28571931946E+02 -0.26725905888E+02  0.45045682371E+02  0.00000000000E+00 0. -1.
         11    1    3    3    0    0  0.21780688853E+01  0.18787958735E+01  0.11566234994E+01  0.31002638894E+01  0.51100000000E-03 0. -1.
        -11    1    3    3    0    0  0.10653849991E+02  0.19367300355E+02  0.12882579510E+02  0.25584325236E+02  0.51100000000E-03 0.  1.
        -12    1    3    3    0    0  0.94948399475E+01  0.73258357173E+01  0.12686702879E+02  0.17457728504E+02  0.00000000000E+00 0.  1.
</event>
<event>
 7    1  0.1385632E-008  0.4614232E+02  0.7816164E-02  0.1320468E+00
        -11   -1    0    0    0    0  0.00000000000E+00  0.00000000000E+00  0.45593999997E+02  0.45594000000E+02  0.51100000000E-03 0. -1.
         11   -1    0    0    0    0 -0.00000000000E+00 -0.00000000000E+00 -0.45593999997E+02  0.45594000000E+02  0.51100000000E-03 0.  1.
    9900012    2    1    2    0    0  0.42049112948E+02  0.95162668939E+01  0.13054747630E+02  0.46142315734E+02  0.99999815188E+01 0.  0.
         12    1    1    2    0    0 -0.42049112948E+02 -0.95162668939E+01 -0.13054747630E+02  0.45045684266E+02  0.00000000000E+00 0. -1.
         11    1    3    3    0    0  0.18967409284E+01  0.14695572203E+01  0.26274552876E+01  0.35581942222E+01  0.51100000000E-03 0. -1.
        -11    1    3    3    0    0  0.31155347934E+02  0.52973388647E+01  0.59192579004E+01  0.32152062427E+02  0.51100000000E-03 0.  1.
        -12    1    3    3    0    0  0.89970240849E+01  0.27493708089E+01  0.45080344418E+01  0.10432059085E+02  0.00000000000E+00 0.  1.
</event>
<event>
 7    1  0.1385632E-008  0.4614232E+02  0.7816164E-02  0.1320468E+00
        -11   -1    0    0    0    0  0.00000000000E+00  0.00000000000E+00  0.45593999997E+02  0.45594000000E+02  0.51100000000E-03 0. -1.
         11   -1    0    0    0    0 -0.00000000000E+00 -0.00000000000E+00 -0.45593999997E+02  0.45594000000E+02  0.51100000000E-03 0.  1.
    9900012    2    1    2    0    0  0.74171096259E+00  0.43109730771E+02  0.13042796480E+02  0.46142316940E+02  0.99999925164E+01 0.  0.
         12    1    1    2    0    0 -0.74171096259E+00 -0.43109730771E+02 -0.13042796480E+02  0.45045683060E+02  0.00000000000E+00 0. -1.
         11    1    3    3    0    0 -0.90677897053E+00  0.11374568126E+02  0.44974908031E+01  0.12265010067E+02  0.51100000000E-03 0. -1.
        -11    1    3    3    0    0  0.50586345429E+00  0.29550419818E+02  0.97655773969E+01  0.31126350757E+02  0.51100000000E-03 0.  1.
        -12    1    3    3    0    0  0.11426264788E+01  0.21847428260E+01 -0.12202717195E+01  0.27509561166E+01  0.00000000000E+00 0.  1.
</event>
<event>
 7    1  0.1385632E-008  0.4614232E+02  0.7816164E-02  0.1320468E+00
        -11   -1    0    0    0    0  0.00000000000E+00  0.00000000000E+00  0.45593999997E+02  0.45594000000E+02  0.51100000000E-03 0. -1.
         11   -1    0    0    0    0 -0.00000000000E+00 -0.00000000000E+00 -0.45593999997E+02  0.45594000000E+02  0.51100000000E-03 0.  1.
    9900012    2    1    2    0    0  0.21635782302E+02  0.25151205418E+02 -0.30470032193E+02  0.46142322386E+02  0.10000042174E+02 0.  0.
         12    1    1    2    0    0 -0.21635782302E+02 -0.25151205418E+02  0.30470032193E+02  0.45045677614E+02  0.00000000000E+00 0. -1.
         11    1    3    3    0    0  0.24015027789E+01  0.41735592904E+00 -0.50256901019E+01  0.55856031751E+01  0.51100000000E-03 0. -1.
        -11    1    3    3    0    0  0.18263728896E+02  0.24014798223E+02 -0.25230497718E+02  0.39330043761E+02  0.51100000000E-03 0.  1.
         12    1    3    3    0    0  0.97055062765E+00  0.71905126622E+00 -0.21384437393E+00  0.12266754504E+01  0.00000000000E+00 0. -1.
</event>
<event>
 7    1  0.1385632E-008  0.4614232E+02  0.7816164E-02  0.1320468E+00
        -11   -1    0    0    0    0  0.00000000000E+00  0.00000000000E+00  0.45593999997E+02  0.45594000000E+02  0.51100000000E-03 0.  1.
         11   -1    0    0    0    0 -0.00000000000E+00 -0.00000000000E+00 -0.45593999997E+02  0.45594000000E+02  0.51100000000E-03 0. -1.
    9900012    2    1    2    0    0  0.28848218174E+02 -0.11899660251E+02  0.32485251848E+02  0.46142321034E+02  0.10000029842E+02 0.  0.
         12    1    1    2    0    0 -0.28848218174E+02  0.11899660251E+02 -0.32485251848E+02  0.45045678966E+02  0.00000000000E+00 0. -1.
         11    1    3    3    0    0  0.59626289819E+01  0.61727956385E+00  0.42020498220E+01  0.73206011641E+01  0.51100000000E-03 0. -1.
        -11    1    3    3    0    0  0.20174044317E+02 -0.10493441034E+02  0.26743783992E+02  0.35104620085E+02  0.51100000000E-03 0.  1.
        -12    1    3    3    0    0  0.27115448746E+01 -0.20234987808E+01  0.15394180338E+01  0.37170997842E+01  0.00000000000E+00 0.  1.
</event>
<event>
 7    1  0.1385632E-008  0.4614232E+02  0.7816164E-02  0.1320468E+00
        -11   -1    0    0    0    0  0.00000000000E+00  0.00000000000E+00  0.45593999997E+02  0.45594000000E+02  0.51100000000E-03 0.  1.
         11   -1    0    0    0    0 -0.00000000000E+00 -0.00000000000E+00 -0.45593999997E+02  0.45594000000E+02  0.51100000000E-03 0. -1.
    9900012    2    1    2    0    0 -0.40275209870E+01 -0.44119045433E+02 -0.81487661298E+01  0.46142317803E+02  0.10000000378E+02 0.  0.
         12    1    1    2    0    0  0.40275209870E+01  0.44119045433E+02  0.81487661298E+01  0.45045682197E+02  0.00000000000E+00 0. -1.
         11    1    3    3    0    0  0.28111069397E+01 -0.93944986565E+01 -0.31849500527E+01  0.10310326587E+02  0.51100000000E-03 0. -1.
        -11    1    3    3    0    0 -0.15793412387E+01 -0.10356611893E+02 -0.36752992044E+00  0.10482786231E+02  0.51100000000E-03 0.  1.
         12    1    3    3    0    0 -0.52592866880E+01 -0.24367934883E+02 -0.45962861567E+01  0.25349204985E+02  0.00000000000E+00 0. -1.
</event>
<event>
 7    1  0.1385632E-008  0.4614232E+02  0.7816164E-02  0.1320468E+00
        -11   -1    0    0    0    0  0.00000000000E+00  0.00000000000E+00  0.45593999997E+02  0.45594000000E+02  0.51100000000E-03 0.  1.
         11   -1    0    0    0    0 -0.00000000000E+00 -0.00000000000E+00 -0.45593999997E+02  0.45594000000E+02  0.51100000000E-03 0. -1.
    9900012    2    1    2    0    0 -0.28626608073E+02  0.19219140929E+02  0.28987160139E+02  0.46142317402E+02  0.99999967214E+01 0.  0.
         12    1    1    2    0    0  0.28626608073E+02 -0.19219140929E+02 -0.28987160139E+02  0.45045682598E+02  0.00000000000E+00 0. -1.
         11    1    3    3    0    0 -0.49600261331E+01  0.11852809701E+00  0.41794744581E+01  0.64872116628E+01  0.51100000000E-03 0. -1.
        -11    1    3    3    0    0 -0.17902935206E+02  0.11073112460E+02  0.17184892665E+02  0.27174426299E+02  0.51100000000E-03 0.  1.
        -12    1    3    3    0    0 -0.57636467340E+01  0.80275003720E+01  0.76227930163E+01  0.12480679439E+02  0.00000000000E+00 0.  1.
</event>
<event>
 7    1  0.1385632E-008  0.4614232E+02  0.7816164E-02  0.1320468E+00
        -11   -1    0    0    0    0  0.00000000000E+00  0.00000000000E+00  0.45593999997E+02  0.45594000000E+02  0.51100000000E-03 0.  1.
         11   -1    0    0    0    0 -0.00000000000E+00 -0.00000000000E+00 -0.45593999997E+02  0.45594000000E+02  0.51100000000E-03 0. -1.
    9900012    2    1    2    0    0  0.33269366187E+02 -0.29872571504E+02  0.54673770393E+01  0.46142318004E+02  0.10000002219E+02 0.  0.
         12    1    1    2    0    0 -0.33269366187E+02  0.29872571504E+02 -0.54673770393E+01  0.45045681996E+02  0.00000000000E+00 0. -1.
         11    1    3    3    0    0  0.83162512361E+01 -0.59546985183E+01  0.19237458900E+01  0.10407654278E+02  0.51100000000E-03 0. -1.
        -11    1    3    3    0    0  0.11639302476E+02 -0.10192647300E+02  0.57082535530E+01  0.16490833211E+02  0.51100000000E-03 0.  1.
        -12    1    3    3    0    0  0.13313812475E+02 -0.13725225686E+02 -0.21646224037E+01  0.19243830515E+02  0.00000000000E+00 0.  1.
</event>
<event>
 7    1  0.1385632E-008  0.4614232E+02  0.7816164E-02  0.1320468E+00
        -11   -1    0    0    0    0  0.00000000000E+00  0.00000000000E+00  0.45593999997E+02  0.45594000000E+02  0.51100000000E-03 0.  1.
         11   -1    0    0    0    0 -0.00000000000E+00 -0.00000000000E+00 -0.45593999997E+02  0.45594000000E+02  0.51100000000E-03 0. -1.
    9900012    2    1    2    0    0  0.16923159293E+02  0.15675131688E+02  0.38691219262E+02  0.46142317390E+02  0.99999966119E+01 0.  0.
         12    1    1    2    0    0 -0.16923159293E+02 -0.15675131688E+02 -0.38691219262E+02  0.45045682610E+02  0.00000000000E+00 0. -1.
         11    1    3    3    0    0 -0.75207389516E-01 -0.76551505763E+00  0.15815005218E+01  0.17586397063E+01  0.51100000000E-03 0. -1.
        -11    1    3    3    0    0  0.10813147331E+02  0.13666970378E+02  0.28768723356E+02  0.33635541891E+02  0.51100000000E-03 0.  1.
         12    1    3    3    0    0  0.61852193507E+01  0.27736763677E+01  0.83409953839E+01  0.10748135792E+02  0.00000000000E+00 0. -1.
</event>
<event>
 7    1  0.1385632E-008  0.4614232E+02  0.7816164E-02  0.1320468E+00
        -11   -1    0    0    0    0  0.00000000000E+00  0.00000000000E+00  0.45593999997E+02  0.45594000000E+02  0.51100000000E-03 0. -1.
         11   -1    0    0    0    0 -0.00000000000E+00 -0.00000000000E+00 -0.45593999997E+02  0.45594000000E+02  0.51100000000E-03 0.  1.
    9900012    2    1    2    0    0  0.37348969157E+02 -0.25175360229E+02  0.60762509809E+00  0.46142317987E+02  0.10000002056E+02 0.  0.
         12    1    1    2    0    0 -0.37348969157E+02  0.25175360229E+02 -0.60762509809E+00  0.45045682013E+02  0.00000000000E+00 0. -1.
         11    1    3    3    0    0  0.98360351576E+01 -0.63135483022E+01 -0.25461181676E+01  0.11962073306E+02  0.51100000000E-03 0.  1.
        -11    1    3    3    0    0  0.22151525399E+02 -0.13872897232E+02 -0.17033162660E+00  0.26137642745E+02  0.51100000000E-03 0. -1.
         12    1    3    3    0    0  0.53614086005E+01 -0.49889146949E+01  0.33240748923E+01  0.80426019362E+01  0.00000000000E+00 0. -1.
</event>
<event>
 7    1  0.1385632E-008  0.4614232E+02  0.7816164E-02  0.1320468E+00
        -11   -1    0    0    0    0  0.00000000000E+00  0.00000000000E+00  0.45593999997E+02  0.45594000000E+02  0.51100000000E-03 0.  1.
         11   -1    0    0    0    0 -0.00000000000E+00 -0.00000000000E+00 -0.45593999997E+02  0.45594000000E+02  0.51100000000E-03 0. -1.
    9900012    2    1    2    0    0  0.26465141379E+02 -0.31772848940E+02 -0.17866053058E+02  0.46142317745E+02  0.99999998527E+01 0.  0.
         12    1    1    2    0    0 -0.26465141379E+02  0.31772848940E+02  0.17866053058E+02  0.45045682255E+02  0.00000000000E+00 0. -1.
         11    1    3    3    0    0  0.14042588871E+01 -0.30921935242E+00  0.46132943801E+00  0.15100942823E+01  0.51100000000E-03 0. -1.
        -11    1    3    3    0    0  0.23135160370E+02 -0.30937676585E+02 -0.16836849770E+02  0.42140894488E+02  0.51100000000E-03 0.  1.
         12    1    3    3    0    0  0.19257221212E+01 -0.52595300194E+00 -0.14905327267E+01  0.24913289742E+01  0.00000000000E+00 0. -1.
</event>
<event>
 7    1  0.1539107E-008  0.4614232E+02  0.7816164E-02  0.1320468E+00
        -11   -1    0    0    0    0  0.00000000000E+00  0.00000000000E+00  0.45593999997E+02  0.45594000000E+02  0.51100000000E-03 0. -1.
         11   -1    0    0    0    0 -0.00000000000E+00 -0.00000000000E+00 -0.45593999997E+02  0.45594000000E+02  0.51100000000E-03 0.  1.
    9900012    2    1    2    0    0 -0.43504322746E+00  0.42320910909E+02 -0.15422860149E+02  0.46142318987E+02  0.10000011178E+02 0.  0.
         12    1    1    2    0    0  0.43504322746E+00 -0.42320910909E+02  0.15422860149E+02  0.45045681013E+02  0.00000000000E+00 0. -1.
         11    1    3    3    0    0 -0.12439651521E+01  0.14497444125E+02 -0.12803188330E+01  0.14606935066E+02  0.51100000000E-03 0. -1.
        -11    1    3    3    0    0  0.12090868597E+01  0.16145725554E+02 -0.10494378111E+02  0.19294515203E+02  0.51100000000E-03 0.  1.
        -12    1    3    3    0    0 -0.40016493505E+00  0.11677741230E+02 -0.36481632046E+01  0.12240868718E+02  0.00000000000E+00 0.  1.
</event>
<event>
 7    1  0.1385632E-008  0.4614232E+02  0.7816164E-02  0.1320468E+00
        -11   -1    0    0    0    0  0.00000000000E+00  0.00000000000E+00  0.45593999997E+02  0.45594000000E+02  0.51100000000E-03 0. -1.
         11   -1    0    0    0    0 -0.00000000000E+00 -0.00000000000E+00 -0.45593999997E+02  0.45594000000E+02  0.51100000000E-03 0.  1.
    9900012    2    1    2    0    0  0.30574089629E+01 -0.44941762814E+02  0.60691660612E-01  0.46142317878E+02  0.10000001064E+02 0.  0.
         12    1    1    2    0    0 -0.30574089629E+01  0.44941762814E+02 -0.60691660612E-01  0.45045682122E+02  0.00000000000E+00 0. -1.
         11    1    3    3    0    0 -0.12218606444E+01 -0.44394472591E+00 -0.19096434922E+00  0.13139627079E+01  0.51100000000E-03 0. -1.
        -11    1    3    3    0    0  0.47399850495E+01 -0.35194475661E+02  0.99597826928E-01  0.35512371017E+02  0.51100000000E-03 0.  1.
         12    1    3    3    0    0 -0.46071544221E+00 -0.93033424273E+01  0.15205818291E+00  0.93159841525E+01  0.00000000000E+00 0. -1.
</event>
<event>
 7    1  0.1385632E-008  0.4614232E+02  0.7816164E-02  0.1320468E+00
        -11   -1    0    0    0    0  0.00000000000E+00  0.00000000000E+00  0.45593999997E+02  0.45594000000E+02  0.51100000000E-03 0. -1.
         11   -1    0    0    0    0 -0.00000000000E+00 -0.00000000000E+00 -0.45593999997E+02  0.45594000000E+02  0.51100000000E-03 0.  1.
    9900012    2    1    2    0    0  0.13833071137E+02 -0.10805708047E+02 -0.41484886809E+02  0.46142322993E+02  0.10000047706E+02 0.  0.
         12    1    1    2    0    0 -0.13833071137E+02  0.10805708047E+02  0.41484886809E+02  0.45045677007E+02  0.00000000000E+00 0. -1.
         11    1    3    3    0    0  0.18858687495E+01 -0.55359001497E+01 -0.14639439060E+02  0.15764386054E+02  0.51100000000E-03 0. -1.
        -11    1    3    3    0    0  0.86868275156E+01 -0.33166809817E+01 -0.23650749964E+02  0.25412975409E+02  0.51100000000E-03 0.  1.
         12    1    3    3    0    0  0.32603748722E+01 -0.19531269157E+01 -0.31946977858E+01  0.49649615304E+01  0.00000000000E+00 0. -1.
</event>
<event>
 7    1  0.1385632E-008  0.4614232E+02  0.7816164E-02  0.1320468E+00
        -11   -1    0    0    0    0  0.00000000000E+00  0.00000000000E+00  0.45593999997E+02  0.45594000000E+02  0.51100000000E-03 0. -1.
         11   -1    0    0    0    0 -0.00000000000E+00 -0.00000000000E+00 -0.45593999997E+02  0.45594000000E+02  0.51100000000E-03 0.  1.
    9900012    2    1    2    0    0 -0.15755803149E+02  0.27284017577E+02 -0.32193951456E+02  0.46142318095E+02  0.10000003040E+02 0.  0.
         12    1    1    2    0    0  0.15755803149E+02 -0.27284017577E+02  0.32193951456E+02  0.45045681905E+02  0.00000000000E+00 0. -1.
         11    1    3    3    0    0 -0.67778868698E+00  0.55187578923E+01 -0.50404327963E+01  0.75048017437E+01  0.51100000000E-03 0. -1.
        -11    1    3    3    0    0 -0.84877810186E+00  0.50259010522E+01 -0.80265162959E+01  0.95081580636E+01  0.51100000000E-03 0.  1.
        -12    1    3    3    0    0 -0.14229236360E+02  0.16739358632E+02 -0.19127002364E+02  0.29129358287E+02  0.00000000000E+00 0.  1.
</event>
<event>
 7    1  0.1385632E-008  0.4614232E+02  0.7816164E-02  0.1320468E+00
        -11   -1    0    0    0    0  0.00000000000E+00  0.00000000000E+00  0.45593999997E+02  0.45594000000E+02  0.51100000000E-03 0. -1.
         11   -1    0    0    0    0 -0.00000000000E+00 -0.00000000000E+00 -0.45593999997E+02  0.45594000000E+02  0.51100000000E-03 0.  1.
    9900012    2    1    2    0    0  0.11735829680E+02 -0.32501804549E+02 -0.28896652393E+02  0.46142317446E+02  0.99999971273E+01 0.  0.
         12    1    1    2    0    0 -0.11735829680E+02  0.32501804549E+02  0.28896652393E+02  0.45045682554E+02  0.00000000000E+00 0. -1.
         11    1    3    3    0    0  0.13692988076E+01 -0.87868520324E+01 -0.26505626037E+01  0.92795059266E+01  0.51100000000E-03 0. -1.
        -11    1    3    3    0    0  0.59726145852E+01 -0.13455359300E+02 -0.14686280893E+02  0.20794366198E+02  0.51100000000E-03 0.  1.
         12    1    3    3    0    0  0.43939162872E+01 -0.10259593217E+02 -0.11559808896E+02  0.16068445321E+02  0.00000000000E+00 0. -1.
</event>
<event>
 7    1  0.1385632E-008  0.4614232E+02  0.7816164E-02  0.1320468E+00
        -11   -1    0    0    0    0  0.00000000000E+00  0.00000000000E+00  0.45593999997E+02  0.45594000000E+02  0.51100000000E-03 0. -1.
         11   -1    0    0    0    0 -0.00000000000E+00 -0.00000000000E+00 -0.45593999997E+02  0.45594000000E+02  0.51100000000E-03 0.  1.
    9900012    2    1    2    0    0  0.30808806656E+02 -0.24307207817E+02 -0.22115391096E+02  0.46142318267E+02  0.10000004616E+02 0.  0.
         12    1    1    2    0    0 -0.30808806656E+02  0.24307207817E+02  0.22115391096E+02  0.45045681733E+02  0.00000000000E+00 0. -1.
         11    1    3    3    0    0  0.17570224029E+02 -0.11875037193E+02 -0.10935693658E+02  0.23860399762E+02  0.51100000000E-03 0. -1.
        -11    1    3    3    0    0  0.13759793722E+02 -0.11607338967E+02 -0.11364551033E+02  0.21288852990E+02  0.51100000000E-03 0.  1.
        -12    1    3    3    0    0 -0.52121109425E+00 -0.82483165642E+00  0.18485359572E+00  0.99306551549E+00  0.00000000000E+00 0.  1.
</event>
<event>
 7    1  0.1385632E-008  0.4614232E+02  0.7816164E-02  0.1320468E+00
        -11   -1    0    0    0    0  0.00000000000E+00  0.00000000000E+00  0.45593999997E+02  0.45594000000E+02  0.51100000000E-03 0.  1.
         11   -1    0    0    0    0 -0.00000000000E+00 -0.00000000000E+00 -0.45593999997E+02  0.45594000000E+02  0.51100000000E-03 0. -1.
    9900012    2    1    2    0    0 -0.28546564502E+02 -0.29811540768E+02  0.18041040953E+02  0.46142318004E+02  0.10000002217E+02 0.  0.
         12    1    1    2    0    0  0.28546564502E+02  0.29811540768E+02 -0.18041040953E+02  0.45045681996E+02  0.00000000000E+00 0. -1.
         11    1    3    3    0    0 -0.20934222644E+01 -0.15400421698E+01  0.39889850566E+01  0.47608978885E+01  0.51100000000E-03 0. -1.
        -11    1    3    3    0    0 -0.18453809304E+02 -0.21754072294E+02  0.91538095906E+01  0.29959555562E+02  0.51100000000E-03 0.  1.
         12    1    3    3    0    0 -0.79993329336E+01 -0.65174263039E+01  0.48982463061E+01  0.11421864554E+02  0.00000000000E+00 0. -1.
</event>
<event>
 7    1  0.1385632E-008  0.4614232E+02  0.7816164E-02  0.1320468E+00
        -11   -1    0    0    0    0  0.00000000000E+00  0.00000000000E+00  0.45593999997E+02  0.45594000000E+02  0.51100000000E-03 0.  1.
         11   -1    0    0    0    0 -0.00000000000E+00 -0.00000000000E+00 -0.45593999997E+02  0.45594000000E+02  0.51100000000E-03 0. -1.
    9900012    2    1    2    0    0 -0.27489004251E+02 -0.86427574540E+01  0.34623272513E+02  0.46142316404E+02  0.99999876210E+01 0.  0.
         12    1    1    2    0    0  0.27489004251E+02  0.86427574540E+01 -0.34623272513E+02  0.45045683596E+02  0.00000000000E+00 0. -1.
         11    1    3    3    0    0 -0.91515761576E+01 -0.15500205989E+01  0.81371725963E+01  0.12343722621E+02  0.51100000000E-03 0. -1.
        -11    1    3    3    0    0 -0.39054667118E+01  0.14170868957E+01  0.65606489910E+01  0.77654955380E+01  0.51100000000E-03 0.  1.
        -12    1    3    3    0    0 -0.14431961382E+02 -0.85098237508E+01  0.19925450926E+02  0.26033098244E+02  0.00000000000E+00 0.  1.
</event>
<event>
 7    1  0.1385632E-008  0.4614232E+02  0.7816164E-02  0.1320468E+00
        -11   -1    0    0    0    0  0.00000000000E+00  0.00000000000E+00  0.45593999997E+02  0.45594000000E+02  0.51100000000E-03 0.  1.
         11   -1    0    0    0    0 -0.00000000000E+00 -0.00000000000E+00 -0.45593999997E+02  0.45594000000E+02  0.51100000000E-03 0. -1.
    9900012    2    1    2    0    0  0.41649563190E+02  0.44148892201E+01  0.16581199396E+02  0.46142317252E+02  0.99999953619E+01 0.  0.
         12    1    1    2    0    0 -0.41649563190E+02 -0.44148892201E+01 -0.16581199396E+02  0.45045682748E+02  0.00000000000E+00 0. -1.
         11    1    3    3    0    0  0.10711789550E+02  0.38598735072E+01  0.38105203845E+01  0.12006711653E+02  0.51100000000E-03 0. -1.
        -11    1    3    3    0    0  0.38973779624E+01 -0.15891192062E+01  0.13340149127E+00  0.42110154419E+01  0.51100000000E-03 0.  1.
        -12    1    3    3    0    0  0.27040395678E+02  0.21441349190E+01  0.12637277520E+02  0.29924590157E+02  0.00000000000E+00 0.  1.
</event>
<event>
 7    1  0.1385632E-008  0.4614231E+02  0.7816164E-02  0.1320468E+00
        -11   -1    0    0    0    0  0.00000000000E+00  0.00000000000E+00  0.45593999997E+02  0.45594000000E+02  0.51100000000E-03 0.  1.
         11   -1    0    0    0    0 -0.00000000000E+00 -0.00000000000E+00 -0.45593999997E+02  0.45594000000E+02  0.51100000000E-03 0. -1.
    9900012    2    1    2    0    0  0.14390499206E+02  0.16094893686E+02  0.39534565291E+02  0.46142312937E+02  0.99999560143E+01 0.  0.
         12    1    1    2    0    0 -0.14390499206E+02 -0.16094893686E+02 -0.39534565291E+02  0.45045687063E+02  0.00000000000E+00 0. -1.
         11    1    3    3    0    0  0.86390983959E+01  0.10065098070E+02  0.20595314043E+02  0.24497085154E+02  0.51100000000E-03 0. -1.
        -11    1    3    3    0    0  0.65528496200E+01  0.47028479493E+01  0.11502559857E+02  0.14048683230E+02  0.51100000000E-03 0.  1.
         12    1    3    3    0    0 -0.80144880966E+00  0.13269476670E+01  0.74366913904E+01  0.75965445527E+01  0.00000000000E+00 0. -1.
</event>
<event>
 7    1  0.1385632E-008  0.4614232E+02  0.7816164E-02  0.1320468E+00
        -11   -1    0    0    0    0  0.00000000000E+00  0.00000000000E+00  0.45593999997E+02  0.45594000000E+02  0.51100000000E-03 0.  1.
         11   -1    0    0    0    0 -0.00000000000E+00 -0.00000000000E+00 -0.45593999997E+02  0.45594000000E+02  0.51100000000E-03 0. -1.
    9900012    2    1    2    0    0  0.22790619204E+02  0.15328193197E+02  0.35703609086E+02  0.46142317275E+02  0.99999955644E+01 0.  0.
         12    1    1    2    0    0 -0.22790619204E+02 -0.15328193197E+02 -0.35703609086E+02  0.45045682725E+02  0.00000000000E+00 0. -1.
         11    1    3    3    0    0  0.11656507728E+02  0.31368500250E+01  0.15796567222E+02  0.19880783102E+02  0.51100000000E-03 0. -1.
        -11    1    3    3    0    0  0.81967982393E+01  0.11148965556E+02  0.17574892338E+02  0.22368812559E+02  0.51100000000E-03 0.  1.
        -12    1    3    3    0    0  0.29373132374E+01  0.10423776161E+01  0.23321495257E+01  0.38927216134E+01  0.00000000000E+00 0.  1.
</event>
<event>
 7    1  0.1385632E-008  0.4614232E+02  0.7816164E-02  0.1320468E+00
        -11   -1    0    0    0    0  0.00000000000E+00  0.00000000000E+00  0.45593999997E+02  0.45594000000E+02  0.51100000000E-03 0. -1.
         11   -1    0    0    0    0 -0.00000000000E+00 -0.00000000000E+00 -0.45593999997E+02  0.45594000000E+02  0.51100000000E-03 0.  1.
    9900012    2    1    2    0    0 -0.16848374676E+02  0.41697045944E+02 -0.25694740001E+01  0.46142316896E+02  0.99999921108E+01 0.  0.
         12    1    1    2    0    0  0.16848374676E+02 -0.41697045944E+02  0.25694740001E+01  0.45045683104E+02  0.00000000000E+00 0. -1.
         11    1    3    3    0    0 -0.41869217735E+01  0.40926925758E+01 -0.51083791745E+00  0.58771933860E+01  0.51100000000E-03 0. -1.
        -11    1    3    3    0    0 -0.10685319179E+02  0.27578010700E+02 -0.40559826231E+01  0.29852532815E+02  0.51100000000E-03 0.  1.
        -12    1    3    3    0    0 -0.19761337231E+01  0.10026342668E+02  0.19973465405E+01  0.10412590695E+02  0.00000000000E+00 0.  1.
</event>
<event>
 7    1  0.1385632E-008  0.4614232E+02  0.7816164E-02  0.1320468E+00
        -11   -1    0    0    0    0  0.00000000000E+00  0.00000000000E+00  0.45593999997E+02  0.45594000000E+02  0.51100000000E-03 0.  1.
         11   -1    0    0    0    0 -0.00000000000E+00 -0.00000000000E+00 -0.45593999997E+02  0.45594000000E+02  0.51100000000E-03 0. -1.
    9900012    2    1    2    0    0 -0.28370611097E+02 -0.14369882507E+02  0.31901854159E+02  0.46142318785E+02  0.10000009341E+02 0.  0.
         12    1    1    2    0    0  0.28370611097E+02  0.14369882507E+02 -0.31901854159E+02  0.45045681215E+02  0.00000000000E+00 0. -1.
         11    1    3    3    0    0 -0.96245907644E+01 -0.48324339757E+01  0.55323962460E+01  0.12107542029E+02  0.51100000000E-03 0. -1.
        -11    1    3    3    0    0 -0.10062088685E+02 -0.27419978781E+01  0.11528021620E+02  0.15545400085E+02  0.51100000000E-03 0.  1.
         12    1    3    3    0    0 -0.86839316478E+01 -0.67954506528E+01  0.14841436293E+02  0.18489376671E+02  0.00000000000E+00 0. -1.
</event>
<event>
 7    1  0.1385632E-008  0.4614232E+02  0.7816164E-02  0.1320468E+00
        -11   -1    0    0    0    0  0.00000000000E+00  0.00000000000E+00  0.45593999997E+02  0.45594000000E+02  0.51100000000E-03 0. -1.
         11   -1    0    0    0    0 -0.00000000000E+00 -0.00000000000E+00 -0.45593999997E+02  0.45594000000E+02  0.51100000000E-03 0.  1.
    9900012    2    1    2    0    0  0.37794628501E+02  0.17675663546E+02  0.16977933893E+02  0.46142320245E+02  0.10000022654E+02 0.  0.
         12    1    1    2    0    0 -0.37794628501E+02 -0.17675663546E+02 -0.16977933893E+02  0.45045679755E+02  0.00000000000E+00 0. -1.
         11    1    3    3    0    0  0.18587320082E+02  0.65389086741E+01  0.53696098744E+01  0.20422499968E+02  0.51100000000E-03 0. -1.
        -11    1    3    3    0    0  0.40226688680E+01  0.47869303306E+00  0.39228605314E+01  0.56391352928E+01  0.51100000000E-03 0.  1.
        -12    1    3    3    0    0  0.15184639551E+02  0.10658061838E+02  0.76854634869E+01  0.20080684985E+02  0.00000000000E+00 0.  1.
</event>
<event>
 7    1  0.1385632E-008  0.4614232E+02  0.7816164E-02  0.1320468E+00
        -11   -1    0    0    0    0  0.00000000000E+00  0.00000000000E+00  0.45593999997E+02  0.45594000000E+02  0.51100000000E-03 0.  1.
         11   -1    0    0    0    0 -0.00000000000E+00 -0.00000000000E+00 -0.45593999997E+02  0.45594000000E+02  0.51100000000E-03 0. -1.
    9900012    2    1    2    0    0  0.15831523951E+02  0.19211661614E+02  0.37541821106E+02  0.46142318470E+02  0.10000006462E+02 0.  0.
         12    1    1    2    0    0 -0.15831523951E+02 -0.19211661614E+02 -0.37541821106E+02  0.45045681530E+02  0.00000000000E+00 0. -1.
         11    1    3    3    0    0 -0.10042976329E+00  0.32033878761E+01  0.32619657486E+01  0.45729859860E+01  0.51100000000E-03 0. -1.
        -11    1    3    3    0    0  0.55642281121E-01  0.16191017741E+01  0.52105344553E+01  0.54565791655E+01  0.51100000000E-03 0.  1.
         12    1    3    3    0    0  0.15876311433E+02  0.14389171963E+02  0.29069320902E+02  0.36112753318E+02  0.00000000000E+00 0. -1.
</event>
<event>
 7    1  0.1385632E-008  0.4614232E+02  0.7816164E-02  0.1320468E+00
        -11   -1    0    0    0    0  0.00000000000E+00  0.00000000000E+00  0.45593999997E+02  0.45594000000E+02  0.51100000000E-03 0.  1.
         11   -1    0    0    0    0 -0.00000000000E+00 -0.00000000000E+00 -0.45593999997E+02  0.45594000000E+02  0.51100000000E-03 0. -1.
    9900012    2    1    2    0    0 -0.41602628778E+02 -0.65918335531E+01 -0.15965043112E+02  0.46142316606E+02  0.99999894673E+01 0.  0.
         12    1    1    2    0    0  0.41602628778E+02  0.65918335531E+01  0.15965043112E+02  0.45045683394E+02  0.00000000000E+00 0. -1.
         11    1    3    3    0    0 -0.85368487685E+01 -0.39388561277E+01 -0.63023024127E+01  0.11318630237E+02  0.51100000000E-03 0. -1.
        -11    1    3    3    0    0 -0.51129527770E+01 -0.19179483633E+01 -0.10137005142E+01  0.55541336874E+01  0.51100000000E-03 0.  1.
         12    1    3    3    0    0 -0.27952827233E+02 -0.73502906214E+00 -0.86490401849E+01  0.29269552681E+02  0.00000000000E+00 0. -1.
</event>
<event>
 7    1  0.1385632E-008  0.4614232E+02  0.7816164E-02  0.1320468E+00
        -11   -1    0    0    0    0  0.00000000000E+00  0.00000000000E+00  0.45593999997E+02  0.45594000000E+02  0.51100000000E-03 0. -1.
         11   -1    0    0    0    0 -0.00000000000E+00 -0.00000000000E+00 -0.45593999997E+02  0.45594000000E+02  0.51100000000E-03 0.  1.
    9900012    2    1    2    0    0  0.94694909491E+01  0.57923044590E+01 -0.43656516432E+02  0.46142317890E+02  0.10000001176E+02 0.  0.
         12    1    1    2    0    0 -0.94694909491E+01 -0.57923044590E+01  0.43656516432E+02  0.45045682110E+02  0.00000000000E+00 0. -1.
         11    1    3    3    0    0  0.23192762228E+01  0.44816753670E+01 -0.74161095464E+01  0.89701247125E+01  0.51100000000E-03 0. -1.
        -11    1    3    3    0    0  0.72565666090E+01  0.14523570441E+01 -0.36247117175E+02  0.36994872667E+02  0.51100000000E-03 0.  1.
         12    1    3    3    0    0 -0.10635188263E+00 -0.14172795203E+00  0.67102892662E-02  0.17732051012E+00  0.00000000000E+00 0. -1.
</event>
<event>
 7    1  0.1385632E-008  0.4614232E+02  0.7816164E-02  0.1320468E+00
        -11   -1    0    0    0    0  0.00000000000E+00  0.00000000000E+00  0.45593999997E+02  0.45594000000E+02  0.51100000000E-03 0.  1.
         11   -1    0    0    0    0 -0.00000000000E+00 -0.00000000000E+00 -0.45593999997E+02  0.45594000000E+02  0.51100000000E-03 0. -1.
    9900012    2    1    2    0    0  0.12402002322E+02  0.14313085653E+02  0.40871008664E+02  0.46142318390E+02  0.10000005730E+02 0.  0.
         12    1    1    2    0    0 -0.12402002322E+02 -0.14313085653E+02 -0.40871008664E+02  0.45045681610E+02  0.00000000000E+00 0. -1.
         11    1    3    3    0    0  0.40941949679E+01 -0.24968444787E+00  0.12311551879E+02  0.12976867291E+02  0.51100000000E-03 0. -1.
        -11    1    3    3    0    0  0.37695172105E+01  0.68053519310E+01  0.11515466817E+02  0.13897051888E+02  0.51100000000E-03 0.  1.
         12    1    3    3    0    0  0.45382901438E+01  0.77574181696E+01  0.17043989969E+02  0.19268399211E+02  0.00000000000E+00 0. -1.
</event>
<event>
 7    1  0.1385632E-008  0.4614232E+02  0.7816164E-02  0.1320468E+00
        -11   -1    0    0    0    0  0.00000000000E+00  0.00000000000E+00  0.45593999997E+02  0.45594000000E+02  0.51100000000E-03 0. -1.
         11   -1    0    0    0    0 -0.00000000000E+00 -0.00000000000E+00 -0.45593999997E+02  0.45594000000E+02  0.51100000000E-03 0.  1.
    9900012    2    1    2    0    0  0.22607809780E+02 -0.38293216056E+02  0.71854000110E+01  0.46142318384E+02  0.10000005679E+02 0.  0.
         12    1    1    2    0    0 -0.22607809780E+02  0.38293216056E+02 -0.71854000110E+01  0.45045681616E+02  0.00000000000E+00 0. -1.
         11    1    3    3    0    0  0.33915854658E+01 -0.27440202328E+01 -0.16639061963E+01  0.46691629979E+01  0.51100000000E-03 0. -1.
        -11    1    3    3    0    0  0.11082005013E+02 -0.22475639201E+02  0.65855103095E+01  0.25910116536E+02  0.51100000000E-03 0.  1.
        -12    1    3    3    0    0  0.81342193014E+01 -0.13073556622E+02  0.22637958978E+01  0.15563038850E+02  0.00000000000E+00 0.  1.
</event>
<event>
 7    1  0.1385632E-008  0.4614232E+02  0.7816164E-02  0.1320468E+00
        -11   -1    0    0    0    0  0.00000000000E+00  0.00000000000E+00  0.45593999997E+02  0.45594000000E+02  0.51100000000E-03 0.  1.
         11   -1    0    0    0    0 -0.00000000000E+00 -0.00000000000E+00 -0.45593999997E+02  0.45594000000E+02  0.51100000000E-03 0. -1.
    9900012    2    1    2    0    0  0.34795384714E+02  0.16283639430E+02  0.23521006601E+02  0.46142318053E+02  0.10000002663E+02 0.  0.
         12    1    1    2    0    0 -0.34795384714E+02 -0.16283639430E+02 -0.23521006601E+02  0.45045681947E+02  0.00000000000E+00 0. -1.
         11    1    3    3    0    0  0.87535534902E+01  0.33137052098E+01  0.15078512502E+01  0.94804512855E+01  0.51100000000E-03 0. -1.
        -11    1    3    3    0    0  0.14671534886E+02  0.71107725378E+01  0.14552820573E+02  0.21854098217E+02  0.51100000000E-03 0.  1.
         12    1    3    3    0    0  0.11370296338E+02  0.58591616828E+01  0.74603347781E+01  0.14807768551E+02  0.00000000000E+00 0. -1.
</event>
<event>
 7    1  0.1385632E-008  0.4614232E+02  0.7816164E-02  0.1320468E+00
        -11   -1    0    0    0    0  0.00000000000E+00  0.00000000000E+00  0.45593999997E+02  0.45594000000E+02  0.51100000000E-03 0. -1.
         11   -1    0    0    0    0 -0.00000000000E+00 -0.00000000000E+00 -0.45593999997E+02  0.45594000000E+02  0.51100000000E-03 0.  1.
    9900012    2    1    2    0    0  0.26492702479E+01  0.41996557728E+02  0.16074318425E+02  0.46142320888E+02  0.10000028509E+02 0.  0.
         12    1    1    2    0    0 -0.26492702479E+01 -0.41996557728E+02 -0.16074318425E+02  0.45045679112E+02  0.00000000000E+00 0. -1.
         11    1    3    3    0    0 -0.25227682938E+01  0.18069101085E+02  0.92173440893E+01  0.20440552982E+02  0.51100000000E-03 0. -1.
        -11    1    3    3    0    0  0.31156446642E+01  0.18027317614E+02  0.35625233337E+01  0.18638213294E+02  0.51100000000E-03 0.  1.
        -12    1    3    3    0    0  0.20563938775E+01  0.59001390290E+01  0.32944510021E+01  0.70635546113E+01  0.00000000000E+00 0.  1.
</event>
<event>
 7    1  0.1385632E-008  0.4614232E+02  0.7816164E-02  0.1320468E+00
        -11   -1    0    0    0    0  0.00000000000E+00  0.00000000000E+00  0.45593999997E+02  0.45594000000E+02  0.51100000000E-03 0.  1.
         11   -1    0    0    0    0 -0.00000000000E+00 -0.00000000000E+00 -0.45593999997E+02  0.45594000000E+02  0.51100000000E-03 0. -1.
    9900012    2    1    2    0    0  0.22335576764E+02 -0.27817365419E+02  0.27503266775E+02  0.46142317726E+02  0.99999996762E+01 0.  0.
         12    1    1    2    0    0 -0.22335576764E+02  0.27817365419E+02 -0.27503266775E+02  0.45045682274E+02  0.00000000000E+00 0. -1.
         11    1    3    3    0    0  0.31028021211E+01 -0.44172893214E+01  0.32197586445E+00  0.54077254618E+01  0.51100000000E-03 0. -1.
        -11    1    3    3    0    0  0.34426591973E+01 -0.50665199330E+01  0.60640631574E+01  0.86194192854E+01  0.51100000000E-03 0.  1.
         12    1    3    3    0    0  0.15790115446E+02 -0.18333556165E+02  0.21117227754E+02  0.32115172978E+02  0.00000000000E+00 0. -1.
</event>
<event>
 7    1  0.1385632E-008  0.4614232E+02  0.7816164E-02  0.1320468E+00
        -11   -1    0    0    0    0  0.00000000000E+00  0.00000000000E+00  0.45593999997E+02  0.45594000000E+02  0.51100000000E-03 0.  1.
         11   -1    0    0    0    0 -0.00000000000E+00 -0.00000000000E+00 -0.45593999997E+02  0.45594000000E+02  0.51100000000E-03 0. -1.
    9900012    2    1    2    0    0  0.33089868578E+01 -0.14699114240E+02  0.42451149298E+02  0.46142318407E+02  0.10000005890E+02 0.  0.
         12    1    1    2    0    0 -0.33089868578E+01  0.14699114240E+02 -0.42451149298E+02  0.45045681593E+02  0.00000000000E+00 0. -1.
         11    1    3    3    0    0  0.13178016080E+00 -0.26093131409E+01  0.14183306541E+01  0.29728005623E+01  0.51100000000E-03 0. -1.
        -11    1    3    3    0    0  0.31166409366E+01 -0.44942083740E+01  0.22172896201E+02  0.22837440440E+02  0.51100000000E-03 0.  1.
         12    1    3    3    0    0  0.60565760366E-01 -0.75955927249E+01  0.18859922443E+02  0.20332077405E+02  0.00000000000E+00 0. -1.
</event>
<event>
 7    1  0.1385632E-008  0.4614232E+02  0.7816164E-02  0.1320468E+00
        -11   -1    0    0    0    0  0.00000000000E+00  0.00000000000E+00  0.45593999997E+02  0.45594000000E+02  0.51100000000E-03 0.  1.
         11   -1    0    0    0    0 -0.00000000000E+00 -0.00000000000E+00 -0.45593999997E+02  0.45594000000E+02  0.51100000000E-03 0. -1.
    9900012    2    1    2    0    0  0.16981709689E+02  0.34890827122E+02  0.22877172230E+02  0.46142319957E+02  0.10000020027E+02 0.  0.
         12    1    1    2    0    0 -0.16981709689E+02 -0.34890827122E+02 -0.22877172230E+02  0.45045680043E+02  0.00000000000E+00 0. -1.
         11    1    3    3    0    0  0.68327093492E+01  0.67238425581E+01  0.48701320473E+01  0.10752402625E+02  0.51100000000E-03 0. -1.
        -11    1    3    3    0    0  0.87451286140E+01  0.17949905775E+02  0.13692182337E+02  0.24210581348E+02  0.51100000000E-03 0.  1.
         12    1    3    3    0    0  0.14038717259E+01  0.10217078789E+02  0.43148578464E+01  0.11179335984E+02  0.00000000000E+00 0. -1.
</event>
<event>
 7    1  0.1385632E-008  0.4614232E+02  0.7816164E-02  0.1320468E+00
        -11   -1    0    0    0    0  0.00000000000E+00  0.00000000000E+00  0.45593999997E+02  0.45594000000E+02  0.51100000000E-03 0. -1.
         11   -1    0    0    0    0 -0.00000000000E+00 -0.00000000000E+00 -0.45593999997E+02  0.45594000000E+02  0.51100000000E-03 0.  1.
    9900012    2    1    2    0    0 -0.33741207355E+02  0.21761353948E+02 -0.20422728466E+02  0.46142318327E+02  0.10000005159E+02 0.  0.
         12    1    1    2    0    0  0.33741207355E+02 -0.21761353948E+02  0.20422728466E+02  0.45045681673E+02  0.00000000000E+00 0. -1.
         11    1    3    3    0    0 -0.10254305767E+02  0.97368752238E+01 -0.55315002400E+01  0.15184038364E+02  0.51100000000E-03 0. -1.
        -11    1    3    3    0    0 -0.19918022215E+02  0.74417892169E+01 -0.10758664875E+02  0.23829744142E+02  0.51100000000E-03 0.  1.
         12    1    3    3    0    0 -0.35688793726E+01  0.45826895070E+01 -0.41325633509E+01  0.71285358204E+01  0.00000000000E+00 0. -1.
</event>
<event>
 7    1  0.1385632E-008  0.4614232E+02  0.7816164E-02  0.1320468E+00
        -11   -1    0    0    0    0  0.00000000000E+00  0.00000000000E+00  0.45593999997E+02  0.45594000000E+02  0.51100000000E-03 0.  1.
         11   -1    0    0    0    0 -0.00000000000E+00 -0.00000000000E+00 -0.45593999997E+02  0.45594000000E+02  0.51100000000E-03 0. -1.
    9900012    2    1    2    0    0  0.33736123038E+02 -0.11364337107E+02  0.27601436554E+02  0.46142318128E+02  0.10000003342E+02 0.  0.
         12    1    1    2    0    0 -0.33736123038E+02  0.11364337107E+02 -0.27601436554E+02  0.45045681872E+02  0.00000000000E+00 0. -1.
         11    1    3    3    0    0  0.12971508057E+02 -0.95108072827E+01  0.12266291980E+02  0.20228133766E+02  0.51100000000E-03 0. -1.
        -11    1    3    3    0    0  0.12282807319E+02 -0.88301396051E+00  0.98199458820E+01  0.15750504966E+02  0.51100000000E-03 0.  1.
         12    1    3    3    0    0  0.84818076620E+01 -0.97051586382E+00  0.55151986918E+01  0.10163679396E+02  0.00000000000E+00 0. -1.
</event>
<event>
 7    1  0.1385632E-008  0.4614232E+02  0.7816164E-02  0.1320468E+00
        -11   -1    0    0    0    0  0.00000000000E+00  0.00000000000E+00  0.45593999997E+02  0.45594000000E+02  0.51100000000E-03 0. -1.
         11   -1    0    0    0    0 -0.00000000000E+00 -0.00000000000E+00 -0.45593999997E+02  0.45594000000E+02  0.51100000000E-03 0.  1.
    9900012    2    1    2    0    0  0.17887101686E+01  0.40643632401E+02 -0.19339315979E+02  0.46142317839E+02  0.10000000711E+02 0.  0.
         12    1    1    2    0    0 -0.17887101686E+01 -0.40643632401E+02  0.19339315979E+02  0.45045682161E+02  0.00000000000E+00 0. -1.
         11    1    3    3    0    0  0.35516925748E+01  0.20052415098E+02 -0.10432355352E+02  0.22881169329E+02  0.51100000000E-03 0.  1.
        -11    1    3    3    0    0 -0.33387227857E+01  0.16237139350E+02 -0.53386332520E+01  0.17415302735E+02  0.51100000000E-03 0. -1.
        -12    1    3    3    0    0  0.15757403795E+01  0.43540779528E+01 -0.35683273754E+01  0.58458457746E+01  0.00000000000E+00 0.  1.
</event>
<event>
 7    1  0.1385632E-008  0.4614232E+02  0.7816164E-02  0.1320468E+00
        -11   -1    0    0    0    0  0.00000000000E+00  0.00000000000E+00  0.45593999997E+02  0.45594000000E+02  0.51100000000E-03 0.  1.
         11   -1    0    0    0    0 -0.00000000000E+00 -0.00000000000E+00 -0.45593999997E+02  0.45594000000E+02  0.51100000000E-03 0. -1.
    9900012    2    1    2    0    0 -0.20184719342E+02  0.72000765145E+01  0.39621325943E+02  0.46142318007E+02  0.10000002242E+02 0.  0.
         12    1    1    2    0    0  0.20184719342E+02 -0.72000765145E+01 -0.39621325943E+02  0.45045681993E+02  0.00000000000E+00 0. -1.
         11    1    3    3    0    0 -0.12871351263E+01  0.27168444052E+00  0.36014110508E+01  0.38341480262E+01  0.51100000000E-03 0. -1.
        -11    1    3    3    0    0 -0.12434759140E+02  0.88977294215E+01  0.22646435906E+02  0.27324968129E+02  0.51100000000E-03 0.  1.
        -12    1    3    3    0    0 -0.64628250755E+01 -0.19693373475E+01  0.13373478986E+02  0.14983201852E+02  0.00000000000E+00 0.  1.
</event>
<event>
 7    1  0.1385632E-008  0.4614232E+02  0.7816164E-02  0.1320468E+00
        -11   -1    0    0    0    0  0.00000000000E+00  0.00000000000E+00  0.45593999997E+02  0.45594000000E+02  0.51100000000E-03 0. -1.
         11   -1    0    0    0    0 -0.00000000000E+00 -0.00000000000E+00 -0.45593999997E+02  0.45594000000E+02  0.51100000000E-03 0.  1.
    9900012    2    1    2    0    0 -0.43145450676E+02  0.56815491054E+01 -0.11632009228E+02  0.46142317045E+02  0.99999934675E+01 0.  0.
         12    1    1    2    0    0  0.43145450676E+02 -0.56815491054E+01  0.11632009228E+02  0.45045682955E+02  0.00000000000E+00 0. -1.
         11    1    3    3    0    0 -0.22414986614E+02  0.73879222012E+01 -0.53570291924E+01  0.24201462381E+02  0.51100000000E-03 0. -1.
        -11    1    3    3    0    0 -0.55361721293E+01 -0.55788117741E+00 -0.31227012458E+01  0.63805718070E+01  0.51100000000E-03 0.  1.
         12    1    3    3    0    0 -0.15194291932E+02 -0.11484919184E+01 -0.31522787896E+01  0.15560282857E+02  0.00000000000E+00 0. -1.
</event>
<event>
 7    1  0.1385632E-008  0.4614231E+02  0.7816164E-02  0.1320468E+00
        -11   -1    0    0    0    0  0.00000000000E+00  0.00000000000E+00  0.45593999997E+02  0.45594000000E+02  0.51100000000E-03 0.  1.
         11   -1    0    0    0    0 -0.00000000000E+00 -0.00000000000E+00 -0.45593999997E+02  0.45594000000E+02  0.51100000000E-03 0. -1.
    9900012    2    1    2    0    0 -0.32462460546E+02 -0.28023620631E+02 -0.13783290251E+02  0.46142314878E+02  0.99999737094E+01 0.  0.
         12    1    1    2    0    0  0.32462460546E+02  0.28023620631E+02  0.13783290251E+02  0.45045685122E+02  0.00000000000E+00 0. -1.
         11    1    3    3    0    0 -0.65782477386E+01 -0.66851918286E+01 -0.48729907276E+01  0.10569350594E+02  0.51100000000E-03 0. -1.
        -11    1    3    3    0    0 -0.12388789758E+02 -0.61240798754E+01 -0.58492010577E+01  0.15006652501E+02  0.51100000000E-03 0.  1.
        -12    1    3    3    0    0 -0.13495423049E+02 -0.15214348927E+02 -0.30610984659E+01  0.20566311783E+02  0.00000000000E+00 0.  1.
</event>
<event>
 7    1  0.1385632E-008  0.4614232E+02  0.7816164E-02  0.1320468E+00
        -11   -1    0    0    0    0  0.00000000000E+00  0.00000000000E+00  0.45593999997E+02  0.45594000000E+02  0.51100000000E-03 0. -1.
         11   -1    0    0    0    0 -0.00000000000E+00 -0.00000000000E+00 -0.45593999997E+02  0.45594000000E+02  0.51100000000E-03 0.  1.
    9900012    2    1    2    0    0 -0.41484493779E+02  0.91174395553E+01  0.15000751697E+02  0.46142317858E+02  0.10000000883E+02 0.  0.
         12    1    1    2    0    0  0.41484493779E+02 -0.91174395553E+01 -0.15000751697E+02  0.45045682142E+02  0.00000000000E+00 0. -1.
         11    1    3    3    0    0 -0.62327618746E+00 -0.16549376659E+00  0.14884002660E+01  0.16220964847E+01  0.51100000000E-03 0. -1.
        -11    1    3    3    0    0 -0.11187601152E+02  0.39388060467E+01  0.66514197236E+01  0.13598455692E+02  0.51100000000E-03 0.  1.
        -12    1    3    3    0    0 -0.29673616440E+02  0.53441272752E+01  0.68609317075E+01  0.30921765681E+02  0.00000000000E+00 0.  1.
</event>
<event>
 7    1  0.1385632E-008  0.4614232E+02  0.7816164E-02  0.1320468E+00
        -11   -1    0    0    0    0  0.00000000000E+00  0.00000000000E+00  0.45593999997E+02  0.45594000000E+02  0.51100000000E-03 0.  1.
         11   -1    0    0    0    0 -0.00000000000E+00 -0.00000000000E+00 -0.45593999997E+02  0.45594000000E+02  0.51100000000E-03 0. -1.
    9900012    2    1    2    0    0 -0.18556965268E+01 -0.44809565912E+02 -0.42157630717E+01  0.46142318019E+02  0.10000002354E+02 0.  0.
         12    1    1    2    0    0  0.18556965268E+01  0.44809565912E+02  0.42157630717E+01  0.45045681981E+02  0.00000000000E+00 0. -1.
         11    1    3    3    0    0 -0.76089296900E-01 -0.41600469193E+02 -0.22010282712E+01  0.41658724805E+02  0.51100000000E-03 0. -1.
        -11    1    3    3    0    0 -0.11004513806E+01 -0.23495516958E+01 -0.54601397544E+00  0.26513238080E+01  0.51100000000E-03 0.  1.
         12    1    3    3    0    0 -0.67915584930E+00 -0.85954502289E+00 -0.14687208251E+01  0.18322694060E+01  0.00000000000E+00 0. -1.
</event>
<event>
 7    1  0.1385632E-008  0.4614232E+02  0.7816164E-02  0.1320468E+00
        -11   -1    0    0    0    0  0.00000000000E+00  0.00000000000E+00  0.45593999997E+02  0.45594000000E+02  0.51100000000E-03 0.  1.
         11   -1    0    0    0    0 -0.00000000000E+00 -0.00000000000E+00 -0.45593999997E+02  0.45594000000E+02  0.51100000000E-03 0. -1.
    9900012    2    1    2    0    0 -0.38823915624E+02 -0.15186754484E+01  0.22792777590E+02  0.46142317524E+02  0.99999978365E+01 0.  0.
         12    1    1    2    0    0  0.38823915624E+02  0.15186754484E+01 -0.22792777590E+02  0.45045682476E+02  0.00000000000E+00 0. -1.
         11    1    3    3    0    0 -0.20350842435E+02 -0.20213847450E+01  0.77557591409E+01  0.21872233179E+02  0.51100000000E-03 0. -1.
        -11    1    3    3    0    0 -0.37776767982E+01 -0.13948956136E+01  0.47735056865E+01  0.62452327871E+01  0.51100000000E-03 0.  1.
        -12    1    3    3    0    0 -0.14695396390E+02  0.18976049102E+01  0.10263512763E+02  0.18024851558E+02  0.00000000000E+00 0.  1.
</event>
<event>
 7    1  0.1385632E-008  0.4614232E+02  0.7816164E-02  0.1320468E+00
        -11   -1    0    0    0    0  0.00000000000E+00  0.00000000000E+00  0.45593999997E+02  0.45594000000E+02  0.51100000000E-03 0.  1.
         11   -1    0    0    0    0 -0.00000000000E+00 -0.00000000000E+00 -0.45593999997E+02  0.45594000000E+02  0.51100000000E-03 0. -1.
    9900012    2    1    2    0    0 -0.14270081917E+01 -0.46530079085E+01  0.44781990229E+02  0.46142317812E+02  0.10000000461E+02 0.  0.
         12    1    1    2    0    0  0.14270081917E+01  0.46530079085E+01 -0.44781990229E+02  0.45045682188E+02  0.00000000000E+00 0. -1.
         11    1    3    3    0    0  0.25807504997E+01  0.75235301668E+00  0.17465722704E+02  0.17671383026E+02  0.51100000000E-03 0. -1.
        -11    1    3    3    0    0 -0.17189092217E+01 -0.60462458714E+00  0.14214934113E+02  0.14331244604E+02  0.51100000000E-03 0.  1.
         12    1    3    3    0    0 -0.22888494696E+01 -0.48007363381E+01  0.13101333412E+02  0.14139690182E+02  0.00000000000E+00 0. -1.
</event>
<event>
 7    1  0.1385632E-008  0.4614232E+02  0.7816164E-02  0.1320468E+00
        -11   -1    0    0    0    0  0.00000000000E+00  0.00000000000E+00  0.45593999997E+02  0.45594000000E+02  0.51100000000E-03 0.  1.
         11   -1    0    0    0    0 -0.00000000000E+00 -0.00000000000E+00 -0.45593999997E+02  0.45594000000E+02  0.51100000000E-03 0. -1.
    9900012    2    1    2    0    0 -0.25630066798E+02 -0.23864668093E+02  0.28331798101E+02  0.46142317733E+02  0.99999997414E+01 0.  0.
         12    1    1    2    0    0  0.25630066798E+02  0.23864668093E+02 -0.28331798101E+02  0.45045682267E+02  0.00000000000E+00 0. -1.
         11    1    3    3    0    0 -0.92150232308E+01 -0.73840550339E+01  0.74285136947E+01  0.13950761193E+02  0.51100000000E-03 0. -1.
        -11    1    3    3    0    0 -0.12985674070E+02 -0.11929071586E+02  0.19563249715E+02  0.26337259152E+02  0.51100000000E-03 0.  1.
        -12    1    3    3    0    0 -0.34293694976E+01 -0.45515414733E+01  0.13400346913E+01  0.58542973881E+01  0.00000000000E+00 0.  1.
</event>
<event>
 7    1  0.1385632E-008  0.4614232E+02  0.7816164E-02  0.1320468E+00
        -11   -1    0    0    0    0  0.00000000000E+00  0.00000000000E+00  0.45593999997E+02  0.45594000000E+02  0.51100000000E-03 0. -1.
         11   -1    0    0    0    0 -0.00000000000E+00 -0.00000000000E+00 -0.45593999997E+02  0.45594000000E+02  0.51100000000E-03 0.  1.
    9900012    2    1    2    0    0  0.37738799650E+02 -0.40334063063E+01 -0.24261652814E+02  0.46142321376E+02  0.10000032962E+02 0.  0.
         12    1    1    2    0    0 -0.37738799650E+02  0.40334063063E+01  0.24261652814E+02  0.45045678624E+02  0.00000000000E+00 0. -1.
         11    1    3    3    0    0  0.16751005886E+01 -0.42667150996E-01  0.38080763124E+00  0.17183705016E+01  0.51100000000E-03 0. -1.
        -11    1    3    3    0    0  0.17873772356E+02  0.10768239978E+01 -0.14148165580E+02  0.22821084061E+02  0.51100000000E-03 0.  1.
        -12    1    3    3    0    0  0.18189926705E+02 -0.50675631531E+01 -0.10494294866E+02  0.21602866814E+02  0.00000000000E+00 0.  1.
</event>
<event>
 7    1  0.1385632E-008  0.4614232E+02  0.7816164E-02  0.1320468E+00
        -11   -1    0    0    0    0  0.00000000000E+00  0.00000000000E+00  0.45593999997E+02  0.45594000000E+02  0.51100000000E-03 0. -1.
         11   -1    0    0    0    0 -0.00000000000E+00 -0.00000000000E+00 -0.45593999997E+02  0.45594000000E+02  0.51100000000E-03 0.  1.
    9900012    2    1    2    0    0 -0.21214065707E+02 -0.84489013204E+00 -0.39728617112E+02  0.46142318290E+02  0.10000004820E+02 0.  0.
         12    1    1    2    0    0  0.21214065707E+02  0.84489013204E+00  0.39728617112E+02  0.45045681710E+02  0.00000000000E+00 0. -1.
         11    1    3    3    0    0 -0.10003297102E+02 -0.32363188391E+01 -0.14090881079E+02  0.17581030754E+02  0.51100000000E-03 0. -1.
        -11    1    3    3    0    0 -0.56739100592E+01  0.12114076701E+01 -0.18849622830E+02  0.19722298167E+02  0.51100000000E-03 0.  1.
         12    1    3    3    0    0 -0.55368585454E+01  0.11800210370E+01 -0.67881132032E+01  0.88389893687E+01  0.00000000000E+00 0. -1.
</event>
<event>
 7    1  0.1385632E-008  0.4614232E+02  0.7816164E-02  0.1320468E+00
        -11   -1    0    0    0    0  0.00000000000E+00  0.00000000000E+00  0.45593999997E+02  0.45594000000E+02  0.51100000000E-03 0. -1.
         11   -1    0    0    0    0 -0.00000000000E+00 -0.00000000000E+00 -0.45593999997E+02  0.45594000000E+02  0.51100000000E-03 0.  1.
    9900012    2    1    2    0    0 -0.17248189213E+02  0.32016798761E+02 -0.26580783229E+02  0.46142317952E+02  0.10000001745E+02 0.  0.
         12    1    1    2    0    0  0.17248189213E+02 -0.32016798761E+02  0.26580783229E+02  0.45045682048E+02  0.00000000000E+00 0. -1.
         11    1    3    3    0    0  0.43856214303E+00  0.61282449492E+01 -0.49169986204E+01  0.78692184240E+01  0.51100000000E-03 0. -1.
        -11    1    3    3    0    0 -0.16833143818E+02  0.24048246768E+02 -0.19174421147E+02  0.35061821544E+02  0.51100000000E-03 0.  1.
        -12    1    3    3    0    0 -0.85360753743E+00  0.18403070440E+01 -0.24893634623E+01  0.32112779842E+01  0.00000000000E+00 0.  1.
</event>
<event>
 7    1  0.1385632E-008  0.4614232E+02  0.7816164E-02  0.1320468E+00
        -11   -1    0    0    0    0  0.00000000000E+00  0.00000000000E+00  0.45593999997E+02  0.45594000000E+02  0.51100000000E-03 0.  1.
         11   -1    0    0    0    0 -0.00000000000E+00 -0.00000000000E+00 -0.45593999997E+02  0.45594000000E+02  0.51100000000E-03 0. -1.
    9900012    2    1    2    0    0 -0.18707580201E+02  0.52068851555E+00  0.40974001053E+02  0.46142318345E+02  0.10000005327E+02 0.  0.
         12    1    1    2    0    0  0.18707580201E+02 -0.52068851555E+00 -0.40974001053E+02  0.45045681655E+02  0.00000000000E+00 0. -1.
         11    1    3    3    0    0 -0.60837314363E+01 -0.14570172919E+01  0.71228490537E+01  0.94799613122E+01  0.51100000000E-03 0. -1.
        -11    1    3    3    0    0 -0.86680434563E+01  0.10040270710E+01  0.29216470817E+02  0.30491723713E+02  0.51100000000E-03 0.  1.
        -12    1    3    3    0    0 -0.39558053079E+01  0.97367873638E+00  0.46346811820E+01  0.61706333204E+01  0.00000000000E+00 0.  1.
</event>
<event>
 7    1  0.1385632E-008  0.4614232E+02  0.7816164E-02  0.1320468E+00
        -11   -1    0    0    0    0  0.00000000000E+00  0.00000000000E+00  0.45593999997E+02  0.45594000000E+02  0.51100000000E-03 0.  1.
         11   -1    0    0    0    0 -0.00000000000E+00 -0.00000000000E+00 -0.45593999997E+02  0.45594000000E+02  0.51100000000E-03 0. -1.
    9900012    2    1    2    0    0  0.71065166259E+01 -0.15167040802E+02  0.41815926975E+02  0.46142318143E+02  0.10000003479E+02 0.  0.
         12    1    1    2    0    0 -0.71065166259E+01  0.15167040802E+02 -0.41815926975E+02  0.45045681857E+02  0.00000000000E+00 0. -1.
         11    1    3    3    0    0  0.34165625331E+01  0.24731268627E+00  0.94478235795E+01  0.10049648439E+02  0.51100000000E-03 0. -1.
        -11    1    3    3    0    0  0.34723635761E+01 -0.12420302351E+02  0.27491406565E+02  0.30366077364E+02  0.51100000000E-03 0.  1.
         12    1    3    3    0    0  0.21759051668E+00 -0.29940511367E+01  0.48766968306E+01  0.57265923393E+01  0.00000000000E+00 0. -1.
</event>
<event>
 7    1  0.1385632E-008  0.4614232E+02  0.7816164E-02  0.1320468E+00
        -11   -1    0    0    0    0  0.00000000000E+00  0.00000000000E+00  0.45593999997E+02  0.45594000000E+02  0.51100000000E-03 0.  1.
         11   -1    0    0    0    0 -0.00000000000E+00 -0.00000000000E+00 -0.45593999997E+02  0.45594000000E+02  0.51100000000E-03 0. -1.
    9900012    2    1    2    0    0  0.15189848042E+02 -0.11677338687E+02  0.40767900851E+02  0.46142318052E+02  0.10000002653E+02 0.  0.
         12    1    1    2    0    0 -0.15189848042E+02  0.11677338687E+02 -0.40767900851E+02  0.45045681948E+02  0.00000000000E+00 0. -1.
         11    1    3    3    0    0  0.18440040023E+01 -0.13194601307E+01  0.13306186491E+02  0.13497997073E+02  0.51100000000E-03 0. -1.
        -11    1    3    3    0    0  0.12505379045E+02 -0.73484909877E+01  0.23172791699E+02  0.27337942502E+02  0.51100000000E-03 0.  1.
         12    1    3    3    0    0  0.84046499498E+00 -0.30093875686E+01  0.42889226615E+01  0.53063784771E+01  0.00000000000E+00 0. -1.
</event>
<event>
 7    1  0.1385632E-008  0.4614232E+02  0.7816164E-02  0.1320468E+00
        -11   -1    0    0    0    0  0.00000000000E+00  0.00000000000E+00  0.45593999997E+02  0.45594000000E+02  0.51100000000E-03 0. -1.
         11   -1    0    0    0    0 -0.00000000000E+00 -0.00000000000E+00 -0.45593999997E+02  0.45594000000E+02  0.51100000000E-03 0.  1.
    9900012    2    1    2    0    0 -0.12511371802E+02  0.42093565169E+02  0.10035479188E+02  0.46142317682E+02  0.99999992772E+01 0.  0.
         12    1    1    2    0    0  0.12511371802E+02 -0.42093565169E+02 -0.10035479188E+02  0.45045682318E+02  0.00000000000E+00 0. -1.
         11    1    3    3    0    0 -0.78574108140E+00  0.16054795084E+02  0.64405592718E+01  0.17316311335E+02  0.51100000000E-03 0. -1.
        -11    1    3    3    0    0 -0.32974661428E+01  0.80210499982E+01  0.17679392990E+01  0.88507703429E+01  0.51100000000E-03 0.  1.
         12    1    3    3    0    0 -0.84281645773E+01  0.18017720086E+02  0.18269806172E+01  0.19975236004E+02  0.00000000000E+00 0. -1.
</event>
<event>
 7    1  0.1385632E-008  0.4614232E+02  0.7816164E-02  0.1320468E+00
        -11   -1    0    0    0    0  0.00000000000E+00  0.00000000000E+00  0.45593999997E+02  0.45594000000E+02  0.51100000000E-03 0.  1.
         11   -1    0    0    0    0 -0.00000000000E+00 -0.00000000000E+00 -0.45593999997E+02  0.45594000000E+02  0.51100000000E-03 0. -1.
    9900012    2    1    2    0    0 -0.28669776191E+02 -0.34687913494E+02  0.19763762702E+01  0.46142317937E+02  0.10000001600E+02 0.  0.
         12    1    1    2    0    0  0.28669776191E+02  0.34687913494E+02 -0.19763762702E+01  0.45045682063E+02  0.00000000000E+00 0. -1.
         11    1    3    3    0    0 -0.12209381510E+02 -0.11877651763E+02  0.71556216863E+00  0.17048742996E+02  0.51100000000E-03 0. -1.
        -11    1    3    3    0    0 -0.10978861443E+02 -0.10497721537E+02 -0.17295929872E+01  0.15288199639E+02  0.51100000000E-03 0.  1.
        -12    1    3    3    0    0 -0.54815332390E+01 -0.12312540193E+02  0.29904070888E+01  0.13805375301E+02  0.00000000000E+00 0.  1.
</event>
<event>
 7    1  0.1385632E-008  0.4614232E+02  0.7816164E-02  0.1320468E+00
        -11   -1    0    0    0    0  0.00000000000E+00  0.00000000000E+00  0.45593999997E+02  0.45594000000E+02  0.51100000000E-03 0.  1.
         11   -1    0    0    0    0 -0.00000000000E+00 -0.00000000000E+00 -0.45593999997E+02  0.45594000000E+02  0.51100000000E-03 0. -1.
    9900012    2    1    2    0    0 -0.37353675032E+02  0.13414022949E+02  0.21304470110E+02  0.46142317668E+02  0.99999991553E+01 0.  0.
         12    1    1    2    0    0  0.37353675032E+02 -0.13414022949E+02 -0.21304470110E+02  0.45045682332E+02  0.00000000000E+00 0. -1.
         11    1    3    3    0    0 -0.32423367135E+01  0.30305827950E+01  0.15041969096E+01  0.46861271904E+01  0.51100000000E-03 0. -1.
        -11    1    3    3    0    0 -0.10738785507E+02  0.20040849728E+01  0.25358232090E+01  0.11214645351E+02  0.51100000000E-03 0.  1.
        -12    1    3    3    0    0 -0.23372552812E+02  0.83793551809E+01  0.17264449991E+02  0.30241545127E+02  0.00000000000E+00 0.  1.
</event>
<event>
 7    1  0.1385632E-008  0.4614232E+02  0.7816164E-02  0.1320468E+00
        -11   -1    0    0    0    0  0.00000000000E+00  0.00000000000E+00  0.45593999997E+02  0.45594000000E+02  0.51100000000E-03 0.  1.
         11   -1    0    0    0    0 -0.00000000000E+00 -0.00000000000E+00 -0.45593999997E+02  0.45594000000E+02  0.51100000000E-03 0. -1.
    9900012    2    1    2    0    0  0.22869918065E+02  0.24332015172E+02  0.30232983844E+02  0.46142318445E+02  0.10000006237E+02 0.  0.
         12    1    1    2    0    0 -0.22869918065E+02 -0.24332015172E+02 -0.30232983844E+02  0.45045681555E+02  0.00000000000E+00 0. -1.
         11    1    3    3    0    0  0.57492741663E+01  0.35949894341E+01  0.21452290890E+01  0.71119695287E+01  0.51100000000E-03 0. -1.
        -11    1    3    3    0    0  0.16711408624E+02  0.19284548457E+02  0.25784578887E+02  0.36276845177E+02  0.51100000000E-03 0.  1.
         12    1    3    3    0    0  0.40923527492E+00  0.14524772811E+01  0.23031758682E+01  0.27535037393E+01  0.00000000000E+00 0. -1.
</event>
<event>
 7    1  0.1385632E-008  0.4614232E+02  0.7816164E-02  0.1320468E+00
        -11   -1    0    0    0    0  0.00000000000E+00  0.00000000000E+00  0.45593999997E+02  0.45594000000E+02  0.51100000000E-03 0.  1.
         11   -1    0    0    0    0 -0.00000000000E+00 -0.00000000000E+00 -0.45593999997E+02  0.45594000000E+02  0.51100000000E-03 0. -1.
    9900012    2    1    2    0    0  0.29854709974E+01  0.35670349321E+02  0.27346417119E+02  0.46142318886E+02  0.10000010258E+02 0.  0.
         12    1    1    2    0    0 -0.29854709974E+01 -0.35670349321E+02 -0.27346417119E+02  0.45045681114E+02  0.00000000000E+00 0. -1.
         11    1    3    3    0    0  0.27358132866E+01  0.16777719288E+02  0.16468038467E+02  0.23667970552E+02  0.51100000000E-03 0. -1.
        -11    1    3    3    0    0  0.23830676592E+01  0.15308800882E+02  0.87080111639E+01  0.17772671567E+02  0.51100000000E-03 0.  1.
        -12    1    3    3    0    0 -0.21334099483E+01  0.35838291509E+01  0.21703674879E+01  0.47016767672E+01  0.00000000000E+00 0.  1.
</event>
<event>
 7    1  0.1385632E-008  0.4614232E+02  0.7816164E-02  0.1320468E+00
        -11   -1    0    0    0    0  0.00000000000E+00  0.00000000000E+00  0.45593999997E+02  0.45594000000E+02  0.51100000000E-03 0.  1.
         11   -1    0    0    0    0 -0.00000000000E+00 -0.00000000000E+00 -0.45593999997E+02  0.45594000000E+02  0.51100000000E-03 0. -1.
    9900012    2    1    2    0    0 -0.22364741453E+02  0.23810035785E+02 -0.31016350543E+02  0.46142318017E+02  0.10000002334E+02 0.  0.
         12    1    1    2    0    0  0.22364741453E+02 -0.23810035785E+02  0.31016350543E+02  0.45045681983E+02  0.00000000000E+00 0. -1.
         11    1    3    3    0    0 -0.29998288910E+01  0.53891245661E+01 -0.24918773454E+01  0.66521492714E+01  0.51100000000E-03 0. -1.
        -11    1    3    3    0    0 -0.16362435421E+02  0.16582843666E+02 -0.21827553312E+02  0.31924318016E+02  0.51100000000E-03 0.  1.
        -12    1    3    3    0    0 -0.30024771410E+01  0.18380675533E+01 -0.66969198856E+01  0.75658507299E+01  0.00000000000E+00 0.  1.
</event>
<event>
 7    1  0.1385632E-008  0.4614232E+02  0.7816164E-02  0.1320468E+00
        -11   -1    0    0    0    0  0.00000000000E+00  0.00000000000E+00  0.45593999997E+02  0.45594000000E+02  0.51100000000E-03 0.  1.
         11   -1    0    0    0    0 -0.00000000000E+00 -0.00000000000E+00 -0.45593999997E+02  0.45594000000E+02  0.51100000000E-03 0. -1.
    9900012    2    1    2    0    0  0.35516045222E+02 -0.20998786691E+01  0.27628147503E+02  0.46142317708E+02  0.99999995195E+01 0.  0.
         12    1    1    2    0    0 -0.35516045222E+02  0.20998786691E+01 -0.27628147503E+02  0.45045682292E+02  0.00000000000E+00 0. -1.
         11    1    3    3    0    0  0.64019572294E+01  0.70912116790E+00  0.29291709341E+01  0.70758710997E+01  0.51100000000E-03 0. -1.
        -11    1    3    3    0    0  0.10679596195E+02  0.21839251426E+01  0.11533916395E+02  0.15869925381E+02  0.51100000000E-03 0.  1.
        -12    1    3    3    0    0  0.18434491798E+02 -0.49929249796E+01  0.13165060174E+02  0.23196521228E+02  0.00000000000E+00 0.  1.
</event>
<event>
 7    1  0.1385632E-008  0.4614232E+02  0.7816164E-02  0.1320468E+00
        -11   -1    0    0    0    0  0.00000000000E+00  0.00000000000E+00  0.45593999997E+02  0.45594000000E+02  0.51100000000E-03 0.  1.
         11   -1    0    0    0    0 -0.00000000000E+00 -0.00000000000E+00 -0.45593999997E+02  0.45594000000E+02  0.51100000000E-03 0. -1.
    9900012    2    1    2    0    0  0.19195572277E+02 -0.43084705205E+01  0.40522592016E+02  0.46142318998E+02  0.10000011276E+02 0.  0.
         12    1    1    2    0    0 -0.19195572277E+02  0.43084705205E+01 -0.40522592016E+02  0.45045681002E+02  0.00000000000E+00 0. -1.
         11    1    3    3    0    0  0.43974752174E+01 -0.40689325736E+01  0.57480023507E+01  0.83026219871E+01  0.51100000000E-03 0. -1.
        -11    1    3    3    0    0  0.10030598445E+02 -0.10041112265E+01  0.24141566164E+02  0.26161734683E+02  0.51100000000E-03 0.  1.
         12    1    3    3    0    0  0.47674986141E+01  0.76457327958E+00  0.10633023501E+02  0.11677962327E+02  0.00000000000E+00 0. -1.
</event>
<event>
 7    1  0.1385632E-008  0.4614232E+02  0.7816164E-02  0.1320468E+00
        -11   -1    0    0    0    0  0.00000000000E+00  0.00000000000E+00  0.45593999997E+02  0.45594000000E+02  0.51100000000E-03 0.  1.
         11   -1    0    0    0    0 -0.00000000000E+00 -0.00000000000E+00 -0.45593999997E+02  0.45594000000E+02  0.51100000000E-03 0. -1.
    9900012    2    1    2    0    0 -0.40270542806E+02 -0.18777374328E+02 -0.74031575841E+01  0.46142321553E+02  0.10000034575E+02 0.  0.
         12    1    1    2    0    0  0.40270542806E+02  0.18777374328E+02  0.74031575841E+01  0.45045678447E+02  0.00000000000E+00 0. -1.
         11    1    3    3    0    0 -0.71033743861E+01 -0.21163743240E+01 -0.17042022454E+01  0.76053450614E+01  0.51100000000E-03 0. -1.
        -11    1    3    3    0    0 -0.14272562390E+02 -0.11296753518E+02 -0.50291070068E+01  0.18884241970E+02  0.51100000000E-03 0.  1.
        -12    1    3    3    0    0 -0.18894606030E+02 -0.53642464866E+01 -0.66984833186E+00  0.19652734522E+02  0.00000000000E+00 0.  1.
</event>
<event>
 7    1  0.1385632E-008  0.4614232E+02  0.7816164E-02  0.1320468E+00
        -11   -1    0    0    0    0  0.00000000000E+00  0.00000000000E+00  0.45593999997E+02  0.45594000000E+02  0.51100000000E-03 0. -1.
         11   -1    0    0    0    0 -0.00000000000E+00 -0.00000000000E+00 -0.45593999997E+02  0.45594000000E+02  0.51100000000E-03 0.  1.
    9900012    2    1    2    0    0 -0.26172150607E+02 -0.36385790572E+02  0.44951365499E+01  0.46142317903E+02  0.10000001298E+02 0.  0.
         12    1    1    2    0    0  0.26172150607E+02  0.36385790572E+02 -0.44951365499E+01  0.45045682097E+02  0.00000000000E+00 0. -1.
         11    1    3    3    0    0 -0.98172711219E+01 -0.20856138507E+02  0.44060832560E+01  0.23468508594E+02  0.51100000000E-03 0. -1.
        -11    1    3    3    0    0 -0.11224872275E+02 -0.92098239030E+01  0.44183823719E+00  0.14526315266E+02  0.51100000000E-03 0.  1.
        -12    1    3    3    0    0 -0.51300072102E+01 -0.63198281614E+01 -0.35278494332E+00  0.81474940431E+01  0.00000000000E+00 0.  1.
</event>
<event>
 7    1  0.1385632E-008  0.4614232E+02  0.7816164E-02  0.1320468E+00
        -11   -1    0    0    0    0  0.00000000000E+00  0.00000000000E+00  0.45593999997E+02  0.45594000000E+02  0.51100000000E-03 0.  1.
         11   -1    0    0    0    0 -0.00000000000E+00 -0.00000000000E+00 -0.45593999997E+02  0.45594000000E+02  0.51100000000E-03 0. -1.
    9900012    2    1    2    0    0  0.19333432892E+02  0.34976489837E+02  0.20784057120E+02  0.46142317643E+02  0.99999989185E+01 0.  0.
         12    1    1    2    0    0 -0.19333432892E+02 -0.34976489837E+02 -0.20784057120E+02  0.45045682357E+02  0.00000000000E+00 0. -1.
         11    1    3    3    0    0  0.58991550736E+01  0.13692714286E+02  0.10212295463E+02  0.18071564237E+02  0.51100000000E-03 0. -1.
        -11    1    3    3    0    0  0.10811282706E+02  0.18350067207E+02  0.61860405839E+01  0.22178275376E+02  0.51100000000E-03 0.  1.
        -12    1    3    3    0    0  0.26229951120E+01  0.29337083442E+01  0.43857210726E+01  0.58924780299E+01  0.00000000000E+00 0.  1.
</event>
<event>
 7    1  0.1385632E-008  0.4614231E+02  0.7816164E-02  0.1320468E+00
        -11   -1    0    0    0    0  0.00000000000E+00  0.00000000000E+00  0.45593999997E+02  0.45594000000E+02  0.51100000000E-03 0.  1.
         11   -1    0    0    0    0 -0.00000000000E+00 -0.00000000000E+00 -0.45593999997E+02  0.45594000000E+02  0.51100000000E-03 0. -1.
    9900012    2    1    2    0    0 -0.19012149896E+02  0.11735046333E+02  0.39114458037E+02  0.46142312264E+02  0.99999498728E+01 0.  0.
         12    1    1    2    0    0  0.19012149896E+02 -0.11735046333E+02 -0.39114458037E+02  0.45045687736E+02  0.00000000000E+00 0. -1.
         11    1    3    3    0    0 -0.11054022435E+02  0.78747343486E+01  0.22489355208E+02  0.26267355235E+02  0.51100000000E-03 0. -1.
        -11    1    3    3    0    0 -0.16756282394E+01 -0.81922916501E+00  0.80374563100E+01  0.82510345181E+01  0.51100000000E-03 0.  1.
        -12    1    3    3    0    0 -0.62824992207E+01  0.46795411491E+01  0.85876465185E+01  0.11623922511E+02  0.00000000000E+00 0.  1.
</event>
<event>
 7    1  0.1385632E-008  0.4614232E+02  0.7816164E-02  0.1320468E+00
        -11   -1    0    0    0    0  0.00000000000E+00  0.00000000000E+00  0.45593999997E+02  0.45594000000E+02  0.51100000000E-03 0.  1.
         11   -1    0    0    0    0 -0.00000000000E+00 -0.00000000000E+00 -0.45593999997E+02  0.45594000000E+02  0.51100000000E-03 0. -1.
    9900012    2    1    2    0    0  0.84390073059E+01  0.22800690674E+02  0.37921302058E+02  0.46142317751E+02  0.99999999069E+01 0.  0.
         12    1    1    2    0    0 -0.84390073059E+01 -0.22800690674E+02 -0.37921302058E+02  0.45045682249E+02  0.00000000000E+00 0. -1.
         11    1    3    3    0    0  0.19737762050E+01  0.11125995664E+02  0.10373709850E+02  0.15339407692E+02  0.51100000000E-03 0. -1.
        -11    1    3    3    0    0  0.12892194445E+01  0.46868333874E+01  0.73400666987E+01  0.88036965747E+01  0.51100000000E-03 0.  1.
         12    1    3    3    0    0  0.51760116564E+01  0.69878616224E+01  0.20207525509E+02  0.21999213484E+02  0.00000000000E+00 0. -1.
</event>
<event>
 7    1  0.1385632E-008  0.4614232E+02  0.7816164E-02  0.1320468E+00
        -11   -1    0    0    0    0  0.00000000000E+00  0.00000000000E+00  0.45593999997E+02  0.45594000000E+02  0.51100000000E-03 0.  1.
         11   -1    0    0    0    0 -0.00000000000E+00 -0.00000000000E+00 -0.45593999997E+02  0.45594000000E+02  0.51100000000E-03 0. -1.
    9900012    2    1    2    0    0 -0.34580326764E+02 -0.12948052153E+02  0.25800433672E+02  0.46142318394E+02  0.10000005773E+02 0.  0.
         12    1    1    2    0    0  0.34580326764E+02  0.12948052153E+02 -0.25800433672E+02  0.45045681606E+02  0.00000000000E+00 0. -1.
         11    1    3    3    0    0 -0.21464612281E+02 -0.63972956378E+01  0.11987057638E+02  0.25403632082E+02  0.51100000000E-03 0. -1.
        -11    1    3    3    0    0 -0.74522231218E+01 -0.16674313717E+01  0.47695877273E+01  0.90036061767E+01  0.51100000000E-03 0.  1.
         12    1    3    3    0    0 -0.56634913608E+01 -0.48833251436E+01  0.90437883070E+01  0.11735080136E+02  0.00000000000E+00 0. -1.
</event>
<event>
 7    1  0.1385632E-008  0.4614232E+02  0.7816164E-02  0.1320468E+00
        -11   -1    0    0    0    0  0.00000000000E+00  0.00000000000E+00  0.45593999997E+02  0.45594000000E+02  0.51100000000E-03 0. -1.
         11   -1    0    0    0    0 -0.00000000000E+00 -0.00000000000E+00 -0.45593999997E+02  0.45594000000E+02  0.51100000000E-03 0.  1.
    9900012    2    1    2    0    0 -0.20436862028E+02  0.47926190176E+01 -0.39855728575E+02  0.46142316224E+02  0.99999859875E+01 0.  0.
         12    1    1    2    0    0  0.20436862028E+02 -0.47926190176E+01  0.39855728575E+02  0.45045683776E+02  0.00000000000E+00 0. -1.
         11    1    3    3    0    0 -0.54356592607E+01  0.48140152006E+01 -0.12830404804E+02  0.14742469998E+02  0.51100000000E-03 0. -1.
        -11    1    3    3    0    0 -0.28500789097E+01 -0.17049830661E+01 -0.32522625460E+01  0.46483469079E+01  0.51100000000E-03 0.  1.
        -12    1    3    3    0    0 -0.12151123857E+02  0.16835868831E+01 -0.23773061225E+02  0.26751499319E+02  0.00000000000E+00 0.  1.
</event>
<event>
 7    1  0.1385632E-008  0.4614232E+02  0.7816164E-02  0.1320468E+00
        -11   -1    0    0    0    0  0.00000000000E+00  0.00000000000E+00  0.45593999997E+02  0.45594000000E+02  0.51100000000E-03 0. -1.
         11   -1    0    0    0    0 -0.00000000000E+00 -0.00000000000E+00 -0.45593999997E+02  0.45594000000E+02  0.51100000000E-03 0.  1.
    9900012    2    1    2    0    0  0.44259750845E+02 -0.61411308030E+01  0.56986358680E+01  0.46142317819E+02  0.10000000526E+02 0.  0.
         12    1    1    2    0    0 -0.44259750845E+02  0.61411308030E+01 -0.56986358680E+01  0.45045682181E+02  0.00000000000E+00 0. -1.
         11    1    3    3    0    0  0.66549643479E+01  0.38847416482E+00 -0.11894766010E+01  0.67715816095E+01  0.51100000000E-03 0. -1.
        -11    1    3    3    0    0  0.64627622249E+01  0.53147660137E+00  0.31840587118E+01  0.72241257668E+01  0.51100000000E-03 0.  1.
        -12    1    3    3    0    0  0.31142024272E+02 -0.70610815692E+01  0.37040537572E+01  0.32146610443E+02  0.00000000000E+00 0.  1.
</event>
<event>
 7    1  0.1385632E-008  0.4614232E+02  0.7816164E-02  0.1320468E+00
        -11   -1    0    0    0    0  0.00000000000E+00  0.00000000000E+00  0.45593999997E+02  0.45594000000E+02  0.51100000000E-03 0.  1.
         11   -1    0    0    0    0 -0.00000000000E+00 -0.00000000000E+00 -0.45593999997E+02  0.45594000000E+02  0.51100000000E-03 0. -1.
    9900012    2    1    2    0    0 -0.31907116025E+02  0.41317877913E+01  0.31527414197E+02  0.46142316863E+02  0.99999918100E+01 0.  0.
         12    1    1    2    0    0  0.31907116025E+02 -0.41317877913E+01 -0.31527414197E+02  0.45045683137E+02  0.00000000000E+00 0. -1.
         11    1    3    3    0    0 -0.81390495998E+01 -0.12988040067E+01  0.10967946136E+02  0.13719579547E+02  0.51100000000E-03 0.  1.
        -11    1    3    3    0    0 -0.15264916455E+02  0.20017886207E+01  0.96402861700E+01  0.18164799745E+02  0.51100000000E-03 0. -1.
        -12    1    3    3    0    0 -0.85031499698E+01  0.34288031773E+01  0.10919181890E+02  0.14257937571E+02  0.00000000000E+00 0.  1.
</event>
<event>
 7    1  0.1385632E-008  0.4614232E+02  0.7816164E-02  0.1320468E+00
        -11   -1    0    0    0    0  0.00000000000E+00  0.00000000000E+00  0.45593999997E+02  0.45594000000E+02  0.51100000000E-03 0.  1.
         11   -1    0    0    0    0 -0.00000000000E+00 -0.00000000000E+00 -0.45593999997E+02  0.45594000000E+02  0.51100000000E-03 0. -1.
    9900012    2    1    2    0    0  0.13129500104E+02  0.26330566657E+02  0.34109105115E+02  0.46142316908E+02  0.99999922225E+01 0.  0.
         12    1    1    2    0    0 -0.13129500104E+02 -0.26330566657E+02 -0.34109105115E+02  0.45045683092E+02  0.00000000000E+00 0. -1.
         11    1    3    3    0    0 -0.32623170409E+00  0.31244098282E+01  0.15702529891E+01  0.35119878431E+01  0.51100000000E-03 0.  1.
        -11    1    3    3    0    0  0.64084242138E+01  0.15009271096E+02  0.23074964958E+02  0.28263052344E+02  0.51100000000E-03 0. -1.
        -12    1    3    3    0    0  0.70473075946E+01  0.81968857325E+01  0.94638871677E+01  0.14367276721E+02  0.00000000000E+00 0.  1.
</event>
<event>
 7    1  0.1385632E-008  0.4614232E+02  0.7816164E-02  0.1320468E+00
        -11   -1    0    0    0    0  0.00000000000E+00  0.00000000000E+00  0.45593999997E+02  0.45594000000E+02  0.51100000000E-03 0.  1.
         11   -1    0    0    0    0 -0.00000000000E+00 -0.00000000000E+00 -0.45593999997E+02  0.45594000000E+02  0.51100000000E-03 0. -1.
    9900012    2    1    2    0    0  0.13889487635E+02 -0.90054317142E+01  0.41893887216E+02  0.46142318152E+02  0.10000003564E+02 0.  0.
         12    1    1    2    0    0 -0.13889487635E+02  0.90054317142E+01 -0.41893887216E+02  0.45045681848E+02  0.00000000000E+00 0. -1.
         11    1    3    3    0    0  0.30813952880E+01 -0.18738988288E+01  0.35525298230E+01  0.50623079861E+01  0.51100000000E-03 0. -1.
        -11    1    3    3    0    0  0.25628052386E+01  0.13688940086E+01  0.76529668146E+01  0.81859478880E+01  0.51100000000E-03 0.  1.
         12    1    3    3    0    0  0.82452871086E+01 -0.85004268940E+01  0.30688390578E+02  0.32894062278E+02  0.00000000000E+00 0. -1.
</event>
<event>
 7    1  0.1385632E-008  0.4614232E+02  0.7816164E-02  0.1320468E+00
        -11   -1    0    0    0    0  0.00000000000E+00  0.00000000000E+00  0.45593999997E+02  0.45594000000E+02  0.51100000000E-03 0.  1.
         11   -1    0    0    0    0 -0.00000000000E+00 -0.00000000000E+00 -0.45593999997E+02  0.45594000000E+02  0.51100000000E-03 0. -1.
    9900012    2    1    2    0    0  0.92597077398E+01 -0.38573362229E+02  0.21341672573E+02  0.46142318195E+02  0.10000003954E+02 0.  0.
         12    1    1    2    0    0 -0.92597077398E+01  0.38573362229E+02 -0.21341672573E+02  0.45045681805E+02  0.00000000000E+00 0. -1.
         11    1    3    3    0    0  0.39110246305E+01 -0.54116758343E+01  0.48754894232E+01  0.82675719757E+01  0.51100000000E-03 0. -1.
        -11    1    3    3    0    0  0.50120202128E+01 -0.18786757088E+02  0.70279660045E+01  0.20674982343E+02  0.51100000000E-03 0.  1.
        -12    1    3    3    0    0  0.33666289643E+00 -0.14374929307E+02  0.94382171450E+01  0.17199763876E+02  0.00000000000E+00 0.  1.
</event>
<event>
 7    1  0.1385632E-008  0.4614232E+02  0.7816164E-02  0.1320468E+00
        -11   -1    0    0    0    0  0.00000000000E+00  0.00000000000E+00  0.45593999997E+02  0.45594000000E+02  0.51100000000E-03 0.  1.
         11   -1    0    0    0    0 -0.00000000000E+00 -0.00000000000E+00 -0.45593999997E+02  0.45594000000E+02  0.51100000000E-03 0. -1.
    9900012    2    1    2    0    0 -0.34991904188E+02  0.10176244082E+02  0.26478750316E+02  0.46142317403E+02  0.99999967382E+01 0.  0.
         12    1    1    2    0    0  0.34991904188E+02 -0.10176244082E+02 -0.26478750316E+02  0.45045682597E+02  0.00000000000E+00 0. -1.
         11    1    3    3    0    0 -0.18872219884E+02  0.27950599956E+01  0.10830760809E+02  0.21938058795E+02  0.51100000000E-03 0. -1.
        -11    1    3    3    0    0 -0.16487762601E+02  0.70218267336E+01  0.15419648825E+02  0.23641445312E+02  0.51100000000E-03 0.  1.
        -12    1    3    3    0    0  0.36807829751E+00  0.35935735281E+00  0.22834068231E+00  0.56281329703E+00  0.00000000000E+00 0.  1.
</event>
<event>
 7    1  0.1385632E-008  0.4614232E+02  0.7816164E-02  0.1320468E+00
        -11   -1    0    0    0    0  0.00000000000E+00  0.00000000000E+00  0.45593999997E+02  0.45594000000E+02  0.51100000000E-03 0.  1.
         11   -1    0    0    0    0 -0.00000000000E+00 -0.00000000000E+00 -0.45593999997E+02  0.45594000000E+02  0.51100000000E-03 0. -1.
    9900012    2    1    2    0    0 -0.25610466112E+02  0.29586774839E+02  0.22312338776E+02  0.46142315617E+02  0.99999804463E+01 0.  0.
         12    1    1    2    0    0  0.25610466112E+02 -0.29586774839E+02 -0.22312338776E+02  0.45045684383E+02  0.00000000000E+00 0. -1.
         11    1    3    3    0    0 -0.16284276631E+02  0.16136318353E+02  0.79685032739E+01  0.24270465180E+02  0.51100000000E-03 0. -1.
        -11    1    3    3    0    0 -0.51519827805E+01  0.71079774215E+01  0.91001187969E+01  0.12644304329E+02  0.51100000000E-03 0.  1.
         12    1    3    3    0    0 -0.41742067007E+01  0.63424790650E+01  0.52437167057E+01  0.92275461071E+01  0.00000000000E+00 0. -1.
</event>
<event>
 7    1  0.1385632E-008  0.4614232E+02  0.7816164E-02  0.1320468E+00
        -11   -1    0    0    0    0  0.00000000000E+00  0.00000000000E+00  0.45593999997E+02  0.45594000000E+02  0.51100000000E-03 0.  1.
         11   -1    0    0    0    0 -0.00000000000E+00 -0.00000000000E+00 -0.45593999997E+02  0.45594000000E+02  0.51100000000E-03 0. -1.
    9900012    2    1    2    0    0  0.25384432829E+02  0.28605052951E+02  0.23801158474E+02  0.46142316199E+02  0.99999857573E+01 0.  0.
         12    1    1    2    0    0 -0.25384432829E+02 -0.28605052951E+02 -0.23801158474E+02  0.45045683801E+02  0.00000000000E+00 0. -1.
         11    1    3    3    0    0  0.14041941332E+02  0.21174130176E+02  0.14978797106E+02  0.29493800503E+02  0.51100000000E-03 0. -1.
        -11    1    3    3    0    0  0.11488708807E+02  0.70484269149E+01  0.89947631466E+01  0.16204212920E+02  0.51100000000E-03 0.  1.
         12    1    3    3    0    0 -0.14621730932E+00  0.38249585988E+00 -0.17240177871E+00  0.44430277703E+00  0.00000000000E+00 0. -1.
</event>
<event>
 7    1  0.1385632E-008  0.4614231E+02  0.7816164E-02  0.1320468E+00
        -11   -1    0    0    0    0  0.00000000000E+00  0.00000000000E+00  0.45593999997E+02  0.45594000000E+02  0.51100000000E-03 0.  1.
         11   -1    0    0    0    0 -0.00000000000E+00 -0.00000000000E+00 -0.45593999997E+02  0.45594000000E+02  0.51100000000E-03 0. -1.
    9900012    2    1    2    0    0 -0.35514761823E+02  0.88873321203E+01  0.26245585860E+02  0.46142314782E+02  0.99999728374E+01 0.  0.
         12    1    1    2    0    0  0.35514761823E+02 -0.88873321203E+01 -0.26245585860E+02  0.45045685218E+02  0.00000000000E+00 0. -1.
         11    1    3    3    0    0 -0.20627653766E+02  0.79667245669E+01  0.11803763217E+02  0.25065865766E+02  0.51100000000E-03 0. -1.
        -11    1    3    3    0    0 -0.54500456183E+01  0.16898838084E+00  0.77798371500E+01  0.95003905529E+01  0.51100000000E-03 0.  1.
         12    1    3    3    0    0 -0.94370624387E+01  0.75161917252E+00  0.66619854930E+01  0.11576058464E+02  0.00000000000E+00 0. -1.
</event>
<event>
 7    1  0.1385632E-008  0.4614232E+02  0.7816164E-02  0.1320468E+00
        -11   -1    0    0    0    0  0.00000000000E+00  0.00000000000E+00  0.45593999997E+02  0.45594000000E+02  0.51100000000E-03 0.  1.
         11   -1    0    0    0    0 -0.00000000000E+00 -0.00000000000E+00 -0.45593999997E+02  0.45594000000E+02  0.51100000000E-03 0. -1.
    9900012    2    1    2    0    0  0.20651409941E+02  0.39670202121E+02  0.53766149292E+01  0.46142315889E+02  0.99999829312E+01 0.  0.
         12    1    1    2    0    0 -0.20651409941E+02 -0.39670202121E+02 -0.53766149292E+01  0.45045684111E+02  0.00000000000E+00 0. -1.
         11    1    3    3    0    0  0.56810066086E+01  0.44788864229E+01  0.21595639033E+01  0.75497004040E+01  0.51100000000E-03 0. -1.
        -11    1    3    3    0    0  0.10285380260E+02  0.22486409601E+02  0.39071307117E+01  0.25033843782E+02  0.51100000000E-03 0.  1.
         12    1    3    3    0    0  0.46850230732E+01  0.12704906097E+02 -0.69007968581E+00  0.13558771703E+02  0.00000000000E+00 0. -1.
</event>
<event>
 7    1  0.1385632E-008  0.4614232E+02  0.7816164E-02  0.1320468E+00
        -11   -1    0    0    0    0  0.00000000000E+00  0.00000000000E+00  0.45593999997E+02  0.45594000000E+02  0.51100000000E-03 0. -1.
         11   -1    0    0    0    0 -0.00000000000E+00 -0.00000000000E+00 -0.45593999997E+02  0.45594000000E+02  0.51100000000E-03 0.  1.
    9900012    2    1    2    0    0  0.17096727185E+01 -0.13832325037E+02 -0.42835233534E+02  0.46142318424E+02  0.10000006047E+02 0.  0.
         12    1    1    2    0    0 -0.17096727185E+01  0.13832325037E+02  0.42835233534E+02  0.45045681576E+02  0.00000000000E+00 0. -1.
         11    1    3    3    0    0 -0.13376168350E+01 -0.23628727159E+01 -0.19670593266E+02  0.19857105175E+02  0.51100000000E-03 0.  1.
        -11    1    3    3    0    0  0.18855875024E+01 -0.29753264915E+01 -0.42619481957E+01  0.55292142881E+01  0.51100000000E-03 0. -1.
        -12    1    3    3    0    0  0.11617020511E+01 -0.84941258294E+01 -0.18902692073E+02  0.20755998961E+02  0.00000000000E+00 0.  1.
</event>
<event>
 7    1  0.1385632E-008  0.4614232E+02  0.7816164E-02  0.1320468E+00
        -11   -1    0    0    0    0  0.00000000000E+00  0.00000000000E+00  0.45593999997E+02  0.45594000000E+02  0.51100000000E-03 0.  1.
         11   -1    0    0    0    0 -0.00000000000E+00 -0.00000000000E+00 -0.45593999997E+02  0.45594000000E+02  0.51100000000E-03 0. -1.
    9900012    2    1    2    0    0 -0.27829733754E+02 -0.22198481424E+02  0.27601574663E+02  0.46142316720E+02  0.99999905018E+01 0.  0.
         12    1    1    2    0    0  0.27829733754E+02  0.22198481424E+02 -0.27601574663E+02  0.45045683280E+02  0.00000000000E+00 0. -1.
         11    1    3    3    0    0 -0.18074988902E+02 -0.17673642538E+02  0.18299147050E+02  0.31207717753E+02  0.51100000000E-03 0.  1.
        -11    1    3    3    0    0 -0.35552393741E+01  0.15048418228E+00  0.13113979400E+01  0.37923788464E+01  0.51100000000E-03 0. -1.
        -12    1    3    3    0    0 -0.61995054777E+01 -0.46753230682E+01  0.79910296730E+01  0.11142220120E+02  0.00000000000E+00 0.  1.
</event>
<event>
 7    1  0.1740133E-008  0.4614232E+02  0.7816164E-02  0.1320468E+00
        -11   -1    0    0    0    0  0.00000000000E+00  0.00000000000E+00  0.45593999997E+02  0.45594000000E+02  0.51100000000E-03 0. -1.
         11   -1    0    0    0    0 -0.00000000000E+00 -0.00000000000E+00 -0.45593999997E+02  0.45594000000E+02  0.51100000000E-03 0.  1.
    9900012    2    1    2    0    0  0.26362203620E+02  0.34549489592E+02 -0.11852440957E+02  0.46142319104E+02  0.10000012248E+02 0.  0.
         12    1    1    2    0    0 -0.26362203620E+02 -0.34549489592E+02  0.11852440957E+02  0.45045680896E+02  0.00000000000E+00 0. -1.
         11    1    3    3    0    0 -0.14217666166E-01  0.12401705442E+01  0.23595686595E+00  0.12624979305E+01  0.51100000000E-03 0. -1.
        -11    1    3    3    0    0  0.13020783412E+02  0.13289794076E+02 -0.88307856398E+01  0.20594712975E+02  0.51100000000E-03 0.  1.
        -12    1    3    3    0    0  0.13355637874E+02  0.20019524971E+02 -0.32576121833E+01  0.24285108199E+02  0.00000000000E+00 0.  1.
</event>
<event>
 7    1  0.1385632E-008  0.4614232E+02  0.7816164E-02  0.1320468E+00
        -11   -1    0    0    0    0  0.00000000000E+00  0.00000000000E+00  0.45593999997E+02  0.45594000000E+02  0.51100000000E-03 0.  1.
         11   -1    0    0    0    0 -0.00000000000E+00 -0.00000000000E+00 -0.45593999997E+02  0.45594000000E+02  0.51100000000E-03 0. -1.
    9900012    2    1    2    0    0  0.13368711656E+02  0.11201559093E+02  0.41532109591E+02  0.46142317581E+02  0.99999983620E+01 0.  0.
         12    1    1    2    0    0 -0.13368711656E+02 -0.11201559093E+02 -0.41532109591E+02  0.45045682419E+02  0.00000000000E+00 0. -1.
         11    1    3    3    0    0  0.68072943507E+01  0.35755726421E+01  0.15437032217E+02  0.17246041286E+02  0.51100000000E-03 0. -1.
        -11    1    3    3    0    0  0.65659959496E+01  0.78836904971E+01  0.17416269436E+02  0.20213641928E+02  0.51100000000E-03 0.  1.
        -12    1    3    3    0    0 -0.45786446502E-02 -0.25770404583E+00  0.86788079375E+01  0.86826343672E+01  0.00000000000E+00 0.  1.
</event>
<event>
 7    1  0.1385632E-008  0.4614232E+02  0.7816164E-02  0.1320468E+00
        -11   -1    0    0    0    0  0.00000000000E+00  0.00000000000E+00  0.45593999997E+02  0.45594000000E+02  0.51100000000E-03 0. -1.
         11   -1    0    0    0    0 -0.00000000000E+00 -0.00000000000E+00 -0.45593999997E+02  0.45594000000E+02  0.51100000000E-03 0.  1.
    9900012    2    1    2    0    0  0.20354607922E+02  0.49414175603E+01 -0.39879641838E+02  0.46142317585E+02  0.99999983907E+01 0.  0.
         12    1    1    2    0    0 -0.20354607922E+02 -0.49414175603E+01  0.39879641838E+02  0.45045682415E+02  0.00000000000E+00 0. -1.
         11    1    3    3    0    0  0.27476874283E+01 -0.22911194111E+01 -0.39953921672E+01  0.53630376831E+01  0.51100000000E-03 0. -1.
        -11    1    3    3    0    0  0.10719524402E+02  0.58133505617E+01 -0.25090902320E+02  0.27897251257E+02  0.51100000000E-03 0.  1.
         12    1    3    3    0    0  0.68873960920E+01  0.14191864096E+01 -0.10793347350E+02  0.12882028645E+02  0.00000000000E+00 0. -1.
</event>
<event>
 7    1  0.1385632E-008  0.4614233E+02  0.7816164E-02  0.1320468E+00
        -11   -1    0    0    0    0  0.00000000000E+00  0.00000000000E+00  0.45593999997E+02  0.45594000000E+02  0.51100000000E-03 0. -1.
         11   -1    0    0    0    0 -0.00000000000E+00 -0.00000000000E+00 -0.45593999997E+02  0.45594000000E+02  0.51100000000E-03 0.  1.
    9900012    2    1    2    0    0 -0.19793833796E+02 -0.23898317508E+01 -0.40393136899E+02  0.46142326948E+02  0.10000083774E+02 0.  0.
         12    1    1    2    0    0  0.19793833796E+02  0.23898317508E+01  0.40393136899E+02  0.45045673052E+02  0.00000000000E+00 0. -1.
         11    1    3    3    0    0  0.54096737960E+00 -0.10969201133E+01 -0.58137345143E+00  0.13542063328E+01  0.51100000000E-03 0. -1.
        -11    1    3    3    0    0 -0.68693990224E+01 -0.11996646504E+01 -0.15496015330E+02  0.16992772863E+02  0.51100000000E-03 0.  1.
         12    1    3    3    0    0 -0.13465402153E+02 -0.93246987111E-01 -0.24315748118E+02  0.27795347752E+02  0.00000000000E+00 0. -1.
</event>
<event>
 7    1  0.1385632E-008  0.4614232E+02  0.7816164E-02  0.1320468E+00
        -11   -1    0    0    0    0  0.00000000000E+00  0.00000000000E+00  0.45593999997E+02  0.45594000000E+02  0.51100000000E-03 0.  1.
         11   -1    0    0    0    0 -0.00000000000E+00 -0.00000000000E+00 -0.45593999997E+02  0.45594000000E+02  0.51100000000E-03 0. -1.
    9900012    2    1    2    0    0  0.42458491548E+02 -0.23023296543E+01  0.14869069652E+02  0.46142318090E+02  0.10000003001E+02 0.  0.
         12    1    1    2    0    0 -0.42458491548E+02  0.23023296543E+01 -0.14869069652E+02  0.45045681910E+02  0.00000000000E+00 0. -1.
         11    1    3    3    0    0  0.70481762576E+01  0.19905100579E+00  0.38118527823E+00  0.70612826271E+01  0.51100000000E-03 0. -1.
        -11    1    3    3    0    0  0.13102057977E+02  0.79638516759E+00  0.19236809396E+01  0.13266450211E+02  0.51100000000E-03 0.  1.
        -12    1    3    3    0    0  0.22308257314E+02 -0.32977658277E+01  0.12564203434E+02  0.25814585253E+02  0.00000000000E+00 0.  1.
</event>
<event>
 7    1  0.1385632E-008  0.4614232E+02  0.7816164E-02  0.1320468E+00
        -11   -1    0    0    0    0  0.00000000000E+00  0.00000000000E+00  0.45593999997E+02  0.45594000000E+02  0.51100000000E-03 0. -1.
         11   -1    0    0    0    0 -0.00000000000E+00 -0.00000000000E+00 -0.45593999997E+02  0.45594000000E+02  0.51100000000E-03 0.  1.
    9900012    2    1    2    0    0 -0.22762358352E+02 -0.86081951297E+01 -0.37906298932E+02  0.46142317856E+02  0.10000000863E+02 0.  0.
         12    1    1    2    0    0  0.22762358352E+02  0.86081951297E+01  0.37906298932E+02  0.45045682144E+02  0.00000000000E+00 0. -1.
         11    1    3    3    0    0 -0.21246728786E+02 -0.46411595145E+01 -0.31308975382E+02  0.38121067475E+02  0.51100000000E-03 0.  1.
        -11    1    3    3    0    0 -0.11625155412E+01 -0.23423265895E+01 -0.53083893052E+01  0.59175107531E+01  0.51100000000E-03 0. -1.
        -12    1    3    3    0    0 -0.35311402478E+00 -0.16247090258E+01 -0.12889342450E+01  0.21037396276E+01  0.00000000000E+00 0.  1.
</event>
<event>
 7    1  0.1385632E-008  0.4614232E+02  0.7816164E-02  0.1320468E+00
        -11   -1    0    0    0    0  0.00000000000E+00  0.00000000000E+00  0.45593999997E+02  0.45594000000E+02  0.51100000000E-03 0.  1.
         11   -1    0    0    0    0 -0.00000000000E+00 -0.00000000000E+00 -0.45593999997E+02  0.45594000000E+02  0.51100000000E-03 0. -1.
    9900012    2    1    2    0    0 -0.27309669754E+02 -0.12072110522E+02  0.33727726033E+02  0.46142318543E+02  0.10000007129E+02 0.  0.
         12    1    1    2    0    0  0.27309669754E+02  0.12072110522E+02 -0.33727726033E+02  0.45045681457E+02  0.00000000000E+00 0. -1.
         11    1    3    3    0    0 -0.15172416767E+01 -0.38904007556E+01  0.56981445564E+01  0.70644243921E+01  0.51100000000E-03 0. -1.
        -11    1    3    3    0    0 -0.19466163080E+02 -0.50670032451E+01  0.19559013568E+02  0.28056390340E+02  0.51100000000E-03 0.  1.
        -12    1    3    3    0    0 -0.63262649981E+01 -0.31147065217E+01  0.84705679090E+01  0.11021503810E+02  0.00000000000E+00 0.  1.
</event>
<event>
 7    1  0.1385632E-008  0.4614232E+02  0.7816164E-02  0.1320468E+00
        -11   -1    0    0    0    0  0.00000000000E+00  0.00000000000E+00  0.45593999997E+02  0.45594000000E+02  0.51100000000E-03 0.  1.
         11   -1    0    0    0    0 -0.00000000000E+00 -0.00000000000E+00 -0.45593999997E+02  0.45594000000E+02  0.51100000000E-03 0. -1.
    9900012    2    1    2    0    0  0.16623427941E+02  0.36829793938E+02  0.19908317818E+02  0.46142321002E+02  0.10000029555E+02 0.  0.
         12    1    1    2    0    0 -0.16623427941E+02 -0.36829793938E+02 -0.19908317818E+02  0.45045678998E+02  0.00000000000E+00 0. -1.
         11    1    3    3    0    0  0.75075938476E+01  0.75528561352E+01  0.45604843560E+01  0.11584801207E+02  0.51100000000E-03 0. -1.
        -11    1    3    3    0    0  0.41491578826E+01  0.11969129853E+02  0.86795472266E+01  0.15356110214E+02  0.51100000000E-03 0.  1.
         12    1    3    3    0    0  0.49666762104E+01  0.17307807949E+02  0.66682862359E+01  0.19201409582E+02  0.00000000000E+00 0. -1.
</event>
<event>
 7    1  0.1385632E-008  0.4614232E+02  0.7816164E-02  0.1320468E+00
        -11   -1    0    0    0    0  0.00000000000E+00  0.00000000000E+00  0.45593999997E+02  0.45594000000E+02  0.51100000000E-03 0. -1.
         11   -1    0    0    0    0 -0.00000000000E+00 -0.00000000000E+00 -0.45593999997E+02  0.45594000000E+02  0.51100000000E-03 0.  1.
    9900012    2    1    2    0    0  0.29324595672E+02 -0.28459477883E+02  0.18953620933E+02  0.46142317197E+02  0.99999948570E+01 0.  0.
         12    1    1    2    0    0 -0.29324595672E+02  0.28459477883E+02 -0.18953620933E+02  0.45045682803E+02  0.00000000000E+00 0. -1.
         11    1    3    3    0    0  0.79075732258E+00 -0.46787307336E+01  0.28324496888E+01  0.55261731715E+01  0.51100000000E-03 0. -1.
        -11    1    3    3    0    0  0.23395265607E+02 -0.20765456893E+02  0.12838700398E+02  0.33813826772E+02  0.51100000000E-03 0.  1.
         12    1    3    3    0    0  0.51385727430E+01 -0.30152902559E+01  0.32824708462E+01  0.68023172536E+01  0.00000000000E+00 0. -1.
</event>
<event>
 7    1  0.1385632E-008  0.4614232E+02  0.7816164E-02  0.1320468E+00
        -11   -1    0    0    0    0  0.00000000000E+00  0.00000000000E+00  0.45593999997E+02  0.45594000000E+02  0.51100000000E-03 0.  1.
         11   -1    0    0    0    0 -0.00000000000E+00 -0.00000000000E+00 -0.45593999997E+02  0.45594000000E+02  0.51100000000E-03 0. -1.
    9900012    2    1    2    0    0  0.19862842788E+02 -0.12919419059E+02  0.38310176337E+02  0.46142317372E+02  0.99999964541E+01 0.  0.
         12    1    1    2    0    0 -0.19862842788E+02  0.12919419059E+02 -0.38310176337E+02  0.45045682628E+02  0.00000000000E+00 0. -1.
         11    1    3    3    0    0  0.16768247747E+01 -0.70370620147E+00  0.18137252269E+01  0.25683736494E+01  0.51100000000E-03 0. -1.
        -11    1    3    3    0    0  0.16453785728E+02 -0.12285782765E+02  0.27005040579E+02  0.33925502794E+02  0.51100000000E-03 0.  1.
        -12    1    3    3    0    0  0.17322322856E+01  0.70069907186E-01  0.94914105312E+01  0.96484409288E+01  0.00000000000E+00 0.  1.
</event>
<event>
 7    1  0.1385632E-008  0.4614232E+02  0.7816164E-02  0.1320468E+00
        -11   -1    0    0    0    0  0.00000000000E+00  0.00000000000E+00  0.45593999997E+02  0.45594000000E+02  0.51100000000E-03 0.  1.
         11   -1    0    0    0    0 -0.00000000000E+00 -0.00000000000E+00 -0.45593999997E+02  0.45594000000E+02  0.51100000000E-03 0. -1.
    9900012    2    1    2    0    0 -0.19528106501E+02 -0.10392985619E+02  0.39239679737E+02  0.46142316972E+02  0.99999928031E+01 0.  0.
         12    1    1    2    0    0  0.19528106501E+02  0.10392985619E+02 -0.39239679737E+02  0.45045683028E+02  0.00000000000E+00 0. -1.
         11    1    3    3    0    0 -0.63216126806E+01 -0.32717337155E+01  0.94979093655E+01  0.11869174822E+02  0.51100000000E-03 0. -1.
        -11    1    3    3    0    0 -0.11758612980E+02 -0.56885550124E+01  0.29448147918E+02  0.32215183585E+02  0.51100000000E-03 0.  1.
        -12    1    3    3    0    0 -0.14478808399E+01 -0.14326968907E+01  0.29362245374E+00  0.20579585643E+01  0.00000000000E+00 0.  1.
</event>
<event>
 7    1  0.1385632E-008  0.4614232E+02  0.7816164E-02  0.1320468E+00
        -11   -1    0    0    0    0  0.00000000000E+00  0.00000000000E+00  0.45593999997E+02  0.45594000000E+02  0.51100000000E-03 0.  1.
         11   -1    0    0    0    0 -0.00000000000E+00 -0.00000000000E+00 -0.45593999997E+02  0.45594000000E+02  0.51100000000E-03 0. -1.
    9900012    2    1    2    0    0  0.20438331213E+02  0.30489154553E+02  0.26111279940E+02  0.46142324645E+02  0.10000062770E+02 0.  0.
         12    1    1    2    0    0 -0.20438331213E+02 -0.30489154553E+02 -0.26111279940E+02  0.45045675355E+02  0.00000000000E+00 0. -1.
         11    1    3    3    0    0  0.29149784091E+01  0.46059422351E+01  0.83152260206E+01  0.99425744671E+01  0.51100000000E-03 0. -1.
        -11    1    3    3    0    0  0.16214245274E+02  0.25387415473E+02  0.16991545091E+02  0.34585187856E+02  0.51100000000E-03 0.  1.
        -12    1    3    3    0    0  0.13091075294E+01  0.49579684480E+00  0.80450882839E+00  0.16145623214E+01  0.00000000000E+00 0.  1.
</event>
<event>
 7    1  0.1385632E-008  0.4614232E+02  0.7816164E-02  0.1320468E+00
        -11   -1    0    0    0    0  0.00000000000E+00  0.00000000000E+00  0.45593999997E+02  0.45594000000E+02  0.51100000000E-03 0.  1.
         11   -1    0    0    0    0 -0.00000000000E+00 -0.00000000000E+00 -0.45593999997E+02  0.45594000000E+02  0.51100000000E-03 0. -1.
    9900012    2    1    2    0    0 -0.16172482111E+02 -0.42005860273E+02  0.17527098400E+01  0.46142318002E+02  0.10000002196E+02 0.  0.
         12    1    1    2    0    0  0.16172482111E+02  0.42005860273E+02 -0.17527098400E+01  0.45045681998E+02  0.00000000000E+00 0. -1.
         11    1    3    3    0    0 -0.58788909917E+01 -0.86818097147E+01  0.19584578387E+00  0.10486826739E+02  0.51100000000E-03 0. -1.
        -11    1    3    3    0    0 -0.10891325426E+02 -0.27074658871E+02 -0.17472079490E-01  0.29183187421E+02  0.51100000000E-03 0.  1.
        -12    1    3    3    0    0  0.59773430627E+00 -0.62493916872E+01  0.15743361356E+01  0.64723038424E+01  0.00000000000E+00 0.  1.
</event>
<event>
 7    1  0.1385632E-008  0.4614232E+02  0.7816164E-02  0.1320468E+00
        -11   -1    0    0    0    0  0.00000000000E+00  0.00000000000E+00  0.45593999997E+02  0.45594000000E+02  0.51100000000E-03 0. -1.
         11   -1    0    0    0    0 -0.00000000000E+00 -0.00000000000E+00 -0.45593999997E+02  0.45594000000E+02  0.51100000000E-03 0.  1.
    9900012    2    1    2    0    0  0.68879159255E+01  0.20197563664E+02 -0.39670239861E+02  0.46142324354E+02  0.10000060122E+02 0.  0.
         12    1    1    2    0    0 -0.68879159255E+01 -0.20197563664E+02  0.39670239861E+02  0.45045675646E+02  0.00000000000E+00 0. -1.
         11    1    3    3    0    0 -0.21308953810E+01  0.44727165045E+01 -0.78951421577E+01  0.93209000642E+01  0.51100000000E-03 0.  1.
        -11    1    3    3    0    0  0.88126828371E+01  0.13572135018E+02 -0.29710119047E+02  0.33831308011E+02  0.51100000000E-03 0. -1.
         12    1    3    3    0    0  0.20612846939E+00  0.21527121412E+01 -0.20649786567E+01  0.29901162789E+01  0.00000000000E+00 0. -1.
</event>
<event>
 7    1  0.1385632E-008  0.4614232E+02  0.7816164E-02  0.1320468E+00
        -11   -1    0    0    0    0  0.00000000000E+00  0.00000000000E+00  0.45593999997E+02  0.45594000000E+02  0.51100000000E-03 0.  1.
         11   -1    0    0    0    0 -0.00000000000E+00 -0.00000000000E+00 -0.45593999997E+02  0.45594000000E+02  0.51100000000E-03 0. -1.
    9900012    2    1    2    0    0 -0.56526118285E+01 -0.39245495453E+02  0.21376448493E+02  0.46142317810E+02  0.10000000444E+02 0.  0.
         12    1    1    2    0    0  0.56526118285E+01  0.39245495453E+02 -0.21376448493E+02  0.45045682190E+02  0.00000000000E+00 0. -1.
         11    1    3    3    0    0  0.73191608701E-01 -0.35597770883E+00 -0.44466197299E+00  0.57428361644E+00  0.51100000000E-03 0. -1.
        -11    1    3    3    0    0  0.10858980172E+01 -0.16775813978E+02  0.10351129461E+02  0.19742162761E+02  0.51100000000E-03 0.  1.
         12    1    3    3    0    0 -0.68117014544E+01 -0.22113703766E+02  0.11469981005E+02  0.25825871432E+02  0.00000000000E+00 0. -1.
</event>
<event>
 7    1  0.1385632E-008  0.4614232E+02  0.7816164E-02  0.1320468E+00
        -11   -1    0    0    0    0  0.00000000000E+00  0.00000000000E+00  0.45593999997E+02  0.45594000000E+02  0.51100000000E-03 0. -1.
         11   -1    0    0    0    0 -0.00000000000E+00 -0.00000000000E+00 -0.45593999997E+02  0.45594000000E+02  0.51100000000E-03 0.  1.
    9900012    2    1    2    0    0  0.35581737674E+02  0.25764608859E+02  0.99618458904E+01  0.46142317642E+02  0.99999989172E+01 0.  0.
         12    1    1    2    0    0 -0.35581737674E+02 -0.25764608859E+02 -0.99618458904E+01  0.45045682358E+02  0.00000000000E+00 0. -1.
         11    1    3    3    0    0  0.16448973096E+02  0.88799021754E+01  0.61473491866E+01  0.19677684844E+02  0.51100000000E-03 0. -1.
        -11    1    3    3    0    0  0.10921399947E+02  0.13131051975E+02  0.15060327771E+01  0.17145542796E+02  0.51100000000E-03 0.  1.
        -12    1    3    3    0    0  0.82113646308E+01  0.37536547082E+01  0.23084639267E+01  0.93190900022E+01  0.00000000000E+00 0.  1.
</event>
<event>
 7    1  0.1385632E-008  0.4614232E+02  0.7816164E-02  0.1320468E+00
        -11   -1    0    0    0    0  0.00000000000E+00  0.00000000000E+00  0.45593999997E+02  0.45594000000E+02  0.51100000000E-03 0. -1.
         11   -1    0    0    0    0 -0.00000000000E+00 -0.00000000000E+00 -0.45593999997E+02  0.45594000000E+02  0.51100000000E-03 0.  1.
    9900012    2    1    2    0    0 -0.34040545883E+02  0.22246751841E+02 -0.19376191970E+02  0.46142317113E+02  0.99999940936E+01 0.  0.
         12    1    1    2    0    0  0.34040545883E+02 -0.22246751841E+02  0.19376191970E+02  0.45045682887E+02  0.00000000000E+00 0. -1.
         11    1    3    3    0    0 -0.19057987763E+02  0.83648627774E+01 -0.81620706158E+01  0.22356145103E+02  0.51100000000E-03 0. -1.
        -11    1    3    3    0    0 -0.10939357950E+02  0.81112858227E+01 -0.53962648005E+01  0.14648623967E+02  0.51100000000E-03 0.  1.
         12    1    3    3    0    0 -0.40432001693E+01  0.57706032408E+01 -0.58178565536E+01  0.91375480437E+01  0.00000000000E+00 0. -1.
</event>
<event>
 7    1  0.1385632E-008  0.4614231E+02  0.7816164E-02  0.1320468E+00
        -11   -1    0    0    0    0  0.00000000000E+00  0.00000000000E+00  0.45593999997E+02  0.45594000000E+02  0.51100000000E-03 0. -1.
         11   -1    0    0    0    0 -0.00000000000E+00 -0.00000000000E+00 -0.45593999997E+02  0.45594000000E+02  0.51100000000E-03 0.  1.
    9900012    2    1    2    0    0 -0.65944926101E+01  0.23364252747E+02 -0.37943892540E+02  0.46142305197E+02  0.99998854318E+01 0.  0.
         12    1    1    2    0    0  0.65944926101E+01 -0.23364252747E+02  0.37943892540E+02  0.45045694803E+02  0.00000000000E+00 0. -1.
         11    1    3    3    0    0 -0.41829008530E+01  0.65818339344E+01 -0.12162695602E+02  0.14448126594E+02  0.51100000000E-03 0. -1.
        -11    1    3    3    0    0 -0.20696966035E+01  0.13405498130E+02 -0.24615487745E+02  0.28105395591E+02  0.51100000000E-03 0.  1.
         12    1    3    3    0    0 -0.34189515354E+00  0.33769206823E+01 -0.11657091924E+01  0.35887830126E+01  0.00000000000E+00 0. -1.
</event>
<event>
 7    1  0.1385632E-008  0.4614232E+02  0.7816164E-02  0.1320468E+00
        -11   -1    0    0    0    0  0.00000000000E+00  0.00000000000E+00  0.45593999997E+02  0.45594000000E+02  0.51100000000E-03 0.  1.
         11   -1    0    0    0    0 -0.00000000000E+00 -0.00000000000E+00 -0.45593999997E+02  0.45594000000E+02  0.51100000000E-03 0. -1.
    9900012    2    1    2    0    0 -0.54339180331E+01  0.39794160354E+00  0.44714959957E+02  0.46142318002E+02  0.10000002198E+02 0.  0.
         12    1    1    2    0    0  0.54339180331E+01 -0.39794160354E+00 -0.44714959957E+02  0.45045681998E+02  0.00000000000E+00 0. -1.
         11    1    3    3    0    0 -0.25831210676E+01 -0.35560865352E+01  0.13962281432E+02  0.14637744667E+02  0.51100000000E-03 0. -1.
        -11    1    3    3    0    0  0.29337352553E+00  0.35266179827E+01  0.13131315872E+02  0.13599799970E+02  0.51100000000E-03 0.  1.
        -12    1    3    3    0    0 -0.31441704910E+01  0.42741015607E+00  0.17621362653E+02  0.17904773365E+02  0.00000000000E+00 0.  1.
</event>
<event>
 7    1  0.1385632E-008  0.4614232E+02  0.7816164E-02  0.1320468E+00
        -11   -1    0    0    0    0  0.00000000000E+00  0.00000000000E+00  0.45593999997E+02  0.45594000000E+02  0.51100000000E-03 0. -1.
         11   -1    0    0    0    0 -0.00000000000E+00 -0.00000000000E+00 -0.45593999997E+02  0.45594000000E+02  0.51100000000E-03 0.  1.
    9900012    2    1    2    0    0  0.14316208653E+02 -0.42587743755E+02 -0.32316730497E+01  0.46142318087E+02  0.10000002970E+02 0.  0.
         12    1    1    2    0    0 -0.14316208653E+02  0.42587743755E+02  0.32316730497E+01  0.45045681913E+02  0.00000000000E+00 0. -1.
         11    1    3    3    0    0  0.52345347546E+00 -0.33791813556E+01 -0.21274031933E+01  0.40272465510E+01  0.51100000000E-03 0. -1.
        -11    1    3    3    0    0  0.28069956691E+01 -0.12385521106E+02  0.23804585416E+01  0.12920794902E+02  0.51100000000E-03 0.  1.
        -12    1    3    3    0    0  0.10985759509E+02 -0.26823041293E+02 -0.34847283980E+01  0.29194276634E+02  0.00000000000E+00 0.  1.
</event>
<event>
 7    1  0.1385632E-008  0.4614232E+02  0.7816164E-02  0.1320468E+00
        -11   -1    0    0    0    0  0.00000000000E+00  0.00000000000E+00  0.45593999997E+02  0.45594000000E+02  0.51100000000E-03 0.  1.
         11   -1    0    0    0    0 -0.00000000000E+00 -0.00000000000E+00 -0.45593999997E+02  0.45594000000E+02  0.51100000000E-03 0. -1.
    9900012    2    1    2    0    0  0.39766703895E+02  0.13257180274E+02  0.16491509904E+02  0.46142318004E+02  0.10000002219E+02 0.  0.
         12    1    1    2    0    0 -0.39766703895E+02 -0.13257180274E+02 -0.16491509904E+02  0.45045681996E+02  0.00000000000E+00 0. -1.
         11    1    3    3    0    0  0.14460689179E+02  0.81484835562E+01  0.43510672732E+01  0.17159286187E+02  0.51100000000E-03 0. -1.
        -11    1    3    3    0    0  0.21278944750E+02  0.58575804634E+01  0.11325321539E+02  0.24806604902E+02  0.51100000000E-03 0.  1.
        -12    1    3    3    0    0  0.40270699670E+01 -0.74888374502E+00  0.81512109265E+00  0.41764269153E+01  0.00000000000E+00 0.  1.
</event>
<event>
 7    1  0.1385632E-008  0.4614232E+02  0.7816164E-02  0.1320468E+00
        -11   -1    0    0    0    0  0.00000000000E+00  0.00000000000E+00  0.45593999997E+02  0.45594000000E+02  0.51100000000E-03 0.  1.
         11   -1    0    0    0    0 -0.00000000000E+00 -0.00000000000E+00 -0.45593999997E+02  0.45594000000E+02  0.51100000000E-03 0. -1.
    9900012    2    1    2    0    0  0.24246676735E+02 -0.30512449690E+02  0.22587666144E+02  0.46142316737E+02  0.99999906658E+01 0.  0.
         12    1    1    2    0    0 -0.24246676735E+02  0.30512449690E+02 -0.22587666144E+02  0.45045683263E+02  0.00000000000E+00 0. -1.
         11    1    3    3    0    0  0.57081967001E+00 -0.94602340034E+00  0.93080330565E-01  0.11088099831E+01  0.51100000000E-03 0. -1.
        -11    1    3    3    0    0  0.59312915401E+01 -0.14427518178E+02  0.10513225800E+02  0.18811204563E+02  0.51100000000E-03 0.  1.
        -12    1    3    3    0    0  0.17744565525E+02 -0.15138908111E+02  0.11981360013E+02  0.26222302192E+02  0.00000000000E+00 0.  1.
</event>
<event>
 7    1  0.1385632E-008  0.4614232E+02  0.7816164E-02  0.1320468E+00
        -11   -1    0    0    0    0  0.00000000000E+00  0.00000000000E+00  0.45593999997E+02  0.45594000000E+02  0.51100000000E-03 0. -1.
         11   -1    0    0    0    0 -0.00000000000E+00 -0.00000000000E+00 -0.45593999997E+02  0.45594000000E+02  0.51100000000E-03 0.  1.
    9900012    2    1    2    0    0 -0.25566557312E+02 -0.32256237066E+02 -0.18303001185E+02  0.46142317246E+02  0.99999953043E+01 0.  0.
         12    1    1    2    0    0  0.25566557312E+02  0.32256237066E+02  0.18303001185E+02  0.45045682754E+02  0.00000000000E+00 0. -1.
         11    1    3    3    0    0 -0.19071942529E+01 -0.15317548939E+01  0.10401209422E+01  0.26581036114E+01  0.51100000000E-03 0. -1.
        -11    1    3    3    0    0 -0.19681655284E+02 -0.27425097083E+02 -0.16287583879E+02  0.37480513518E+02  0.51100000000E-03 0.  1.
        -12    1    3    3    0    0 -0.39777077747E+01 -0.32993850888E+01 -0.30555382475E+01  0.60037001163E+01  0.00000000000E+00 0.  1.
</event>
<event>
 7    1  0.1385632E-008  0.4614232E+02  0.7816164E-02  0.1320468E+00
        -11   -1    0    0    0    0  0.00000000000E+00  0.00000000000E+00  0.45593999997E+02  0.45594000000E+02  0.51100000000E-03 0.  1.
         11   -1    0    0    0    0 -0.00000000000E+00 -0.00000000000E+00 -0.45593999997E+02  0.45594000000E+02  0.51100000000E-03 0. -1.
    9900012    2    1    2    0    0 -0.40287413517E+02 -0.11569457939E+02  0.16498046746E+02  0.46142316619E+02  0.99999895816E+01 0.  0.
         12    1    1    2    0    0  0.40287413517E+02  0.11569457939E+02 -0.16498046746E+02  0.45045683381E+02  0.00000000000E+00 0. -1.
         11    1    3    3    0    0 -0.13412552170E+02 -0.30053324330E+01  0.27349133678E+01  0.14014575631E+02  0.51100000000E-03 0. -1.
        -11    1    3    3    0    0 -0.86325961717E+01 -0.43551746721E+01  0.15959180363E+01  0.97998070250E+01  0.51100000000E-03 0.  1.
        -12    1    3    3    0    0 -0.18242265176E+02 -0.42089508338E+01  0.12167215341E+02  0.22327933962E+02  0.00000000000E+00 0.  1.
</event>
<event>
 7    1  0.1385632E-008  0.4614232E+02  0.7816164E-02  0.1320468E+00
        -11   -1    0    0    0    0  0.00000000000E+00  0.00000000000E+00  0.45593999997E+02  0.45594000000E+02  0.51100000000E-03 0.  1.
         11   -1    0    0    0    0 -0.00000000000E+00 -0.00000000000E+00 -0.45593999997E+02  0.45594000000E+02  0.51100000000E-03 0. -1.
    9900012    2    1    2    0    0  0.33283226507E+02 -0.11466738501E+02  0.28104346763E+02  0.46142316904E+02  0.99999921884E+01 0.  0.
         12    1    1    2    0    0 -0.33283226507E+02  0.11466738501E+02 -0.28104346763E+02  0.45045683096E+02  0.00000000000E+00 0. -1.
         11    1    3    3    0    0  0.37264825872E+01 -0.62901598788E+00  0.73961181657E+01  0.83057147657E+01  0.51100000000E-03 0. -1.
        -11    1    3    3    0    0  0.23530305026E+02 -0.78437918948E+01  0.17667786231E+02  0.30452438268E+02  0.51100000000E-03 0.  1.
         12    1    3    3    0    0  0.60264388941E+01 -0.29939306179E+01  0.30404423663E+01  0.73841638709E+01  0.00000000000E+00 0. -1.
</event>
<event>
 7    1  0.1717952E-008  0.4614232E+02  0.7816164E-02  0.1320468E+00
        -11   -1    0    0    0    0  0.00000000000E+00  0.00000000000E+00  0.45593999997E+02  0.45594000000E+02  0.51100000000E-03 0. -1.
         11   -1    0    0    0    0 -0.00000000000E+00 -0.00000000000E+00 -0.45593999997E+02  0.45594000000E+02  0.51100000000E-03 0.  1.
    9900012    2    1    2    0    0  0.38531068820E+02  0.90004068345E+01 -0.21528188182E+02  0.46142317920E+02  0.10000001452E+02 0.  0.
         12    1    1    2    0    0 -0.38531068820E+02 -0.90004068345E+01  0.21528188182E+02  0.45045682080E+02  0.00000000000E+00 0. -1.
         11    1    3    3    0    0  0.13850396718E+02  0.25903654447E+01 -0.38641276428E+01  0.14610782494E+02  0.51100000000E-03 0. -1.
        -11    1    3    3    0    0  0.67931039117E+01  0.40050285388E+01 -0.71452253950E+01  0.10641464211E+02  0.51100000000E-03 0.  1.
        -12    1    3    3    0    0  0.17887568190E+02  0.24050128510E+01 -0.10518835144E+02  0.20890071215E+02  0.00000000000E+00 0.  1.
</event>
<event>
 7    1  0.1385632E-008  0.4614232E+02  0.7816164E-02  0.1320468E+00
        -11   -1    0    0    0    0  0.00000000000E+00  0.00000000000E+00  0.45593999997E+02  0.45594000000E+02  0.51100000000E-03 0. -1.
         11   -1    0    0    0    0 -0.00000000000E+00 -0.00000000000E+00 -0.45593999997E+02  0.45594000000E+02  0.51100000000E-03 0.  1.
    9900012    2    1    2    0    0 -0.39516167903E+02  0.14669885467E+02  0.15886479393E+02  0.46142319931E+02  0.10000019791E+02 0.  0.
         12    1    1    2    0    0  0.39516167903E+02 -0.14669885467E+02 -0.15886479393E+02  0.45045680069E+02  0.00000000000E+00 0. -1.
         11    1    3    3    0    0 -0.92872198134E+00  0.12213860140E+01  0.30609485172E+00  0.15646094188E+01  0.51100000000E-03 0. -1.
        -11    1    3    3    0    0 -0.25994988412E+02  0.11726566031E+02  0.73966055902E+01  0.29461187145E+02  0.51100000000E-03 0.  1.
        -12    1    3    3    0    0 -0.12592457509E+02  0.17219334219E+01  0.81837789506E+01  0.15116523368E+02  0.00000000000E+00 0.  1.
</event>
<event>
 7    1  0.1385632E-008  0.4614232E+02  0.7816164E-02  0.1320468E+00
        -11   -1    0    0    0    0  0.00000000000E+00  0.00000000000E+00  0.45593999997E+02  0.45594000000E+02  0.51100000000E-03 0.  1.
         11   -1    0    0    0    0 -0.00000000000E+00 -0.00000000000E+00 -0.45593999997E+02  0.45594000000E+02  0.51100000000E-03 0. -1.
    9900012    2    1    2    0    0 -0.35414724096E+02 -0.32970224409E+01  0.27641281504E+02  0.46142317821E+02  0.10000000547E+02 0.  0.
         12    1    1    2    0    0  0.35414724096E+02  0.32970224409E+01 -0.27641281504E+02  0.45045682179E+02  0.00000000000E+00 0. -1.
         11    1    3    3    0    0 -0.18559460239E+02 -0.66502061355E+01  0.15644091617E+02  0.25167765272E+02  0.51100000000E-03 0. -1.
        -11    1    3    3    0    0 -0.85840070769E+01  0.20556542946E+01  0.64220993376E+01  0.10915779965E+02  0.51100000000E-03 0.  1.
         12    1    3    3    0    0 -0.82712567808E+01  0.12975294000E+01  0.55750905492E+01  0.10058772585E+02  0.00000000000E+00 0. -1.
</event>
<event>
 7    1  0.1385632E-008  0.4614232E+02  0.7816164E-02  0.1320468E+00
        -11   -1    0    0    0    0  0.00000000000E+00  0.00000000000E+00  0.45593999997E+02  0.45594000000E+02  0.51100000000E-03 0.  1.
         11   -1    0    0    0    0 -0.00000000000E+00 -0.00000000000E+00 -0.45593999997E+02  0.45594000000E+02  0.51100000000E-03 0. -1.
    9900012    2    1    2    0    0  0.82033052722E+01  0.13007000917E+02  0.42339547044E+02  0.46142317253E+02  0.99999953709E+01 0.  0.
         12    1    1    2    0    0 -0.82033052722E+01 -0.13007000917E+02 -0.42339547044E+02  0.45045682747E+02  0.00000000000E+00 0. -1.
         11    1    3    3    0    0  0.32970674376E+01  0.40607648822E+01  0.63179673049E+01  0.82022665309E+01  0.51100000000E-03 0. -1.
        -11    1    3    3    0    0  0.60576976948E+01  0.81835127726E+01  0.33999533556E+02  0.35491320981E+02  0.51100000000E-03 0.  1.
        -12    1    3    3    0    0 -0.11514598602E+01  0.76272326174E+00  0.20220461826E+01  0.24487297417E+01  0.00000000000E+00 0.  1.
</event>
<event>
 7    1  0.1385632E-008  0.4614232E+02  0.7816164E-02  0.1320468E+00
        -11   -1    0    0    0    0  0.00000000000E+00  0.00000000000E+00  0.45593999997E+02  0.45594000000E+02  0.51100000000E-03 0. -1.
         11   -1    0    0    0    0 -0.00000000000E+00 -0.00000000000E+00 -0.45593999997E+02  0.45594000000E+02  0.51100000000E-03 0.  1.
    9900012    2    1    2    0    0  0.44097319871E+02 -0.80862340621E+01 -0.43763745792E+01  0.46142318125E+02  0.10000003321E+02 0.  0.
         12    1    1    2    0    0 -0.44097319871E+02  0.80862340621E+01  0.43763745792E+01  0.45045681875E+02  0.00000000000E+00 0. -1.
         11    1    3    3    0    0  0.58859397564E+00  0.96123495981E+00  0.37702248521E+00  0.11885124028E+01  0.51100000000E-03 0. -1.
        -11    1    3    3    0    0  0.36732780317E+02 -0.81953481802E+01 -0.56793599880E+01  0.38062002204E+02  0.51100000000E-03 0.  1.
        -12    1    3    3    0    0  0.67759455780E+01 -0.85212084177E+00  0.92596292364E+00  0.68918035187E+01  0.00000000000E+00 0.  1.
</event>
<event>
 7    1  0.1385632E-008  0.4614232E+02  0.7816164E-02  0.1320468E+00
        -11   -1    0    0    0    0  0.00000000000E+00  0.00000000000E+00  0.45593999997E+02  0.45594000000E+02  0.51100000000E-03 0. -1.
         11   -1    0    0    0    0 -0.00000000000E+00 -0.00000000000E+00 -0.45593999997E+02  0.45594000000E+02  0.51100000000E-03 0.  1.
    9900012    2    1    2    0    0  0.10860914401E+02  0.35737901734E+01 -0.43570425779E+02  0.46142318294E+02  0.10000004857E+02 0.  0.
         12    1    1    2    0    0 -0.10860914401E+02 -0.35737901734E+01  0.43570425779E+02  0.45045681706E+02  0.00000000000E+00 0. -1.
         11    1    3    3    0    0  0.35538324273E+01  0.27932260063E+00 -0.26061223855E+02  0.26303899618E+02  0.51100000000E-03 0.  1.
        -11    1    3    3    0    0  0.62331128958E+01  0.43992462955E+01 -0.15745816236E+02  0.17496736654E+02  0.51100000000E-03 0. -1.
        -12    1    3    3    0    0  0.10739690783E+01 -0.11047787227E+01 -0.17633856882E+01  0.23416820221E+01  0.00000000000E+00 0.  1.
</event>
<event>
 7    1  0.1385632E-008  0.4614232E+02  0.7816164E-02  0.1320468E+00
        -11   -1    0    0    0    0  0.00000000000E+00  0.00000000000E+00  0.45593999997E+02  0.45594000000E+02  0.51100000000E-03 0.  1.
         11   -1    0    0    0    0 -0.00000000000E+00 -0.00000000000E+00 -0.45593999997E+02  0.45594000000E+02  0.51100000000E-03 0. -1.
    9900012    2    1    2    0    0  0.18836636271E+02  0.24005750932E+00  0.40917441506E+02  0.46142317487E+02  0.99999975044E+01 0.  0.
         12    1    1    2    0    0 -0.18836636271E+02 -0.24005750932E+00 -0.40917441506E+02  0.45045682513E+02  0.00000000000E+00 0. -1.
         11    1    3    3    0    0  0.53239958528E-01 -0.15577969170E+01  0.15694338899E+01  0.22119422966E+01  0.51100000000E-03 0. -1.
        -11    1    3    3    0    0  0.73972266799E+01  0.16474334955E+01  0.21112970982E+02  0.22431909050E+02  0.51100000000E-03 0.  1.
         12    1    3    3    0    0  0.11386169633E+02  0.15042093075E+00  0.18235036634E+02  0.21498466141E+02  0.00000000000E+00 0. -1.
</event>
<event>
 7    1  0.1385632E-008  0.4614232E+02  0.7816164E-02  0.1320468E+00
        -11   -1    0    0    0    0  0.00000000000E+00  0.00000000000E+00  0.45593999997E+02  0.45594000000E+02  0.51100000000E-03 0. -1.
         11   -1    0    0    0    0 -0.00000000000E+00 -0.00000000000E+00 -0.45593999997E+02  0.45594000000E+02  0.51100000000E-03 0.  1.
    9900012    2    1    2    0    0  0.36874307493E+02 -0.15667703203E+02  0.20589367401E+02  0.46142317336E+02  0.99999961215E+01 0.  0.
         12    1    1    2    0    0 -0.36874307493E+02  0.15667703203E+02 -0.20589367401E+02  0.45045682664E+02  0.00000000000E+00 0. -1.
         11    1    3    3    0    0  0.21772842057E+02 -0.13708187126E+02  0.12122105290E+02  0.28441457108E+02  0.51100000000E-03 0. -1.
        -11    1    3    3    0    0  0.77262448905E+01 -0.25076498412E+01  0.39226954822E+01  0.90205713756E+01  0.51100000000E-03 0.  1.
         12    1    3    3    0    0  0.73752205452E+01  0.54813376398E+00  0.45445666288E+01  0.86802888522E+01  0.00000000000E+00 0. -1.
</event>
<event>
 7    1  0.1385632E-008  0.4614232E+02  0.7816164E-02  0.1320468E+00
        -11   -1    0    0    0    0  0.00000000000E+00  0.00000000000E+00  0.45593999997E+02  0.45594000000E+02  0.51100000000E-03 0.  1.
         11   -1    0    0    0    0 -0.00000000000E+00 -0.00000000000E+00 -0.45593999997E+02  0.45594000000E+02  0.51100000000E-03 0. -1.
    9900012    2    1    2    0    0  0.31509295746E+02  0.30607778682E-01  0.32191252026E+02  0.46142319161E+02  0.10000012766E+02 0.  0.
         12    1    1    2    0    0 -0.31509295746E+02 -0.30607778682E-01 -0.32191252026E+02  0.45045680839E+02  0.00000000000E+00 0. -1.
         11    1    3    3    0    0 -0.11232649349E+00 -0.11174436850E+01  0.17378000876E+01  0.20691174534E+01  0.51100000000E-03 0. -1.
        -11    1    3    3    0    0  0.28319647317E+02  0.17466969024E+01  0.25901589538E+02  0.38418038928E+02  0.51100000000E-03 0.  1.
         12    1    3    3    0    0  0.33019749221E+01 -0.59864543867E+00  0.45518624008E+01  0.56551627795E+01  0.00000000000E+00 0. -1.
</event>
<event>
 7    1  0.1385632E-008  0.4614232E+02  0.7816164E-02  0.1320468E+00
        -11   -1    0    0    0    0  0.00000000000E+00  0.00000000000E+00  0.45593999997E+02  0.45594000000E+02  0.51100000000E-03 0.  1.
         11   -1    0    0    0    0 -0.00000000000E+00 -0.00000000000E+00 -0.45593999997E+02  0.45594000000E+02  0.51100000000E-03 0. -1.
    9900012    2    1    2    0    0  0.10123478204E+02  0.21116500292E+02  0.38480152285E+02  0.46142317461E+02  0.99999972628E+01 0.  0.
         12    1    1    2    0    0 -0.10123478204E+02 -0.21116500292E+02 -0.38480152285E+02  0.45045682539E+02  0.00000000000E+00 0. -1.
         11    1    3    3    0    0  0.25921789735E+01  0.15878330151E+01  0.72412676855E+01  0.78534427781E+01  0.51100000000E-03 0. -1.
        -11    1    3    3    0    0  0.66930446978E+01  0.17814459610E+02  0.30987081903E+02  0.36364145303E+02  0.51100000000E-03 0.  1.
         12    1    3    3    0    0  0.83825453303E+00  0.17142076666E+01  0.25180269676E+00  0.19247293795E+01  0.00000000000E+00 0. -1.
</event>
<event>
 7    1  0.1385632E-008  0.4614232E+02  0.7816164E-02  0.1320468E+00
        -11   -1    0    0    0    0  0.00000000000E+00  0.00000000000E+00  0.45593999997E+02  0.45594000000E+02  0.51100000000E-03 0.  1.
         11   -1    0    0    0    0 -0.00000000000E+00 -0.00000000000E+00 -0.45593999997E+02  0.45594000000E+02  0.51100000000E-03 0. -1.
    9900012    2    1    2    0    0 -0.39092469722E+02  0.20550587711E+02  0.88637251891E+01  0.46142317982E+02  0.10000002018E+02 0.  0.
         12    1    1    2    0    0  0.39092469722E+02 -0.20550587711E+02 -0.88637251891E+01  0.45045682018E+02  0.00000000000E+00 0. -1.
         11    1    3    3    0    0 -0.20408473527E+02  0.71893447846E+01  0.55332820945E+01  0.22334047576E+02  0.51100000000E-03 0. -1.
        -11    1    3    3    0    0 -0.17171308336E+02  0.13305369586E+02  0.20388807407E+01  0.21818426266E+02  0.51100000000E-03 0.  1.
         12    1    3    3    0    0 -0.15126878582E+01  0.55873340047E-01  0.12915623538E+01  0.19898441397E+01  0.00000000000E+00 0. -1.
</event>
<event>
 7    1  0.1385632E-008  0.4614232E+02  0.7816164E-02  0.1320468E+00
        -11   -1    0    0    0    0  0.00000000000E+00  0.00000000000E+00  0.45593999997E+02  0.45594000000E+02  0.51100000000E-03 0.  1.
         11   -1    0    0    0    0 -0.00000000000E+00 -0.00000000000E+00 -0.45593999997E+02  0.45594000000E+02  0.51100000000E-03 0. -1.
    9900012    2    1    2    0    0 -0.19023695257E+02  0.39921269807E+02  0.85734947622E+01  0.46142316781E+02  0.99999910607E+01 0.  0.
         12    1    1    2    0    0  0.19023695257E+02 -0.39921269807E+02 -0.85734947622E+01  0.45045683219E+02  0.00000000000E+00 0. -1.
         11    1    3    3    0    0 -0.50077339339E+00  0.13944198879E+01 -0.11081287862E+01  0.18501703930E+01  0.51100000000E-03 0. -1.
        -11    1    3    3    0    0 -0.88987712559E+01  0.12116746865E+02  0.21064706201E+01  0.15180280076E+02  0.51100000000E-03 0.  1.
        -12    1    3    3    0    0 -0.96241506072E+01  0.26410103055E+02  0.75751529283E+01  0.29111866312E+02  0.00000000000E+00 0.  1.
</event>
<event>
 7    1  0.1385632E-008  0.4614232E+02  0.7816164E-02  0.1320468E+00
        -11   -1    0    0    0    0  0.00000000000E+00  0.00000000000E+00  0.45593999997E+02  0.45594000000E+02  0.51100000000E-03 0.  1.
         11   -1    0    0    0    0 -0.00000000000E+00 -0.00000000000E+00 -0.45593999997E+02  0.45594000000E+02  0.51100000000E-03 0. -1.
    9900012    2    1    2    0    0  0.44323650590E+02 -0.71577649456E+01  0.36460769091E+01  0.46142317882E+02  0.10000001104E+02 0.  0.
         12    1    1    2    0    0 -0.44323650590E+02  0.71577649456E+01 -0.36460769091E+01  0.45045682118E+02  0.00000000000E+00 0. -1.
         11    1    3    3    0    0  0.77507977961E+01 -0.48636265325E+00 -0.15469348301E+01  0.79186124249E+01  0.51100000000E-03 0. -1.
        -11    1    3    3    0    0  0.24903910798E+01  0.11291030281E+01  0.13497544428E+01  0.30493866097E+01  0.51100000000E-03 0.  1.
        -12    1    3    3    0    0  0.34082461714E+02 -0.78005053204E+01  0.38432572964E+01  0.35174318848E+02  0.00000000000E+00 0.  1.
</event>
<event>
 7    1  0.1385632E-008  0.4614232E+02  0.7816164E-02  0.1320468E+00
        -11   -1    0    0    0    0  0.00000000000E+00  0.00000000000E+00  0.45593999997E+02  0.45594000000E+02  0.51100000000E-03 0. -1.
         11   -1    0    0    0    0 -0.00000000000E+00 -0.00000000000E+00 -0.45593999997E+02  0.45594000000E+02  0.51100000000E-03 0.  1.
    9900012    2    1    2    0    0 -0.29057979792E+02 -0.77345666878E+01 -0.33539883331E+02  0.46142317796E+02  0.10000000315E+02 0.  0.
         12    1    1    2    0    0  0.29057979792E+02  0.77345666878E+01  0.33539883331E+02  0.45045682204E+02  0.00000000000E+00 0. -1.
         11    1    3    3    0    0 -0.17631173691E+01 -0.21932393808E+00 -0.29676682768E+01  0.34588641357E+01  0.51100000000E-03 0. -1.
        -11    1    3    3    0    0 -0.10224436326E+02 -0.42786325818E+01 -0.18360981124E+02  0.21446944375E+02  0.51100000000E-03 0.  1.
        -12    1    3    3    0    0 -0.17070426096E+02 -0.32366101679E+01 -0.12211233930E+02  0.21236509284E+02  0.00000000000E+00 0.  1.
</event>
<event>
 7    1  0.1385632E-008  0.4614232E+02  0.7816164E-02  0.1320468E+00
        -11   -1    0    0    0    0  0.00000000000E+00  0.00000000000E+00  0.45593999997E+02  0.45594000000E+02  0.51100000000E-03 0. -1.
         11   -1    0    0    0    0 -0.00000000000E+00 -0.00000000000E+00 -0.45593999997E+02  0.45594000000E+02  0.51100000000E-03 0.  1.
    9900012    2    1    2    0    0  0.34783267694E+02 -0.28544353637E+02  0.21113269602E+01  0.46142317215E+02  0.99999950180E+01 0.  0.
         12    1    1    2    0    0 -0.34783267694E+02  0.28544353637E+02 -0.21113269602E+01  0.45045682785E+02  0.00000000000E+00 0. -1.
         11    1    3    3    0    0  0.92989227962E+01 -0.93834476024E+01  0.40794510215E+00  0.13216863226E+02  0.51100000000E-03 0. -1.
        -11    1    3    3    0    0  0.12267964215E+02 -0.14122729360E+02  0.27140829665E+00  0.18709037743E+02  0.51100000000E-03 0.  1.
         12    1    3    3    0    0  0.13216380683E+02 -0.50381766745E+01  0.14319735614E+01  0.14216416245E+02  0.00000000000E+00 0. -1.
</event>
<event>
 7    1  0.1385632E-008  0.4614232E+02  0.7816164E-02  0.1320468E+00
        -11   -1    0    0    0    0  0.00000000000E+00  0.00000000000E+00  0.45593999997E+02  0.45594000000E+02  0.51100000000E-03 0.  1.
         11   -1    0    0    0    0 -0.00000000000E+00 -0.00000000000E+00 -0.45593999997E+02  0.45594000000E+02  0.51100000000E-03 0. -1.
    9900012    2    1    2    0    0 -0.33461846111E+02 -0.30156535367E+02  0.40770559759E-01  0.46142318379E+02  0.10000005634E+02 0.  0.
         12    1    1    2    0    0  0.33461846111E+02  0.30156535367E+02 -0.40770559759E-01  0.45045681621E+02  0.00000000000E+00 0. -1.
         11    1    3    3    0    0 -0.48586867698E-01  0.30564198828E+00  0.26053230442E+00  0.40454301561E+00  0.51100000000E-03 0. -1.
        -11    1    3    3    0    0 -0.16259823669E+02 -0.19281741067E+02  0.82353724168E+00  0.25235800328E+02  0.51100000000E-03 0.  1.
         12    1    3    3    0    0 -0.17153435574E+02 -0.11180436288E+02 -0.10432989863E+01  0.20501975036E+02  0.00000000000E+00 0. -1.
</event>
<event>
 7    1  0.1385632E-008  0.4614232E+02  0.7816164E-02  0.1320468E+00
        -11   -1    0    0    0    0  0.00000000000E+00  0.00000000000E+00  0.45593999997E+02  0.45594000000E+02  0.51100000000E-03 0.  1.
         11   -1    0    0    0    0 -0.00000000000E+00 -0.00000000000E+00 -0.45593999997E+02  0.45594000000E+02  0.51100000000E-03 0. -1.
    9900012    2    1    2    0    0  0.27352930627E+02  0.34169719197E+02  0.10647113836E+02  0.46142317000E+02  0.99999930623E+01 0.  0.
         12    1    1    2    0    0 -0.27352930627E+02 -0.34169719197E+02 -0.10647113836E+02  0.45045683000E+02  0.00000000000E+00 0. -1.
         11    1    3    3    0    0  0.11588054625E+02  0.11733690807E+02  0.41939494529E+01  0.17016219386E+02  0.51100000000E-03 0. -1.
        -11    1    3    3    0    0  0.10664335329E+02  0.19786266847E+02  0.38024371526E+01  0.22796555273E+02  0.51100000000E-03 0.  1.
        -12    1    3    3    0    0  0.51005406729E+01  0.26497615426E+01  0.26507272305E+01  0.63295423404E+01  0.00000000000E+00 0.  1.
</event>
<event>
 7    1  0.1385632E-008  0.4614232E+02  0.7816164E-02  0.1320468E+00
        -11   -1    0    0    0    0  0.00000000000E+00  0.00000000000E+00  0.45593999997E+02  0.45594000000E+02  0.51100000000E-03 0.  1.
         11   -1    0    0    0    0 -0.00000000000E+00 -0.00000000000E+00 -0.45593999997E+02  0.45594000000E+02  0.51100000000E-03 0. -1.
    9900012    2    1    2    0    0 -0.22359201947E+02 -0.32392808278E+02 -0.21906290843E+02  0.46142317428E+02  0.99999969636E+01 0.  0.
         12    1    1    2    0    0  0.22359201947E+02  0.32392808278E+02  0.21906290843E+02  0.45045682572E+02  0.00000000000E+00 0. -1.
         11    1    3    3    0    0 -0.10200547190E+02 -0.10363889533E+02 -0.12654683594E+02  0.19276991113E+02  0.51100000000E-03 0. -1.
        -11    1    3    3    0    0 -0.11514401774E+01 -0.11974046823E+01 -0.59123637634E+00  0.17632790956E+01  0.51100000000E-03 0.  1.
         12    1    3    3    0    0 -0.11007214580E+02 -0.20831514064E+02 -0.86603708719E+01  0.25102047220E+02  0.00000000000E+00 0. -1.
</event>
<event>
 7    1  0.1385632E-008  0.4614232E+02  0.7816164E-02  0.1320468E+00
        -11   -1    0    0    0    0  0.00000000000E+00  0.00000000000E+00  0.45593999997E+02  0.45594000000E+02  0.51100000000E-03 0.  1.
         11   -1    0    0    0    0 -0.00000000000E+00 -0.00000000000E+00 -0.45593999997E+02  0.45594000000E+02  0.51100000000E-03 0. -1.
    9900012    2    1    2    0    0 -0.42641365583E+02 -0.92613452716E+01  0.11182793998E+02  0.46142318113E+02  0.10000003212E+02 0.  0.
         12    1    1    2    0    0  0.42641365583E+02  0.92613452716E+01 -0.11182793998E+02  0.45045681887E+02  0.00000000000E+00 0. -1.
         11    1    3    3    0    0 -0.19633973870E+01 -0.17117246082E+01 -0.87596966310E+00  0.27481363768E+01  0.51100000000E-03 0. -1.
        -11    1    3    3    0    0 -0.23041270773E+02 -0.28677435735E+01  0.45422781959E+01  0.23659171658E+02  0.51100000000E-03 0.  1.
        -12    1    3    3    0    0 -0.17636697423E+02 -0.46818770898E+01  0.75164854655E+01  0.19735010079E+02  0.00000000000E+00 0.  1.
</event>
<event>
 7    1  0.1385632E-008  0.4614232E+02  0.7816164E-02  0.1320468E+00
        -11   -1    0    0    0    0  0.00000000000E+00  0.00000000000E+00  0.45593999997E+02  0.45594000000E+02  0.51100000000E-03 0.  1.
         11   -1    0    0    0    0 -0.00000000000E+00 -0.00000000000E+00 -0.45593999997E+02  0.45594000000E+02  0.51100000000E-03 0. -1.
    9900012    2    1    2    0    0  0.15330609445E+00 -0.34526786618E+02  0.28930798686E+02  0.46142316416E+02  0.99999877357E+01 0.  0.
         12    1    1    2    0    0 -0.15330609445E+00  0.34526786618E+02 -0.28930798686E+02  0.45045683584E+02  0.00000000000E+00 0. -1.
         11    1    3    3    0    0  0.33603186467E+01 -0.10230310223E+02  0.12205388018E+02  0.16276439586E+02  0.51100000000E-03 0. -1.
        -11    1    3    3    0    0  0.51114262049E-01 -0.31334704053E-01  0.47940697026E+00  0.48314163111E+00  0.51100000000E-03 0.  1.
         12    1    3    3    0    0 -0.32581268143E+01 -0.24265141691E+02  0.16246003697E+02  0.29382735199E+02  0.00000000000E+00 0. -1.
</event>
<event>
 7    1  0.1385632E-008  0.4614232E+02  0.7816164E-02  0.1320468E+00
        -11   -1    0    0    0    0  0.00000000000E+00  0.00000000000E+00  0.45593999997E+02  0.45594000000E+02  0.51100000000E-03 0.  1.
         11   -1    0    0    0    0 -0.00000000000E+00 -0.00000000000E+00 -0.45593999997E+02  0.45594000000E+02  0.51100000000E-03 0. -1.
    9900012    2    1    2    0    0  0.11586302344E+02 -0.48273166816E+01  0.43261623889E+02  0.46142317744E+02  0.99999998478E+01 0.  0.
         12    1    1    2    0    0 -0.11586302344E+02  0.48273166816E+01 -0.43261623889E+02  0.45045682256E+02  0.00000000000E+00 0. -1.
         11    1    3    3    0    0  0.17096969336E+01  0.20682873608E+01  0.37597933588E+01  0.46191906838E+01  0.51100000000E-03 0. -1.
        -11    1    3    3    0    0  0.38128761701E+01 -0.51864535366E+01  0.21974514568E+02  0.22897960951E+02  0.51100000000E-03 0.  1.
        -12    1    3    3    0    0  0.60637292399E+01 -0.17091505058E+01  0.17527315963E+02  0.18625166110E+02  0.00000000000E+00 0.  1.
</event>
<event>
 7    1  0.1385632E-008  0.4614232E+02  0.7816164E-02  0.1320468E+00
        -11   -1    0    0    0    0  0.00000000000E+00  0.00000000000E+00  0.45593999997E+02  0.45594000000E+02  0.51100000000E-03 0.  1.
         11   -1    0    0    0    0 -0.00000000000E+00 -0.00000000000E+00 -0.45593999997E+02  0.45594000000E+02  0.51100000000E-03 0. -1.
    9900012    2    1    2    0    0 -0.82526170678E+01  0.41624599090E+02  0.15112913613E+02  0.46142322119E+02  0.10000039738E+02 0.  0.
         12    1    1    2    0    0  0.82526170678E+01 -0.41624599090E+02 -0.15112913613E+02  0.45045677881E+02  0.00000000000E+00 0. -1.
         11    1    3    3    0    0  0.19585471377E+01  0.31844816731E+01  0.10913849148E+01  0.38946054627E+01  0.51100000000E-03 0. -1.
        -11    1    3    3    0    0 -0.71880079905E+01  0.29772207541E+02  0.99294581324E+01  0.32196986502E+02  0.51100000000E-03 0.  1.
         12    1    3    3    0    0 -0.30231562149E+01  0.86679098762E+01  0.40920705659E+01  0.10050730154E+02  0.00000000000E+00 0. -1.
</event>
<event>
 7    1  0.1385632E-008  0.4614232E+02  0.7816164E-02  0.1320468E+00
        -11   -1    0    0    0    0  0.00000000000E+00  0.00000000000E+00  0.45593999997E+02  0.45594000000E+02  0.51100000000E-03 0.  1.
         11   -1    0    0    0    0 -0.00000000000E+00 -0.00000000000E+00 -0.45593999997E+02  0.45594000000E+02  0.51100000000E-03 0. -1.
    9900012    2    1    2    0    0 -0.12856596044E+02 -0.37391118662E+02  0.21580679025E+02  0.46142317368E+02  0.99999964113E+01 0.  0.
         12    1    1    2    0    0  0.12856596044E+02  0.37391118662E+02 -0.21580679025E+02  0.45045682632E+02  0.00000000000E+00 0. -1.
         11    1    3    3    0    0 -0.76080228464E+01 -0.16471502046E+02  0.11576568340E+02  0.21522298346E+02  0.51100000000E-03 0. -1.
        -11    1    3    3    0    0 -0.42987892550E+00 -0.10658664506E+01 -0.90212868950E+00  0.14610624951E+01  0.51100000000E-03 0.  1.
        -12    1    3    3    0    0 -0.48186942723E+01 -0.19853750166E+02  0.10906239374E+02  0.23158956527E+02  0.00000000000E+00 0.  1.
</event>
<event>
 7    1  0.1385632E-008  0.4614232E+02  0.7816164E-02  0.1320468E+00
        -11   -1    0    0    0    0  0.00000000000E+00  0.00000000000E+00  0.45593999997E+02  0.45594000000E+02  0.51100000000E-03 0.  1.
         11   -1    0    0    0    0 -0.00000000000E+00 -0.00000000000E+00 -0.45593999997E+02  0.45594000000E+02  0.51100000000E-03 0. -1.
    9900012    2    1    2    0    0 -0.52653025168E+01  0.20320103812E+02  0.39855783557E+02  0.46142317493E+02  0.99999975563E+01 0.  0.
         12    1    1    2    0    0  0.52653025168E+01 -0.20320103812E+02 -0.39855783557E+02  0.45045682507E+02  0.00000000000E+00 0. -1.
         11    1    3    3    0    0 -0.15957562014E+01  0.25266465604E+01  0.11621800617E+02  0.11999859605E+02  0.51100000000E-03 0. -1.
        -11    1    3    3    0    0 -0.67017574138E+00  0.13532426534E+02  0.16843388266E+02  0.21616554582E+02  0.51100000000E-03 0.  1.
        -12    1    3    3    0    0 -0.29993705741E+01  0.42610307179E+01  0.11390594674E+02  0.12525903306E+02  0.00000000000E+00 0.  1.
</event>
<event>
 7    1  0.1385632E-008  0.4614232E+02  0.7816164E-02  0.1320468E+00
        -11   -1    0    0    0    0  0.00000000000E+00  0.00000000000E+00  0.45593999997E+02  0.45594000000E+02  0.51100000000E-03 0.  1.
         11   -1    0    0    0    0 -0.00000000000E+00 -0.00000000000E+00 -0.45593999997E+02  0.45594000000E+02  0.51100000000E-03 0. -1.
    9900012    2    1    2    0    0 -0.12259705651E+02 -0.28187648498E+02  0.32928248681E+02  0.46142317946E+02  0.10000001689E+02 0.  0.
         12    1    1    2    0    0  0.12259705651E+02  0.28187648498E+02 -0.32928248681E+02  0.45045682054E+02  0.00000000000E+00 0. -1.
         11    1    3    3    0    0 -0.70558174615E+01 -0.97236324475E+01  0.11165484614E+02  0.16401269309E+02  0.51100000000E-03 0.  1.
        -11    1    3    3    0    0 -0.16060343918E+01 -0.94515514706E+00  0.45593527459E+01  0.49254809352E+01  0.51100000000E-03 0. -1.
        -12    1    3    3    0    0 -0.35978537977E+01 -0.17518860903E+02  0.17203411321E+02  0.24815567702E+02  0.00000000000E+00 0.  1.
</event>
<event>
 7    1  0.1385632E-008  0.4614232E+02  0.7816164E-02  0.1320468E+00
        -11   -1    0    0    0    0  0.00000000000E+00  0.00000000000E+00  0.45593999997E+02  0.45594000000E+02  0.51100000000E-03 0.  1.
         11   -1    0    0    0    0 -0.00000000000E+00 -0.00000000000E+00 -0.45593999997E+02  0.45594000000E+02  0.51100000000E-03 0. -1.
    9900012    2    1    2    0    0 -0.28067772471E+02 -0.35156981942E+02  0.23022239786E+01  0.46142318009E+02  0.10000002262E+02 0.  0.
         12    1    1    2    0    0  0.28067772471E+02  0.35156981942E+02 -0.23022239786E+01  0.45045681991E+02  0.00000000000E+00 0. -1.
         11    1    3    3    0    0 -0.10403346569E+01 -0.70930997824E+00  0.14004985816E+01  0.18832985377E+01  0.51100000000E-03 0. -1.
        -11    1    3    3    0    0 -0.21767105336E+02 -0.27179180250E+02 -0.18613837829E+01  0.34870897087E+02  0.51100000000E-03 0.  1.
        -12    1    3    3    0    0 -0.52603324775E+01 -0.72684917139E+01  0.27631091798E+01  0.93881223846E+01  0.00000000000E+00 0.  1.
</event>
<event>
 7    1  0.1385632E-008  0.4614232E+02  0.7816164E-02  0.1320468E+00
        -11   -1    0    0    0    0  0.00000000000E+00  0.00000000000E+00  0.45593999997E+02  0.45594000000E+02  0.51100000000E-03 0.  1.
         11   -1    0    0    0    0 -0.00000000000E+00 -0.00000000000E+00 -0.45593999997E+02  0.45594000000E+02  0.51100000000E-03 0. -1.
    9900012    2    1    2    0    0  0.15681294977E+02  0.39123067028E+02  0.15893268603E+02  0.46142319045E+02  0.10000011705E+02 0.  0.
         12    1    1    2    0    0 -0.15681294977E+02 -0.39123067028E+02 -0.15893268603E+02  0.45045680955E+02  0.00000000000E+00 0. -1.
         11    1    3    3    0    0  0.51415401306E+01  0.52496437134E+01  0.17585523797E+01  0.75555741520E+01  0.51100000000E-03 0. -1.
        -11    1    3    3    0    0  0.93802373791E+01  0.25832249631E+02  0.12934400708E+02  0.30374211038E+02  0.51100000000E-03 0.  1.
         12    1    3    3    0    0  0.11595174669E+01  0.80411736840E+01  0.12003155156E+01  0.82125338544E+01  0.00000000000E+00 0. -1.
</event>
<event>
 7    1  0.1385632E-008  0.4614231E+02  0.7816164E-02  0.1320468E+00
        -11   -1    0    0    0    0  0.00000000000E+00  0.00000000000E+00  0.45593999997E+02  0.45594000000E+02  0.51100000000E-03 0.  1.
         11   -1    0    0    0    0 -0.00000000000E+00 -0.00000000000E+00 -0.45593999997E+02  0.45594000000E+02  0.51100000000E-03 0. -1.
    9900012    2    1    2    0    0 -0.38244963628E+02 -0.88032963094E+00  0.23783654647E+02  0.46142307070E+02  0.99999025121E+01 0.  0.
         12    1    1    2    0    0  0.38244963628E+02  0.88032963094E+00 -0.23783654647E+02  0.45045692930E+02  0.00000000000E+00 0. -1.
         11    1    3    3    0    0 -0.19898568257E+02  0.29762449339E+01  0.10794038407E+02  0.22832483833E+02  0.51100000000E-03 0.  1.
        -11    1    3    3    0    0 -0.79754051607E+01 -0.15323896999E+01  0.85480048447E+01  0.11790830876E+02  0.51100000000E-03 0. -1.
         12    1    3    3    0    0 -0.10370990211E+02 -0.23241848650E+01  0.44416113946E+01  0.11518992361E+02  0.00000000000E+00 0. -1.
</event>
<event>
 7    1  0.1385632E-008  0.4614232E+02  0.7816164E-02  0.1320468E+00
        -11   -1    0    0    0    0  0.00000000000E+00  0.00000000000E+00  0.45593999997E+02  0.45594000000E+02  0.51100000000E-03 0.  1.
         11   -1    0    0    0    0 -0.00000000000E+00 -0.00000000000E+00 -0.45593999997E+02  0.45594000000E+02  0.51100000000E-03 0. -1.
    9900012    2    1    2    0    0  0.21739547229E+02 -0.23753090647E+02  0.31500733033E+02  0.46142318624E+02  0.10000007865E+02 0.  0.
         12    1    1    2    0    0 -0.21739547229E+02  0.23753090647E+02 -0.31500733033E+02  0.45045681376E+02  0.00000000000E+00 0. -1.
         11    1    3    3    0    0  0.10293415119E+00 -0.10122792713E+01  0.14262529164E+01  0.17519995449E+01  0.51100000000E-03 0. -1.
        -11    1    3    3    0    0  0.16433434436E+02 -0.12440429622E+02  0.15438309930E+02  0.25751960514E+02  0.51100000000E-03 0.  1.
        -12    1    3    3    0    0  0.52031786417E+01 -0.10300381754E+02  0.14636170187E+02  0.18638358565E+02  0.00000000000E+00 0.  1.
</event>
<event>
 7    1  0.1385632E-008  0.4614232E+02  0.7816164E-02  0.1320468E+00
        -11   -1    0    0    0    0  0.00000000000E+00  0.00000000000E+00  0.45593999997E+02  0.45594000000E+02  0.51100000000E-03 0. -1.
         11   -1    0    0    0    0 -0.00000000000E+00 -0.00000000000E+00 -0.45593999997E+02  0.45594000000E+02  0.51100000000E-03 0.  1.
    9900012    2    1    2    0    0 -0.29756302776E+02  0.11578901864E+02 -0.31774281952E+02  0.46142317445E+02  0.99999971216E+01 0.  0.
         12    1    1    2    0    0  0.29756302776E+02 -0.11578901864E+02  0.31774281952E+02  0.45045682555E+02  0.00000000000E+00 0. -1.
         11    1    3    3    0    0 -0.17685964904E+01 -0.10869104773E+00  0.30221539285E-01  0.17721909864E+01  0.51100000000E-03 0. -1.
        -11    1    3    3    0    0 -0.24060190167E+02  0.10135589267E+02 -0.30022229553E+02  0.39786394512E+02  0.51100000000E-03 0.  1.
        -12    1    3    3    0    0 -0.39275161185E+01  0.15520036447E+01 -0.17822739381E+01  0.45837319472E+01  0.00000000000E+00 0.  1.
</event>
<event>
 7    1  0.1385632E-008  0.4614232E+02  0.7816164E-02  0.1320468E+00
        -11   -1    0    0    0    0  0.00000000000E+00  0.00000000000E+00  0.45593999997E+02  0.45594000000E+02  0.51100000000E-03 0.  1.
         11   -1    0    0    0    0 -0.00000000000E+00 -0.00000000000E+00 -0.45593999997E+02  0.45594000000E+02  0.51100000000E-03 0. -1.
    9900012    2    1    2    0    0  0.30903414596E+02 -0.15459940907E+02  0.28897797788E+02  0.46142317370E+02  0.99999964343E+01 0.  0.
         12    1    1    2    0    0 -0.30903414596E+02  0.15459940907E+02 -0.28897797788E+02  0.45045682630E+02  0.00000000000E+00 0. -1.
         11    1    3    3    0    0  0.34903129618E+01 -0.53777721095E+00  0.23388504257E+01  0.42357656303E+01  0.51100000000E-03 0. -1.
        -11    1    3    3    0    0  0.19123819347E+02 -0.10745195913E+02  0.13076168475E+02  0.25537538720E+02  0.51100000000E-03 0.  1.
        -12    1    3    3    0    0  0.82892822874E+01 -0.41769677833E+01  0.13482778888E+02  0.16369013020E+02  0.00000000000E+00 0.  1.
</event>
<event>
 7    1  0.1385632E-008  0.4614232E+02  0.7816164E-02  0.1320468E+00
        -11   -1    0    0    0    0  0.00000000000E+00  0.00000000000E+00  0.45593999997E+02  0.45594000000E+02  0.51100000000E-03 0.  1.
         11   -1    0    0    0    0 -0.00000000000E+00 -0.00000000000E+00 -0.45593999997E+02  0.45594000000E+02  0.51100000000E-03 0. -1.
    9900012    2    1    2    0    0 -0.26822185723E+02  0.23064328427E+02  0.27887643126E+02  0.46142317278E+02  0.99999955958E+01 0.  0.
         12    1    1    2    0    0  0.26822185723E+02 -0.23064328427E+02 -0.27887643126E+02  0.45045682722E+02  0.00000000000E+00 0. -1.
         11    1    3    3    0    0 -0.99814295718E+01  0.66865078964E+01  0.49756527362E+01  0.13003670426E+02  0.51100000000E-03 0. -1.
        -11    1    3    3    0    0 -0.83616663692E+01  0.51043193591E+01  0.84667409740E+01  0.12948252530E+02  0.51100000000E-03 0.  1.
         12    1    3    3    0    0 -0.84790897822E+01  0.11273501172E+02  0.14445249416E+02  0.20190394322E+02  0.00000000000E+00 0. -1.
</event>
<event>
 7    1  0.1385632E-008  0.4614232E+02  0.7816164E-02  0.1320468E+00
        -11   -1    0    0    0    0  0.00000000000E+00  0.00000000000E+00  0.45593999997E+02  0.45594000000E+02  0.51100000000E-03 0.  1.
         11   -1    0    0    0    0 -0.00000000000E+00 -0.00000000000E+00 -0.45593999997E+02  0.45594000000E+02  0.51100000000E-03 0. -1.
    9900012    2    1    2    0    0  0.38276142264E+02  0.95070977971E+01  0.21763858194E+02  0.46142317647E+02  0.99999989573E+01 0.  0.
         12    1    1    2    0    0 -0.38276142264E+02 -0.95070977971E+01 -0.21763858194E+02  0.45045682353E+02  0.00000000000E+00 0. -1.
         11    1    3    3    0    0  0.23044899682E+02  0.78025871839E+01  0.10013477346E+02  0.26310026547E+02  0.51100000000E-03 0. -1.
        -11    1    3    3    0    0  0.18716913843E+01 -0.10641397902E+01  0.66598146836E+00  0.22536977855E+01  0.51100000000E-03 0.  1.
        -12    1    3    3    0    0  0.13359551198E+02  0.27686504034E+01  0.11084399380E+02  0.17578593314E+02  0.00000000000E+00 0.  1.
</event>
<event>
 7    1  0.1385632E-008  0.4614232E+02  0.7816164E-02  0.1320468E+00
        -11   -1    0    0    0    0  0.00000000000E+00  0.00000000000E+00  0.45593999997E+02  0.45594000000E+02  0.51100000000E-03 0.  1.
         11   -1    0    0    0    0 -0.00000000000E+00 -0.00000000000E+00 -0.45593999997E+02  0.45594000000E+02  0.51100000000E-03 0. -1.
    9900012    2    1    2    0    0 -0.25118073300E+02  0.91615656292E+01  0.36252746265E+02  0.46142317601E+02  0.99999985356E+01 0.  0.
         12    1    1    2    0    0  0.25118073300E+02 -0.91615656292E+01 -0.36252746265E+02  0.45045682399E+02  0.00000000000E+00 0. -1.
         11    1    3    3    0    0 -0.13520866184E+02  0.68112567021E+01  0.25779430846E+02  0.29896255539E+02  0.51100000000E-03 0. -1.
        -11    1    3    3    0    0 -0.89623101103E+01  0.59851467405E+00  0.91327597957E+01  0.12809704293E+02  0.51100000000E-03 0.  1.
         12    1    3    3    0    0 -0.26348970053E+01  0.17517942530E+01  0.13405556228E+01  0.34363577682E+01  0.00000000000E+00 0. -1.
</event>
<event>
 7    1  0.1385632E-008  0.4614232E+02  0.7816164E-02  0.1320468E+00
        -11   -1    0    0    0    0  0.00000000000E+00  0.00000000000E+00  0.45593999997E+02  0.45594000000E+02  0.51100000000E-03 0.  1.
         11   -1    0    0    0    0 -0.00000000000E+00 -0.00000000000E+00 -0.45593999997E+02  0.45594000000E+02  0.51100000000E-03 0. -1.
    9900012    2    1    2    0    0  0.37088084198E+02 -0.20604882197E+02 -0.15133612729E+02  0.46142318808E+02  0.10000009549E+02 0.  0.
         12    1    1    2    0    0 -0.37088084198E+02  0.20604882197E+02  0.15133612729E+02  0.45045681192E+02  0.00000000000E+00 0. -1.
         11    1    3    3    0    0  0.43636931484E+01 -0.28047900357E+01  0.12626925254E+01  0.53388254994E+01  0.51100000000E-03 0. -1.
        -11    1    3    3    0    0  0.11893276321E+02 -0.55742913532E+01 -0.45454124703E+01  0.13899047468E+02  0.51100000000E-03 0.  1.
         12    1    3    3    0    0  0.20831114729E+02 -0.12225800808E+02 -0.11850892784E+02  0.26904445841E+02  0.00000000000E+00 0. -1.
</event>
<event>
 7    1  0.1385632E-008  0.4614232E+02  0.7816164E-02  0.1320468E+00
        -11   -1    0    0    0    0  0.00000000000E+00  0.00000000000E+00  0.45593999997E+02  0.45594000000E+02  0.51100000000E-03 0.  1.
         11   -1    0    0    0    0 -0.00000000000E+00 -0.00000000000E+00 -0.45593999997E+02  0.45594000000E+02  0.51100000000E-03 0. -1.
    9900012    2    1    2    0    0 -0.39074830750E+02  0.58343051229E+01  0.21638673545E+02  0.46142315332E+02  0.99999778488E+01 0.  0.
         12    1    1    2    0    0  0.39074830750E+02 -0.58343051229E+01 -0.21638673545E+02  0.45045684668E+02  0.00000000000E+00 0. -1.
         11    1    3    3    0    0 -0.10186402116E+02 -0.44748253951E+00  0.29526508648E+01  0.10615139005E+02  0.51100000000E-03 0. -1.
        -11    1    3    3    0    0 -0.23149390586E+02  0.38507690213E+01  0.17265874521E+02  0.29134740943E+02  0.51100000000E-03 0.  1.
        -12    1    3    3    0    0 -0.57390380480E+01  0.24310186411E+01  0.14201481584E+01  0.63924353843E+01  0.00000000000E+00 0.  1.
</event>
<event>
 7    1  0.1385632E-008  0.4614232E+02  0.7816164E-02  0.1320468E+00
        -11   -1    0    0    0    0  0.00000000000E+00  0.00000000000E+00  0.45593999997E+02  0.45594000000E+02  0.51100000000E-03 0.  1.
         11   -1    0    0    0    0 -0.00000000000E+00 -0.00000000000E+00 -0.45593999997E+02  0.45594000000E+02  0.51100000000E-03 0. -1.
    9900012    2    1    2    0    0 -0.63871180437E+01  0.76470107465E+01  0.43929961108E+02  0.46142317263E+02  0.99999954583E+01 0.  0.
         12    1    1    2    0    0  0.63871180437E+01 -0.76470107465E+01 -0.43929961108E+02  0.45045682737E+02  0.00000000000E+00 0. -1.
         11    1    3    3    0    0 -0.14046518433E+00 -0.66266312868E-01 -0.37842322239E+00  0.40905511682E+00  0.51100000000E-03 0. -1.
        -11    1    3    3    0    0 -0.61873895414E+01  0.82140265185E+01  0.36855032575E+02  0.38262872963E+02  0.51100000000E-03 0.  1.
        -12    1    3    3    0    0 -0.59263317990E-01 -0.50074945910E+00  0.74533517557E+01  0.74703891837E+01  0.00000000000E+00 0.  1.
</event>
<event>
 7    1  0.1385632E-008  0.4614232E+02  0.7816164E-02  0.1320468E+00
        -11   -1    0    0    0    0  0.00000000000E+00  0.00000000000E+00  0.45593999997E+02  0.45594000000E+02  0.51100000000E-03 0.  1.
         11   -1    0    0    0    0 -0.00000000000E+00 -0.00000000000E+00 -0.45593999997E+02  0.45594000000E+02  0.51100000000E-03 0. -1.
    9900012    2    1    2    0    0  0.21397420769E+02 -0.29170283797E+02 -0.26839495837E+02  0.46142316421E+02  0.99999877781E+01 0.  0.
         12    1    1    2    0    0 -0.21397420769E+02  0.29170283797E+02  0.26839495837E+02  0.45045683579E+02  0.00000000000E+00 0. -1.
         11    1    3    3    0    0  0.14468378763E+02 -0.19177425007E+02 -0.20305482908E+02  0.31455051268E+02  0.51100000000E-03 0. -1.
        -11    1    3    3    0    0  0.18595514687E+00 -0.34968682061E+01 -0.32135563053E+01  0.47528529281E+01  0.51100000000E-03 0.  1.
         12    1    3    3    0    0  0.67430868588E+01 -0.64959905839E+01 -0.33204566239E+01  0.99344122244E+01  0.00000000000E+00 0. -1.
</event>
<event>
 7    1  0.1385632E-008  0.4614232E+02  0.7816164E-02  0.1320468E+00
        -11   -1    0    0    0    0  0.00000000000E+00  0.00000000000E+00  0.45593999997E+02  0.45594000000E+02  0.51100000000E-03 0.  1.
         11   -1    0    0    0    0 -0.00000000000E+00 -0.00000000000E+00 -0.45593999997E+02  0.45594000000E+02  0.51100000000E-03 0. -1.
    9900012    2    1    2    0    0  0.25631348425E+02  0.12995915398E+01  0.37019704555E+02  0.46142317792E+02  0.10000000281E+02 0.  0.
         12    1    1    2    0    0 -0.25631348425E+02 -0.12995915398E+01 -0.37019704555E+02  0.45045682208E+02  0.00000000000E+00 0. -1.
         11    1    3    3    0    0  0.37596176570E+01  0.14639212938E+00  0.91040439470E+00  0.38710453376E+01  0.51100000000E-03 0. -1.
        -11    1    3    3    0    0  0.18285292985E+02  0.14559831471E+01  0.29271525972E+02  0.34544088632E+02  0.51100000000E-03 0.  1.
        -12    1    3    3    0    0  0.35864377832E+01 -0.30278373667E+00  0.68377741886E+01  0.77271838220E+01  0.00000000000E+00 0.  1.
</event>
<event>
 7    1  0.1385632E-008  0.4614232E+02  0.7816164E-02  0.1320468E+00
        -11   -1    0    0    0    0  0.00000000000E+00  0.00000000000E+00  0.45593999997E+02  0.45594000000E+02  0.51100000000E-03 0. -1.
         11   -1    0    0    0    0 -0.00000000000E+00 -0.00000000000E+00 -0.45593999997E+02  0.45594000000E+02  0.51100000000E-03 0.  1.
    9900012    2    1    2    0    0 -0.17365372774E+01 -0.60038384347E+01 -0.44609997352E+02  0.46142317616E+02  0.99999986773E+01 0.  0.
         12    1    1    2    0    0  0.17365372774E+01  0.60038384347E+01  0.44609997352E+02  0.45045682384E+02  0.00000000000E+00 0. -1.
         11    1    3    3    0    0 -0.42191488037E+01 -0.73746916042E+01 -0.29821927419E+02  0.31008622158E+02  0.51100000000E-03 0. -1.
        -11    1    3    3    0    0  0.15038203898E+01  0.11645819742E+01 -0.12393379538E+02  0.12538484102E+02  0.51100000000E-03 0.  1.
         12    1    3    3    0    0  0.97879113647E+00  0.20627119530E+00 -0.23946903957E+01  0.25952113567E+01  0.00000000000E+00 0. -1.
</event>
<event>
 7    1  0.1385632E-008  0.4614232E+02  0.7816164E-02  0.1320468E+00
        -11   -1    0    0    0    0  0.00000000000E+00  0.00000000000E+00  0.45593999997E+02  0.45594000000E+02  0.51100000000E-03 0. -1.
         11   -1    0    0    0    0 -0.00000000000E+00 -0.00000000000E+00 -0.45593999997E+02  0.45594000000E+02  0.51100000000E-03 0.  1.
    9900012    2    1    2    0    0  0.41448863049E+02  0.16857314770E+02 -0.51900072248E+01  0.46142317806E+02  0.10000000410E+02 0.  0.
         12    1    1    2    0    0 -0.41448863049E+02 -0.16857314770E+02  0.51900072248E+01  0.45045682194E+02  0.00000000000E+00 0. -1.
         11    1    3    3    0    0  0.16956709351E+02  0.95889705284E+01 -0.46953371700E+01  0.20038077233E+02  0.51100000000E-03 0. -1.
        -11    1    3    3    0    0  0.94078860631E+01  0.12405352671E+00 -0.23346310208E+00  0.94116000093E+01  0.51100000000E-03 0.  1.
         12    1    3    3    0    0  0.15084267636E+02  0.71442907149E+01 -0.26120695270E+00  0.16692640564E+02  0.00000000000E+00 0. -1.
</event>
<event>
 7    1  0.1385632E-008  0.4614232E+02  0.7816164E-02  0.1320468E+00
        -11   -1    0    0    0    0  0.00000000000E+00  0.00000000000E+00  0.45593999997E+02  0.45594000000E+02  0.51100000000E-03 0.  1.
         11   -1    0    0    0    0 -0.00000000000E+00 -0.00000000000E+00 -0.45593999997E+02  0.45594000000E+02  0.51100000000E-03 0. -1.
    9900012    2    1    2    0    0 -0.31399399541E+02  0.28881631654E+02  0.14458294716E+02  0.46142320689E+02  0.10000026698E+02 0.  0.
         12    1    1    2    0    0  0.31399399541E+02 -0.28881631654E+02 -0.14458294716E+02  0.45045679311E+02  0.00000000000E+00 0. -1.
         11    1    3    3    0    0 -0.87318656723E+01  0.86453091888E+01  0.11847632307E+01  0.12344655251E+02  0.51100000000E-03 0. -1.
        -11    1    3    3    0    0 -0.14531041850E+02  0.15450891321E+02  0.65159351672E+01  0.22188705037E+02  0.51100000000E-03 0.  1.
         12    1    3    3    0    0 -0.81364920185E+01  0.47854311450E+01  0.67575963176E+01  0.11608960401E+02  0.00000000000E+00 0. -1.
</event>
<event>
 7    1  0.1385632E-008  0.4614232E+02  0.7816164E-02  0.1320468E+00
        -11   -1    0    0    0    0  0.00000000000E+00  0.00000000000E+00  0.45593999997E+02  0.45594000000E+02  0.51100000000E-03 0.  1.
         11   -1    0    0    0    0 -0.00000000000E+00 -0.00000000000E+00 -0.45593999997E+02  0.45594000000E+02  0.51100000000E-03 0. -1.
    9900012    2    1    2    0    0  0.65569537855E+01 -0.32898466679E+02  0.30063444304E+02  0.46142318340E+02  0.10000005282E+02 0.  0.
         12    1    1    2    0    0 -0.65569537855E+01  0.32898466679E+02 -0.30063444304E+02  0.45045681660E+02  0.00000000000E+00 0. -1.
         11    1    3    3    0    0  0.55394255902E+01 -0.19221439637E+02  0.13824161408E+02  0.24315764773E+02  0.51100000000E-03 0. -1.
        -11    1    3    3    0    0  0.79744506702E+00 -0.12694305194E+02  0.16453848378E+02  0.20796885096E+02  0.51100000000E-03 0.  1.
         12    1    3    3    0    0  0.22008312831E+00 -0.98272184820E+00 -0.21456548275E+00  0.10296684712E+01  0.00000000000E+00 0. -1.
</event>
<event>
 7    1  0.1385632E-008  0.4614232E+02  0.7816164E-02  0.1320468E+00
        -11   -1    0    0    0    0  0.00000000000E+00  0.00000000000E+00  0.45593999997E+02  0.45594000000E+02  0.51100000000E-03 0.  1.
         11   -1    0    0    0    0 -0.00000000000E+00 -0.00000000000E+00 -0.45593999997E+02  0.45594000000E+02  0.51100000000E-03 0. -1.
    9900012    2    1    2    0    0 -0.19415406499E+01  0.25525491045E+02  0.37064716385E+02  0.46142317922E+02  0.10000001463E+02 0.  0.
         12    1    1    2    0    0  0.19415406499E+01 -0.25525491045E+02 -0.37064716385E+02  0.45045682078E+02  0.00000000000E+00 0. -1.
         11    1    3    3    0    0 -0.16842242931E+01  0.10600715175E+02  0.18348108765E+02  0.21257113379E+02  0.51100000000E-03 0.  1.
        -11    1    3    3    0    0 -0.72324843439E+00  0.60044521420E+01  0.28696669837E+01  0.66941409219E+01  0.51100000000E-03 0. -1.
         12    1    3    3    0    0  0.46593207758E+00  0.89203237283E+01  0.15846940637E+02  0.18191063621E+02  0.00000000000E+00 0. -1.
</event>
<event>
 7    1  0.1385632E-008  0.4614232E+02  0.7816164E-02  0.1320468E+00
        -11   -1    0    0    0    0  0.00000000000E+00  0.00000000000E+00  0.45593999997E+02  0.45594000000E+02  0.51100000000E-03 0.  1.
         11   -1    0    0    0    0 -0.00000000000E+00 -0.00000000000E+00 -0.45593999997E+02  0.45594000000E+02  0.51100000000E-03 0. -1.
    9900012    2    1    2    0    0 -0.86831501122E+01 -0.22418378446E+02  0.38093735095E+02  0.46142318281E+02  0.10000004745E+02 0.  0.
         12    1    1    2    0    0  0.86831501122E+01  0.22418378446E+02 -0.38093735095E+02  0.45045681719E+02  0.00000000000E+00 0. -1.
         11    1    3    3    0    0 -0.14593503324E+01 -0.23101585329E+01  0.10628294125E+02  0.10973931479E+02  0.51100000000E-03 0. -1.
        -11    1    3    3    0    0 -0.49342520423E+01 -0.65546751035E+01  0.10903890911E+02  0.13645711641E+02  0.51100000000E-03 0.  1.
         12    1    3    3    0    0 -0.22895477374E+01 -0.13553544810E+02  0.16561550059E+02  0.21522675161E+02  0.00000000000E+00 0. -1.
</event>
<event>
 7    1  0.1385632E-008  0.4614232E+02  0.7816164E-02  0.1320468E+00
        -11   -1    0    0    0    0  0.00000000000E+00  0.00000000000E+00  0.45593999997E+02  0.45594000000E+02  0.51100000000E-03 0. -1.
         11   -1    0    0    0    0 -0.00000000000E+00 -0.00000000000E+00 -0.45593999997E+02  0.45594000000E+02  0.51100000000E-03 0.  1.
    9900012    2    1    2    0    0  0.25210940903E+00 -0.18214472828E+00 -0.45044608277E+02  0.46142317958E+02  0.10000001791E+02 0.  0.
         12    1    1    2    0    0 -0.25210940903E+00  0.18214472828E+00  0.45044608277E+02  0.45045682042E+02  0.00000000000E+00 0. -1.
         11    1    3    3    0    0 -0.32627798406E+01 -0.23670835588E+01 -0.19900751842E+02  0.20304894508E+02  0.51100000000E-03 0.  1.
        -11    1    3    3    0    0  0.42673571762E+01  0.26586009538E+01 -0.20356912660E+02  0.20968604856E+02  0.51100000000E-03 0. -1.
         12    1    3    3    0    0 -0.75246792653E+00 -0.47366212332E+00 -0.47869437754E+01  0.48688185935E+01  0.00000000000E+00 0. -1.
</event>
<event>
 7    1  0.1385632E-008  0.4614232E+02  0.7816164E-02  0.1320468E+00
        -11   -1    0    0    0    0  0.00000000000E+00  0.00000000000E+00  0.45593999997E+02  0.45594000000E+02  0.51100000000E-03 0.  1.
         11   -1    0    0    0    0 -0.00000000000E+00 -0.00000000000E+00 -0.45593999997E+02  0.45594000000E+02  0.51100000000E-03 0. -1.
    9900012    2    1    2    0    0  0.14134933828E+02 -0.15731448944E+02  0.39772334809E+02  0.46142318116E+02  0.10000003238E+02 0.  0.
         12    1    1    2    0    0 -0.14134933828E+02  0.15731448944E+02 -0.39772334809E+02  0.45045681884E+02  0.00000000000E+00 0. -1.
         11    1    3    3    0    0  0.87670506930E+01 -0.14464064583E+02  0.30486806822E+02  0.34864247197E+02  0.51100000000E-03 0. -1.
        -11    1    3    3    0    0  0.16474128560E+01  0.11034343809E+01  0.26457196398E+01  0.33062621228E+01  0.51100000000E-03 0.  1.
         12    1    3    3    0    0  0.37204702790E+01 -0.23708187420E+01  0.66398083471E+01  0.79718087967E+01  0.00000000000E+00 0. -1.
</event>
<event>
 7    1  0.1385632E-008  0.4614231E+02  0.7816164E-02  0.1320468E+00
        -11   -1    0    0    0    0  0.00000000000E+00  0.00000000000E+00  0.45593999997E+02  0.45594000000E+02  0.51100000000E-03 0. -1.
         11   -1    0    0    0    0 -0.00000000000E+00 -0.00000000000E+00 -0.45593999997E+02  0.45594000000E+02  0.51100000000E-03 0.  1.
    9900012    2    1    2    0    0  0.32795432762E+02  0.30853413597E+02 -0.12807482956E+01  0.46142313671E+02  0.99999627020E+01 0.  0.
         12    1    1    2    0    0 -0.32795432762E+02 -0.30853413597E+02  0.12807482956E+01  0.45045686329E+02  0.00000000000E+00 0. -1.
         11    1    3    3    0    0  0.10421575691E+02  0.13694494835E+02  0.25758543265E+01  0.17400673965E+02  0.51100000000E-03 0.  1.
        -11    1    3    3    0    0  0.13528528427E+02  0.11539238259E+02 -0.41453716443E+01  0.18258127158E+02  0.51100000000E-03 0. -1.
         12    1    3    3    0    0  0.88453286450E+01  0.56196805035E+01  0.28876902216E+00  0.10483512548E+02  0.00000000000E+00 0. -1.
</event>
<event>
 7    1  0.1385632E-008  0.4614232E+02  0.7816164E-02  0.1320468E+00
        -11   -1    0    0    0    0  0.00000000000E+00  0.00000000000E+00  0.45593999997E+02  0.45594000000E+02  0.51100000000E-03 0.  1.
         11   -1    0    0    0    0 -0.00000000000E+00 -0.00000000000E+00 -0.45593999997E+02  0.45594000000E+02  0.51100000000E-03 0. -1.
    9900012    2    1    2    0    0  0.68921424754E+01  0.14395815937E+00  0.44515067196E+02  0.46142316974E+02  0.99999928222E+01 0.  0.
         12    1    1    2    0    0 -0.68921424754E+01 -0.14395815937E+00 -0.44515067196E+02  0.45045683026E+02  0.00000000000E+00 0. -1.
         11    1    3    3    0    0 -0.96451001172E+00 -0.29055804972E+01  0.74477086649E+01  0.80523935701E+01  0.51100000000E-03 0. -1.
        -11    1    3    3    0    0  0.54149165788E+01  0.27115312934E+01  0.29996873675E+02  0.30602061272E+02  0.51100000000E-03 0.  1.
        -12    1    3    3    0    0  0.24417359083E+01  0.33800736323E+00  0.70704848553E+01  0.74878621323E+01  0.00000000000E+00 0.  1.
</event>
<event>
 7    1  0.1385632E-008  0.4614232E+02  0.7816164E-02  0.1320468E+00
        -11   -1    0    0    0    0  0.00000000000E+00  0.00000000000E+00  0.45593999997E+02  0.45594000000E+02  0.51100000000E-03 0.  1.
         11   -1    0    0    0    0 -0.00000000000E+00 -0.00000000000E+00 -0.45593999997E+02  0.45594000000E+02  0.51100000000E-03 0. -1.
    9900012    2    1    2    0    0  0.15484672314E+02  0.35018930610E+02  0.23727893200E+02  0.46142317704E+02  0.99999994835E+01 0.  0.
         12    1    1    2    0    0 -0.15484672314E+02 -0.35018930610E+02 -0.23727893200E+02  0.45045682296E+02  0.00000000000E+00 0. -1.
         11    1    3    3    0    0  0.89595854772E+01  0.16760398874E+02  0.74004598902E+01  0.20394900078E+02  0.51100000000E-03 0. -1.
        -11    1    3    3    0    0  0.68360078792E+01  0.14198753840E+02  0.13859393980E+02  0.20986148195E+02  0.51100000000E-03 0.  1.
         12    1    3    3    0    0 -0.31092104237E+00  0.40597778961E+01  0.24680393300E+01  0.47612694310E+01  0.00000000000E+00 0. -1.
</event>
<event>
 7    1  0.1385632E-008  0.4614232E+02  0.7816164E-02  0.1320468E+00
        -11   -1    0    0    0    0  0.00000000000E+00  0.00000000000E+00  0.45593999997E+02  0.45594000000E+02  0.51100000000E-03 0.  1.
         11   -1    0    0    0    0 -0.00000000000E+00 -0.00000000000E+00 -0.45593999997E+02  0.45594000000E+02  0.51100000000E-03 0. -1.
    9900012    2    1    2    0    0 -0.31933033381E+01  0.34026807088E+02  0.29344379546E+02  0.46142318766E+02  0.10000009167E+02 0.  0.
         12    1    1    2    0    0  0.31933033381E+01 -0.34026807088E+02 -0.29344379546E+02  0.45045681234E+02  0.00000000000E+00 0. -1.
         11    1    3    3    0    0 -0.22981745175E+01  0.35969856638E+01  0.57021184111E+01  0.71227850321E+01  0.51100000000E-03 0. -1.
        -11    1    3    3    0    0  0.37299594282E+00  0.25964962795E+02  0.17471774637E+02  0.31298263980E+02  0.51100000000E-03 0.  1.
        -12    1    3    3    0    0 -0.12681247634E+01  0.44648586296E+01  0.61704864982E+01  0.77212697545E+01  0.00000000000E+00 0.  1.
</event>
<event>
 7    1  0.1385632E-008  0.4614232E+02  0.7816164E-02  0.1320468E+00
        -11   -1    0    0    0    0  0.00000000000E+00  0.00000000000E+00  0.45593999997E+02  0.45594000000E+02  0.51100000000E-03 0.  1.
         11   -1    0    0    0    0 -0.00000000000E+00 -0.00000000000E+00 -0.45593999997E+02  0.45594000000E+02  0.51100000000E-03 0. -1.
    9900012    2    1    2    0    0  0.25745357987E+02  0.20717468034E+01  0.36905251241E+02  0.46142321385E+02  0.10000033046E+02 0.  0.
         12    1    1    2    0    0 -0.25745357987E+02 -0.20717468034E+01 -0.36905251241E+02  0.45045678615E+02  0.00000000000E+00 0. -1.
         11    1    3    3    0    0  0.95976140865E+01  0.44720792666E+01  0.14171037649E+02  0.17689884042E+02  0.51100000000E-03 0. -1.
        -11    1    3    3    0    0  0.13410337623E+02 -0.38545880662E+01  0.19438952983E+02  0.23928391038E+02  0.51100000000E-03 0.  1.
        -12    1    3    3    0    0  0.27374062772E+01  0.14542556030E+01  0.32952606098E+01  0.45240463052E+01  0.00000000000E+00 0.  1.
</event>
<event>
 7    1  0.1385632E-008  0.4614232E+02  0.7816164E-02  0.1320468E+00
        -11   -1    0    0    0    0  0.00000000000E+00  0.00000000000E+00  0.45593999997E+02  0.45594000000E+02  0.51100000000E-03 0.  1.
         11   -1    0    0    0    0 -0.00000000000E+00 -0.00000000000E+00 -0.45593999997E+02  0.45594000000E+02  0.51100000000E-03 0. -1.
    9900012    2    1    2    0    0 -0.30904447333E+02  0.32571840865E+02 -0.36198812312E+01  0.46142320713E+02  0.10000026920E+02 0.  0.
         12    1    1    2    0    0  0.30904447333E+02 -0.32571840865E+02  0.36198812312E+01  0.45045679287E+02  0.00000000000E+00 0. -1.
         11    1    3    3    0    0 -0.94444536884E+00  0.32150322591E+01  0.29937970412E+00  0.33642291762E+01  0.51100000000E-03 0. -1.
        -11    1    3    3    0    0 -0.11705770579E+02  0.13927697022E+02 -0.49486924235E+01  0.18854584751E+02  0.51100000000E-03 0.  1.
        -12    1    3    3    0    0 -0.18254231386E+02  0.15429111583E+02  0.10294314881E+01  0.23923506786E+02  0.00000000000E+00 0.  1.
</event>
<event>
 7    1  0.1385632E-008  0.4614232E+02  0.7816164E-02  0.1320468E+00
        -11   -1    0    0    0    0  0.00000000000E+00  0.00000000000E+00  0.45593999997E+02  0.45594000000E+02  0.51100000000E-03 0. -1.
         11   -1    0    0    0    0 -0.00000000000E+00 -0.00000000000E+00 -0.45593999997E+02  0.45594000000E+02  0.51100000000E-03 0.  1.
    9900012    2    1    2    0    0 -0.26671351248E+02  0.34246445927E+02 -0.12038830288E+02  0.46142317957E+02  0.10000001788E+02 0.  0.
         12    1    1    2    0    0  0.26671351248E+02 -0.34246445927E+02  0.12038830288E+02  0.45045682043E+02  0.00000000000E+00 0. -1.
         11    1    3    3    0    0 -0.15724009969E+01  0.41540875565E+01 -0.23426031573E+01  0.50216210665E+01  0.51100000000E-03 0. -1.
        -11    1    3    3    0    0 -0.99796785946E+01  0.17940266713E+02 -0.58381103758E+01  0.21343164892E+02  0.51100000000E-03 0.  1.
        -12    1    3    3    0    0 -0.15119271656E+02  0.12152091657E+02 -0.38581167549E+01  0.19777531999E+02  0.00000000000E+00 0.  1.
</event>
<event>
 7    1  0.1385632E-008  0.4614232E+02  0.7816164E-02  0.1320468E+00
        -11   -1    0    0    0    0  0.00000000000E+00  0.00000000000E+00  0.45593999997E+02  0.45594000000E+02  0.51100000000E-03 0. -1.
         11   -1    0    0    0    0 -0.00000000000E+00 -0.00000000000E+00 -0.45593999997E+02  0.45594000000E+02  0.51100000000E-03 0.  1.
    9900012    2    1    2    0    0  0.29649507434E+02 -0.15626342042E+02 -0.30097136428E+02  0.46142317877E+02  0.10000001060E+02 0.  0.
         12    1    1    2    0    0 -0.29649507434E+02  0.15626342042E+02  0.30097136428E+02  0.45045682123E+02  0.00000000000E+00 0. -1.
         11    1    3    3    0    0  0.24792136140E+02 -0.11590625634E+02 -0.22610920659E+02  0.35499948595E+02  0.51100000000E-03 0. -1.
        -11    1    3    3    0    0  0.19164955641E+01 -0.35137830486E+01 -0.62238526183E+01  0.73997275784E+01  0.51100000000E-03 0.  1.
        -12    1    3    3    0    0  0.29408757305E+01 -0.52193335967E+00 -0.12623631509E+01  0.32426417037E+01  0.00000000000E+00 0.  1.
</event>
<event>
 7    1  0.1385632E-008  0.4614232E+02  0.7816164E-02  0.1320468E+00
        -11   -1    0    0    0    0  0.00000000000E+00  0.00000000000E+00  0.45593999997E+02  0.45594000000E+02  0.51100000000E-03 0.  1.
         11   -1    0    0    0    0 -0.00000000000E+00 -0.00000000000E+00 -0.45593999997E+02  0.45594000000E+02  0.51100000000E-03 0. -1.
    9900012    2    1    2    0    0 -0.20407284983E+02  0.20810994096E+02  0.34344703858E+02  0.46142318312E+02  0.10000005024E+02 0.  0.
         12    1    1    2    0    0  0.20407284983E+02 -0.20810994096E+02 -0.34344703858E+02  0.45045681688E+02  0.00000000000E+00 0. -1.
         11    1    3    3    0    0 -0.55507642270E+00  0.14671004482E+01  0.15269768730E+00  0.15760109153E+01  0.51100000000E-03 0. -1.
        -11    1    3    3    0    0 -0.10529260570E+02  0.74085106883E+01  0.11370739127E+02  0.17176875948E+02  0.51100000000E-03 0.  1.
        -12    1    3    3    0    0 -0.93229479903E+01  0.11935382960E+02  0.22821267043E+02  0.27389431449E+02  0.00000000000E+00 0.  1.
</event>
<event>
 7    1  0.1385632E-008  0.4614232E+02  0.7816164E-02  0.1320468E+00
        -11   -1    0    0    0    0  0.00000000000E+00  0.00000000000E+00  0.45593999997E+02  0.45594000000E+02  0.51100000000E-03 0. -1.
         11   -1    0    0    0    0 -0.00000000000E+00 -0.00000000000E+00 -0.45593999997E+02  0.45594000000E+02  0.51100000000E-03 0.  1.
    9900012    2    1    2    0    0  0.30046840320E+02  0.33514380851E+02 -0.17569998683E+01  0.46142318902E+02  0.10000010406E+02 0.  0.
         12    1    1    2    0    0 -0.30046840320E+02 -0.33514380851E+02  0.17569998683E+01  0.45045681098E+02  0.00000000000E+00 0. -1.
         11    1    3    3    0    0  0.14748494226E+01  0.15408207872E+01 -0.13052310035E+01  0.25005874812E+01  0.51100000000E-03 0. -1.
        -11    1    3    3    0    0  0.25228321527E+02  0.26163159508E+02 -0.30024608628E+01  0.36469081343E+02  0.51100000000E-03 0.  1.
        -12    1    3    3    0    0  0.33436693702E+01  0.58104005559E+01  0.25506919979E+01  0.71726500783E+01  0.00000000000E+00 0.  1.
</event>
<event>
 7    1  0.1385632E-008  0.4614232E+02  0.7816164E-02  0.1320468E+00
        -11   -1    0    0    0    0  0.00000000000E+00  0.00000000000E+00  0.45593999997E+02  0.45594000000E+02  0.51100000000E-03 0. -1.
         11   -1    0    0    0    0 -0.00000000000E+00 -0.00000000000E+00 -0.45593999997E+02  0.45594000000E+02  0.51100000000E-03 0.  1.
    9900012    2    1    2    0    0 -0.42397741009E+01  0.43804820705E+02 -0.96060175248E+01  0.46142316810E+02  0.99999913240E+01 0.  0.
         12    1    1    2    0    0  0.42397741009E+01 -0.43804820705E+02  0.96060175248E+01  0.45045683190E+02  0.00000000000E+00 0. -1.
         11    1    3    3    0    0 -0.76177017662E-01  0.12513094913E+02 -0.44469068709E+01  0.13279997297E+02  0.51100000000E-03 0. -1.
        -11    1    3    3    0    0 -0.20303794116E+01  0.16301399383E+02 -0.64893112915E+01  0.17662650529E+02  0.51100000000E-03 0.  1.
        -12    1    3    3    0    0 -0.21332176717E+01  0.14990326409E+02  0.13302006376E+01  0.15199668984E+02  0.00000000000E+00 0.  1.
</event>
<event>
 7    1  0.1385632E-008  0.4614232E+02  0.7816164E-02  0.1320468E+00
        -11   -1    0    0    0    0  0.00000000000E+00  0.00000000000E+00  0.45593999997E+02  0.45594000000E+02  0.51100000000E-03 0. -1.
         11   -1    0    0    0    0 -0.00000000000E+00 -0.00000000000E+00 -0.45593999997E+02  0.45594000000E+02  0.51100000000E-03 0.  1.
    9900012    2    1    2    0    0 -0.16087579366E+02 -0.63791893635E+01 -0.41588568704E+02  0.46142319701E+02  0.10000017687E+02 0.  0.
         12    1    1    2    0    0  0.16087579366E+02  0.63791893635E+01  0.41588568704E+02  0.45045680299E+02  0.00000000000E+00 0. -1.
         11    1    3    3    0    0 -0.44422026734E+01 -0.84885509480E+00 -0.17283322605E+02  0.17865244473E+02  0.51100000000E-03 0. -1.
        -11    1    3    3    0    0 -0.96490290719E+01 -0.70148916865E+01 -0.20810099525E+02  0.23986927897E+02  0.51100000000E-03 0.  1.
        -12    1    3    3    0    0 -0.19963476206E+01  0.14845574177E+01 -0.34951465739E+01  0.42901473310E+01  0.00000000000E+00 0.  1.
</event>
<event>
 7    1  0.1385632E-008  0.4614232E+02  0.7816164E-02  0.1320468E+00
        -11   -1    0    0    0    0  0.00000000000E+00  0.00000000000E+00  0.45593999997E+02  0.45594000000E+02  0.51100000000E-03 0.  1.
         11   -1    0    0    0    0 -0.00000000000E+00 -0.00000000000E+00 -0.45593999997E+02  0.45594000000E+02  0.51100000000E-03 0. -1.
    9900012    2    1    2    0    0  0.25935359415E+02  0.22251772681E+02  0.29348412124E+02  0.46142317082E+02  0.99999938041E+01 0.  0.
         12    1    1    2    0    0 -0.25935359415E+02 -0.22251772681E+02 -0.29348412124E+02  0.45045682918E+02  0.00000000000E+00 0. -1.
         11    1    3    3    0    0  0.19144264581E+02  0.10327741081E+02  0.18619656754E+02  0.28633140241E+02  0.51100000000E-03 0.  1.
        -11    1    3    3    0    0  0.49932658689E+01  0.10059566180E+02  0.83776359112E+01  0.14011151255E+02  0.51100000000E-03 0. -1.
        -12    1    3    3    0    0  0.17978289649E+01  0.18644654205E+01  0.23511194587E+01  0.34980255860E+01  0.00000000000E+00 0.  1.
</event>
<event>
 7    1  0.1385632E-008  0.4614232E+02  0.7816164E-02  0.1320468E+00
        -11   -1    0    0    0    0  0.00000000000E+00  0.00000000000E+00  0.45593999997E+02  0.45594000000E+02  0.51100000000E-03 0.  1.
         11   -1    0    0    0    0 -0.00000000000E+00 -0.00000000000E+00 -0.45593999997E+02  0.45594000000E+02  0.51100000000E-03 0. -1.
    9900012    2    1    2    0    0 -0.92647046096E+01 -0.40614130594E+02  0.17139754244E+02  0.46142317288E+02  0.99999956898E+01 0.  0.
         12    1    1    2    0    0  0.92647046096E+01  0.40614130594E+02 -0.17139754244E+02  0.45045682712E+02  0.00000000000E+00 0. -1.
         11    1    3    3    0    0 -0.14354460793E+01 -0.16183661489E+02  0.63809540974E+01  0.17455313807E+02  0.51100000000E-03 0. -1.
        -11    1    3    3    0    0 -0.40887555356E+01 -0.11078465137E+02  0.12524048635E+01  0.11875134939E+02  0.51100000000E-03 0.  1.
        -12    1    3    3    0    0 -0.37405029947E+01 -0.13352003968E+02  0.95063952828E+01  0.16811868542E+02  0.00000000000E+00 0.  1.
</event>
<event>
 7    1  0.1385632E-008  0.4614232E+02  0.7816164E-02  0.1320468E+00
        -11   -1    0    0    0    0  0.00000000000E+00  0.00000000000E+00  0.45593999997E+02  0.45594000000E+02  0.51100000000E-03 0. -1.
         11   -1    0    0    0    0 -0.00000000000E+00 -0.00000000000E+00 -0.45593999997E+02  0.45594000000E+02  0.51100000000E-03 0.  1.
    9900012    2    1    2    0    0  0.72575863502E+01  0.36868291464E+02  0.24842904980E+02  0.46142318709E+02  0.10000008643E+02 0.  0.
         12    1    1    2    0    0 -0.72575863502E+01 -0.36868291464E+02 -0.24842904980E+02  0.45045681291E+02  0.00000000000E+00 0. -1.
         11    1    3    3    0    0  0.32994715974E+01  0.41240448656E+01  0.40197796348E+01  0.66372349250E+01  0.51100000000E-03 0. -1.
        -11    1    3    3    0    0  0.42658776645E+01  0.32931627592E+02  0.20663448074E+02  0.39110968982E+02  0.51100000000E-03 0.  1.
        -12    1    3    3    0    0 -0.30776291182E+00 -0.18738099326E+00  0.15967727133E+00  0.39411480245E+00  0.00000000000E+00 0.  1.
</event>
<event>
 7    1  0.1385632E-008  0.4614232E+02  0.7816164E-02  0.1320468E+00
        -11   -1    0    0    0    0  0.00000000000E+00  0.00000000000E+00  0.45593999997E+02  0.45594000000E+02  0.51100000000E-03 0.  1.
         11   -1    0    0    0    0 -0.00000000000E+00 -0.00000000000E+00 -0.45593999997E+02  0.45594000000E+02  0.51100000000E-03 0. -1.
    9900012    2    1    2    0    0  0.38579217824E+02  0.52828935138E+01  0.22646159074E+02  0.46142317270E+02  0.99999955251E+01 0.  0.
         12    1    1    2    0    0 -0.38579217824E+02 -0.52828935138E+01 -0.22646159074E+02  0.45045682730E+02  0.00000000000E+00 0. -1.
         11    1    3    3    0    0  0.78254765776E+01 -0.19361287682E+00  0.16853834181E+01  0.80072521591E+01  0.51100000000E-03 0. -1.
        -11    1    3    3    0    0  0.13721486372E+02  0.11050289576E+01  0.12610491693E+02  0.18668818341E+02  0.51100000000E-03 0.  1.
        -12    1    3    3    0    0  0.17032254875E+02  0.43714774331E+01  0.83502839624E+01  0.19466246770E+02  0.00000000000E+00 0.  1.
</event>
<event>
 7    1  0.1385632E-008  0.4614232E+02  0.7816164E-02  0.1320468E+00
        -11   -1    0    0    0    0  0.00000000000E+00  0.00000000000E+00  0.45593999997E+02  0.45594000000E+02  0.51100000000E-03 0.  1.
         11   -1    0    0    0    0 -0.00000000000E+00 -0.00000000000E+00 -0.45593999997E+02  0.45594000000E+02  0.51100000000E-03 0. -1.
    9900012    2    1    2    0    0  0.28502786546E+02  0.10028191393E+01  0.34866876523E+02  0.46142316904E+02  0.99999921852E+01 0.  0.
         12    1    1    2    0    0 -0.28502786546E+02 -0.10028191393E+01 -0.34866876523E+02  0.45045683096E+02  0.00000000000E+00 0. -1.
         11    1    3    3    0    0  0.17047131652E+02 -0.18177786571E+01  0.21977813972E+02  0.27873523711E+02  0.51100000000E-03 0. -1.
        -11    1    3    3    0    0  0.57861588718E+01  0.12558053974E+01  0.10217345207E+02  0.11808929885E+02  0.51100000000E-03 0.  1.
         12    1    3    3    0    0  0.56694960216E+01  0.15647923990E+01  0.26717173434E+01  0.64598633077E+01  0.00000000000E+00 0. -1.
</event>
<event>
 7    1  0.1385632E-008  0.4614232E+02  0.7816164E-02  0.1320468E+00
        -11   -1    0    0    0    0  0.00000000000E+00  0.00000000000E+00  0.45593999997E+02  0.45594000000E+02  0.51100000000E-03 0.  1.
         11   -1    0    0    0    0 -0.00000000000E+00 -0.00000000000E+00 -0.45593999997E+02  0.45594000000E+02  0.51100000000E-03 0. -1.
    9900012    2    1    2    0    0 -0.31265135553E+02 -0.31028582338E+02  0.94250677753E+01  0.46142317347E+02  0.99999962277E+01 0.  0.
         12    1    1    2    0    0  0.31265135553E+02  0.31028582338E+02 -0.94250677753E+01  0.45045682653E+02  0.00000000000E+00 0. -1.
         11    1    3    3    0    0 -0.37517211036E+01 -0.54565874853E+01  0.37015563247E+01  0.75862558426E+01  0.51100000000E-03 0. -1.
        -11    1    3    3    0    0 -0.17860800569E+02 -0.15103816191E+02  0.65567330894E+01  0.24292472282E+02  0.51100000000E-03 0.  1.
         12    1    3    3    0    0 -0.96526138803E+01 -0.10468178662E+02 -0.83322163874E+00  0.14263589223E+02  0.00000000000E+00 0. -1.
</event>
<event>
 7    1  0.1385632E-008  0.4614232E+02  0.7816164E-02  0.1320468E+00
        -11   -1    0    0    0    0  0.00000000000E+00  0.00000000000E+00  0.45593999997E+02  0.45594000000E+02  0.51100000000E-03 0.  1.
         11   -1    0    0    0    0 -0.00000000000E+00 -0.00000000000E+00 -0.45593999997E+02  0.45594000000E+02  0.51100000000E-03 0. -1.
    9900012    2    1    2    0    0  0.26701260813E+02  0.27380600348E+02  0.23800397254E+02  0.46142317478E+02  0.99999974191E+01 0.  0.
         12    1    1    2    0    0 -0.26701260813E+02 -0.27380600348E+02 -0.23800397254E+02  0.45045682522E+02  0.00000000000E+00 0. -1.
         11    1    3    3    0    0  0.41477772942E+01  0.14634972509E+01  0.57725977970E+00  0.44361142682E+01  0.51100000000E-03 0. -1.
        -11    1    3    3    0    0  0.19060872408E+02  0.19108818482E+02  0.18179211630E+02  0.32541474098E+02  0.51100000000E-03 0.  1.
         12    1    3    3    0    0  0.34926111109E+01  0.68082846145E+01  0.50439258450E+01  0.91647291119E+01  0.00000000000E+00 0. -1.
</event>
<event>
 7    1  0.1385632E-008  0.4614232E+02  0.7816164E-02  0.1320468E+00
        -11   -1    0    0    0    0  0.00000000000E+00  0.00000000000E+00  0.45593999997E+02  0.45594000000E+02  0.51100000000E-03 0.  1.
         11   -1    0    0    0    0 -0.00000000000E+00 -0.00000000000E+00 -0.45593999997E+02  0.45594000000E+02  0.51100000000E-03 0. -1.
    9900012    2    1    2    0    0 -0.79856863932E+00 -0.22699325351E+02  0.38900081037E+02  0.46142318876E+02  0.10000010165E+02 0.  0.
         12    1    1    2    0    0  0.79856863932E+00  0.22699325351E+02 -0.38900081037E+02  0.45045681124E+02  0.00000000000E+00 0. -1.
         11    1    3    3    0    0  0.66586759461E+00 -0.12300297022E+02  0.20849579792E+02  0.24216640235E+02  0.51100000000E-03 0. -1.
        -11    1    3    3    0    0  0.29129065103E+00 -0.82145596276E+01  0.17088451466E+02  0.18962568758E+02  0.51100000000E-03 0.  1.
         12    1    3    3    0    0 -0.17557268850E+01 -0.21844687021E+01  0.96204977779E+00  0.29631098832E+01  0.00000000000E+00 0. -1.
</event>
<event>
 7    1  0.1385632E-008  0.4614232E+02  0.7816164E-02  0.1320468E+00
        -11   -1    0    0    0    0  0.00000000000E+00  0.00000000000E+00  0.45593999997E+02  0.45594000000E+02  0.51100000000E-03 0.  1.
         11   -1    0    0    0    0 -0.00000000000E+00 -0.00000000000E+00 -0.45593999997E+02  0.45594000000E+02  0.51100000000E-03 0. -1.
    9900012    2    1    2    0    0 -0.42245896756E+02  0.14455466444E+02 -0.59529079808E+01  0.46142318562E+02  0.10000007303E+02 0.  0.
         12    1    1    2    0    0  0.42245896756E+02 -0.14455466444E+02  0.59529079808E+01  0.45045681438E+02  0.00000000000E+00 0. -1.
         11    1    3    3    0    0 -0.77306542799E+01  0.14167022638E+00 -0.54311763023E+00  0.77510040040E+01  0.51100000000E-03 0. -1.
        -11    1    3    3    0    0 -0.15005216501E+01 -0.63971882316E+00  0.41435966807E+00  0.16830031464E+01  0.51100000000E-03 0.  1.
        -12    1    3    3    0    0 -0.33014720826E+02  0.14953515040E+02 -0.58241500187E+01  0.36708311412E+02  0.00000000000E+00 0.  1.
</event>
<event>
 7    1  0.1385632E-008  0.4614232E+02  0.7816164E-02  0.1320468E+00
        -11   -1    0    0    0    0  0.00000000000E+00  0.00000000000E+00  0.45593999997E+02  0.45594000000E+02  0.51100000000E-03 0.  1.
         11   -1    0    0    0    0 -0.00000000000E+00 -0.00000000000E+00 -0.45593999997E+02  0.45594000000E+02  0.51100000000E-03 0. -1.
    9900012    2    1    2    0    0 -0.15140193699E+02  0.15814524631E+01  0.42395601473E+02  0.46142317838E+02  0.10000000703E+02 0.  0.
         12    1    1    2    0    0  0.15140193699E+02 -0.15814524631E+01 -0.42395601473E+02  0.45045682162E+02  0.00000000000E+00 0. -1.
         11    1    3    3    0    0 -0.67804361780E+01 -0.13807289044E+01  0.10840560751E+02  0.12860734222E+02  0.51100000000E-03 0. -1.
        -11    1    3    3    0    0 -0.87922101536E+01  0.37144227327E+01  0.26821039610E+02  0.28468720758E+02  0.51100000000E-03 0.  1.
        -12    1    3    3    0    0  0.43245263291E+00 -0.75224136520E+00  0.47340011126E+01  0.48128628576E+01  0.00000000000E+00 0.  1.
</event>
<event>
 7    1  0.1385632E-008  0.4614232E+02  0.7816164E-02  0.1320468E+00
        -11   -1    0    0    0    0  0.00000000000E+00  0.00000000000E+00  0.45593999997E+02  0.45594000000E+02  0.51100000000E-03 0.  1.
         11   -1    0    0    0    0 -0.00000000000E+00 -0.00000000000E+00 -0.45593999997E+02  0.45594000000E+02  0.51100000000E-03 0. -1.
    9900012    2    1    2    0    0  0.74568311536E+01  0.25587406003E+01  0.44350443807E+02  0.46142319295E+02  0.10000013984E+02 0.  0.
         12    1    1    2    0    0 -0.74568311536E+01 -0.25587406003E+01 -0.44350443807E+02  0.45045680705E+02  0.00000000000E+00 0. -1.
         11    1    3    3    0    0  0.73161289645E+01  0.10283439116E+01  0.24364300399E+02  0.25459818703E+02  0.51100000000E-03 0.  1.
        -11    1    3    3    0    0  0.23962037100E+01  0.61108348292E+00  0.14052250657E+02  0.14268180123E+02  0.51100000000E-03 0. -1.
         12    1    3    3    0    0 -0.22555015209E+01  0.91931320585E+00  0.59338927519E+01  0.64143204685E+01  0.00000000000E+00 0. -1.
</event>
<event>
 7    1  0.1385632E-008  0.4614232E+02  0.7816164E-02  0.1320468E+00
        -11   -1    0    0    0    0  0.00000000000E+00  0.00000000000E+00  0.45593999997E+02  0.45594000000E+02  0.51100000000E-03 0. -1.
         11   -1    0    0    0    0 -0.00000000000E+00 -0.00000000000E+00 -0.45593999997E+02  0.45594000000E+02  0.51100000000E-03 0.  1.
    9900012    2    1    2    0    0  0.32212536090E+02 -0.63310977911E+01 -0.30844499150E+02  0.46142318649E+02  0.10000008095E+02 0.  0.
         12    1    1    2    0    0 -0.32212536090E+02  0.63310977911E+01  0.30844499150E+02  0.45045681351E+02  0.00000000000E+00 0. -1.
         11    1    3    3    0    0  0.13125091573E+02 -0.25486106889E+01 -0.72103055540E+01  0.15190521771E+02  0.51100000000E-03 0. -1.
        -11    1    3    3    0    0  0.53398228511E+01 -0.12532913533E+01 -0.37436445979E+01  0.66407320706E+01  0.51100000000E-03 0.  1.
         12    1    3    3    0    0  0.13747621666E+02 -0.25291957489E+01 -0.19890548998E+02  0.24311064807E+02  0.00000000000E+00 0. -1.
</event>
<event>
 7    1  0.1385632E-008  0.4614232E+02  0.7816164E-02  0.1320468E+00
        -11   -1    0    0    0    0  0.00000000000E+00  0.00000000000E+00  0.45593999997E+02  0.45594000000E+02  0.51100000000E-03 0.  1.
         11   -1    0    0    0    0 -0.00000000000E+00 -0.00000000000E+00 -0.45593999997E+02  0.45594000000E+02  0.51100000000E-03 0. -1.
    9900012    2    1    2    0    0 -0.97259233079E+01  0.13812026548E+02  0.41758206060E+02  0.46142318355E+02  0.10000005412E+02 0.  0.
         12    1    1    2    0    0  0.97259233079E+01 -0.13812026548E+02 -0.41758206060E+02  0.45045681645E+02  0.00000000000E+00 0. -1.
         11    1    3    3    0    0 -0.71792826981E+00  0.26394501026E+01  0.13506388095E+02  0.13780589155E+02  0.51100000000E-03 0. -1.
        -11    1    3    3    0    0 -0.26692450638E+01  0.41926970445E+01  0.41284651546E+01  0.64612539427E+01  0.51100000000E-03 0.  1.
        -12    1    3    3    0    0 -0.63387499743E+01  0.69798794011E+01  0.24123352811E+02  0.25900475257E+02  0.00000000000E+00 0.  1.
</event>
<event>
 7    1  0.1385632E-008  0.4614233E+02  0.7816164E-02  0.1320468E+00
        -11   -1    0    0    0    0  0.00000000000E+00  0.00000000000E+00  0.45593999997E+02  0.45594000000E+02  0.51100000000E-03 0.  1.
         11   -1    0    0    0    0 -0.00000000000E+00 -0.00000000000E+00 -0.45593999997E+02  0.45594000000E+02  0.51100000000E-03 0. -1.
    9900012    2    1    2    0    0 -0.21984657923E+02 -0.38387376092E+02  0.84968778366E+01  0.46142325844E+02  0.10000073707E+02 0.  0.
         12    1    1    2    0    0  0.21984657923E+02  0.38387376092E+02 -0.84968778366E+01  0.45045674156E+02  0.00000000000E+00 0. -1.
         11    1    3    3    0    0 -0.83321090044E+01 -0.62357888484E+01  0.22932499085E+01  0.10656833415E+02  0.51100000000E-03 0. -1.
        -11    1    3    3    0    0 -0.10234992079E+02 -0.24379092909E+02  0.43703140295E+01  0.26799158175E+02  0.51100000000E-03 0.  1.
         12    1    3    3    0    0 -0.34175568394E+01 -0.77724943342E+01  0.18333138986E+01  0.86863342542E+01  0.00000000000E+00 0. -1.
</event>
<event>
 7    1  0.1385632E-008  0.4614232E+02  0.7816164E-02  0.1320468E+00
        -11   -1    0    0    0    0  0.00000000000E+00  0.00000000000E+00  0.45593999997E+02  0.45594000000E+02  0.51100000000E-03 0. -1.
         11   -1    0    0    0    0 -0.00000000000E+00 -0.00000000000E+00 -0.45593999997E+02  0.45594000000E+02  0.51100000000E-03 0.  1.
    9900012    2    1    2    0    0  0.30068793075E+01  0.12678598180E+02 -0.43119889237E+02  0.46142322929E+02  0.10000047126E+02 0.  0.
         12    1    1    2    0    0 -0.30068793075E+01 -0.12678598180E+02  0.43119889237E+02  0.45045677071E+02  0.00000000000E+00 0. -1.
         11    1    3    3    0    0  0.15453972683E+01 -0.30013537716E-01 -0.21982188331E+01  0.26872513520E+01  0.51100000000E-03 0. -1.
        -11    1    3    3    0    0  0.25698058647E+01  0.12281585689E+02 -0.30708663435E+02  0.33173231067E+02  0.51100000000E-03 0.  1.
        -12    1    3    3    0    0 -0.11083238254E+01  0.42702602951E+00 -0.10213006969E+02  0.10281840510E+02  0.00000000000E+00 0.  1.
</event>
<event>
 7    1  0.1385632E-008  0.4614232E+02  0.7816164E-02  0.1320468E+00
        -11   -1    0    0    0    0  0.00000000000E+00  0.00000000000E+00  0.45593999997E+02  0.45594000000E+02  0.51100000000E-03 0.  1.
         11   -1    0    0    0    0 -0.00000000000E+00 -0.00000000000E+00 -0.45593999997E+02  0.45594000000E+02  0.51100000000E-03 0. -1.
    9900012    2    1    2    0    0 -0.13134044873E+02  0.41579583890E+02  0.11302592748E+02  0.46142317255E+02  0.99999953843E+01 0.  0.
         12    1    1    2    0    0  0.13134044873E+02 -0.41579583890E+02 -0.11302592748E+02  0.45045682745E+02  0.00000000000E+00 0. -1.
         11    1    3    3    0    0 -0.34639052535E+00  0.72963630318E+01  0.31656395835E+01  0.79610410200E+01  0.51100000000E-03 0. -1.
        -11    1    3    3    0    0  0.39471315930E+00  0.35569100250E+01 -0.58838545984E+00  0.36267899187E+01  0.51100000000E-03 0.  1.
        -12    1    3    3    0    0 -0.13182367507E+02  0.30726310833E+02  0.87253386239E+01  0.34554486316E+02  0.00000000000E+00 0.  1.
</event>
<event>
 7    1  0.1385632E-008  0.4614232E+02  0.7816164E-02  0.1320468E+00
        -11   -1    0    0    0    0  0.00000000000E+00  0.00000000000E+00  0.45593999997E+02  0.45594000000E+02  0.51100000000E-03 0.  1.
         11   -1    0    0    0    0 -0.00000000000E+00 -0.00000000000E+00 -0.45593999997E+02  0.45594000000E+02  0.51100000000E-03 0. -1.
    9900012    2    1    2    0    0 -0.59832076779E+01  0.43733828484E+02  0.89814759533E+01  0.46142318317E+02  0.10000005069E+02 0.  0.
         12    1    1    2    0    0  0.59832076779E+01 -0.43733828484E+02 -0.89814759533E+01  0.45045681683E+02  0.00000000000E+00 0. -1.
         11    1    3    3    0    0 -0.25242377753E+01  0.14094949918E+02  0.18848217806E+01  0.14442712451E+02  0.51100000000E-03 0. -1.
        -11    1    3    3    0    0  0.18102513284E-01  0.39196169888E+01  0.39356942419E+01  0.55545849950E+01  0.51100000000E-03 0.  1.
        -12    1    3    3    0    0 -0.34770724159E+01  0.25719261577E+02  0.31609599309E+01  0.26145020871E+02  0.00000000000E+00 0.  1.
</event>
<event>
 7    1  0.1385632E-008  0.4614232E+02  0.7816164E-02  0.1320468E+00
        -11   -1    0    0    0    0  0.00000000000E+00  0.00000000000E+00  0.45593999997E+02  0.45594000000E+02  0.51100000000E-03 0.  1.
         11   -1    0    0    0    0 -0.00000000000E+00 -0.00000000000E+00 -0.45593999997E+02  0.45594000000E+02  0.51100000000E-03 0. -1.
    9900012    2    1    2    0    0 -0.36689172705E+02 -0.25015854956E+02 -0.75647249904E+01  0.46142318108E+02  0.10000003160E+02 0.  0.
         12    1    1    2    0    0  0.36689172705E+02  0.25015854956E+02  0.75647249904E+01  0.45045681892E+02  0.00000000000E+00 0. -1.
         11    1    3    3    0    0 -0.37760897654E+01 -0.61733273958E+01  0.55779542326E+00  0.72580962413E+01  0.51100000000E-03 0. -1.
        -11    1    3    3    0    0 -0.19380041499E+02 -0.10601293130E+02 -0.60553550800E+01  0.22905037654E+02  0.51100000000E-03 0.  1.
        -12    1    3    3    0    0 -0.13533041441E+02 -0.82412344307E+01 -0.20671653337E+01  0.15979184212E+02  0.00000000000E+00 0.  1.
</event>
<event>
 7    1  0.1385632E-008  0.4614232E+02  0.7816164E-02  0.1320468E+00
        -11   -1    0    0    0    0  0.00000000000E+00  0.00000000000E+00  0.45593999997E+02  0.45594000000E+02  0.51100000000E-03 0.  1.
         11   -1    0    0    0    0 -0.00000000000E+00 -0.00000000000E+00 -0.45593999997E+02  0.45594000000E+02  0.51100000000E-03 0. -1.
    9900012    2    1    2    0    0  0.27300195880E+02 -0.27887579258E+02  0.22496570763E+02  0.46142317987E+02  0.10000002060E+02 0.  0.
         12    1    1    2    0    0 -0.27300195880E+02  0.27887579258E+02 -0.22496570763E+02  0.45045682013E+02  0.00000000000E+00 0. -1.
         11    1    3    3    0    0  0.17866509399E+02 -0.16600753975E+02  0.14296671404E+02  0.28269984155E+02  0.51100000000E-03 0. -1.
        -11    1    3    3    0    0  0.75980882816E+01 -0.76421766464E+01  0.85784491596E+01  0.13774019010E+02  0.51100000000E-03 0.  1.
         12    1    3    3    0    0  0.18355981988E+01 -0.36446486368E+01 -0.37854980020E+00  0.40983148225E+01  0.00000000000E+00 0. -1.
</event>
<event>
 7    1  0.1385632E-008  0.4614232E+02  0.7816164E-02  0.1320468E+00
        -11   -1    0    0    0    0  0.00000000000E+00  0.00000000000E+00  0.45593999997E+02  0.45594000000E+02  0.51100000000E-03 0.  1.
         11   -1    0    0    0    0 -0.00000000000E+00 -0.00000000000E+00 -0.45593999997E+02  0.45594000000E+02  0.51100000000E-03 0. -1.
    9900012    2    1    2    0    0  0.23574697589E+02  0.12367206500E+02  0.36337301036E+02  0.46142316415E+02  0.99999877296E+01 0.  0.
         12    1    1    2    0    0 -0.23574697589E+02 -0.12367206500E+02 -0.36337301036E+02  0.45045683585E+02  0.00000000000E+00 0. -1.
         11    1    3    3    0    0  0.11618676073E+02  0.12771295691E+01  0.14832376572E+02  0.18884493339E+02  0.51100000000E-03 0. -1.
        -11    1    3    3    0    0  0.99815147810E+01  0.10576285424E+02  0.19973000905E+02  0.24706461019E+02  0.51100000000E-03 0.  1.
        -12    1    3    3    0    0  0.19745067344E+01  0.51379150703E+00  0.15319235595E+01  0.25513620576E+01  0.00000000000E+00 0.  1.
</event>
<event>
 7    1  0.1385632E-008  0.4614232E+02  0.7816164E-02  0.1320468E+00
        -11   -1    0    0    0    0  0.00000000000E+00  0.00000000000E+00  0.45593999997E+02  0.45594000000E+02  0.51100000000E-03 0.  1.
         11   -1    0    0    0    0 -0.00000000000E+00 -0.00000000000E+00 -0.45593999997E+02  0.45594000000E+02  0.51100000000E-03 0. -1.
    9900012    2    1    2    0    0  0.36838235470E+02 -0.23274178755E+02  0.11417991194E+02  0.46142317496E+02  0.99999975858E+01 0.  0.
         12    1    1    2    0    0 -0.36838235470E+02  0.23274178755E+02 -0.11417991194E+02  0.45045682504E+02  0.00000000000E+00 0. -1.
         11    1    3    3    0    0  0.35962541759E+01 -0.29909129211E+01 -0.14364159564E+01  0.48930456017E+01  0.51100000000E-03 0. -1.
        -11    1    3    3    0    0  0.24872249254E+02 -0.13043316300E+02  0.83362526089E+01  0.29295903995E+02  0.51100000000E-03 0.  1.
         12    1    3    3    0    0  0.83697320407E+01 -0.72399495341E+01  0.45181545416E+01  0.11953367900E+02  0.00000000000E+00 0. -1.
</event>
<event>
 7    1  0.1385632E-008  0.4614232E+02  0.7816164E-02  0.1320468E+00
        -11   -1    0    0    0    0  0.00000000000E+00  0.00000000000E+00  0.45593999997E+02  0.45594000000E+02  0.51100000000E-03 0.  1.
         11   -1    0    0    0    0 -0.00000000000E+00 -0.00000000000E+00 -0.45593999997E+02  0.45594000000E+02  0.51100000000E-03 0. -1.
    9900012    2    1    2    0    0 -0.32907652003E+02  0.21021644896E+02  0.22456411438E+02  0.46142317308E+02  0.99999958690E+01 0.  0.
         12    1    1    2    0    0  0.32907652003E+02 -0.21021644896E+02 -0.22456411438E+02  0.45045682692E+02  0.00000000000E+00 0. -1.
         11    1    3    3    0    0 -0.46622988567E+01  0.64239839043E+01  0.22237354068E+01  0.82431546905E+01  0.51100000000E-03 0. -1.
        -11    1    3    3    0    0 -0.21930008215E+02  0.12128735900E+02  0.17608642640E+02  0.30628349461E+02  0.51100000000E-03 0.  1.
        -12    1    3    3    0    0 -0.63153449318E+01  0.24689250917E+01  0.26240333914E+01  0.72708131564E+01  0.00000000000E+00 0.  1.
</event>
<event>
 7    1  0.1385632E-008  0.4614232E+02  0.7816164E-02  0.1320468E+00
        -11   -1    0    0    0    0  0.00000000000E+00  0.00000000000E+00  0.45593999997E+02  0.45594000000E+02  0.51100000000E-03 0.  1.
         11   -1    0    0    0    0 -0.00000000000E+00 -0.00000000000E+00 -0.45593999997E+02  0.45594000000E+02  0.51100000000E-03 0. -1.
    9900012    2    1    2    0    0  0.17047871888E+02 -0.25317967207E+01  0.41618189767E+02  0.46142315967E+02  0.99999836386E+01 0.  0.
         12    1    1    2    0    0 -0.17047871888E+02  0.25317967207E+01 -0.41618189767E+02  0.45045684033E+02  0.00000000000E+00 0. -1.
         11    1    3    3    0    0  0.35650325398E+01  0.17126664647E+01  0.70415627944E+01  0.80762794824E+01  0.51100000000E-03 0. -1.
        -11    1    3    3    0    0  0.64231061039E-01 -0.21110193442E+01  0.28062563636E+01  0.35122077587E+01  0.51100000000E-03 0.  1.
        -12    1    3    3    0    0  0.13418608287E+02 -0.21334438412E+01  0.31770370609E+02  0.34553828726E+02  0.00000000000E+00 0.  1.
</event>
<event>
 7    1  0.1385632E-008  0.4614232E+02  0.7816164E-02  0.1320468E+00
        -11   -1    0    0    0    0  0.00000000000E+00  0.00000000000E+00  0.45593999997E+02  0.45594000000E+02  0.51100000000E-03 0. -1.
         11   -1    0    0    0    0 -0.00000000000E+00 -0.00000000000E+00 -0.45593999997E+02  0.45594000000E+02  0.51100000000E-03 0.  1.
    9900012    2    1    2    0    0  0.31520772870E+02  0.31806277416E+02 -0.48903047064E+01  0.46142317793E+02  0.10000000290E+02 0.  0.
         12    1    1    2    0    0 -0.31520772870E+02 -0.31806277416E+02  0.48903047064E+01  0.45045682207E+02  0.00000000000E+00 0. -1.
         11    1    3    3    0    0  0.12422957140E+02  0.79667452471E+01 -0.39489916494E+01  0.15277219290E+02  0.51100000000E-03 0. -1.
        -11    1    3    3    0    0  0.76149481960E+01  0.12844267374E+02  0.10806260106E+00  0.14932324608E+02  0.51100000000E-03 0.  1.
        -12    1    3    3    0    0  0.11482867533E+02  0.10995264795E+02 -0.10493756581E+01  0.15932773894E+02  0.00000000000E+00 0.  1.
</event>
<event>
 7    1  0.1385632E-008  0.4614232E+02  0.7816164E-02  0.1320468E+00
        -11   -1    0    0    0    0  0.00000000000E+00  0.00000000000E+00  0.45593999997E+02  0.45594000000E+02  0.51100000000E-03 0.  1.
         11   -1    0    0    0    0 -0.00000000000E+00 -0.00000000000E+00 -0.45593999997E+02  0.45594000000E+02  0.51100000000E-03 0. -1.
    9900012    2    1    2    0    0  0.76583685428E+01  0.44319756334E+02  0.24944080495E+01  0.46142317834E+02  0.10000000665E+02 0.  0.
         12    1    1    2    0    0 -0.76583685428E+01 -0.44319756334E+02 -0.24944080495E+01  0.45045682166E+02  0.00000000000E+00 0. -1.
         11    1    3    3    0    0 -0.12399401082E+01  0.64836070783E+01  0.16548925915E+01  0.68053862468E+01  0.51100000000E-03 0. -1.
        -11    1    3    3    0    0  0.33156333527E+01  0.26095258523E+02  0.11855637321E+01  0.26331758459E+02  0.51100000000E-03 0.  1.
         12    1    3    3    0    0  0.55826752983E+01  0.11740890733E+02 -0.34604827408E+00  0.13005173128E+02  0.00000000000E+00 0. -1.
</event>
<event>
 7    1  0.1385632E-008  0.4614232E+02  0.7816164E-02  0.1320468E+00
        -11   -1    0    0    0    0  0.00000000000E+00  0.00000000000E+00  0.45593999997E+02  0.45594000000E+02  0.51100000000E-03 0.  1.
         11   -1    0    0    0    0 -0.00000000000E+00 -0.00000000000E+00 -0.45593999997E+02  0.45594000000E+02  0.51100000000E-03 0. -1.
    9900012    2    1    2    0    0 -0.20372581674E+02  0.19413222905E+02  0.35173829397E+02  0.46142316721E+02  0.99999905172E+01 0.  0.
         12    1    1    2    0    0  0.20372581674E+02 -0.19413222905E+02 -0.35173829397E+02  0.45045683279E+02  0.00000000000E+00 0. -1.
         11    1    3    3    0    0 -0.48505646778E+00  0.14729056948E+01 -0.35232915293E+00  0.15902411942E+01  0.51100000000E-03 0. -1.
        -11    1    3    3    0    0 -0.12120741055E+02  0.12428486671E+02  0.22817948116E+02  0.28671212063E+02  0.51100000000E-03 0.  1.
        -12    1    3    3    0    0 -0.77667841517E+01  0.55118305386E+01  0.12708210433E+02  0.15880863464E+02  0.00000000000E+00 0.  1.
</event>
<event>
 7    1  0.1385632E-008  0.4614232E+02  0.7816164E-02  0.1320468E+00
        -11   -1    0    0    0    0  0.00000000000E+00  0.00000000000E+00  0.45593999997E+02  0.45594000000E+02  0.51100000000E-03 0.  1.
         11   -1    0    0    0    0 -0.00000000000E+00 -0.00000000000E+00 -0.45593999997E+02  0.45594000000E+02  0.51100000000E-03 0. -1.
    9900012    2    1    2    0    0  0.33149045535E+02 -0.28891817462E+02  0.97732868633E+01  0.46142317940E+02  0.10000001629E+02 0.  0.
         12    1    1    2    0    0 -0.33149045535E+02  0.28891817462E+02 -0.97732868633E+01  0.45045682060E+02  0.00000000000E+00 0. -1.
         11    1    3    3    0    0 -0.19578082826E+00 -0.12968368015E+01 -0.73601630247E+00  0.15039401853E+01  0.51100000000E-03 0. -1.
        -11    1    3    3    0    0  0.14505281020E+02 -0.10197695950E+02  0.47388198161E+01  0.18353544445E+02  0.51100000000E-03 0.  1.
         12    1    3    3    0    0  0.18839545343E+02 -0.17397284711E+02  0.57704833497E+01  0.26284833310E+02  0.00000000000E+00 0. -1.
</event>
<event>
 7    1  0.1385632E-008  0.4614232E+02  0.7816164E-02  0.1320468E+00
        -11   -1    0    0    0    0  0.00000000000E+00  0.00000000000E+00  0.45593999997E+02  0.45594000000E+02  0.51100000000E-03 0.  1.
         11   -1    0    0    0    0 -0.00000000000E+00 -0.00000000000E+00 -0.45593999997E+02  0.45594000000E+02  0.51100000000E-03 0. -1.
    9900012    2    1    2    0    0  0.11364537195E+00  0.12021295243E+02  0.43411855345E+02  0.46142316089E+02  0.99999847496E+01 0.  0.
         12    1    1    2    0    0 -0.11364537195E+00 -0.12021295243E+02 -0.43411855345E+02  0.45045683911E+02  0.00000000000E+00 0. -1.
         11    1    3    3    0    0  0.18430667758E+01  0.22018759230E+01  0.11016966300E+02  0.11385020836E+02  0.51100000000E-03 0. -1.
        -11    1    3    3    0    0 -0.42061205960E+01  0.74810838296E+01  0.17675619364E+02  0.19649060687E+02  0.51100000000E-03 0.  1.
        -12    1    3    3    0    0  0.24766991921E+01  0.23383354901E+01  0.14719269680E+02  0.15108234565E+02  0.00000000000E+00 0.  1.
</event>
<event>
 7    1  0.1385632E-008  0.4614232E+02  0.7816164E-02  0.1320468E+00
        -11   -1    0    0    0    0  0.00000000000E+00  0.00000000000E+00  0.45593999997E+02  0.45594000000E+02  0.51100000000E-03 0.  1.
         11   -1    0    0    0    0 -0.00000000000E+00 -0.00000000000E+00 -0.45593999997E+02  0.45594000000E+02  0.51100000000E-03 0. -1.
    9900012    2    1    2    0    0  0.11503187927E+02  0.20128275327E+02  0.38621787789E+02  0.46142319939E+02  0.10000019863E+02 0.  0.
         12    1    1    2    0    0 -0.11503187927E+02 -0.20128275327E+02 -0.38621787789E+02  0.45045680061E+02  0.00000000000E+00 0. -1.
         11    1    3    3    0    0  0.28893532701E+01  0.19095498792E+01  0.16651452591E+01  0.38428442664E+01  0.51100000000E-03 0. -1.
        -11    1    3    3    0    0  0.61333194287E+01  0.16268108308E+02  0.30324926624E+02  0.34955258977E+02  0.51100000000E-03 0.  1.
        -12    1    3    3    0    0  0.24805152282E+01  0.19506171394E+01  0.66317159053E+01  0.73442166956E+01  0.00000000000E+00 0.  1.
</event>
<event>
 7    1  0.1620710E-008  0.4614232E+02  0.7816164E-02  0.1320468E+00
        -11   -1    0    0    0    0  0.00000000000E+00  0.00000000000E+00  0.45593999997E+02  0.45594000000E+02  0.51100000000E-03 0.  1.
         11   -1    0    0    0    0 -0.00000000000E+00 -0.00000000000E+00 -0.45593999997E+02  0.45594000000E+02  0.51100000000E-03 0. -1.
    9900012    2    1    2    0    0 -0.11510436696E+02 -0.39741109409E+02  0.17812009277E+02  0.46142316473E+02  0.99999882502E+01 0.  0.
         12    1    1    2    0    0  0.11510436696E+02  0.39741109409E+02 -0.17812009277E+02  0.45045683527E+02  0.00000000000E+00 0. -1.
         11    1    3    3    0    0 -0.14638466852E+01 -0.98161196924E+01  0.70730559537E+00  0.99498409233E+01  0.51100000000E-03 0. -1.
        -11    1    3    3    0    0 -0.92869401379E+01 -0.27072092822E+02  0.16889077022E+02  0.33232309427E+02  0.51100000000E-03 0.  1.
        -12    1    3    3    0    0 -0.75964987335E+00 -0.28528968939E+01  0.21562665939E+00  0.29601661226E+01  0.00000000000E+00 0.  1.
</event>
<event>
 7    1  0.1385632E-008  0.4614232E+02  0.7816164E-02  0.1320468E+00
        -11   -1    0    0    0    0  0.00000000000E+00  0.00000000000E+00  0.45593999997E+02  0.45594000000E+02  0.51100000000E-03 0.  1.
         11   -1    0    0    0    0 -0.00000000000E+00 -0.00000000000E+00 -0.45593999997E+02  0.45594000000E+02  0.51100000000E-03 0. -1.
    9900012    2    1    2    0    0  0.13832378733E+02 -0.17355585212E+02  0.39199010853E+02  0.46142317729E+02  0.99999997034E+01 0.  0.
         12    1    1    2    0    0 -0.13832378733E+02  0.17355585212E+02 -0.39199010853E+02  0.45045682271E+02  0.00000000000E+00 0. -1.
         11    1    3    3    0    0 -0.35633032237E+00 -0.56461536035E+00 -0.11913940794E+00  0.67820075452E+00  0.51100000000E-03 0. -1.
        -11    1    3    3    0    0  0.17368165091E+01 -0.53176120505E+01  0.68298934104E+01  0.88284185313E+01  0.51100000000E-03 0.  1.
        -12    1    3    3    0    0  0.12451892546E+02 -0.11473357801E+02  0.32488256850E+02  0.36635698443E+02  0.00000000000E+00 0.  1.
</event>
<event>
 7    1  0.1385632E-008  0.4614232E+02  0.7816164E-02  0.1320468E+00
        -11   -1    0    0    0    0  0.00000000000E+00  0.00000000000E+00  0.45593999997E+02  0.45594000000E+02  0.51100000000E-03 0. -1.
         11   -1    0    0    0    0 -0.00000000000E+00 -0.00000000000E+00 -0.45593999997E+02  0.45594000000E+02  0.51100000000E-03 0.  1.
    9900012    2    1    2    0    0 -0.11461633394E+01 -0.30229171040E+02 -0.33376592835E+02  0.46142318504E+02  0.10000006776E+02 0.  0.
         12    1    1    2    0    0  0.11461633394E+01  0.30229171040E+02  0.33376592835E+02  0.45045681496E+02  0.00000000000E+00 0. -1.
         11    1    3    3    0    0  0.15575489417E+01 -0.11264628434E+02 -0.10090425628E+02  0.15203108303E+02  0.51100000000E-03 0. -1.
        -11    1    3    3    0    0 -0.38113249375E+01 -0.18805713413E+02 -0.21370653291E+02  0.28720826539E+02  0.51100000000E-03 0.  1.
        -12    1    3    3    0    0  0.11076126564E+01 -0.15882919321E+00 -0.19155139168E+01  0.22183836627E+01  0.00000000000E+00 0.  1.
</event>
<event>
 7    1  0.1385632E-008  0.4614232E+02  0.7816164E-02  0.1320468E+00
        -11   -1    0    0    0    0  0.00000000000E+00  0.00000000000E+00  0.45593999997E+02  0.45594000000E+02  0.51100000000E-03 0. -1.
         11   -1    0    0    0    0 -0.00000000000E+00 -0.00000000000E+00 -0.45593999997E+02  0.45594000000E+02  0.51100000000E-03 0.  1.
    9900012    2    1    2    0    0 -0.69004009126E+00  0.42202214564E+02 -0.15735622713E+02  0.46142324385E+02  0.10000060401E+02 0.  0.
         12    1    1    2    0    0  0.69004009126E+00 -0.42202214564E+02  0.15735622713E+02  0.45045675615E+02  0.00000000000E+00 0. -1.
         11    1    3    3    0    0 -0.11614691528E+01  0.94975957905E+01 -0.74778365079E+01  0.12143779292E+02  0.51100000000E-03 0. -1.
        -11    1    3    3    0    0  0.96642927029E+00  0.99747556861E+01 -0.43719603512E+01  0.10933607552E+02  0.51100000000E-03 0.  1.
         12    1    3    3    0    0 -0.49500020871E+00  0.22729863088E+02 -0.38858258535E+01  0.23064937541E+02  0.00000000000E+00 0. -1.
</event>
<event>
 7    1  0.1385632E-008  0.4614231E+02  0.7816164E-02  0.1320468E+00
        -11   -1    0    0    0    0  0.00000000000E+00  0.00000000000E+00  0.45593999997E+02  0.45594000000E+02  0.51100000000E-03 0.  1.
         11   -1    0    0    0    0 -0.00000000000E+00 -0.00000000000E+00 -0.45593999997E+02  0.45594000000E+02  0.51100000000E-03 0. -1.
    9900012    2    1    2    0    0 -0.18684493674E+02 -0.38624677318E+02  0.13716331603E+02  0.46142314808E+02  0.99999730723E+01 0.  0.
         12    1    1    2    0    0  0.18684493674E+02  0.38624677318E+02 -0.13716331603E+02  0.45045685192E+02  0.00000000000E+00 0. -1.
         11    1    3    3    0    0 -0.77797348848E+00 -0.39727917451E+01 -0.14761329522E+00  0.40509390202E+01  0.51100000000E-03 0. -1.
        -11    1    3    3    0    0 -0.35049081036E+01 -0.29392626138E+01  0.34779460279E+01  0.57462817857E+01  0.51100000000E-03 0.  1.
        -12    1    3    3    0    0 -0.14401612082E+02 -0.31712622959E+02  0.10385998870E+02  0.36345094002E+02  0.00000000000E+00 0.  1.
</event>
<event>
 7    1  0.1385632E-008  0.4614232E+02  0.7816164E-02  0.1320468E+00
        -11   -1    0    0    0    0  0.00000000000E+00  0.00000000000E+00  0.45593999997E+02  0.45594000000E+02  0.51100000000E-03 0. -1.
         11   -1    0    0    0    0 -0.00000000000E+00 -0.00000000000E+00 -0.45593999997E+02  0.45594000000E+02  0.51100000000E-03 0.  1.
    9900012    2    1    2    0    0 -0.91300912048E+01  0.37328462162E+02 -0.23501935583E+02  0.46142316201E+02  0.99999857703E+01 0.  0.
         12    1    1    2    0    0  0.91300912048E+01 -0.37328462162E+02  0.23501935583E+02  0.45045683799E+02  0.00000000000E+00 0. -1.
         11    1    3    3    0    0  0.17402442408E+01  0.25022081026E+01 -0.19062976468E+01  0.35949223060E+01  0.51100000000E-03 0. -1.
        -11    1    3    3    0    0 -0.76405220944E+01  0.22977435785E+02 -0.16196254667E+02  0.29131748980E+02  0.51100000000E-03 0.  1.
         12    1    3    3    0    0 -0.32298133512E+01  0.11848818275E+02 -0.53993832686E+01  0.13415644915E+02  0.00000000000E+00 0. -1.
</event>
<event>
 7    1  0.1385632E-008  0.4614232E+02  0.7816164E-02  0.1320468E+00
        -11   -1    0    0    0    0  0.00000000000E+00  0.00000000000E+00  0.45593999997E+02  0.45594000000E+02  0.51100000000E-03 0. -1.
         11   -1    0    0    0    0 -0.00000000000E+00 -0.00000000000E+00 -0.45593999997E+02  0.45594000000E+02  0.51100000000E-03 0.  1.
    9900012    2    1    2    0    0 -0.21756314736E+02 -0.32561280104E+02 -0.22260712772E+02  0.46142317343E+02  0.99999961868E+01 0.  0.
         12    1    1    2    0    0  0.21756314736E+02  0.32561280104E+02  0.22260712772E+02  0.45045682657E+02  0.00000000000E+00 0. -1.
         11    1    3    3    0    0 -0.12053080059E+02 -0.10157925893E+02 -0.70441244121E+01  0.17264990192E+02  0.51100000000E-03 0. -1.
        -11    1    3    3    0    0 -0.74563235664E+01 -0.19415809624E+02 -0.13132908533E+02  0.24597636295E+02  0.51100000000E-03 0.  1.
        -12    1    3    3    0    0 -0.22469111108E+01 -0.29875445875E+01 -0.20836798272E+01  0.42796908561E+01  0.00000000000E+00 0.  1.
</event>
<event>
 7    1  0.1385632E-008  0.4614232E+02  0.7816164E-02  0.1320468E+00
        -11   -1    0    0    0    0  0.00000000000E+00  0.00000000000E+00  0.45593999997E+02  0.45594000000E+02  0.51100000000E-03 0.  1.
         11   -1    0    0    0    0 -0.00000000000E+00 -0.00000000000E+00 -0.45593999997E+02  0.45594000000E+02  0.51100000000E-03 0. -1.
    9900012    2    1    2    0    0 -0.36375211369E+02 -0.25721998190E+02  0.66585665190E+01  0.46142315400E+02  0.99999784661E+01 0.  0.
         12    1    1    2    0    0  0.36375211369E+02  0.25721998190E+02 -0.66585665190E+01  0.45045684600E+02  0.00000000000E+00 0. -1.
         11    1    3    3    0    0 -0.54948713315E+01 -0.48104365968E+01 -0.84024421166E+00  0.73511850608E+01  0.51100000000E-03 0. -1.
        -11    1    3    3    0    0 -0.29338512902E+01 -0.18427561750E+00 -0.74757503637E+00  0.30332012119E+01  0.51100000000E-03 0.  1.
        -12    1    3    3    0    0 -0.27946488747E+02 -0.20727285976E+02  0.82463857670E+01  0.35757929127E+02  0.00000000000E+00 0.  1.
</event>
<event>
 7    1  0.1385632E-008  0.4614232E+02  0.7816164E-02  0.1320468E+00
        -11   -1    0    0    0    0  0.00000000000E+00  0.00000000000E+00  0.45593999997E+02  0.45594000000E+02  0.51100000000E-03 0.  1.
         11   -1    0    0    0    0 -0.00000000000E+00 -0.00000000000E+00 -0.45593999997E+02  0.45594000000E+02  0.51100000000E-03 0. -1.
    9900012    2    1    2    0    0  0.41599981439E+02 -0.10324587386E+02  0.13854881145E+02  0.46142319942E+02  0.10000019883E+02 0.  0.
         12    1    1    2    0    0 -0.41599981439E+02  0.10324587386E+02 -0.13854881145E+02  0.45045680058E+02  0.00000000000E+00 0. -1.
         11    1    3    3    0    0  0.50383939108E+01 -0.10535585331E+01  0.11570221735E+00  0.51486683761E+01  0.51100000000E-03 0. -1.
        -11    1    3    3    0    0  0.25300641558E+02 -0.24268736206E+01  0.97885004016E+01  0.27236499760E+02  0.51100000000E-03 0.  1.
        -12    1    3    3    0    0  0.11260945970E+02 -0.68441552321E+01  0.39506785262E+01  0.13757151806E+02  0.00000000000E+00 0.  1.
</event>
<event>
 7    1  0.1385632E-008  0.4614232E+02  0.7816164E-02  0.1320468E+00
        -11   -1    0    0    0    0  0.00000000000E+00  0.00000000000E+00  0.45593999997E+02  0.45594000000E+02  0.51100000000E-03 0.  1.
         11   -1    0    0    0    0 -0.00000000000E+00 -0.00000000000E+00 -0.45593999997E+02  0.45594000000E+02  0.51100000000E-03 0. -1.
    9900012    2    1    2    0    0  0.19341344789E+02  0.17641619838E+02  0.36657868901E+02  0.46142315177E+02  0.99999764404E+01 0.  0.
         12    1    1    2    0    0 -0.19341344789E+02 -0.17641619838E+02 -0.36657868901E+02  0.45045684823E+02  0.00000000000E+00 0. -1.
         11    1    3    3    0    0 -0.11723555819E+00  0.38267386982E+00 -0.57166624292E+00  0.69784383723E+00  0.51100000000E-03 0. -1.
        -11    1    3    3    0    0  0.90974983068E+01  0.91086249645E+01  0.18816400572E+02  0.22798869598E+02  0.51100000000E-03 0.  1.
         12    1    3    3    0    0  0.10361082041E+02  0.81503210031E+01  0.18413134572E+02  0.22645601742E+02  0.00000000000E+00 0. -1.
</event>
<event>
 7    1  0.1385632E-008  0.4614232E+02  0.7816164E-02  0.1320468E+00
        -11   -1    0    0    0    0  0.00000000000E+00  0.00000000000E+00  0.45593999997E+02  0.45594000000E+02  0.51100000000E-03 0.  1.
         11   -1    0    0    0    0 -0.00000000000E+00 -0.00000000000E+00 -0.45593999997E+02  0.45594000000E+02  0.51100000000E-03 0. -1.
    9900012    2    1    2    0    0  0.18823144999E+02  0.28727872564E+02  0.29146390241E+02  0.46142317479E+02  0.99999974282E+01 0.  0.
         12    1    1    2    0    0 -0.18823144999E+02 -0.28727872564E+02 -0.29146390241E+02  0.45045682521E+02  0.00000000000E+00 0. -1.
         11    1    3    3    0    0  0.70181068194E+01  0.50140457296E+01  0.10704858450E+02  0.13747307831E+02  0.51100000000E-03 0. -1.
        -11    1    3    3    0    0  0.57732618316E+01  0.13731924938E+02  0.91346667217E+01  0.17473936336E+02  0.51100000000E-03 0.  1.
         12    1    3    3    0    0  0.60317763477E+01  0.99819018961E+01  0.93068650693E+01  0.14921073312E+02  0.00000000000E+00 0. -1.
</event>
<event>
 7    1  0.1385632E-008  0.4614232E+02  0.7816164E-02  0.1320468E+00
        -11   -1    0    0    0    0  0.00000000000E+00  0.00000000000E+00  0.45593999997E+02  0.45594000000E+02  0.51100000000E-03 0.  1.
         11   -1    0    0    0    0 -0.00000000000E+00 -0.00000000000E+00 -0.45593999997E+02  0.45594000000E+02  0.51100000000E-03 0. -1.
    9900012    2    1    2    0    0 -0.40241064934E+02  0.31353946901E+01  0.19998486338E+02  0.46142318046E+02  0.10000002599E+02 0.  0.
         12    1    1    2    0    0  0.40241064934E+02 -0.31353946901E+01 -0.19998486338E+02  0.45045681954E+02  0.00000000000E+00 0. -1.
         11    1    3    3    0    0 -0.70221257258E+01  0.11931747111E+01  0.67765719655E+01  0.98313703757E+01  0.51100000000E-03 0. -1.
        -11    1    3    3    0    0 -0.13633180221E+02  0.18372752039E+01  0.84763120565E+01  0.16158188310E+02  0.51100000000E-03 0.  1.
         12    1    3    3    0    0 -0.19585758987E+02  0.10494477511E+00  0.47456023161E+01  0.20152759361E+02  0.00000000000E+00 0. -1.
</event>
