<event>
 7    1  0.3981356E-008  0.4614232E+02  0.7816164E-02  0.1320468E+00
        -11   -1    0    0    0    0  0.00000000000E+00  0.00000000000E+00  0.45593999997E+02  0.45594000000E+02  0.51100000000E-03 0.  1.
         11   -1    0    0    0    0 -0.00000000000E+00 -0.00000000000E+00 -0.45593999997E+02  0.45594000000E+02  0.51100000000E-03 0. -1.
    9900012    2    1    2    0    0 -0.16691092398E+02 -0.28426370239E+02 -0.30699551420E+02  0.46142317101E+02  0.99999939843E+01 0.  0.
        -12    1    1    2    0    0  0.16691092398E+02  0.28426370239E+02  0.30699551420E+02  0.45045682899E+02  0.00000000000E+00 0.  1.
         11    1    3    3    0    0 -0.71130289789E+01 -0.76419754063E+01 -0.97122805796E+01  0.14259150174E+02  0.51100000000E-03 0. -1.
        -11    1    3    3    0    0 -0.79692628719E+01 -0.10957521066E+02 -0.88475990575E+01  0.16181978494E+02  0.51100000000E-03 0.  1.
         12    1    3    3    0    0 -0.16088005473E+01 -0.98268737667E+01 -0.12139671783E+02  0.15701188433E+02  0.00000000000E+00 0. -1.
</event>
<event>
 7    1  0.3981356E-008  0.4614232E+02  0.7816164E-02  0.1320468E+00
        -11   -1    0    0    0    0  0.00000000000E+00  0.00000000000E+00  0.45593999997E+02  0.45594000000E+02  0.51100000000E-03 0.  1.
         11   -1    0    0    0    0 -0.00000000000E+00 -0.00000000000E+00 -0.45593999997E+02  0.45594000000E+02  0.51100000000E-03 0. -1.
    9900012    2    1    2    0    0 -0.32998569215E+02  0.25982078011E+02 -0.16283105287E+02  0.46142318012E+02  0.10000002291E+02 0.  0.
        -12    1    1    2    0    0  0.32998569215E+02 -0.25982078011E+02  0.16283105287E+02  0.45045681988E+02  0.00000000000E+00 0.  1.
         11    1    3    3    0    0 -0.81073422153E+01  0.53332658870E+01 -0.14988712112E+01  0.98193349055E+01  0.51100000000E-03 0. -1.
        -11    1    3    3    0    0 -0.11188279692E+02  0.84202484324E+01 -0.10396029080E+02  0.17440057540E+02  0.51100000000E-03 0.  1.
        -12    1    3    3    0    0 -0.13702947307E+02  0.12228563691E+02 -0.43882049955E+01  0.18882925566E+02  0.00000000000E+00 0.  1.
</event>
<event>
 7    1  0.3981356E-008  0.4614232E+02  0.7816164E-02  0.1320468E+00
        -11   -1    0    0    0    0  0.00000000000E+00  0.00000000000E+00  0.45593999997E+02  0.45594000000E+02  0.51100000000E-03 0.  1.
         11   -1    0    0    0    0 -0.00000000000E+00 -0.00000000000E+00 -0.45593999997E+02  0.45594000000E+02  0.51100000000E-03 0. -1.
    9900012    2    1    2    0    0 -0.41136771829E+01  0.32977994172E+02 -0.30407938773E+02  0.46142321184E+02  0.10000031215E+02 0.  0.
        -12    1    1    2    0    0  0.41136771829E+01 -0.32977994172E+02  0.30407938773E+02  0.45045678816E+02  0.00000000000E+00 0.  1.
         11    1    3    3    0    0 -0.47428360508E+01  0.21083682911E+02 -0.21256317387E+02  0.30312492606E+02  0.51100000000E-03 0. -1.
        -11    1    3    3    0    0 -0.21829608778E+01  0.51628527492E+01 -0.43645352373E+01  0.71041913546E+01  0.51100000000E-03 0.  1.
        -12    1    3    3    0    0  0.28121197458E+01  0.67314585116E+01 -0.47870861488E+01  0.87256372233E+01  0.00000000000E+00 0.  1.
</event>
<event>
 7    1  0.3981356E-008  0.4614232E+02  0.7816164E-02  0.1320468E+00
        -11   -1    0    0    0    0  0.00000000000E+00  0.00000000000E+00  0.45593999997E+02  0.45594000000E+02  0.51100000000E-03 0.  1.
         11   -1    0    0    0    0 -0.00000000000E+00 -0.00000000000E+00 -0.45593999997E+02  0.45594000000E+02  0.51100000000E-03 0. -1.
    9900012    2    1    2    0    0 -0.35920571120E+02 -0.24998378469E+02 -0.10672734937E+02  0.46142316225E+02  0.99999859936E+01 0.  0.
        -12    1    1    2    0    0  0.35920571120E+02  0.24998378469E+02  0.10672734937E+02  0.45045683775E+02  0.00000000000E+00 0.  1.
         11    1    3    3    0    0 -0.17672983525E+02 -0.16648678254E+02 -0.66462696506E+01  0.25173115318E+02  0.51100000000E-03 0. -1.
        -11    1    3    3    0    0 -0.90761857677E+01 -0.38391083322E+01 -0.42834269429E+01  0.10745401226E+02  0.51100000000E-03 0.  1.
         12    1    3    3    0    0 -0.91714018280E+01 -0.45105918827E+01  0.25696165647E+00  0.10223799681E+02  0.00000000000E+00 0. -1.
</event>
<event>
 7    1  0.3981356E-008  0.4614232E+02  0.7816164E-02  0.1320468E+00
        -11   -1    0    0    0    0  0.00000000000E+00  0.00000000000E+00  0.45593999997E+02  0.45594000000E+02  0.51100000000E-03 0.  1.
         11   -1    0    0    0    0 -0.00000000000E+00 -0.00000000000E+00 -0.45593999997E+02  0.45594000000E+02  0.51100000000E-03 0. -1.
    9900012    2    1    2    0    0  0.34466143578E+01  0.16693485916E+02 -0.41696064458E+02  0.46142318588E+02  0.10000007543E+02 0.  0.
        -12    1    1    2    0    0 -0.34466143578E+01 -0.16693485916E+02  0.41696064458E+02  0.45045681412E+02  0.00000000000E+00 0.  1.
         11    1    3    3    0    0  0.33663484593E+01  0.12168939203E+02 -0.25023117368E+02  0.28028053560E+02  0.51100000000E-03 0. -1.
        -11    1    3    3    0    0  0.75849885608E+00  0.38885805341E+01 -0.16720328408E+02  0.17183298910E+02  0.51100000000E-03 0.  1.
         12    1    3    3    0    0 -0.67823295759E+00  0.63596617849E+00  0.47381318088E-01  0.93096611874E+00  0.00000000000E+00 0. -1.
</event>
<event>
 7    1  0.3981356E-008  0.4614232E+02  0.7816164E-02  0.1320468E+00
        -11   -1    0    0    0    0  0.00000000000E+00  0.00000000000E+00  0.45593999997E+02  0.45594000000E+02  0.51100000000E-03 0.  1.
         11   -1    0    0    0    0 -0.00000000000E+00 -0.00000000000E+00 -0.45593999997E+02  0.45594000000E+02  0.51100000000E-03 0. -1.
    9900012    2    1    2    0    0 -0.31261798102E+02  0.32291470543E+02 -0.30123401339E+01  0.46142320035E+02  0.10000020736E+02 0.  0.
        -12    1    1    2    0    0  0.31261798102E+02 -0.32291470543E+02  0.30123401339E+01  0.45045679965E+02  0.00000000000E+00 0.  1.
         11    1    3    3    0    0 -0.20163919453E+02  0.19854351176E+02 -0.57792014518E+00  0.28303937894E+02  0.51100000000E-03 0. -1.
        -11    1    3    3    0    0 -0.11707606326E+02  0.11676345680E+02 -0.28495774706E+01  0.16778712297E+02  0.51100000000E-03 0.  1.
        -12    1    3    3    0    0  0.60972767748E+00  0.76077368713E+00  0.41515748184E+00  0.10596698441E+01  0.00000000000E+00 0.  1.
</event>
<event>
 7    1  0.3981356E-008  0.4614232E+02  0.7816164E-02  0.1320468E+00
        -11   -1    0    0    0    0  0.00000000000E+00  0.00000000000E+00  0.45593999997E+02  0.45594000000E+02  0.51100000000E-03 0.  1.
         11   -1    0    0    0    0 -0.00000000000E+00 -0.00000000000E+00 -0.45593999997E+02  0.45594000000E+02  0.51100000000E-03 0. -1.
    9900012    2    1    2    0    0 -0.15546156754E+02 -0.34584683910E+02 -0.24317281298E+02  0.46142317402E+02  0.99999967287E+01 0.  0.
        -12    1    1    2    0    0  0.15546156754E+02  0.34584683910E+02  0.24317281298E+02  0.45045682598E+02  0.00000000000E+00 0.  1.
         11    1    3    3    0    0 -0.66743245984E+01 -0.95853982543E+01 -0.95343547881E+01  0.15077479565E+02  0.51100000000E-03 0. -1.
        -11    1    3    3    0    0 -0.52188470995E+01 -0.18700002619E+02 -0.76377224740E+01  0.20862916092E+02  0.51100000000E-03 0.  1.
        -12    1    3    3    0    0 -0.36529850559E+01 -0.62992830363E+01 -0.71452040363E+01  0.10201921746E+02  0.00000000000E+00 0.  1.
</event>
<event>
 7    1  0.3981356E-008  0.4614231E+02  0.7816164E-02  0.1320468E+00
        -11   -1    0    0    0    0  0.00000000000E+00  0.00000000000E+00  0.45593999997E+02  0.45594000000E+02  0.51100000000E-03 0. -1.
         11   -1    0    0    0    0 -0.00000000000E+00 -0.00000000000E+00 -0.45593999997E+02  0.45594000000E+02  0.51100000000E-03 0.  1.
    9900012    2    1    2    0    0 -0.26691847365E+02  0.13038156481E+02  0.33862461610E+02  0.46142306016E+02  0.99998928982E+01 0.  0.
        -12    1    1    2    0    0  0.26691847365E+02 -0.13038156481E+02 -0.33862461610E+02  0.45045693984E+02  0.00000000000E+00 0.  1.
         11    1    3    3    0    0 -0.90831583562E+01  0.68835445424E+01  0.86856303370E+01  0.14329240238E+02  0.51100000000E-03 0. -1.
        -11    1    3    3    0    0 -0.24096090061E+01  0.13448800064E+01  0.11749169108E+01  0.29992245335E+01  0.51100000000E-03 0.  1.
        -12    1    3    3    0    0 -0.15199080003E+02  0.48097319325E+01  0.24001914362E+02  0.28813841244E+02  0.00000000000E+00 0.  1.
</event>
<event>
 7    1  0.3981356E-008  0.4614232E+02  0.7816164E-02  0.1320468E+00
        -11   -1    0    0    0    0  0.00000000000E+00  0.00000000000E+00  0.45593999997E+02  0.45594000000E+02  0.51100000000E-03 0.  1.
         11   -1    0    0    0    0 -0.00000000000E+00 -0.00000000000E+00 -0.45593999997E+02  0.45594000000E+02  0.51100000000E-03 0. -1.
    9900012    2    1    2    0    0 -0.20158093192E+02  0.68543937782E+01 -0.39696122400E+02  0.46142316868E+02  0.99999918550E+01 0.  0.
        -12    1    1    2    0    0  0.20158093192E+02 -0.68543937782E+01  0.39696122400E+02  0.45045683132E+02  0.00000000000E+00 0.  1.
         11    1    3    3    0    0 -0.15823222197E+01  0.22282966969E+01 -0.56282785387E+01  0.62567219330E+01  0.51100000000E-03 0. -1.
        -11    1    3    3    0    0 -0.88090405772E+01  0.61533153492E+01 -0.15672779528E+02  0.19002592035E+02  0.51100000000E-03 0.  1.
         12    1    3    3    0    0 -0.97667303952E+01 -0.15272182678E+01 -0.18395064334E+02  0.20883002900E+02  0.00000000000E+00 0. -1.
</event>
<event>
 7    1  0.3981356E-008  0.4614232E+02  0.7816164E-02  0.1320468E+00
        -11   -1    0    0    0    0  0.00000000000E+00  0.00000000000E+00  0.45593999997E+02  0.45594000000E+02  0.51100000000E-03 0.  1.
         11   -1    0    0    0    0 -0.00000000000E+00 -0.00000000000E+00 -0.45593999997E+02  0.45594000000E+02  0.51100000000E-03 0. -1.
    9900012    2    1    2    0    0 -0.35230237256E+02 -0.12805821886E+01 -0.28041112494E+02  0.46142317657E+02  0.99999990467E+01 0.  0.
        -12    1    1    2    0    0  0.35230237256E+02  0.12805821886E+01  0.28041112494E+02  0.45045682343E+02  0.00000000000E+00 0.  1.
         11    1    3    3    0    0 -0.29234850934E+01 -0.14199127106E+01 -0.13119179386E+01  0.35048603589E+01  0.51100000000E-03 0.  1.
        -11    1    3    3    0    0 -0.13442954001E+02 -0.34444434392E+01 -0.13165693902E+02  0.19128844687E+02  0.51100000000E-03 0. -1.
         12    1    3    3    0    0 -0.18863798162E+02  0.35837739611E+01 -0.13563500654E+02  0.23508612611E+02  0.00000000000E+00 0. -1.
</event>
<event>
 7    1  0.3981356E-008  0.4614232E+02  0.7816164E-02  0.1320468E+00
        -11   -1    0    0    0    0  0.00000000000E+00  0.00000000000E+00  0.45593999997E+02  0.45594000000E+02  0.51100000000E-03 0.  1.
         11   -1    0    0    0    0 -0.00000000000E+00 -0.00000000000E+00 -0.45593999997E+02  0.45594000000E+02  0.51100000000E-03 0. -1.
    9900012    2    1    2    0    0  0.11948036463E+02 -0.12770257585E+02 -0.41512388792E+02  0.46142317884E+02  0.10000001117E+02 0.  0.
        -12    1    1    2    0    0 -0.11948036463E+02  0.12770257585E+02  0.41512388792E+02  0.45045682116E+02  0.00000000000E+00 0.  1.
         11    1    3    3    0    0  0.47661642128E+01 -0.48529774082E+00 -0.14408949860E+02  0.15184520787E+02  0.51100000000E-03 0. -1.
        -11    1    3    3    0    0  0.38330035649E+01 -0.39656864954E+01 -0.14293551454E+02  0.15320711443E+02  0.51100000000E-03 0.  1.
        -12    1    3    3    0    0  0.33488686858E+01 -0.83192733491E+01 -0.12809887478E+02  0.15637085654E+02  0.00000000000E+00 0.  1.
</event>
<event>
 7    1  0.3981356E-008  0.4614232E+02  0.7816164E-02  0.1320468E+00
        -11   -1    0    0    0    0  0.00000000000E+00  0.00000000000E+00  0.45593999997E+02  0.45594000000E+02  0.51100000000E-03 0. -1.
         11   -1    0    0    0    0 -0.00000000000E+00 -0.00000000000E+00 -0.45593999997E+02  0.45594000000E+02  0.51100000000E-03 0.  1.
    9900012    2    1    2    0    0 -0.84690323991E+01 -0.36148352453E+01  0.44094465812E+02  0.46142318089E+02  0.10000002989E+02 0.  0.
        -12    1    1    2    0    0  0.84690323991E+01  0.36148352453E+01 -0.44094465812E+02  0.45045681911E+02  0.00000000000E+00 0.  1.
         11    1    3    3    0    0 -0.43750325143E+01 -0.13778146216E+01  0.24071527332E+02  0.24504646722E+02  0.51100000000E-03 0. -1.
        -11    1    3    3    0    0 -0.32659352326E+01 -0.35540731019E+01  0.68875636721E+01  0.84104876289E+01  0.51100000000E-03 0.  1.
        -12    1    3    3    0    0 -0.82806465218E+00  0.13170524781E+01  0.13135374808E+02  0.13227183738E+02  0.00000000000E+00 0.  1.
</event>
<event>
 7    1  0.3981356E-008  0.4614232E+02  0.7816164E-02  0.1320468E+00
        -11   -1    0    0    0    0  0.00000000000E+00  0.00000000000E+00  0.45593999997E+02  0.45594000000E+02  0.51100000000E-03 0. -1.
         11   -1    0    0    0    0 -0.00000000000E+00 -0.00000000000E+00 -0.45593999997E+02  0.45594000000E+02  0.51100000000E-03 0.  1.
    9900012    2    1    2    0    0  0.17843542010E+02  0.37380333863E+02 -0.17704015758E+02  0.46142317353E+02  0.99999962759E+01 0.  0.
        -12    1    1    2    0    0 -0.17843542010E+02 -0.37380333863E+02  0.17704015758E+02  0.45045682647E+02  0.00000000000E+00 0.  1.
         11    1    3    3    0    0  0.45750981248E+01  0.86923265668E+01 -0.70987863348E+01  0.12119440238E+02  0.51100000000E-03 0. -1.
        -11    1    3    3    0    0  0.13245940247E+02  0.23430767153E+02 -0.10072494276E+02  0.28738666003E+02  0.51100000000E-03 0.  1.
        -12    1    3    3    0    0  0.22503638395E-01  0.52572401435E+01 -0.53273514714E+00  0.52842111121E+01  0.00000000000E+00 0.  1.
</event>
<event>
 7    1  0.3981356E-008  0.4614232E+02  0.7816164E-02  0.1320468E+00
        -11   -1    0    0    0    0  0.00000000000E+00  0.00000000000E+00  0.45593999997E+02  0.45594000000E+02  0.51100000000E-03 0.  1.
         11   -1    0    0    0    0 -0.00000000000E+00 -0.00000000000E+00 -0.45593999997E+02  0.45594000000E+02  0.51100000000E-03 0. -1.
    9900012    2    1    2    0    0  0.46796309872E+01  0.24083028820E+02 -0.37778595868E+02  0.46142317309E+02  0.99999958806E+01 0.  0.
        -12    1    1    2    0    0 -0.46796309872E+01 -0.24083028820E+02  0.37778595868E+02  0.45045682691E+02  0.00000000000E+00 0.  1.
         11    1    3    3    0    0  0.43137321360E+01  0.18242936426E+02 -0.24217055240E+02  0.30624806598E+02  0.51100000000E-03 0. -1.
        -11    1    3    3    0    0  0.14255928115E+01  0.50189601316E+01 -0.13098167690E+02  0.14099087657E+02  0.51100000000E-03 0.  1.
        -12    1    3    3    0    0 -0.10596939603E+01  0.82113226168E+00 -0.46337293750E+00  0.14184230539E+01  0.00000000000E+00 0.  1.
</event>
<event>
 7    1  0.3981356E-008  0.4614232E+02  0.7816164E-02  0.1320468E+00
        -11   -1    0    0    0    0  0.00000000000E+00  0.00000000000E+00  0.45593999997E+02  0.45594000000E+02  0.51100000000E-03 0. -1.
         11   -1    0    0    0    0 -0.00000000000E+00 -0.00000000000E+00 -0.45593999997E+02  0.45594000000E+02  0.51100000000E-03 0.  1.
    9900012    2    1    2    0    0  0.71798805084E+01  0.43689024516E+02  0.82964993031E+01  0.46142318210E+02  0.10000004091E+02 0.  0.
        -12    1    1    2    0    0 -0.71798805084E+01 -0.43689024516E+02 -0.82964993031E+01  0.45045681790E+02  0.00000000000E+00 0.  1.
         11    1    3    3    0    0  0.60482470241E+01  0.31249093764E+02  0.56415103773E+01  0.32325126338E+02  0.51100000000E-03 0. -1.
        -11    1    3    3    0    0  0.21287476469E+01  0.11580534534E+02  0.34622237100E+01  0.12273033037E+02  0.51100000000E-03 0.  1.
        -12    1    3    3    0    0 -0.99711416255E+00  0.85939621750E+00 -0.80723478415E+00  0.15441588353E+01  0.00000000000E+00 0.  1.
</event>
<event>
 7    1  0.3981356E-008  0.4614232E+02  0.7816164E-02  0.1320468E+00
        -11   -1    0    0    0    0  0.00000000000E+00  0.00000000000E+00  0.45593999997E+02  0.45594000000E+02  0.51100000000E-03 0. -1.
         11   -1    0    0    0    0 -0.00000000000E+00 -0.00000000000E+00 -0.45593999997E+02  0.45594000000E+02  0.51100000000E-03 0.  1.
    9900012    2    1    2    0    0 -0.41989224061E+02  0.14804386087E+02  0.68446067123E+01  0.46142318457E+02  0.10000006342E+02 0.  0.
        -12    1    1    2    0    0  0.41989224061E+02 -0.14804386087E+02 -0.68446067123E+01  0.45045681543E+02  0.00000000000E+00 0.  1.
         11    1    3    3    0    0 -0.29986120083E+02  0.92611164259E+01  0.19331558132E+01  0.31443167251E+02  0.51100000000E-03 0. -1.
        -11    1    3    3    0    0 -0.34310516318E+01  0.13312250712E+01 -0.51207204843E+00  0.37157090217E+01  0.51100000000E-03 0.  1.
         12    1    3    3    0    0 -0.85720523464E+01  0.42120445896E+01  0.54235229476E+01  0.10983442184E+02  0.00000000000E+00 0. -1.
</event>
<event>
 7    1  0.3981356E-008  0.4614232E+02  0.7816164E-02  0.1320468E+00
        -11   -1    0    0    0    0  0.00000000000E+00  0.00000000000E+00  0.45593999997E+02  0.45594000000E+02  0.51100000000E-03 0.  1.
         11   -1    0    0    0    0 -0.00000000000E+00 -0.00000000000E+00 -0.45593999997E+02  0.45594000000E+02  0.51100000000E-03 0. -1.
    9900012    2    1    2    0    0  0.16274659103E+02  0.40824054698E+02 -0.98815719977E+01  0.46142318342E+02  0.10000005298E+02 0.  0.
        -12    1    1    2    0    0 -0.16274659103E+02 -0.40824054698E+02  0.98815719977E+01  0.45045681658E+02  0.00000000000E+00 0.  1.
         11    1    3    3    0    0  0.52064809019E+01  0.97236927956E+01 -0.24079150014E+00  0.11032480490E+02  0.51100000000E-03 0. -1.
        -11    1    3    3    0    0  0.24495861044E+01  0.47824042988E+01 -0.43554068428E+01  0.69167501030E+01  0.51100000000E-03 0.  1.
        -12    1    3    3    0    0  0.86185920969E+01  0.26317957603E+02 -0.52853736548E+01  0.28193087749E+02  0.00000000000E+00 0.  1.
</event>
<event>
 7    1  0.3981356E-008  0.4614232E+02  0.7816164E-02  0.1320468E+00
        -11   -1    0    0    0    0  0.00000000000E+00  0.00000000000E+00  0.45593999997E+02  0.45594000000E+02  0.51100000000E-03 0.  1.
         11   -1    0    0    0    0 -0.00000000000E+00 -0.00000000000E+00 -0.45593999997E+02  0.45594000000E+02  0.51100000000E-03 0. -1.
    9900012    2    1    2    0    0 -0.73665970251E+01 -0.19959940954E+02 -0.39704501972E+02  0.46142317948E+02  0.10000001707E+02 0.  0.
        -12    1    1    2    0    0  0.73665970251E+01  0.19959940954E+02  0.39704501972E+02  0.45045682052E+02  0.00000000000E+00 0.  1.
         11    1    3    3    0    0 -0.38236321380E+01 -0.99041279148E+01 -0.12201614939E+02  0.16173784958E+02  0.51100000000E-03 0. -1.
        -11    1    3    3    0    0  0.25926623566E+00 -0.60142453391E+01 -0.10752285254E+02  0.12322743381E+02  0.51100000000E-03 0.  1.
         12    1    3    3    0    0 -0.38022311227E+01 -0.40415677002E+01 -0.16750601779E+02  0.17645789609E+02  0.00000000000E+00 0. -1.
</event>
<event>
 7    1  0.3981356E-008  0.4614232E+02  0.7816164E-02  0.1320468E+00
        -11   -1    0    0    0    0  0.00000000000E+00  0.00000000000E+00  0.45593999997E+02  0.45594000000E+02  0.51100000000E-03 0.  1.
         11   -1    0    0    0    0 -0.00000000000E+00 -0.00000000000E+00 -0.45593999997E+02  0.45594000000E+02  0.51100000000E-03 0. -1.
    9900012    2    1    2    0    0 -0.37439545760E+02  0.17112631438E+02 -0.18290754919E+02  0.46142318109E+02  0.10000003177E+02 0.  0.
        -12    1    1    2    0    0  0.37439545760E+02 -0.17112631438E+02  0.18290754919E+02  0.45045681891E+02  0.00000000000E+00 0.  1.
         11    1    3    3    0    0 -0.60277998640E+01  0.11042752233E+01 -0.25411402546E+01  0.66340929315E+01  0.51100000000E-03 0. -1.
        -11    1    3    3    0    0 -0.14351313715E+01 -0.95289828081E+00 -0.25677108408E+00  0.17417085973E+01  0.51100000000E-03 0.  1.
        -12    1    3    3    0    0 -0.29976614525E+02  0.16961254496E+02 -0.15492843580E+02  0.37766516581E+02  0.00000000000E+00 0.  1.
</event>
<event>
 7    1  0.3981356E-008  0.4614232E+02  0.7816164E-02  0.1320468E+00
        -11   -1    0    0    0    0  0.00000000000E+00  0.00000000000E+00  0.45593999997E+02  0.45594000000E+02  0.51100000000E-03 0.  1.
         11   -1    0    0    0    0 -0.00000000000E+00 -0.00000000000E+00 -0.45593999997E+02  0.45594000000E+02  0.51100000000E-03 0. -1.
    9900012    2    1    2    0    0 -0.99971924361E+01 -0.19808395175E+02 -0.39202004350E+02  0.46142317398E+02  0.99999966900E+01 0.  0.
        -12    1    1    2    0    0  0.99971924361E+01  0.19808395175E+02  0.39202004350E+02  0.45045682602E+02  0.00000000000E+00 0.  1.
         11    1    3    3    0    0 -0.35256434178E+01 -0.36568757665E+01 -0.91470426918E+01  0.10462852964E+02  0.51100000000E-03 0. -1.
        -11    1    3    3    0    0 -0.62899528480E+01 -0.16771929438E+02 -0.25998837268E+02  0.31572150124E+02  0.51100000000E-03 0.  1.
        -12    1    3    3    0    0 -0.18159617030E+00  0.62041002922E+00 -0.40561243904E+01  0.41073143103E+01  0.00000000000E+00 0.  1.
</event>
<event>
 7    1  0.3981356E-008  0.4614232E+02  0.7816164E-02  0.1320468E+00
        -11   -1    0    0    0    0  0.00000000000E+00  0.00000000000E+00  0.45593999997E+02  0.45594000000E+02  0.51100000000E-03 0.  1.
         11   -1    0    0    0    0 -0.00000000000E+00 -0.00000000000E+00 -0.45593999997E+02  0.45594000000E+02  0.51100000000E-03 0. -1.
    9900012    2    1    2    0    0  0.13789031014E+02  0.42600124529E+02 -0.49199180718E+01  0.46142316744E+02  0.99999907231E+01 0.  0.
        -12    1    1    2    0    0 -0.13789031014E+02 -0.42600124529E+02  0.49199180718E+01  0.45045683256E+02  0.00000000000E+00 0.  1.
         11    1    3    3    0    0 -0.57910318118E+00  0.10620793434E+01  0.50856081854E+00  0.13122527933E+01  0.51100000000E-03 0.  1.
        -11    1    3    3    0    0  0.14308411579E+02  0.39911281819E+02 -0.38673421633E+01  0.42574609734E+02  0.51100000000E-03 0. -1.
         12    1    3    3    0    0  0.59722616024E-01  0.16267633668E+01 -0.15611367270E+01  0.22554542165E+01  0.00000000000E+00 0. -1.
</event>
<event>
 7    1  0.3981356E-008  0.4614232E+02  0.7816164E-02  0.1320468E+00
        -11   -1    0    0    0    0  0.00000000000E+00  0.00000000000E+00  0.45593999997E+02  0.45594000000E+02  0.51100000000E-03 0.  1.
         11   -1    0    0    0    0 -0.00000000000E+00 -0.00000000000E+00 -0.45593999997E+02  0.45594000000E+02  0.51100000000E-03 0. -1.
    9900012    2    1    2    0    0  0.31394838734E+02  0.28682039709E+02 -0.14859951679E+02  0.46142318021E+02  0.10000002374E+02 0.  0.
        -12    1    1    2    0    0 -0.31394838734E+02 -0.28682039709E+02  0.14859951679E+02  0.45045681979E+02  0.00000000000E+00 0.  1.
         11    1    3    3    0    0  0.61777014311E+01  0.46494784774E+01 -0.79709425824E+00  0.77728376158E+01  0.51100000000E-03 0. -1.
        -11    1    3    3    0    0 -0.46256406992E-01 -0.28876612056E+00 -0.84321237154E+00  0.89248691430E+00  0.51100000000E-03 0.  1.
        -12    1    3    3    0    0  0.25263393710E+02  0.24321327352E+02 -0.13219645049E+02  0.37476993491E+02  0.00000000000E+00 0.  1.
</event>
<event>
 7    1  0.3981356E-008  0.4614232E+02  0.7816164E-02  0.1320468E+00
        -11   -1    0    0    0    0  0.00000000000E+00  0.00000000000E+00  0.45593999997E+02  0.45594000000E+02  0.51100000000E-03 0.  1.
         11   -1    0    0    0    0 -0.00000000000E+00 -0.00000000000E+00 -0.45593999997E+02  0.45594000000E+02  0.51100000000E-03 0. -1.
    9900012    2    1    2    0    0 -0.17182527244E+02 -0.29172345190E+02 -0.29712766279E+02  0.46142318228E+02  0.10000004254E+02 0.  0.
        -12    1    1    2    0    0  0.17182527244E+02  0.29172345190E+02  0.29712766279E+02  0.45045681772E+02  0.00000000000E+00 0.  1.
         11    1    3    3    0    0 -0.35157584269E+01 -0.69162363248E+01 -0.64584848968E+01  0.10094895227E+02  0.51100000000E-03 0. -1.
        -11    1    3    3    0    0 -0.33296860415E+01 -0.12942577097E+02 -0.13894429338E+02  0.19278285140E+02  0.51100000000E-03 0.  1.
        -12    1    3    3    0    0 -0.10337082775E+02 -0.93135317682E+01 -0.93598520447E+01  0.16769137861E+02  0.00000000000E+00 0.  1.
</event>
<event>
 7    1  0.3981356E-008  0.4614232E+02  0.7816164E-02  0.1320468E+00
        -11   -1    0    0    0    0  0.00000000000E+00  0.00000000000E+00  0.45593999997E+02  0.45594000000E+02  0.51100000000E-03 0.  1.
         11   -1    0    0    0    0 -0.00000000000E+00 -0.00000000000E+00 -0.45593999997E+02  0.45594000000E+02  0.51100000000E-03 0. -1.
    9900012    2    1    2    0    0 -0.19574699521E+01  0.44745944456E+02 -0.48043708870E+01  0.46142320812E+02  0.10000027824E+02 0.  0.
        -12    1    1    2    0    0  0.19574699521E+01 -0.44745944456E+02  0.48043708870E+01  0.45045679188E+02  0.00000000000E+00 0.  1.
         11    1    3    3    0    0 -0.36261846437E+01  0.15129728759E+02 -0.31646615303E+01  0.15876806677E+02  0.51100000000E-03 0. -1.
        -11    1    3    3    0    0  0.10801676968E+01  0.37519761897E+01 -0.20111709091E+01  0.43919125979E+01  0.51100000000E-03 0.  1.
         12    1    3    3    0    0  0.58854699482E+00  0.25864239507E+02  0.37146155234E+00  0.25873601538E+02  0.00000000000E+00 0. -1.
</event>
<event>
 7    1  0.3981356E-008  0.4614232E+02  0.7816164E-02  0.1320468E+00
        -11   -1    0    0    0    0  0.00000000000E+00  0.00000000000E+00  0.45593999997E+02  0.45594000000E+02  0.51100000000E-03 0.  1.
         11   -1    0    0    0    0 -0.00000000000E+00 -0.00000000000E+00 -0.45593999997E+02  0.45594000000E+02  0.51100000000E-03 0. -1.
    9900012    2    1    2    0    0  0.24117176615E+02 -0.38018194800E+02  0.14464211772E+01  0.46142317877E+02  0.10000001057E+02 0.  0.
        -12    1    1    2    0    0 -0.24117176615E+02  0.38018194800E+02 -0.14464211772E+01  0.45045682123E+02  0.00000000000E+00 0.  1.
         11    1    3    3    0    0  0.15370418328E+02 -0.25990401151E+02  0.33181859558E+01  0.30376982567E+02  0.51100000000E-03 0. -1.
        -11    1    3    3    0    0  0.81904257004E+01 -0.76011985880E+01 -0.16807279711E+01  0.11299829198E+02  0.51100000000E-03 0.  1.
        -12    1    3    3    0    0  0.55633258652E+00 -0.44265950603E+01 -0.19103680752E+00  0.44655061121E+01  0.00000000000E+00 0.  1.
</event>
<event>
 7    1  0.3981356E-008  0.4614232E+02  0.7816164E-02  0.1320468E+00
        -11   -1    0    0    0    0  0.00000000000E+00  0.00000000000E+00  0.45593999997E+02  0.45594000000E+02  0.51100000000E-03 0.  1.
         11   -1    0    0    0    0 -0.00000000000E+00 -0.00000000000E+00 -0.45593999997E+02  0.45594000000E+02  0.51100000000E-03 0. -1.
    9900012    2    1    2    0    0  0.79781464769E+01  0.21901033858E+02 -0.38546171666E+02  0.46142318128E+02  0.10000003343E+02 0.  0.
        -12    1    1    2    0    0 -0.79781464769E+01 -0.21901033858E+02  0.38546171666E+02  0.45045681872E+02  0.00000000000E+00 0.  1.
         11    1    3    3    0    0  0.13247307685E+00  0.31269389309E+01 -0.41760246116E+01  0.52186663058E+01  0.51100000000E-03 0. -1.
        -11    1    3    3    0    0  0.56197982008E+01  0.31975662888E+01 -0.93846245745E+01  0.11396391563E+02  0.51100000000E-03 0.  1.
        -12    1    3    3    0    0  0.22258751993E+01  0.15576528639E+02 -0.24985522480E+02  0.29527260259E+02  0.00000000000E+00 0.  1.
</event>
<event>
 7    1  0.3981356E-008  0.4614232E+02  0.7816164E-02  0.1320468E+00
        -11   -1    0    0    0    0  0.00000000000E+00  0.00000000000E+00  0.45593999997E+02  0.45594000000E+02  0.51100000000E-03 0.  1.
         11   -1    0    0    0    0 -0.00000000000E+00 -0.00000000000E+00 -0.45593999997E+02  0.45594000000E+02  0.51100000000E-03 0. -1.
    9900012    2    1    2    0    0  0.35727569918E+02 -0.24576433611E+02  0.12192335934E+02  0.46142318777E+02  0.10000009265E+02 0.  0.
        -12    1    1    2    0    0 -0.35727569918E+02  0.24576433611E+02 -0.12192335934E+02  0.45045681223E+02  0.00000000000E+00 0.  1.
         11    1    3    3    0    0  0.35149279575E+02 -0.21747075239E+02  0.11301455933E+02  0.42850088011E+02  0.51100000000E-03 0. -1.
        -11    1    3    3    0    0  0.91450100144E+00 -0.12678611431E+01  0.31768096289E+00  0.15952132820E+01  0.51100000000E-03 0.  1.
        -12    1    3    3    0    0 -0.33621065836E+00 -0.15614972291E+01  0.57319903816E+00  0.16970174838E+01  0.00000000000E+00 0.  1.
</event>
<event>
 7    1  0.3981356E-008  0.4614232E+02  0.7816164E-02  0.1320468E+00
        -11   -1    0    0    0    0  0.00000000000E+00  0.00000000000E+00  0.45593999997E+02  0.45594000000E+02  0.51100000000E-03 0.  1.
         11   -1    0    0    0    0 -0.00000000000E+00 -0.00000000000E+00 -0.45593999997E+02  0.45594000000E+02  0.51100000000E-03 0. -1.
    9900012    2    1    2    0    0  0.32599849502E+02  0.21705925163E+01 -0.31010510025E+02  0.46142318837E+02  0.10000009812E+02 0.  0.
        -12    1    1    2    0    0 -0.32599849502E+02 -0.21705925163E+01  0.31010510025E+02  0.45045681163E+02  0.00000000000E+00 0.  1.
         11    1    3    3    0    0  0.15787100438E+02  0.25188140240E+01 -0.17760988416E+02  0.23896227193E+02  0.51100000000E-03 0. -1.
        -11    1    3    3    0    0  0.13865775594E+02 -0.56017834317E+00 -0.13395855331E+02  0.19287884096E+02  0.51100000000E-03 0.  1.
        -12    1    3    3    0    0  0.29469734703E+01  0.21195683548E+00  0.14633372193E+00  0.29582075473E+01  0.00000000000E+00 0.  1.
</event>
<event>
 7    1  0.3981356E-008  0.4614232E+02  0.7816164E-02  0.1320468E+00
        -11   -1    0    0    0    0  0.00000000000E+00  0.00000000000E+00  0.45593999997E+02  0.45594000000E+02  0.51100000000E-03 0. -1.
         11   -1    0    0    0    0 -0.00000000000E+00 -0.00000000000E+00 -0.45593999997E+02  0.45594000000E+02  0.51100000000E-03 0.  1.
    9900012    2    1    2    0    0 -0.19831554227E+01 -0.66433079130E+01  0.44508955219E+02  0.46142317186E+02  0.99999947563E+01 0.  0.
        -12    1    1    2    0    0  0.19831554227E+01  0.66433079130E+01 -0.44508955219E+02  0.45045682814E+02  0.00000000000E+00 0.  1.
         11    1    3    3    0    0 -0.18028053176E+01 -0.41168684156E+00  0.16064827419E+02  0.16170908241E+02  0.51100000000E-03 0. -1.
        -11    1    3    3    0    0 -0.22416854875E+01 -0.67912128244E+01  0.23960141499E+02  0.25004681689E+02  0.51100000000E-03 0.  1.
        -12    1    3    3    0    0  0.20613353823E+01  0.55959175293E+00  0.44839863012E+01  0.49667272562E+01  0.00000000000E+00 0.  1.
</event>
<event>
 7    1  0.4385237E-008  0.4614232E+02  0.7816164E-02  0.1320468E+00
        -11   -1    0    0    0    0  0.00000000000E+00  0.00000000000E+00  0.45593999997E+02  0.45594000000E+02  0.51100000000E-03 0.  1.
         11   -1    0    0    0    0 -0.00000000000E+00 -0.00000000000E+00 -0.45593999997E+02  0.45594000000E+02  0.51100000000E-03 0. -1.
    9900012    2    1    2    0    0  0.23548640643E+02 -0.27213278028E+02 -0.27092665005E+02  0.46142317917E+02  0.10000001424E+02 0.  0.
        -12    1    1    2    0    0 -0.23548640643E+02  0.27213278028E+02  0.27092665005E+02  0.45045682083E+02  0.00000000000E+00 0.  1.
         11    1    3    3    0    0  0.14832759553E+02 -0.19632166654E+02 -0.20812046142E+02  0.32226914038E+02  0.51100000000E-03 0.  1.
        -11    1    3    3    0    0  0.50550434569E+01 -0.64878608203E+01 -0.58013610694E+01  0.10064869244E+02  0.51100000000E-03 0. -1.
        -12    1    3    3    0    0  0.36608376330E+01 -0.10932505540E+01 -0.47925779404E+00  0.38505346359E+01  0.00000000000E+00 0.  1.
</event>
<event>
 7    1  0.3981356E-008  0.4614232E+02  0.7816164E-02  0.1320468E+00
        -11   -1    0    0    0    0  0.00000000000E+00  0.00000000000E+00  0.45593999997E+02  0.45594000000E+02  0.51100000000E-03 0. -1.
         11   -1    0    0    0    0 -0.00000000000E+00 -0.00000000000E+00 -0.45593999997E+02  0.45594000000E+02  0.51100000000E-03 0.  1.
    9900012    2    1    2    0    0 -0.43019194144E+02 -0.12810290649E+02 -0.37893059492E+01  0.46142318178E+02  0.10000003797E+02 0.  0.
        -12    1    1    2    0    0  0.43019194144E+02  0.12810290649E+02  0.37893059492E+01  0.45045681822E+02  0.00000000000E+00 0.  1.
         11    1    3    3    0    0 -0.26299463176E+02 -0.12238368433E+02 -0.40823316263E+00  0.29010447770E+02  0.51100000000E-03 0. -1.
        -11    1    3    3    0    0 -0.64828055677E+01 -0.94299046666E+00 -0.13636125113E+01  0.66914451646E+01  0.51100000000E-03 0.  1.
         12    1    3    3    0    0 -0.10236925400E+02  0.37106825048E+00 -0.20174602754E+01  0.10440425243E+02  0.00000000000E+00 0. -1.
</event>
<event>
 7    1  0.3981356E-008  0.4614232E+02  0.7816164E-02  0.1320468E+00
        -11   -1    0    0    0    0  0.00000000000E+00  0.00000000000E+00  0.45593999997E+02  0.45594000000E+02  0.51100000000E-03 0. -1.
         11   -1    0    0    0    0 -0.00000000000E+00 -0.00000000000E+00 -0.45593999997E+02  0.45594000000E+02  0.51100000000E-03 0.  1.
    9900012    2    1    2    0    0 -0.40583326773E+02  0.42336036511E+01  0.19083595035E+02  0.46142318617E+02  0.10000007802E+02 0.  0.
        -12    1    1    2    0    0  0.40583326773E+02 -0.42336036511E+01 -0.19083595035E+02  0.45045681383E+02  0.00000000000E+00 0.  1.
         11    1    3    3    0    0 -0.69061153917E+01  0.19326217340E+00  0.56288962177E+01  0.89115797119E+01  0.51100000000E-03 0. -1.
        -11    1    3    3    0    0 -0.25803015431E+02  0.32478922601E+01  0.13531685518E+02  0.29316393412E+02  0.51100000000E-03 0.  1.
        -12    1    3    3    0    0 -0.78741959498E+01  0.79244921757E+00 -0.76986701221E-01  0.79143454923E+01  0.00000000000E+00 0.  1.
</event>
<event>
 7    1  0.3981356E-008  0.4614232E+02  0.7816164E-02  0.1320468E+00
        -11   -1    0    0    0    0  0.00000000000E+00  0.00000000000E+00  0.45593999997E+02  0.45594000000E+02  0.51100000000E-03 0.  1.
         11   -1    0    0    0    0 -0.00000000000E+00 -0.00000000000E+00 -0.45593999997E+02  0.45594000000E+02  0.51100000000E-03 0. -1.
    9900012    2    1    2    0    0 -0.35481689696E+02  0.25976232998E+02 -0.97672145062E+01  0.46142318036E+02  0.10000002502E+02 0.  0.
        -12    1    1    2    0    0  0.35481689696E+02 -0.25976232998E+02  0.97672145062E+01  0.45045681964E+02  0.00000000000E+00 0.  1.
         11    1    3    3    0    0 -0.86824338402E+01  0.52497330537E+01 -0.13384952657E+01  0.10234057082E+02  0.51100000000E-03 0. -1.
        -11    1    3    3    0    0 -0.91517882718E+01  0.74233596275E+01  0.11131537658E+01  0.11836410279E+02  0.51100000000E-03 0.  1.
        -12    1    3    3    0    0 -0.17647467583E+02  0.13303140317E+02 -0.95418730062E+01  0.24071850674E+02  0.00000000000E+00 0.  1.
</event>
<event>
 7    1  0.3981356E-008  0.4614232E+02  0.7816164E-02  0.1320468E+00
        -11   -1    0    0    0    0  0.00000000000E+00  0.00000000000E+00  0.45593999997E+02  0.45594000000E+02  0.51100000000E-03 0.  1.
         11   -1    0    0    0    0 -0.00000000000E+00 -0.00000000000E+00 -0.45593999997E+02  0.45594000000E+02  0.51100000000E-03 0. -1.
    9900012    2    1    2    0    0 -0.14318971158E+02  0.38397694227E+02 -0.18700203881E+02  0.46142317830E+02  0.10000000626E+02 0.  0.
        -12    1    1    2    0    0  0.14318971158E+02 -0.38397694227E+02  0.18700203881E+02  0.45045682170E+02  0.00000000000E+00 0.  1.
         11    1    3    3    0    0 -0.60562030040E+01  0.92628890044E+01 -0.65891191502E+01  0.12880031016E+02  0.51100000000E-03 0. -1.
        -11    1    3    3    0    0 -0.55780263996E+01  0.13476237260E+02 -0.87989669680E+01  0.17033648146E+02  0.51100000000E-03 0.  1.
        -12    1    3    3    0    0 -0.26847417549E+01  0.15658567963E+02 -0.33121177628E+01  0.16228638668E+02  0.00000000000E+00 0.  1.
</event>
<event>
 7    1  0.3981356E-008  0.4614232E+02  0.7816164E-02  0.1320468E+00
        -11   -1    0    0    0    0  0.00000000000E+00  0.00000000000E+00  0.45593999997E+02  0.45594000000E+02  0.51100000000E-03 0. -1.
         11   -1    0    0    0    0 -0.00000000000E+00 -0.00000000000E+00 -0.45593999997E+02  0.45594000000E+02  0.51100000000E-03 0.  1.
    9900012    2    1    2    0    0 -0.29495459946E+02  0.32732473958E+02 -0.93657101817E+01  0.46142317232E+02  0.99999951750E+01 0.  0.
        -12    1    1    2    0    0  0.29495459946E+02 -0.32732473958E+02  0.93657101817E+01  0.45045682768E+02  0.00000000000E+00 0.  1.
         11    1    3    3    0    0 -0.92527880409E+01  0.13304045701E+02 -0.56057297818E+01  0.17147475767E+02  0.51100000000E-03 0. -1.
        -11    1    3    3    0    0 -0.11278542683E+02  0.97026999904E+01 -0.50354259013E+01  0.15706795549E+02  0.51100000000E-03 0.  1.
        -12    1    3    3    0    0 -0.89641292214E+01  0.97257282666E+01  0.12754455013E+01  0.13288045915E+02  0.00000000000E+00 0.  1.
</event>
<event>
 7    1  0.3981356E-008  0.4614232E+02  0.7816164E-02  0.1320468E+00
        -11   -1    0    0    0    0  0.00000000000E+00  0.00000000000E+00  0.45593999997E+02  0.45594000000E+02  0.51100000000E-03 0.  1.
         11   -1    0    0    0    0 -0.00000000000E+00 -0.00000000000E+00 -0.45593999997E+02  0.45594000000E+02  0.51100000000E-03 0. -1.
    9900012    2    1    2    0    0 -0.32909674937E+02  0.25914539689E+02 -0.16568146852E+02  0.46142316946E+02  0.99999925646E+01 0.  0.
        -12    1    1    2    0    0  0.32909674937E+02 -0.25914539689E+02  0.16568146852E+02  0.45045683054E+02  0.00000000000E+00 0.  1.
         11    1    3    3    0    0 -0.94448090592E+01  0.97935634375E+01 -0.88578248585E+00  0.13634621881E+02  0.51100000000E-03 0.  1.
        -11    1    3    3    0    0 -0.78464610941E+01  0.56102769962E+01 -0.55438844825E+01  0.11125502914E+02  0.51100000000E-03 0. -1.
        -12    1    3    3    0    0 -0.15618404783E+02  0.10510699255E+02 -0.10138479884E+02  0.21382192150E+02  0.00000000000E+00 0.  1.
</event>
<event>
 7    1  0.3981356E-008  0.4614232E+02  0.7816164E-02  0.1320468E+00
        -11   -1    0    0    0    0  0.00000000000E+00  0.00000000000E+00  0.45593999997E+02  0.45594000000E+02  0.51100000000E-03 0.  1.
         11   -1    0    0    0    0 -0.00000000000E+00 -0.00000000000E+00 -0.45593999997E+02  0.45594000000E+02  0.51100000000E-03 0. -1.
    9900012    2    1    2    0    0 -0.13265368745E+02  0.73168892053E+01 -0.42421770536E+02  0.46142317732E+02  0.99999997381E+01 0.  0.
        -12    1    1    2    0    0  0.13265368745E+02 -0.73168892053E+01  0.42421770536E+02  0.45045682268E+02  0.00000000000E+00 0.  1.
         11    1    3    3    0    0 -0.26551708971E+00  0.53037537480E+00 -0.11162011767E+02  0.11177759360E+02  0.51100000000E-03 0. -1.
        -11    1    3    3    0    0 -0.76030941262E+01  0.68973502413E+01 -0.20405621516E+02  0.22842282512E+02  0.51100000000E-03 0.  1.
        -12    1    3    3    0    0 -0.53967575290E+01 -0.11083641079E+00 -0.10854137253E+02  0.12122275860E+02  0.00000000000E+00 0.  1.
</event>
<event>
 7    1  0.3981356E-008  0.4614232E+02  0.7816164E-02  0.1320468E+00
        -11   -1    0    0    0    0  0.00000000000E+00  0.00000000000E+00  0.45593999997E+02  0.45594000000E+02  0.51100000000E-03 0. -1.
         11   -1    0    0    0    0 -0.00000000000E+00 -0.00000000000E+00 -0.45593999997E+02  0.45594000000E+02  0.51100000000E-03 0.  1.
    9900012    2    1    2    0    0  0.22407737532E+01 -0.21760662838E+02  0.39377227892E+02  0.46142316627E+02  0.99999896539E+01 0.  0.
        -12    1    1    2    0    0 -0.22407737532E+01  0.21760662838E+02 -0.39377227892E+02  0.45045683373E+02  0.00000000000E+00 0.  1.
         11    1    3    3    0    0 -0.13321655604E+01 -0.45760394573E+01  0.54939467432E+01  0.72731185383E+01  0.51100000000E-03 0. -1.
        -11    1    3    3    0    0  0.32292694478E+01 -0.75530553412E+01  0.90021421995E+01  0.12186689074E+02  0.51100000000E-03 0.  1.
         12    1    3    3    0    0  0.34366986586E+00 -0.96315680391E+01  0.24881138949E+02  0.26682509014E+02  0.00000000000E+00 0. -1.
</event>
<event>
 7    1  0.3981356E-008  0.4614232E+02  0.7816164E-02  0.1320468E+00
        -11   -1    0    0    0    0  0.00000000000E+00  0.00000000000E+00  0.45593999997E+02  0.45594000000E+02  0.51100000000E-03 0.  1.
         11   -1    0    0    0    0 -0.00000000000E+00 -0.00000000000E+00 -0.45593999997E+02  0.45594000000E+02  0.51100000000E-03 0. -1.
    9900012    2    1    2    0    0  0.24371002513E+02  0.14673558643E+01 -0.37855181094E+02  0.46142316163E+02  0.99999854259E+01 0.  0.
        -12    1    1    2    0    0 -0.24371002513E+02 -0.14673558643E+01  0.37855181094E+02  0.45045683837E+02  0.00000000000E+00 0.  1.
         11    1    3    3    0    0  0.79402516814E+01  0.59181541828E+00 -0.13700730423E+02  0.15846383077E+02  0.51100000000E-03 0. -1.
        -11    1    3    3    0    0  0.61771686974E+01 -0.34145910828E+01 -0.11059620468E+02  0.13119910462E+02  0.51100000000E-03 0.  1.
        -12    1    3    3    0    0  0.10253582134E+02  0.42901315288E+01 -0.13094830203E+02  0.17176022623E+02  0.00000000000E+00 0.  1.
</event>
<event>
 7    1  0.3981356E-008  0.4614232E+02  0.7816164E-02  0.1320468E+00
        -11   -1    0    0    0    0  0.00000000000E+00  0.00000000000E+00  0.45593999997E+02  0.45594000000E+02  0.51100000000E-03 0. -1.
         11   -1    0    0    0    0 -0.00000000000E+00 -0.00000000000E+00 -0.45593999997E+02  0.45594000000E+02  0.51100000000E-03 0.  1.
    9900012    2    1    2    0    0 -0.46916399642E+01 -0.35142232516E+02  0.27787146173E+02  0.46142317807E+02  0.10000000421E+02 0.  0.
        -12    1    1    2    0    0  0.46916399642E+01  0.35142232516E+02 -0.27787146173E+02  0.45045682193E+02  0.00000000000E+00 0.  1.
         11    1    3    3    0    0 -0.48573212134E+01 -0.23319216219E+02  0.17978550580E+02  0.29843051045E+02  0.51100000000E-03 0. -1.
        -11    1    3    3    0    0 -0.21448916473E+01 -0.94981198671E+01  0.74762765275E+01  0.12276381884E+02  0.51100000000E-03 0.  1.
        -12    1    3    3    0    0  0.23105728965E+01 -0.23248964296E+01  0.23323190657E+01  0.40228848781E+01  0.00000000000E+00 0.  1.
</event>
<event>
 7    1  0.3981356E-008  0.4614232E+02  0.7816164E-02  0.1320468E+00
        -11   -1    0    0    0    0  0.00000000000E+00  0.00000000000E+00  0.45593999997E+02  0.45594000000E+02  0.51100000000E-03 0. -1.
         11   -1    0    0    0    0 -0.00000000000E+00 -0.00000000000E+00 -0.45593999997E+02  0.45594000000E+02  0.51100000000E-03 0.  1.
    9900012    2    1    2    0    0 -0.11814979865E+02  0.40558265074E+02  0.15637993456E+02  0.46142318139E+02  0.10000003446E+02 0.  0.
        -12    1    1    2    0    0  0.11814979865E+02 -0.40558265074E+02 -0.15637993456E+02  0.45045681861E+02  0.00000000000E+00 0.  1.
         11    1    3    3    0    0 -0.80472877996E+01  0.18254070354E+02  0.46819257486E+01  0.20491226278E+02  0.51100000000E-03 0. -1.
        -11    1    3    3    0    0  0.74064023994E+00  0.66404506202E+01  0.16515475369E+01  0.68827132682E+01  0.51100000000E-03 0.  1.
         12    1    3    3    0    0 -0.45083323053E+01  0.15663744100E+02  0.93045201701E+01  0.18768378592E+02  0.00000000000E+00 0. -1.
</event>
<event>
 7    1  0.3981356E-008  0.4614232E+02  0.7816164E-02  0.1320468E+00
        -11   -1    0    0    0    0  0.00000000000E+00  0.00000000000E+00  0.45593999997E+02  0.45594000000E+02  0.51100000000E-03 0.  1.
         11   -1    0    0    0    0 -0.00000000000E+00 -0.00000000000E+00 -0.45593999997E+02  0.45594000000E+02  0.51100000000E-03 0. -1.
    9900012    2    1    2    0    0  0.16413048241E+02  0.18848061927E+02 -0.37476338248E+02  0.46142317416E+02  0.99999968524E+01 0.  0.
        -12    1    1    2    0    0 -0.16413048241E+02 -0.18848061927E+02  0.37476338248E+02  0.45045682584E+02  0.00000000000E+00 0.  1.
         11    1    3    3    0    0  0.12851471330E+02  0.12979337087E+02 -0.20035651660E+02  0.27111821117E+02  0.51100000000E-03 0. -1.
        -11    1    3    3    0    0 -0.54310027586E+00  0.80875349797E+00 -0.36557866449E+01  0.37833604618E+01  0.51100000000E-03 0.  1.
         12    1    3    3    0    0  0.41046771864E+01  0.50599713419E+01 -0.13784899944E+02  0.15247135837E+02  0.00000000000E+00 0. -1.
</event>
<event>
 7    1  0.3981356E-008  0.4614232E+02  0.7816164E-02  0.1320468E+00
        -11   -1    0    0    0    0  0.00000000000E+00  0.00000000000E+00  0.45593999997E+02  0.45594000000E+02  0.51100000000E-03 0.  1.
         11   -1    0    0    0    0 -0.00000000000E+00 -0.00000000000E+00 -0.45593999997E+02  0.45594000000E+02  0.51100000000E-03 0. -1.
    9900012    2    1    2    0    0 -0.31627832972E+02  0.19249345193E+02 -0.25656507235E+02  0.46142317938E+02  0.10000001614E+02 0.  0.
        -12    1    1    2    0    0  0.31627832972E+02 -0.19249345193E+02  0.25656507235E+02  0.45045682062E+02  0.00000000000E+00 0.  1.
         11    1    3    3    0    0 -0.66264783187E+01  0.65850727107E+01 -0.47997407773E+01  0.10502900043E+02  0.51100000000E-03 0. -1.
        -11    1    3    3    0    0 -0.58908659428E+01  0.43701735649E+01 -0.21580914638E+01  0.76457882243E+01  0.51100000000E-03 0.  1.
         12    1    3    3    0    0 -0.19110488711E+02  0.82940989175E+01 -0.18698674994E+02  0.27993629671E+02  0.00000000000E+00 0. -1.
</event>
<event>
 7    1  0.3981356E-008  0.4614232E+02  0.7816164E-02  0.1320468E+00
        -11   -1    0    0    0    0  0.00000000000E+00  0.00000000000E+00  0.45593999997E+02  0.45594000000E+02  0.51100000000E-03 0. -1.
         11   -1    0    0    0    0 -0.00000000000E+00 -0.00000000000E+00 -0.45593999997E+02  0.45594000000E+02  0.51100000000E-03 0.  1.
    9900012    2    1    2    0    0 -0.41194468378E+02  0.74522693670E+01  0.16631088610E+02  0.46142315944E+02  0.99999834339E+01 0.  0.
        -12    1    1    2    0    0  0.41194468378E+02 -0.74522693670E+01 -0.16631088610E+02  0.45045684056E+02  0.00000000000E+00 0.  1.
         11    1    3    3    0    0 -0.27996284733E+02  0.20291631853E+01  0.11754775447E+02  0.30431631704E+02  0.51100000000E-03 0. -1.
        -11    1    3    3    0    0 -0.11591644387E+02  0.34994713240E+01  0.27330731560E+01  0.12412985470E+02  0.51100000000E-03 0.  1.
         12    1    3    3    0    0 -0.16065392583E+01  0.19236348576E+01  0.21432400073E+01  0.32976987708E+01  0.00000000000E+00 0. -1.
</event>
<event>
 7    1  0.3981356E-008  0.4614232E+02  0.7816164E-02  0.1320468E+00
        -11   -1    0    0    0    0  0.00000000000E+00  0.00000000000E+00  0.45593999997E+02  0.45594000000E+02  0.51100000000E-03 0.  1.
         11   -1    0    0    0    0 -0.00000000000E+00 -0.00000000000E+00 -0.45593999997E+02  0.45594000000E+02  0.51100000000E-03 0. -1.
    9900012    2    1    2    0    0 -0.16258609681E+02  0.30494234794E-01 -0.42009168471E+02  0.46142317029E+02  0.99999933281E+01 0.  0.
        -12    1    1    2    0    0  0.16258609681E+02 -0.30494234794E-01  0.42009168471E+02  0.45045682971E+02  0.00000000000E+00 0.  1.
         11    1    3    3    0    0 -0.60775510633E+01 -0.42441417226E+00 -0.19205228981E+02  0.20148388888E+02  0.51100000000E-03 0. -1.
        -11    1    3    3    0    0 -0.55565703845E+01 -0.31958747327E+01 -0.97039337764E+01  0.11629936403E+02  0.51100000000E-03 0.  1.
        -12    1    3    3    0    0 -0.46244882332E+01  0.36507831398E+01 -0.13100005714E+02  0.14363991738E+02  0.00000000000E+00 0.  1.
</event>
<event>
 7    1  0.4836850E-008  0.4614232E+02  0.7816164E-02  0.1320468E+00
        -11   -1    0    0    0    0  0.00000000000E+00  0.00000000000E+00  0.45593999997E+02  0.45594000000E+02  0.51100000000E-03 0.  1.
         11   -1    0    0    0    0 -0.00000000000E+00 -0.00000000000E+00 -0.45593999997E+02  0.45594000000E+02  0.51100000000E-03 0. -1.
    9900012    2    1    2    0    0  0.14352544659E+02 -0.27821592173E+02 -0.32389455823E+02  0.46142318989E+02  0.10000011198E+02 0.  0.
        -12    1    1    2    0    0 -0.14352544659E+02  0.27821592173E+02  0.32389455823E+02  0.45045681011E+02  0.00000000000E+00 0.  1.
         11    1    3    3    0    0  0.10597793814E+02 -0.22959917471E+02 -0.26201004652E+02  0.36413784327E+02  0.51100000000E-03 0. -1.
        -11    1    3    3    0    0 -0.65724540654E+00 -0.19640189371E+01 -0.26944232698E+01  0.33984200635E+01  0.51100000000E-03 0.  1.
        -12    1    3    3    0    0  0.44119962513E+01 -0.28976557643E+01 -0.34940279019E+01  0.63301145984E+01  0.00000000000E+00 0.  1.
</event>
<event>
 7    1  0.3981356E-008  0.4614231E+02  0.7816164E-02  0.1320468E+00
        -11   -1    0    0    0    0  0.00000000000E+00  0.00000000000E+00  0.45593999997E+02  0.45594000000E+02  0.51100000000E-03 0. -1.
         11   -1    0    0    0    0 -0.00000000000E+00 -0.00000000000E+00 -0.45593999997E+02  0.45594000000E+02  0.51100000000E-03 0.  1.
    9900012    2    1    2    0    0 -0.48003895826E+00 -0.44946704591E+02 -0.29456978327E+01  0.46142314005E+02  0.99999657510E+01 0.  0.
        -12    1    1    2    0    0  0.48003895826E+00  0.44946704591E+02  0.29456978327E+01  0.45045685995E+02  0.00000000000E+00 0.  1.
         11    1    3    3    0    0 -0.66998963245E+00 -0.83907060444E+01 -0.31510511802E+01  0.89878783833E+01  0.51100000000E-03 0. -1.
        -11    1    3    3    0    0  0.78639483177E+00 -0.12367222635E+01 -0.10579710584E+01  0.18075402651E+01  0.51100000000E-03 0.  1.
        -12    1    3    3    0    0 -0.59644415758E+00 -0.35319276283E+02  0.12633244059E+01  0.35346895357E+02  0.00000000000E+00 0.  1.
</event>
<event>
 7    1  0.3981356E-008  0.4614232E+02  0.7816164E-02  0.1320468E+00
        -11   -1    0    0    0    0  0.00000000000E+00  0.00000000000E+00  0.45593999997E+02  0.45594000000E+02  0.51100000000E-03 0. -1.
         11   -1    0    0    0    0 -0.00000000000E+00 -0.00000000000E+00 -0.45593999997E+02  0.45594000000E+02  0.51100000000E-03 0.  1.
    9900012    2    1    2    0    0  0.24065760490E+02 -0.37141427363E+02 -0.83944581313E+01  0.46142318944E+02  0.10000010787E+02 0.  0.
        -12    1    1    2    0    0 -0.24065760490E+02  0.37141427363E+02  0.83944581313E+01  0.45045681056E+02  0.00000000000E+00 0.  1.
         11    1    3    3    0    0  0.15924310003E+02 -0.23715138612E+02 -0.73559833198E+01  0.29497490390E+02  0.51100000000E-03 0. -1.
        -11    1    3    3    0    0  0.51140329076E+01 -0.94242332457E+01 -0.31871353596E+01  0.11186033118E+02  0.51100000000E-03 0.  1.
        -12    1    3    3    0    0  0.30274175789E+01 -0.40020555048E+01  0.21486605481E+01  0.54587954360E+01  0.00000000000E+00 0.  1.
</event>
<event>
 7    1  0.3981356E-008  0.4614232E+02  0.7816164E-02  0.1320468E+00
        -11   -1    0    0    0    0  0.00000000000E+00  0.00000000000E+00  0.45593999997E+02  0.45594000000E+02  0.51100000000E-03 0.  1.
         11   -1    0    0    0    0 -0.00000000000E+00 -0.00000000000E+00 -0.45593999997E+02  0.45594000000E+02  0.51100000000E-03 0. -1.
    9900012    2    1    2    0    0  0.11043652277E+02  0.26279204786E+02 -0.34879143675E+02  0.46142317373E+02  0.99999964644E+01 0.  0.
        -12    1    1    2    0    0 -0.11043652277E+02 -0.26279204786E+02  0.34879143675E+02  0.45045682627E+02  0.00000000000E+00 0.  1.
         11    1    3    3    0    0  0.56505035104E+01  0.15922437663E+02 -0.18708816546E+02  0.25208570524E+02  0.51100000000E-03 0. -1.
        -11    1    3    3    0    0  0.16665253762E+01  0.37879679667E+01 -0.14427092755E+01  0.43826268904E+01  0.51100000000E-03 0.  1.
         12    1    3    3    0    0  0.37266233900E+01  0.65687991560E+01 -0.14727617854E+02  0.16551119959E+02  0.00000000000E+00 0. -1.
</event>
<event>
 7    1  0.3981356E-008  0.4614232E+02  0.7816164E-02  0.1320468E+00
        -11   -1    0    0    0    0  0.00000000000E+00  0.00000000000E+00  0.45593999997E+02  0.45594000000E+02  0.51100000000E-03 0.  1.
         11   -1    0    0    0    0 -0.00000000000E+00 -0.00000000000E+00 -0.45593999997E+02  0.45594000000E+02  0.51100000000E-03 0. -1.
    9900012    2    1    2    0    0  0.44012054039E+02 -0.93685347891E+01 -0.20695803136E+01  0.46142317549E+02  0.99999980655E+01 0.  0.
        -12    1    1    2    0    0 -0.44012054039E+02  0.93685347891E+01  0.20695803136E+01  0.45045682451E+02  0.00000000000E+00 0.  1.
         11    1    3    3    0    0  0.25462083037E+02 -0.23065271891E+01  0.20150856684E+01  0.25645629467E+02  0.51100000000E-03 0. -1.
        -11    1    3    3    0    0  0.80408042672E+01 -0.14697104327E+01 -0.13959330903E+01  0.82923586194E+01  0.51100000000E-03 0.  1.
        -12    1    3    3    0    0  0.10509166734E+02 -0.55922971674E+01 -0.26887328916E+01  0.12204329462E+02  0.00000000000E+00 0.  1.
</event>
<event>
 7    1  0.3981356E-008  0.4614232E+02  0.7816164E-02  0.1320468E+00
        -11   -1    0    0    0    0  0.00000000000E+00  0.00000000000E+00  0.45593999997E+02  0.45594000000E+02  0.51100000000E-03 0.  1.
         11   -1    0    0    0    0 -0.00000000000E+00 -0.00000000000E+00 -0.45593999997E+02  0.45594000000E+02  0.51100000000E-03 0. -1.
    9900012    2    1    2    0    0 -0.44552261623E+02  0.65697325119E+01  0.10236891966E+01  0.46142319402E+02  0.10000014960E+02 0.  0.
        -12    1    1    2    0    0  0.44552261623E+02 -0.65697325119E+01 -0.10236891966E+01  0.45045680598E+02  0.00000000000E+00 0.  1.
         11    1    3    3    0    0 -0.35471071338E+02  0.42956645930E+01  0.80713756310E+00  0.35739349567E+02  0.51100000000E-03 0. -1.
        -11    1    3    3    0    0 -0.38870135822E+01 -0.36186430743E+00  0.18974772302E+01  0.43405345829E+01  0.51100000000E-03 0.  1.
        -12    1    3    3    0    0 -0.51941767026E+01  0.26359322264E+01 -0.16809255967E+01  0.60624352518E+01  0.00000000000E+00 0.  1.
</event>
<event>
 7    1  0.3981356E-008  0.4614232E+02  0.7816164E-02  0.1320468E+00
        -11   -1    0    0    0    0  0.00000000000E+00  0.00000000000E+00  0.45593999997E+02  0.45594000000E+02  0.51100000000E-03 0.  1.
         11   -1    0    0    0    0 -0.00000000000E+00 -0.00000000000E+00 -0.45593999997E+02  0.45594000000E+02  0.51100000000E-03 0. -1.
    9900012    2    1    2    0    0 -0.18727583308E+02  0.39928895229E+02 -0.91692109146E+01  0.46142317859E+02  0.10000000893E+02 0.  0.
        -12    1    1    2    0    0  0.18727583308E+02 -0.39928895229E+02  0.91692109146E+01  0.45045682141E+02  0.00000000000E+00 0.  1.
         11    1    3    3    0    0 -0.33434392590E+01  0.91160064016E+01 -0.43432490085E+01  0.10636915484E+02  0.51100000000E-03 0. -1.
        -11    1    3    3    0    0 -0.90011413507E+00  0.81181386845E+00 -0.16395014583E+01  0.20389243502E+01  0.51100000000E-03 0.  1.
         12    1    3    3    0    0 -0.14484029914E+02  0.30001074959E+02 -0.31864604478E+01  0.33466478025E+02  0.00000000000E+00 0. -1.
</event>
<event>
 7    1  0.3981356E-008  0.4614232E+02  0.7816164E-02  0.1320468E+00
        -11   -1    0    0    0    0  0.00000000000E+00  0.00000000000E+00  0.45593999997E+02  0.45594000000E+02  0.51100000000E-03 0.  1.
         11   -1    0    0    0    0 -0.00000000000E+00 -0.00000000000E+00 -0.45593999997E+02  0.45594000000E+02  0.51100000000E-03 0. -1.
    9900012    2    1    2    0    0 -0.40450617375E+02  0.13722782976E+02 -0.14301966145E+02  0.46142318140E+02  0.10000003456E+02 0.  0.
        -12    1    1    2    0    0  0.40450617375E+02 -0.13722782976E+02  0.14301966145E+02  0.45045681860E+02  0.00000000000E+00 0.  1.
         11    1    3    3    0    0 -0.18501803326E+02  0.32083860011E+01 -0.82212386663E+01  0.20498761732E+02  0.51100000000E-03 0. -1.
        -11    1    3    3    0    0 -0.37948394879E+01  0.34398198525E+01 -0.29477729459E+01  0.59095289964E+01  0.51100000000E-03 0.  1.
         12    1    3    3    0    0 -0.18153974560E+02  0.70745771219E+01 -0.31329545332E+01  0.19734027412E+02  0.00000000000E+00 0. -1.
</event>
<event>
 7    1  0.3981356E-008  0.4614232E+02  0.7816164E-02  0.1320468E+00
        -11   -1    0    0    0    0  0.00000000000E+00  0.00000000000E+00  0.45593999997E+02  0.45594000000E+02  0.51100000000E-03 0.  1.
         11   -1    0    0    0    0 -0.00000000000E+00 -0.00000000000E+00 -0.45593999997E+02  0.45594000000E+02  0.51100000000E-03 0. -1.
    9900012    2    1    2    0    0 -0.27512695734E+02  0.10988647078E+02 -0.33932502669E+02  0.46142317315E+02  0.99999959309E+01 0.  0.
        -12    1    1    2    0    0  0.27512695734E+02 -0.10988647078E+02  0.33932502669E+02  0.45045682685E+02  0.00000000000E+00 0.  1.
         11    1    3    3    0    0 -0.12156306063E+02  0.47812877722E+01 -0.19910266741E+02  0.23812921111E+02  0.51100000000E-03 0. -1.
        -11    1    3    3    0    0 -0.15284751546E+02  0.59287093044E+01 -0.14423263679E+02  0.21835836582E+02  0.51100000000E-03 0.  1.
        -12    1    3    3    0    0 -0.71638125101E-01  0.27865000139E+00  0.40102775024E+00  0.49355962224E+00  0.00000000000E+00 0.  1.
</event>
<event>
 7    1  0.3981356E-008  0.4614232E+02  0.7816164E-02  0.1320468E+00
        -11   -1    0    0    0    0  0.00000000000E+00  0.00000000000E+00  0.45593999997E+02  0.45594000000E+02  0.51100000000E-03 0.  1.
         11   -1    0    0    0    0 -0.00000000000E+00 -0.00000000000E+00 -0.45593999997E+02  0.45594000000E+02  0.51100000000E-03 0. -1.
    9900012    2    1    2    0    0  0.33059973441E+02 -0.17735008445E+02 -0.24932330884E+02  0.46142317724E+02  0.99999996573E+01 0.  0.
        -12    1    1    2    0    0 -0.33059973441E+02  0.17735008445E+02  0.24932330884E+02  0.45045682276E+02  0.00000000000E+00 0.  1.
         11    1    3    3    0    0  0.30306536760E+01 -0.38090624826E+01 -0.52719290280E+01  0.71754480444E+01  0.51100000000E-03 0. -1.
        -11    1    3    3    0    0  0.11852722648E+02 -0.55727055447E+01 -0.44357861842E+01  0.13828169821E+02  0.51100000000E-03 0.  1.
        -12    1    3    3    0    0  0.18176597117E+02 -0.83532404180E+01 -0.15224615672E+02  0.25138699858E+02  0.00000000000E+00 0.  1.
</event>
<event>
 7    1  0.3981356E-008  0.4614232E+02  0.7816164E-02  0.1320468E+00
        -11   -1    0    0    0    0  0.00000000000E+00  0.00000000000E+00  0.45593999997E+02  0.45594000000E+02  0.51100000000E-03 0. -1.
         11   -1    0    0    0    0 -0.00000000000E+00 -0.00000000000E+00 -0.45593999997E+02  0.45594000000E+02  0.51100000000E-03 0.  1.
    9900012    2    1    2    0    0  0.44614255733E+02  0.61371942962E+01  0.10081957544E+01  0.46142318441E+02  0.10000006198E+02 0.  0.
        -12    1    1    2    0    0 -0.44614255733E+02 -0.61371942962E+01 -0.10081957544E+01  0.45045681559E+02  0.00000000000E+00 0.  1.
         11    1    3    3    0    0  0.13450283115E+02 -0.51233235957E+00  0.28393650339E+01  0.13756256554E+02  0.51100000000E-03 0. -1.
        -11    1    3    3    0    0  0.34196108808E+01  0.25994103860E+01 -0.18820163695E+00  0.42995456793E+01  0.51100000000E-03 0.  1.
        -12    1    3    3    0    0  0.27744361737E+02  0.40501162698E+01 -0.16429676425E+01  0.28086516207E+02  0.00000000000E+00 0.  1.
</event>
<event>
 7    1  0.3981356E-008  0.4614232E+02  0.7816164E-02  0.1320468E+00
        -11   -1    0    0    0    0  0.00000000000E+00  0.00000000000E+00  0.45593999997E+02  0.45594000000E+02  0.51100000000E-03 0.  1.
         11   -1    0    0    0    0 -0.00000000000E+00 -0.00000000000E+00 -0.45593999997E+02  0.45594000000E+02  0.51100000000E-03 0. -1.
    9900012    2    1    2    0    0 -0.48338318742E+01 -0.33991149526E+02 -0.29160749339E+02  0.46142317869E+02  0.10000000982E+02 0.  0.
        -12    1    1    2    0    0  0.48338318742E+01  0.33991149526E+02  0.29160749339E+02  0.45045682131E+02  0.00000000000E+00 0.  1.
         11    1    3    3    0    0 -0.66186659803E+00 -0.22613404369E+02 -0.18665725147E+02  0.29329395153E+02  0.51100000000E-03 0. -1.
        -11    1    3    3    0    0 -0.12219090371E+01 -0.92470468703E+01 -0.62809417225E+01  0.11245050765E+02  0.51100000000E-03 0.  1.
        -12    1    3    3    0    0 -0.29500562391E+01 -0.21306982868E+01 -0.42140824692E+01  0.55678719508E+01  0.00000000000E+00 0.  1.
</event>
<event>
 7    1  0.3981356E-008  0.4614232E+02  0.7816164E-02  0.1320468E+00
        -11   -1    0    0    0    0  0.00000000000E+00  0.00000000000E+00  0.45593999997E+02  0.45594000000E+02  0.51100000000E-03 0.  1.
         11   -1    0    0    0    0 -0.00000000000E+00 -0.00000000000E+00 -0.45593999997E+02  0.45594000000E+02  0.51100000000E-03 0. -1.
    9900012    2    1    2    0    0 -0.10648887837E+02  0.25462707768E+02 -0.35600072519E+02  0.46142318049E+02  0.10000002626E+02 0.  0.
        -12    1    1    2    0    0  0.10648887837E+02 -0.25462707768E+02  0.35600072519E+02  0.45045681951E+02  0.00000000000E+00 0.  1.
         11    1    3    3    0    0 -0.36608241443E+00  0.84207196727E+01 -0.81540436116E+01  0.11727359618E+02  0.51100000000E-03 0. -1.
        -11    1    3    3    0    0 -0.18045231579E+00  0.28874955229E+01 -0.17294351969E+01  0.33706289909E+01  0.51100000000E-03 0.  1.
        -12    1    3    3    0    0 -0.10102353107E+02  0.14154492573E+02 -0.25716593711E+02  0.31044329440E+02  0.00000000000E+00 0.  1.
</event>
<event>
 7    1  0.3981356E-008  0.4614232E+02  0.7816164E-02  0.1320468E+00
        -11   -1    0    0    0    0  0.00000000000E+00  0.00000000000E+00  0.45593999997E+02  0.45594000000E+02  0.51100000000E-03 0. -1.
         11   -1    0    0    0    0 -0.00000000000E+00 -0.00000000000E+00 -0.45593999997E+02  0.45594000000E+02  0.51100000000E-03 0.  1.
    9900012    2    1    2    0    0  0.58185079599E+01 -0.10181557558E+02  0.43492463081E+02  0.46142317698E+02  0.99999994231E+01 0.  0.
        -12    1    1    2    0    0 -0.58185079599E+01  0.10181557558E+02 -0.43492463081E+02  0.45045682302E+02  0.00000000000E+00 0.  1.
         11    1    3    3    0    0  0.27362855107E+01 -0.22038904582E+01  0.26959449937E+02  0.27187429682E+02  0.51100000000E-03 0. -1.
        -11    1    3    3    0    0  0.15082006600E+01 -0.16174313142E+01  0.18759375085E+01  0.28999819109E+01  0.51100000000E-03 0.  1.
        -12    1    3    3    0    0  0.15740217892E+01 -0.63602357859E+01  0.14657075636E+02  0.16054906105E+02  0.00000000000E+00 0.  1.
</event>
<event>
 7    1  0.3981356E-008  0.4614232E+02  0.7816164E-02  0.1320468E+00
        -11   -1    0    0    0    0  0.00000000000E+00  0.00000000000E+00  0.45593999997E+02  0.45594000000E+02  0.51100000000E-03 0.  1.
         11   -1    0    0    0    0 -0.00000000000E+00 -0.00000000000E+00 -0.45593999997E+02  0.45594000000E+02  0.51100000000E-03 0. -1.
    9900012    2    1    2    0    0  0.13363775668E+02  0.56857810337E+00 -0.43013947210E+02  0.46142318346E+02  0.10000005330E+02 0.  0.
        -12    1    1    2    0    0 -0.13363775668E+02 -0.56857810337E+00  0.43013947210E+02  0.45045681654E+02  0.00000000000E+00 0.  1.
         11    1    3    3    0    0  0.69795892577E+01 -0.32059949384E+01 -0.20929321472E+02  0.22294159937E+02  0.51100000000E-03 0. -1.
        -11    1    3    3    0    0  0.66377695971E+01  0.45936177987E+01 -0.18933895238E+02  0.20582849629E+02  0.51100000000E-03 0.  1.
        -12    1    3    3    0    0 -0.25358318670E+00 -0.81904475698E+00 -0.31507305001E+01  0.32653087803E+01  0.00000000000E+00 0.  1.
</event>
<event>
 7    1  0.3981356E-008  0.4614232E+02  0.7816164E-02  0.1320468E+00
        -11   -1    0    0    0    0  0.00000000000E+00  0.00000000000E+00  0.45593999997E+02  0.45594000000E+02  0.51100000000E-03 0.  1.
         11   -1    0    0    0    0 -0.00000000000E+00 -0.00000000000E+00 -0.45593999997E+02  0.45594000000E+02  0.51100000000E-03 0. -1.
    9900012    2    1    2    0    0 -0.16251704246E+02  0.40555716588E+02 -0.10964918576E+02  0.46142317873E+02  0.10000001021E+02 0.  0.
        -12    1    1    2    0    0  0.16251704246E+02 -0.40555716588E+02  0.10964918576E+02  0.45045682127E+02  0.00000000000E+00 0.  1.
         11    1    3    3    0    0 -0.15446449218E+02  0.38978206935E+02 -0.10859482606E+02  0.43310758156E+02  0.51100000000E-03 0. -1.
        -11    1    3    3    0    0 -0.41233189127E+00  0.20201556022E+00 -0.10303859944E+01  0.11280618040E+01  0.51100000000E-03 0.  1.
         12    1    3    3    0    0 -0.39292313661E+00  0.13754940936E+01  0.92495002469E+00  0.17034979134E+01  0.00000000000E+00 0. -1.
</event>
<event>
 7    1  0.3981356E-008  0.4614232E+02  0.7816164E-02  0.1320468E+00
        -11   -1    0    0    0    0  0.00000000000E+00  0.00000000000E+00  0.45593999997E+02  0.45594000000E+02  0.51100000000E-03 0.  1.
         11   -1    0    0    0    0 -0.00000000000E+00 -0.00000000000E+00 -0.45593999997E+02  0.45594000000E+02  0.51100000000E-03 0. -1.
    9900012    2    1    2    0    0 -0.41188438247E+02  0.31795143951E+01 -0.17958753866E+02  0.46142316550E+02  0.99999889572E+01 0.  0.
        -12    1    1    2    0    0  0.41188438247E+02 -0.31795143951E+01  0.17958753866E+02  0.45045683450E+02  0.00000000000E+00 0.  1.
         11    1    3    3    0    0 -0.39070838979E+00 -0.48854642115E+00 -0.40546337009E+00  0.74547398149E+00  0.51100000000E-03 0.  1.
        -11    1    3    3    0    0 -0.40724932831E+02  0.36027900850E+01 -0.18193404747E+02  0.44749304207E+02  0.51100000000E-03 0. -1.
         12    1    3    3    0    0 -0.72797026814E-01  0.65270731218E-01  0.64011425095E+00  0.64753836160E+00  0.00000000000E+00 0. -1.
</event>
<event>
 7    1  0.3981356E-008  0.4614232E+02  0.7816164E-02  0.1320468E+00
        -11   -1    0    0    0    0  0.00000000000E+00  0.00000000000E+00  0.45593999997E+02  0.45594000000E+02  0.51100000000E-03 0.  1.
         11   -1    0    0    0    0 -0.00000000000E+00 -0.00000000000E+00 -0.45593999997E+02  0.45594000000E+02  0.51100000000E-03 0. -1.
    9900012    2    1    2    0    0 -0.11179166593E+02  0.71146487858E+01 -0.43052541150E+02  0.46142319935E+02  0.10000019820E+02 0.  0.
        -12    1    1    2    0    0  0.11179166593E+02 -0.71146487858E+01  0.43052541150E+02  0.45045680065E+02  0.00000000000E+00 0.  1.
         11    1    3    3    0    0 -0.12944095374E+01 -0.66992939517E+00 -0.10081247240E+02  0.10186061438E+02  0.51100000000E-03 0. -1.
        -11    1    3    3    0    0  0.23437254763E+00 -0.94283955472E+00 -0.25834572892E+01  0.27600957851E+01  0.51100000000E-03 0.  1.
         12    1    3    3    0    0 -0.10119129603E+02  0.87274177357E+01 -0.30387836621E+02  0.33196162711E+02  0.00000000000E+00 0. -1.
</event>
<event>
 7    1  0.3981356E-008  0.4614232E+02  0.7816164E-02  0.1320468E+00
        -11   -1    0    0    0    0  0.00000000000E+00  0.00000000000E+00  0.45593999997E+02  0.45594000000E+02  0.51100000000E-03 0.  1.
         11   -1    0    0    0    0 -0.00000000000E+00 -0.00000000000E+00 -0.45593999997E+02  0.45594000000E+02  0.51100000000E-03 0. -1.
    9900012    2    1    2    0    0 -0.44282352364E+02  0.74462580673E+01 -0.35693073159E+01  0.46142318245E+02  0.10000004412E+02 0.  0.
        -12    1    1    2    0    0  0.44282352364E+02 -0.74462580673E+01  0.35693073159E+01  0.45045681755E+02  0.00000000000E+00 0.  1.
         11    1    3    3    0    0 -0.23646876210E+01 -0.13450378765E+01  0.46978379883E+00  0.27607193832E+01  0.51100000000E-03 0. -1.
        -11    1    3    3    0    0 -0.22753445700E+02  0.30811879357E+01  0.97915554248E-01  0.22961328316E+02  0.51100000000E-03 0.  1.
         12    1    3    3    0    0 -0.19164219042E+02  0.57101080080E+01 -0.41370066689E+01  0.20420270545E+02  0.00000000000E+00 0. -1.
</event>
<event>
 7    1  0.3981356E-008  0.4614232E+02  0.7816164E-02  0.1320468E+00
        -11   -1    0    0    0    0  0.00000000000E+00  0.00000000000E+00  0.45593999997E+02  0.45594000000E+02  0.51100000000E-03 0. -1.
         11   -1    0    0    0    0 -0.00000000000E+00 -0.00000000000E+00 -0.45593999997E+02  0.45594000000E+02  0.51100000000E-03 0.  1.
    9900012    2    1    2    0    0  0.37298627696E+02 -0.19696655716E+02  0.15810364425E+02  0.46142317658E+02  0.99999990605E+01 0.  0.
        -12    1    1    2    0    0 -0.37298627696E+02  0.19696655716E+02 -0.15810364425E+02  0.45045682342E+02  0.00000000000E+00 0.  1.
         11    1    3    3    0    0  0.50326425964E+01 -0.48689341249E+00  0.24917295687E+01  0.56367786192E+01  0.51100000000E-03 0. -1.
        -11    1    3    3    0    0  0.30049603216E+01 -0.42439239679E+01  0.32481006376E+01  0.61311365336E+01  0.51100000000E-03 0.  1.
         12    1    3    3    0    0  0.29261024778E+02 -0.14965838336E+02  0.10070534219E+02  0.34374402505E+02  0.00000000000E+00 0. -1.
</event>
<event>
 7    1  0.3981356E-008  0.4614232E+02  0.7816164E-02  0.1320468E+00
        -11   -1    0    0    0    0  0.00000000000E+00  0.00000000000E+00  0.45593999997E+02  0.45594000000E+02  0.51100000000E-03 0. -1.
         11   -1    0    0    0    0 -0.00000000000E+00 -0.00000000000E+00 -0.45593999997E+02  0.45594000000E+02  0.51100000000E-03 0.  1.
    9900012    2    1    2    0    0  0.25603068796E+02 -0.26571937356E+02  0.25836572003E+02  0.46142318304E+02  0.10000004950E+02 0.  0.
        -12    1    1    2    0    0 -0.25603068796E+02  0.26571937356E+02 -0.25836572003E+02  0.45045681696E+02  0.00000000000E+00 0.  1.
         11    1    3    3    0    0  0.79139898473E+01 -0.54717480290E+01  0.10124051663E+02  0.13966663315E+02  0.51100000000E-03 0. -1.
        -11    1    3    3    0    0 -0.18434209719E+00 -0.15831911852E+01  0.11830341312E+01  0.19849550006E+01  0.51100000000E-03 0.  1.
        -12    1    3    3    0    0  0.17873421046E+02 -0.19516998142E+02  0.14529486208E+02  0.30190699989E+02  0.00000000000E+00 0.  1.
</event>
<event>
 7    1  0.3981356E-008  0.4614232E+02  0.7816164E-02  0.1320468E+00
        -11   -1    0    0    0    0  0.00000000000E+00  0.00000000000E+00  0.45593999997E+02  0.45594000000E+02  0.51100000000E-03 0.  1.
         11   -1    0    0    0    0 -0.00000000000E+00 -0.00000000000E+00 -0.45593999997E+02  0.45594000000E+02  0.51100000000E-03 0. -1.
    9900012    2    1    2    0    0  0.25960695780E+01 -0.13642214507E+02 -0.42851648527E+02  0.46142319015E+02  0.10000011430E+02 0.  0.
        -12    1    1    2    0    0 -0.25960695780E+01  0.13642214507E+02  0.42851648527E+02  0.45045680985E+02  0.00000000000E+00 0.  1.
         11    1    3    3    0    0  0.98733200989E-01 -0.24483052971E+01 -0.95865245820E+01  0.98947158067E+01  0.51100000000E-03 0. -1.
        -11    1    3    3    0    0  0.41363780891E+01 -0.10954200147E+02 -0.22585736542E+02  0.25440511394E+02  0.51100000000E-03 0.  1.
        -12    1    3    3    0    0 -0.16390417121E+01 -0.23970906302E+00 -0.10679387404E+02  0.10807091814E+02  0.00000000000E+00 0.  1.
</event>
<event>
 7    1  0.3981356E-008  0.4614232E+02  0.7816164E-02  0.1320468E+00
        -11   -1    0    0    0    0  0.00000000000E+00  0.00000000000E+00  0.45593999997E+02  0.45594000000E+02  0.51100000000E-03 0.  1.
         11   -1    0    0    0    0 -0.00000000000E+00 -0.00000000000E+00 -0.45593999997E+02  0.45594000000E+02  0.51100000000E-03 0. -1.
    9900012    2    1    2    0    0 -0.18217929768E+02  0.27064064541E+02 -0.31060539013E+02  0.46142316097E+02  0.99999848245E+01 0.  0.
        -12    1    1    2    0    0  0.18217929768E+02 -0.27064064541E+02  0.31060539013E+02  0.45045683903E+02  0.00000000000E+00 0.  1.
         11    1    3    3    0    0 -0.14298063467E+02  0.15282874039E+02 -0.23577782947E+02  0.31526381124E+02  0.51100000000E-03 0. -1.
        -11    1    3    3    0    0 -0.18895608466E+01  0.57710449893E+01 -0.47452439311E+01  0.77066685856E+01  0.51100000000E-03 0.  1.
         12    1    3    3    0    0 -0.20303054545E+01  0.60101455128E+01 -0.27375121344E+01  0.69092663872E+01  0.00000000000E+00 0. -1.
</event>
<event>
 7    1  0.3981356E-008  0.4614232E+02  0.7816164E-02  0.1320468E+00
        -11   -1    0    0    0    0  0.00000000000E+00  0.00000000000E+00  0.45593999997E+02  0.45594000000E+02  0.51100000000E-03 0.  1.
         11   -1    0    0    0    0 -0.00000000000E+00 -0.00000000000E+00 -0.45593999997E+02  0.45594000000E+02  0.51100000000E-03 0. -1.
    9900012    2    1    2    0    0  0.39742282106E+02 -0.12897036216E+02 -0.16832435577E+02  0.46142318546E+02  0.10000007160E+02 0.  0.
        -12    1    1    2    0    0 -0.39742282106E+02  0.12897036216E+02  0.16832435577E+02  0.45045681454E+02  0.00000000000E+00 0.  1.
         11    1    3    3    0    0  0.23094523679E+02 -0.83252528184E+01 -0.85170801320E+01  0.25984755390E+02  0.51100000000E-03 0.  1.
        -11    1    3    3    0    0  0.10327389205E+02 -0.25529372887E+00 -0.67647742593E+01  0.12348372918E+02  0.51100000000E-03 0. -1.
         12    1    3    3    0    0  0.63203692218E+01 -0.43164896685E+01 -0.15505811862E+01  0.78091902380E+01  0.00000000000E+00 0. -1.
</event>
<event>
 7    1  0.3981356E-008  0.4614232E+02  0.7816164E-02  0.1320468E+00
        -11   -1    0    0    0    0  0.00000000000E+00  0.00000000000E+00  0.45593999997E+02  0.45594000000E+02  0.51100000000E-03 0.  1.
         11   -1    0    0    0    0 -0.00000000000E+00 -0.00000000000E+00 -0.45593999997E+02  0.45594000000E+02  0.51100000000E-03 0. -1.
    9900012    2    1    2    0    0 -0.29138773391E+02  0.63125107128E+01 -0.33766811736E+02  0.46142317843E+02  0.10000000745E+02 0.  0.
        -12    1    1    2    0    0  0.29138773391E+02 -0.63125107128E+01  0.33766811736E+02  0.45045682157E+02  0.00000000000E+00 0.  1.
         11    1    3    3    0    0 -0.23800946673E+01  0.10593972661E+01 -0.39676168419E+01  0.47464888979E+01  0.51100000000E-03 0. -1.
        -11    1    3    3    0    0 -0.22549913636E+02  0.75117932491E+01 -0.22904482517E+02  0.33008195383E+02  0.51100000000E-03 0.  1.
        -12    1    3    3    0    0 -0.42087650872E+01 -0.22586798023E+01 -0.68947123763E+01  0.83876335614E+01  0.00000000000E+00 0.  1.
</event>
<event>
 7    1  0.4004759E-008  0.4614232E+02  0.7816164E-02  0.1320468E+00
        -11   -1    0    0    0    0  0.00000000000E+00  0.00000000000E+00  0.45593999997E+02  0.45594000000E+02  0.51100000000E-03 0. -1.
         11   -1    0    0    0    0 -0.00000000000E+00 -0.00000000000E+00 -0.45593999997E+02  0.45594000000E+02  0.51100000000E-03 0.  1.
    9900012    2    1    2    0    0 -0.27234996458E+02  0.30328155911E+02  0.19172150645E+02  0.46142318371E+02  0.10000005564E+02 0.  0.
        -12    1    1    2    0    0  0.27234996458E+02 -0.30328155911E+02 -0.19172150645E+02  0.45045681629E+02  0.00000000000E+00 0.  1.
         11    1    3    3    0    0 -0.97849194214E+01  0.83853183646E+01  0.68570513187E+01  0.14597169767E+02  0.51100000000E-03 0. -1.
        -11    1    3    3    0    0 -0.37086896008E+01  0.69901979257E+01  0.69715674711E+01  0.10546089269E+02  0.51100000000E-03 0.  1.
        -12    1    3    3    0    0 -0.13741387436E+02  0.14952639621E+02  0.53435318547E+01  0.20999059336E+02  0.00000000000E+00 0.  1.
</event>
<event>
 7    1  0.3981356E-008  0.4614232E+02  0.7816164E-02  0.1320468E+00
        -11   -1    0    0    0    0  0.00000000000E+00  0.00000000000E+00  0.45593999997E+02  0.45594000000E+02  0.51100000000E-03 0. -1.
         11   -1    0    0    0    0 -0.00000000000E+00 -0.00000000000E+00 -0.45593999997E+02  0.45594000000E+02  0.51100000000E-03 0.  1.
    9900012    2    1    2    0    0  0.18359028632E+02  0.18504994937E+02  0.36737236412E+02  0.46142319751E+02  0.10000018146E+02 0.  0.
        -12    1    1    2    0    0 -0.18359028632E+02 -0.18504994937E+02 -0.36737236412E+02  0.45045680249E+02  0.00000000000E+00 0.  1.
         11    1    3    3    0    0  0.11200872158E+00  0.19402517456E+01  0.59144477972E+00  0.20314846735E+01  0.51100000000E-03 0.  1.
        -11    1    3    3    0    0  0.10947001786E+02  0.13438366128E+02  0.24230897494E+02  0.29791994326E+02  0.51100000000E-03 0. -1.
         12    1    3    3    0    0  0.73000181243E+01  0.31263770640E+01  0.11914894138E+02  0.14318840752E+02  0.00000000000E+00 0. -1.
</event>
<event>
 7    1  0.3981356E-008  0.4614231E+02  0.7816164E-02  0.1320468E+00
        -11   -1    0    0    0    0  0.00000000000E+00  0.00000000000E+00  0.45593999997E+02  0.45594000000E+02  0.51100000000E-03 0. -1.
         11   -1    0    0    0    0 -0.00000000000E+00 -0.00000000000E+00 -0.45593999997E+02  0.45594000000E+02  0.51100000000E-03 0.  1.
    9900012    2    1    2    0    0 -0.29701925930E+02  0.28272533764E+02  0.18643332118E+02  0.46142307622E+02  0.99999075447E+01 0.  0.
        -12    1    1    2    0    0  0.29701925930E+02 -0.28272533764E+02 -0.18643332118E+02  0.45045692378E+02  0.00000000000E+00 0.  1.
         11    1    3    3    0    0 -0.38170430432E+01  0.21553527848E+01 -0.62655452104E+00  0.44280846931E+01  0.51100000000E-03 0. -1.
        -11    1    3    3    0    0 -0.79731128118E+01  0.74567203293E+01  0.78136023124E+01  0.13424812376E+02  0.51100000000E-03 0.  1.
         12    1    3    3    0    0 -0.17911770075E+02  0.18660460650E+02  0.11456284326E+02  0.28289410553E+02  0.00000000000E+00 0. -1.
</event>
<event>
 7    1  0.3981356E-008  0.4614232E+02  0.7816164E-02  0.1320468E+00
        -11   -1    0    0    0    0  0.00000000000E+00  0.00000000000E+00  0.45593999997E+02  0.45594000000E+02  0.51100000000E-03 0.  1.
         11   -1    0    0    0    0 -0.00000000000E+00 -0.00000000000E+00 -0.45593999997E+02  0.45594000000E+02  0.51100000000E-03 0. -1.
    9900012    2    1    2    0    0  0.13311036304E+02 -0.66735561992E+01 -0.42513450349E+02  0.46142317627E+02  0.99999987812E+01 0.  0.
        -12    1    1    2    0    0 -0.13311036304E+02  0.66735561992E+01  0.42513450349E+02  0.45045682373E+02  0.00000000000E+00 0.  1.
         11    1    3    3    0    0  0.21815466114E+01 -0.33074744186E+01 -0.48030349780E+01  0.62263695608E+01  0.51100000000E-03 0. -1.
        -11    1    3    3    0    0 -0.10060172512E+00 -0.11967014630E+01 -0.78244004783E+01  0.79160254045E+01  0.51100000000E-03 0.  1.
         12    1    3    3    0    0  0.11230091418E+02 -0.21693803176E+01 -0.29886014893E+02  0.31999922662E+02  0.00000000000E+00 0. -1.
</event>
<event>
 7    1  0.3981356E-008  0.4614232E+02  0.7816164E-02  0.1320468E+00
        -11   -1    0    0    0    0  0.00000000000E+00  0.00000000000E+00  0.45593999997E+02  0.45594000000E+02  0.51100000000E-03 0. -1.
         11   -1    0    0    0    0 -0.00000000000E+00 -0.00000000000E+00 -0.45593999997E+02  0.45594000000E+02  0.51100000000E-03 0.  1.
    9900012    2    1    2    0    0  0.36649219214E+02  0.12057120611E+02  0.23250250161E+02  0.46142316978E+02  0.99999928593E+01 0.  0.
        -12    1    1    2    0    0 -0.36649219214E+02 -0.12057120611E+02 -0.23250250161E+02  0.45045683022E+02  0.00000000000E+00 0.  1.
         11    1    3    3    0    0  0.95987790014E+01  0.74530186579E+01  0.65425463430E+01  0.13801773739E+02  0.51100000000E-03 0.  1.
        -11    1    3    3    0    0  0.21035698012E+02  0.46998869236E+01  0.11773238694E+02  0.24560103370E+02  0.51100000000E-03 0. -1.
         12    1    3    3    0    0  0.60147422000E+01 -0.95784970902E-01  0.49344651238E+01  0.77804398687E+01  0.00000000000E+00 0. -1.
</event>
<event>
 7    1  0.3981356E-008  0.4614232E+02  0.7816164E-02  0.1320468E+00
        -11   -1    0    0    0    0  0.00000000000E+00  0.00000000000E+00  0.45593999997E+02  0.45594000000E+02  0.51100000000E-03 0. -1.
         11   -1    0    0    0    0 -0.00000000000E+00 -0.00000000000E+00 -0.45593999997E+02  0.45594000000E+02  0.51100000000E-03 0.  1.
    9900012    2    1    2    0    0  0.59761097319E+00  0.44992776777E+02  0.20990829095E+01  0.46142320407E+02  0.10000024126E+02 0.  0.
        -12    1    1    2    0    0 -0.59761097319E+00 -0.44992776777E+02 -0.20990829095E+01  0.45045679593E+02  0.00000000000E+00 0.  1.
         11    1    3    3    0    0 -0.23849704500E+01  0.36232832159E+02  0.28686634618E+01  0.36424379756E+02  0.51100000000E-03 0. -1.
        -11    1    3    3    0    0  0.24903374175E+01  0.85287047328E+01 -0.12745468658E+01  0.89758038552E+01  0.51100000000E-03 0.  1.
         12    1    3    3    0    0  0.49224400568E+00  0.23123988497E+00  0.50496631358E+00  0.74213679560E+00  0.00000000000E+00 0. -1.
</event>
<event>
 7    1  0.3981356E-008  0.4614232E+02  0.7816164E-02  0.1320468E+00
        -11   -1    0    0    0    0  0.00000000000E+00  0.00000000000E+00  0.45593999997E+02  0.45594000000E+02  0.51100000000E-03 0. -1.
         11   -1    0    0    0    0 -0.00000000000E+00 -0.00000000000E+00 -0.45593999997E+02  0.45594000000E+02  0.51100000000E-03 0.  1.
    9900012    2    1    2    0    0 -0.44214955480E+02  0.86025474210E+01  0.38389441745E+00  0.46142317796E+02  0.10000000322E+02 0.  0.
        -12    1    1    2    0    0  0.44214955480E+02 -0.86025474210E+01 -0.38389441745E+00  0.45045682204E+02  0.00000000000E+00 0.  1.
         11    1    3    3    0    0 -0.15462560529E+02  0.35609072229E+01 -0.28328978905E+01  0.16118193108E+02  0.51100000000E-03 0. -1.
        -11    1    3    3    0    0 -0.28993318562E+01  0.10365614825E+01 -0.15256458200E+01  0.34363032969E+01  0.51100000000E-03 0.  1.
        -12    1    3    3    0    0 -0.25853063095E+02  0.40050787157E+01  0.47424381279E+01  0.26587821391E+02  0.00000000000E+00 0.  1.
</event>
<event>
 7    1  0.3981356E-008  0.4614232E+02  0.7816164E-02  0.1320468E+00
        -11   -1    0    0    0    0  0.00000000000E+00  0.00000000000E+00  0.45593999997E+02  0.45594000000E+02  0.51100000000E-03 0.  1.
         11   -1    0    0    0    0 -0.00000000000E+00 -0.00000000000E+00 -0.45593999997E+02  0.45594000000E+02  0.51100000000E-03 0. -1.
    9900012    2    1    2    0    0 -0.17554324562E+02  0.31030491249E+02 -0.27533031643E+02  0.46142317305E+02  0.99999958436E+01 0.  0.
        -12    1    1    2    0    0  0.17554324562E+02 -0.31030491249E+02  0.27533031643E+02  0.45045682695E+02  0.00000000000E+00 0.  1.
         11    1    3    3    0    0 -0.32037296471E+01  0.11233696262E+02 -0.10377434584E+02  0.15625330850E+02  0.51100000000E-03 0. -1.
        -11    1    3    3    0    0 -0.41298702876E+01  0.81139830628E+01 -0.96771405942E+01  0.13286820541E+02  0.51100000000E-03 0.  1.
         12    1    3    3    0    0 -0.10220724627E+02  0.11682811924E+02 -0.74784564650E+01  0.17230165915E+02  0.00000000000E+00 0. -1.
</event>
<event>
 7    1  0.3981356E-008  0.4614232E+02  0.7816164E-02  0.1320468E+00
        -11   -1    0    0    0    0  0.00000000000E+00  0.00000000000E+00  0.45593999997E+02  0.45594000000E+02  0.51100000000E-03 0.  1.
         11   -1    0    0    0    0 -0.00000000000E+00 -0.00000000000E+00 -0.45593999997E+02  0.45594000000E+02  0.51100000000E-03 0. -1.
    9900012    2    1    2    0    0 -0.95267770584E+01  0.33090880617E+02 -0.29040449585E+02  0.46142316819E+02  0.99999914087E+01 0.  0.
        -12    1    1    2    0    0  0.95267770584E+01 -0.33090880617E+02  0.29040449585E+02  0.45045683181E+02  0.00000000000E+00 0.  1.
         11    1    3    3    0    0 -0.44433165266E+00  0.13186330026E+02 -0.10219120946E+02  0.16688533888E+02  0.51100000000E-03 0. -1.
        -11    1    3    3    0    0 -0.22679495407E+01  0.10141227015E+02 -0.61906284137E+01  0.12095948120E+02  0.51100000000E-03 0.  1.
        -12    1    3    3    0    0 -0.68144958650E+01  0.97633235758E+01 -0.12630700225E+02  0.17357834811E+02  0.00000000000E+00 0.  1.
</event>
<event>
 7    1  0.3981356E-008  0.4614232E+02  0.7816164E-02  0.1320468E+00
        -11   -1    0    0    0    0  0.00000000000E+00  0.00000000000E+00  0.45593999997E+02  0.45594000000E+02  0.51100000000E-03 0.  1.
         11   -1    0    0    0    0 -0.00000000000E+00 -0.00000000000E+00 -0.45593999997E+02  0.45594000000E+02  0.51100000000E-03 0. -1.
    9900012    2    1    2    0    0  0.21554316288E+02 -0.22255219867E+02 -0.32699080240E+02  0.46142320845E+02  0.10000028123E+02 0.  0.
        -12    1    1    2    0    0 -0.21554316288E+02  0.22255219867E+02  0.32699080240E+02  0.45045679155E+02  0.00000000000E+00 0.  1.
         11    1    3    3    0    0  0.48635994593E+00  0.68659517757E+00 -0.16775078725E+01  0.18766970609E+01  0.51100000000E-03 0.  1.
        -11    1    3    3    0    0  0.35921965289E+01 -0.16415002975E+01 -0.29277578142E+01  0.49163162234E+01  0.51100000000E-03 0. -1.
         12    1    3    3    0    0  0.17475759813E+02 -0.21300314747E+02 -0.28093814554E+02  0.39349307561E+02  0.00000000000E+00 0. -1.
</event>
<event>
 7    1  0.3981356E-008  0.4614232E+02  0.7816164E-02  0.1320468E+00
        -11   -1    0    0    0    0  0.00000000000E+00  0.00000000000E+00  0.45593999997E+02  0.45594000000E+02  0.51100000000E-03 0.  1.
         11   -1    0    0    0    0 -0.00000000000E+00 -0.00000000000E+00 -0.45593999997E+02  0.45594000000E+02  0.51100000000E-03 0. -1.
    9900012    2    1    2    0    0  0.41597753106E+02 -0.11105808454E+01 -0.17248392283E+02  0.46142317747E+02  0.99999998703E+01 0.  0.
        -12    1    1    2    0    0 -0.41597753106E+02  0.11105808454E+01  0.17248392283E+02  0.45045682253E+02  0.00000000000E+00 0.  1.
         11    1    3    3    0    0  0.15068180827E+02 -0.41224800331E+01 -0.33033852232E+01  0.15967381415E+02  0.51100000000E-03 0. -1.
        -11    1    3    3    0    0  0.15818322858E+01  0.14878972371E+00 -0.37928700339E+00  0.16334597192E+01  0.51100000000E-03 0.  1.
        -12    1    3    3    0    0  0.24947739994E+02  0.28631094640E+01 -0.13565720057E+02  0.28541476613E+02  0.00000000000E+00 0.  1.
</event>
<event>
 7    1  0.3981356E-008  0.4614232E+02  0.7816164E-02  0.1320468E+00
        -11   -1    0    0    0    0  0.00000000000E+00  0.00000000000E+00  0.45593999997E+02  0.45594000000E+02  0.51100000000E-03 0.  1.
         11   -1    0    0    0    0 -0.00000000000E+00 -0.00000000000E+00 -0.45593999997E+02  0.45594000000E+02  0.51100000000E-03 0. -1.
    9900012    2    1    2    0    0 -0.29599982580E+02 -0.33602717472E+02  0.48797449711E+01  0.46142317618E+02  0.99999986959E+01 0.  0.
        -12    1    1    2    0    0  0.29599982580E+02  0.33602717472E+02 -0.48797449711E+01  0.45045682382E+02  0.00000000000E+00 0.  1.
         11    1    3    3    0    0 -0.13558103248E+02 -0.16705340265E+02  0.15455316680E+01  0.21570332066E+02  0.51100000000E-03 0. -1.
        -11    1    3    3    0    0 -0.21716688483E+01 -0.23891514875E+01 -0.20072631558E+01  0.38017490783E+01  0.51100000000E-03 0.  1.
        -12    1    3    3    0    0 -0.13870210484E+02 -0.14508225720E+02  0.53414764589E+01  0.20770236474E+02  0.00000000000E+00 0.  1.
</event>
<event>
 7    1  0.3981356E-008  0.4614232E+02  0.7816164E-02  0.1320468E+00
        -11   -1    0    0    0    0  0.00000000000E+00  0.00000000000E+00  0.45593999997E+02  0.45594000000E+02  0.51100000000E-03 0.  1.
         11   -1    0    0    0    0 -0.00000000000E+00 -0.00000000000E+00 -0.45593999997E+02  0.45594000000E+02  0.51100000000E-03 0. -1.
    9900012    2    1    2    0    0 -0.13506489034E+02 -0.40457199450E+02 -0.14488035853E+02  0.46142318562E+02  0.10000007304E+02 0.  0.
        -12    1    1    2    0    0  0.13506489034E+02  0.40457199450E+02  0.14488035853E+02  0.45045681438E+02  0.00000000000E+00 0.  1.
         11    1    3    3    0    0 -0.84575885015E+01 -0.22575362773E+02 -0.10696577576E+02  0.26374127089E+02  0.51100000000E-03 0. -1.
        -11    1    3    3    0    0 -0.67284022229E+00 -0.84484393194E+01 -0.39897097128E+01  0.93673168385E+01  0.51100000000E-03 0.  1.
         12    1    3    3    0    0 -0.43760603097E+01 -0.94333973570E+01  0.19825143634E+00  0.10400874634E+02  0.00000000000E+00 0. -1.
</event>
<event>
 7    1  0.3981356E-008  0.4614232E+02  0.7816164E-02  0.1320468E+00
        -11   -1    0    0    0    0  0.00000000000E+00  0.00000000000E+00  0.45593999997E+02  0.45594000000E+02  0.51100000000E-03 0.  1.
         11   -1    0    0    0    0 -0.00000000000E+00 -0.00000000000E+00 -0.45593999997E+02  0.45594000000E+02  0.51100000000E-03 0. -1.
    9900012    2    1    2    0    0 -0.25531429132E+02  0.31183525126E+02  0.20120820096E+02  0.46142317475E+02  0.99999973904E+01 0.  0.
        -12    1    1    2    0    0  0.25531429132E+02 -0.31183525126E+02 -0.20120820096E+02  0.45045682525E+02  0.00000000000E+00 0.  1.
         11    1    3    3    0    0 -0.12105347413E+02  0.14824844674E+02  0.13002225534E+02  0.23138135722E+02  0.51100000000E-03 0. -1.
        -11    1    3    3    0    0 -0.29707458149E+01  0.78484554322E+01  0.28883424159E+01  0.88750270726E+01  0.51100000000E-03 0.  1.
         12    1    3    3    0    0 -0.10455335904E+02  0.85102250201E+01  0.42302521461E+01  0.14129154680E+02  0.00000000000E+00 0. -1.
</event>
<event>
 7    1  0.3981356E-008  0.4614232E+02  0.7816164E-02  0.1320468E+00
        -11   -1    0    0    0    0  0.00000000000E+00  0.00000000000E+00  0.45593999997E+02  0.45594000000E+02  0.51100000000E-03 0.  1.
         11   -1    0    0    0    0 -0.00000000000E+00 -0.00000000000E+00 -0.45593999997E+02  0.45594000000E+02  0.51100000000E-03 0. -1.
    9900012    2    1    2    0    0 -0.32918949337E+02 -0.49126125142E+01 -0.30353293580E+02  0.46142318539E+02  0.10000007092E+02 0.  0.
        -12    1    1    2    0    0  0.32918949337E+02  0.49126125142E+01  0.30353293580E+02  0.45045681461E+02  0.00000000000E+00 0.  1.
         11    1    3    3    0    0 -0.71201313568E+01 -0.16013865122E+01 -0.88314660091E+01  0.11456679337E+02  0.51100000000E-03 0. -1.
        -11    1    3    3    0    0 -0.82000455243E+01 -0.33188975213E+01 -0.11239480783E+02  0.14303207888E+02  0.51100000000E-03 0.  1.
         12    1    3    3    0    0 -0.17598772456E+02  0.76715193292E-02 -0.10282346788E+02  0.20382431314E+02  0.00000000000E+00 0. -1.
</event>
<event>
 7    1  0.3981356E-008  0.4614232E+02  0.7816164E-02  0.1320468E+00
        -11   -1    0    0    0    0  0.00000000000E+00  0.00000000000E+00  0.45593999997E+02  0.45594000000E+02  0.51100000000E-03 0.  1.
         11   -1    0    0    0    0 -0.00000000000E+00 -0.00000000000E+00 -0.45593999997E+02  0.45594000000E+02  0.51100000000E-03 0. -1.
    9900012    2    1    2    0    0  0.14330779248E+02  0.26431660888E+02 -0.33542651658E+02  0.46142318616E+02  0.10000007791E+02 0.  0.
        -12    1    1    2    0    0 -0.14330779248E+02 -0.26431660888E+02  0.33542651658E+02  0.45045681384E+02  0.00000000000E+00 0.  1.
         11    1    3    3    0    0  0.11160029088E+02  0.11896398660E+02 -0.14442367830E+02  0.21786521960E+02  0.51100000000E-03 0. -1.
        -11    1    3    3    0    0  0.87485342436E+00  0.60786139478E+01 -0.99010547389E+01  0.11651000010E+02  0.51100000000E-03 0.  1.
        -12    1    3    3    0    0  0.22958967357E+01  0.84566482801E+01 -0.91992290891E+01  0.12704796645E+02  0.00000000000E+00 0.  1.
</event>
<event>
 7    1  0.4550690E-008  0.4614232E+02  0.7816164E-02  0.1320468E+00
        -11   -1    0    0    0    0  0.00000000000E+00  0.00000000000E+00  0.45593999997E+02  0.45594000000E+02  0.51100000000E-03 0. -1.
         11   -1    0    0    0    0 -0.00000000000E+00 -0.00000000000E+00 -0.45593999997E+02  0.45594000000E+02  0.51100000000E-03 0.  1.
    9900012    2    1    2    0    0 -0.40054040846E+02  0.71833648366E+01  0.19318037270E+02  0.46142317827E+02  0.10000000600E+02 0.  0.
        -12    1    1    2    0    0  0.40054040846E+02 -0.71833648366E+01 -0.19318037270E+02  0.45045682173E+02  0.00000000000E+00 0.  1.
         11    1    3    3    0    0 -0.27546688390E+02  0.57152699131E+01  0.14507150189E+02  0.31653463607E+02  0.51100000000E-03 0. -1.
        -11    1    3    3    0    0 -0.92484429464E+01  0.33311751597E+01  0.27548469498E+01  0.10208800461E+02  0.51100000000E-03 0.  1.
        -12    1    3    3    0    0 -0.32589095091E+01 -0.18630802362E+01  0.20560401313E+01  0.42800537585E+01  0.00000000000E+00 0.  1.
</event>
<event>
 7    1  0.3981356E-008  0.4614232E+02  0.7816164E-02  0.1320468E+00
        -11   -1    0    0    0    0  0.00000000000E+00  0.00000000000E+00  0.45593999997E+02  0.45594000000E+02  0.51100000000E-03 0.  1.
         11   -1    0    0    0    0 -0.00000000000E+00 -0.00000000000E+00 -0.45593999997E+02  0.45594000000E+02  0.51100000000E-03 0. -1.
    9900012    2    1    2    0    0 -0.55665921439E+01  0.11564132175E+02 -0.43178668872E+02  0.46142317115E+02  0.99999941040E+01 0.  0.
        -12    1    1    2    0    0  0.55665921439E+01 -0.11564132175E+02  0.43178668872E+02  0.45045682885E+02  0.00000000000E+00 0.  1.
         11    1    3    3    0    0 -0.87688150742E+00 -0.48785674213E+00 -0.84285259331E+00  0.13104679065E+01  0.51100000000E-03 0. -1.
        -11    1    3    3    0    0  0.13814537984E+01  0.25132046714E+01 -0.44442101567E+01  0.52891980957E+01  0.51100000000E-03 0.  1.
         12    1    3    3    0    0 -0.60711644349E+01  0.95387842460E+01 -0.37891606122E+02  0.39542651112E+02  0.00000000000E+00 0. -1.
</event>
<event>
 7    1  0.3981356E-008  0.4614232E+02  0.7816164E-02  0.1320468E+00
        -11   -1    0    0    0    0  0.00000000000E+00  0.00000000000E+00  0.45593999997E+02  0.45594000000E+02  0.51100000000E-03 0.  1.
         11   -1    0    0    0    0 -0.00000000000E+00 -0.00000000000E+00 -0.45593999997E+02  0.45594000000E+02  0.51100000000E-03 0. -1.
    9900012    2    1    2    0    0 -0.27584895777E+02 -0.14039928917E+02 -0.32727166431E+02  0.46142317614E+02  0.99999986543E+01 0.  0.
        -12    1    1    2    0    0  0.27584895777E+02  0.14039928917E+02  0.32727166431E+02  0.45045682386E+02  0.00000000000E+00 0.  1.
         11    1    3    3    0    0 -0.70275774472E+01 -0.30995931726E+01 -0.68410506424E+01  0.10285635457E+02  0.51100000000E-03 0. -1.
        -11    1    3    3    0    0 -0.12074164430E+02 -0.76685489181E+01 -0.21342716027E+02  0.25692481719E+02  0.51100000000E-03 0.  1.
        -12    1    3    3    0    0 -0.84831539006E+01 -0.32717868259E+01 -0.45433997617E+01  0.10164200437E+02  0.00000000000E+00 0.  1.
</event>
<event>
 7    1  0.3981356E-008  0.4614232E+02  0.7816164E-02  0.1320468E+00
        -11   -1    0    0    0    0  0.00000000000E+00  0.00000000000E+00  0.45593999997E+02  0.45594000000E+02  0.51100000000E-03 0.  1.
         11   -1    0    0    0    0 -0.00000000000E+00 -0.00000000000E+00 -0.45593999997E+02  0.45594000000E+02  0.51100000000E-03 0. -1.
    9900012    2    1    2    0    0  0.24135476764E+01 -0.44448430088E+02 -0.69011148370E+01  0.46142317236E+02  0.99999952161E+01 0.  0.
        -12    1    1    2    0    0 -0.24135476764E+01  0.44448430088E+02  0.69011148370E+01  0.45045682764E+02  0.00000000000E+00 0.  1.
         11    1    3    3    0    0  0.25435683745E+01 -0.18516820271E+02 -0.55387829037E+01  0.19494114223E+02  0.51100000000E-03 0. -1.
        -11    1    3    3    0    0  0.21862048168E+01 -0.14291871140E+02 -0.26899463125E+01  0.14706219216E+02  0.51100000000E-03 0.  1.
        -12    1    3    3    0    0 -0.23162255150E+01 -0.11639738677E+02  0.13276143792E+01  0.11941983798E+02  0.00000000000E+00 0.  1.
</event>
<event>
 7    1  0.3981356E-008  0.4614232E+02  0.7816164E-02  0.1320468E+00
        -11   -1    0    0    0    0  0.00000000000E+00  0.00000000000E+00  0.45593999997E+02  0.45594000000E+02  0.51100000000E-03 0. -1.
         11   -1    0    0    0    0 -0.00000000000E+00 -0.00000000000E+00 -0.45593999997E+02  0.45594000000E+02  0.51100000000E-03 0.  1.
    9900012    2    1    2    0    0  0.18874459225E+02 -0.27201195442E+02  0.30544445178E+02  0.46142319011E+02  0.10000011398E+02 0.  0.
        -12    1    1    2    0    0 -0.18874459225E+02  0.27201195442E+02 -0.30544445178E+02  0.45045680989E+02  0.00000000000E+00 0.  1.
         11    1    3    3    0    0  0.10369900732E+02 -0.12192147826E+02  0.18750919855E+02  0.24653200714E+02  0.51100000000E-03 0. -1.
        -11    1    3    3    0    0 -0.22471491098E-02  0.16898580366E+00  0.99917294042E+00  0.10133647307E+01  0.51100000000E-03 0.  1.
        -12    1    3    3    0    0  0.85068056427E+01 -0.15178033420E+02  0.10794352383E+02  0.20475753566E+02  0.00000000000E+00 0.  1.
</event>
<event>
 7    1  0.3981356E-008  0.4614232E+02  0.7816164E-02  0.1320468E+00
        -11   -1    0    0    0    0  0.00000000000E+00  0.00000000000E+00  0.45593999997E+02  0.45594000000E+02  0.51100000000E-03 0. -1.
         11   -1    0    0    0    0 -0.00000000000E+00 -0.00000000000E+00 -0.45593999997E+02  0.45594000000E+02  0.51100000000E-03 0.  1.
    9900012    2    1    2    0    0 -0.39021031098E+02  0.11299907501E+02  0.19462393423E+02  0.46142317241E+02  0.99999952593E+01 0.  0.
        -12    1    1    2    0    0  0.39021031098E+02 -0.11299907501E+02 -0.19462393423E+02  0.45045682759E+02  0.00000000000E+00 0.  1.
         11    1    3    3    0    0 -0.37408129029E+01 -0.19819248641E-02  0.34463808230E+01  0.50863765237E+01  0.51100000000E-03 0. -1.
        -11    1    3    3    0    0 -0.34321783448E+02  0.94752694613E+01  0.15886573081E+02  0.38989085075E+02  0.51100000000E-03 0.  1.
        -12    1    3    3    0    0 -0.95843474637E+00  0.18266199650E+01  0.12943951896E+00  0.20668556430E+01  0.00000000000E+00 0.  1.
</event>
<event>
 7    1  0.3981356E-008  0.4614232E+02  0.7816164E-02  0.1320468E+00
        -11   -1    0    0    0    0  0.00000000000E+00  0.00000000000E+00  0.45593999997E+02  0.45594000000E+02  0.51100000000E-03 0. -1.
         11   -1    0    0    0    0 -0.00000000000E+00 -0.00000000000E+00 -0.45593999997E+02  0.45594000000E+02  0.51100000000E-03 0.  1.
    9900012    2    1    2    0    0 -0.22193664841E+02 -0.32225633915E+02  0.22317331054E+02  0.46142317569E+02  0.99999982480E+01 0.  0.
        -12    1    1    2    0    0  0.22193664841E+02  0.32225633915E+02 -0.22317331054E+02  0.45045682431E+02  0.00000000000E+00 0.  1.
         11    1    3    3    0    0 -0.94810699217E+01 -0.97076422344E+01  0.11163165775E+02  0.17571148938E+02  0.51100000000E-03 0. -1.
        -11    1    3    3    0    0 -0.75695133090E+01 -0.13298586171E+02  0.91399044165E+01  0.17823798105E+02  0.51100000000E-03 0.  1.
        -12    1    3    3    0    0 -0.51430816106E+01 -0.92194055102E+01  0.20142608620E+01  0.10747370527E+02  0.00000000000E+00 0.  1.
</event>
<event>
 7    1  0.3981356E-008  0.4614232E+02  0.7816164E-02  0.1320468E+00
        -11   -1    0    0    0    0  0.00000000000E+00  0.00000000000E+00  0.45593999997E+02  0.45594000000E+02  0.51100000000E-03 0.  1.
         11   -1    0    0    0    0 -0.00000000000E+00 -0.00000000000E+00 -0.45593999997E+02  0.45594000000E+02  0.51100000000E-03 0. -1.
    9900012    2    1    2    0    0  0.93390656860E+01 -0.16940481620E+02 -0.40680651258E+02  0.46142318163E+02  0.10000003665E+02 0.  0.
        -12    1    1    2    0    0 -0.93390656860E+01  0.16940481620E+02  0.40680651258E+02  0.45045681837E+02  0.00000000000E+00 0.  1.
         11    1    3    3    0    0  0.21154794475E+01 -0.10563397371E+01 -0.12091265762E+02  0.12320300927E+02  0.51100000000E-03 0. -1.
        -11    1    3    3    0    0  0.27743658875E+01 -0.33307871765E+01 -0.42151237292E+01  0.60463639989E+01  0.51100000000E-03 0.  1.
         12    1    3    3    0    0  0.44492203510E+01 -0.12553354706E+02 -0.24374261767E+02  0.27775653238E+02  0.00000000000E+00 0. -1.
</event>
<event>
 7    1  0.3981356E-008  0.4614232E+02  0.7816164E-02  0.1320468E+00
        -11   -1    0    0    0    0  0.00000000000E+00  0.00000000000E+00  0.45593999997E+02  0.45594000000E+02  0.51100000000E-03 0.  1.
         11   -1    0    0    0    0 -0.00000000000E+00 -0.00000000000E+00 -0.45593999997E+02  0.45594000000E+02  0.51100000000E-03 0. -1.
    9900012    2    1    2    0    0 -0.24657564316E+02 -0.36459860590E+02 -0.95810528378E+01  0.46142317791E+02  0.10000000268E+02 0.  0.
        -12    1    1    2    0    0  0.24657564316E+02  0.36459860590E+02  0.95810528378E+01  0.45045682209E+02  0.00000000000E+00 0.  1.
         11    1    3    3    0    0 -0.21174649700E+02 -0.35006836481E+02 -0.93889296429E+01  0.41976140728E+02  0.51100000000E-03 0. -1.
        -11    1    3    3    0    0 -0.13839378558E+01  0.29423889803E+00 -0.23796288172E+00  0.14347428732E+01  0.51100000000E-03 0.  1.
         12    1    3    3    0    0 -0.20989767593E+01 -0.17472630074E+01  0.45839686731E-01  0.27314341892E+01  0.00000000000E+00 0. -1.
</event>
<event>
 7    1  0.3981356E-008  0.4614231E+02  0.7816164E-02  0.1320468E+00
        -11   -1    0    0    0    0  0.00000000000E+00  0.00000000000E+00  0.45593999997E+02  0.45594000000E+02  0.51100000000E-03 0.  1.
         11   -1    0    0    0    0 -0.00000000000E+00 -0.00000000000E+00 -0.45593999997E+02  0.45594000000E+02  0.51100000000E-03 0. -1.
    9900012    2    1    2    0    0 -0.31481131519E-01 -0.17131937112E+02 -0.41660651697E+02  0.46142310305E+02  0.99999320101E+01 0.  0.
        -12    1    1    2    0    0  0.31481131519E-01  0.17131937112E+02  0.41660651697E+02  0.45045689695E+02  0.00000000000E+00 0.  1.
         11    1    3    3    0    0 -0.85381159934E+00 -0.11267965303E+02 -0.21029220685E+02  0.23873084409E+02  0.51100000000E-03 0. -1.
        -11    1    3    3    0    0 -0.15307475876E+01 -0.29444839628E+01 -0.38911137934E+01  0.51140923729E+01  0.51100000000E-03 0.  1.
         12    1    3    3    0    0  0.23530780555E+01 -0.29194878458E+01 -0.16740317219E+02  0.17155133524E+02  0.00000000000E+00 0. -1.
</event>
<event>
 7    1  0.3981356E-008  0.4614232E+02  0.7816164E-02  0.1320468E+00
        -11   -1    0    0    0    0  0.00000000000E+00  0.00000000000E+00  0.45593999997E+02  0.45594000000E+02  0.51100000000E-03 0. -1.
         11   -1    0    0    0    0 -0.00000000000E+00 -0.00000000000E+00 -0.45593999997E+02  0.45594000000E+02  0.51100000000E-03 0.  1.
    9900012    2    1    2    0    0  0.39768631669E+02 -0.46467944107E+01 -0.20639203014E+02  0.46142318030E+02  0.10000002451E+02 0.  0.
        -12    1    1    2    0    0 -0.39768631669E+02  0.46467944107E+01  0.20639203014E+02  0.45045681970E+02  0.00000000000E+00 0.  1.
         11    1    3    3    0    0  0.26042008141E+02 -0.41718037322E+01 -0.85722519238E+01  0.27732176938E+02  0.51100000000E-03 0. -1.
        -11    1    3    3    0    0  0.78916330917E+01  0.36033310674E+00 -0.57548872752E+01  0.97737628687E+01  0.51100000000E-03 0.  1.
         12    1    3    3    0    0  0.58349904356E+01 -0.83532378523E+00 -0.63120638149E+01  0.86363782232E+01  0.00000000000E+00 0. -1.
</event>
<event>
 7    1  0.3981356E-008  0.4614232E+02  0.7816164E-02  0.1320468E+00
        -11   -1    0    0    0    0  0.00000000000E+00  0.00000000000E+00  0.45593999997E+02  0.45594000000E+02  0.51100000000E-03 0.  1.
         11   -1    0    0    0    0 -0.00000000000E+00 -0.00000000000E+00 -0.45593999997E+02  0.45594000000E+02  0.51100000000E-03 0. -1.
    9900012    2    1    2    0    0  0.23463132482E+02  0.17709750565E+02 -0.34131508550E+02  0.46142315114E+02  0.99999758598E+01 0.  0.
        -12    1    1    2    0    0 -0.23463132482E+02 -0.17709750565E+02  0.34131508550E+02  0.45045684886E+02  0.00000000000E+00 0.  1.
         11    1    3    3    0    0  0.53194387868E+01  0.32715477430E+01 -0.10297432702E+02  0.12043113142E+02  0.51100000000E-03 0.  1.
        -11    1    3    3    0    0  0.24567851468E+01  0.28093404845E+00 -0.58512910736E+01  0.63523479664E+01  0.51100000000E-03 0. -1.
         12    1    3    3    0    0  0.15686908548E+02  0.14157268774E+02 -0.17982784775E+02  0.27746854005E+02  0.00000000000E+00 0. -1.
</event>
<event>
 7    1  0.3981356E-008  0.4614232E+02  0.7816164E-02  0.1320468E+00
        -11   -1    0    0    0    0  0.00000000000E+00  0.00000000000E+00  0.45593999997E+02  0.45594000000E+02  0.51100000000E-03 0. -1.
         11   -1    0    0    0    0 -0.00000000000E+00 -0.00000000000E+00 -0.45593999997E+02  0.45594000000E+02  0.51100000000E-03 0.  1.
    9900012    2    1    2    0    0  0.43636299349E+02  0.28546144025E+01  0.10809170418E+02  0.46142316418E+02  0.99999877534E+01 0.  0.
        -12    1    1    2    0    0 -0.43636299349E+02 -0.28546144025E+01 -0.10809170418E+02  0.45045683582E+02  0.00000000000E+00 0.  1.
         11    1    3    3    0    0  0.11189771316E+02  0.30379261253E+01  0.21462560331E+01  0.11791793437E+02  0.51100000000E-03 0. -1.
        -11    1    3    3    0    0  0.27105303554E+02 -0.18560025433E+01  0.49024189736E+01  0.27607534085E+02  0.51100000000E-03 0.  1.
        -12    1    3    3    0    0  0.53412244791E+01  0.16726908205E+01  0.37604954114E+01  0.67429888964E+01  0.00000000000E+00 0.  1.
</event>
<event>
 7    1  0.3981356E-008  0.4614232E+02  0.7816164E-02  0.1320468E+00
        -11   -1    0    0    0    0  0.00000000000E+00  0.00000000000E+00  0.45593999997E+02  0.45594000000E+02  0.51100000000E-03 0.  1.
         11   -1    0    0    0    0 -0.00000000000E+00 -0.00000000000E+00 -0.45593999997E+02  0.45594000000E+02  0.51100000000E-03 0. -1.
    9900012    2    1    2    0    0 -0.17070656543E+02  0.11285474020E+02 -0.40129095477E+02  0.46142317161E+02  0.99999945252E+01 0.  0.
        -12    1    1    2    0    0  0.17070656543E+02 -0.11285474020E+02  0.40129095477E+02  0.45045682839E+02  0.00000000000E+00 0.  1.
         11    1    3    3    0    0 -0.12856275271E+02  0.54733482754E+01 -0.27282184969E+02  0.30652226219E+02  0.51100000000E-03 0. -1.
        -11    1    3    3    0    0  0.20876779222E+00  0.19759930563E+00 -0.44660180679E+01  0.44752594473E+01  0.51100000000E-03 0.  1.
        -12    1    3    3    0    0 -0.44231490637E+01  0.56145264388E+01 -0.83808924396E+01  0.11014831495E+02  0.00000000000E+00 0.  1.
</event>
<event>
 7    1  0.3981356E-008  0.4614232E+02  0.7816164E-02  0.1320468E+00
        -11   -1    0    0    0    0  0.00000000000E+00  0.00000000000E+00  0.45593999997E+02  0.45594000000E+02  0.51100000000E-03 0.  1.
         11   -1    0    0    0    0 -0.00000000000E+00 -0.00000000000E+00 -0.45593999997E+02  0.45594000000E+02  0.51100000000E-03 0. -1.
    9900012    2    1    2    0    0  0.28095734714E+02 -0.20452109275E+02 -0.28661026773E+02  0.46142317204E+02  0.99999949161E+01 0.  0.
        -12    1    1    2    0    0 -0.28095734714E+02  0.20452109275E+02  0.28661026773E+02  0.45045682796E+02  0.00000000000E+00 0.  1.
         11    1    3    3    0    0  0.22094501606E+02 -0.16839407669E+02 -0.23746232636E+02  0.36546083464E+02  0.51100000000E-03 0. -1.
        -11    1    3    3    0    0  0.38296366818E+01  0.72516964207E-01 -0.31877298491E+01  0.49832717844E+01  0.51100000000E-03 0.  1.
        -12    1    3    3    0    0  0.21715964259E+01 -0.36852185706E+01 -0.17270642877E+01  0.46129619556E+01  0.00000000000E+00 0.  1.
</event>
<event>
 7    1  0.3981356E-008  0.4614232E+02  0.7816164E-02  0.1320468E+00
        -11   -1    0    0    0    0  0.00000000000E+00  0.00000000000E+00  0.45593999997E+02  0.45594000000E+02  0.51100000000E-03 0.  1.
         11   -1    0    0    0    0 -0.00000000000E+00 -0.00000000000E+00 -0.45593999997E+02  0.45594000000E+02  0.51100000000E-03 0. -1.
    9900012    2    1    2    0    0  0.32963335659E+02  0.26180149438E+02 -0.16035329854E+02  0.46142317344E+02  0.99999961981E+01 0.  0.
        -12    1    1    2    0    0 -0.32963335659E+02 -0.26180149438E+02  0.16035329854E+02  0.45045682656E+02  0.00000000000E+00 0.  1.
         11    1    3    3    0    0  0.13731376609E+02  0.12272505076E+02 -0.53002715906E+01  0.19163975674E+02  0.51100000000E-03 0. -1.
        -11    1    3    3    0    0  0.76292835431E+01  0.29296424671E+01 -0.65304875327E+01  0.10461168197E+02  0.51100000000E-03 0.  1.
        -12    1    3    3    0    0  0.11602675507E+02  0.10978001896E+02 -0.42045707307E+01  0.16517173474E+02  0.00000000000E+00 0.  1.
</event>
<event>
 7    1  0.3981356E-008  0.4614232E+02  0.7816164E-02  0.1320468E+00
        -11   -1    0    0    0    0  0.00000000000E+00  0.00000000000E+00  0.45593999997E+02  0.45594000000E+02  0.51100000000E-03 0.  1.
         11   -1    0    0    0    0 -0.00000000000E+00 -0.00000000000E+00 -0.45593999997E+02  0.45594000000E+02  0.51100000000E-03 0. -1.
    9900012    2    1    2    0    0  0.11659262764E+02  0.42935338862E+02 -0.70520725107E+01  0.46142318097E+02  0.10000003062E+02 0.  0.
        -12    1    1    2    0    0 -0.11659262764E+02 -0.42935338862E+02  0.70520725107E+01  0.45045681903E+02  0.00000000000E+00 0.  1.
         11    1    3    3    0    0  0.68368040046E+01  0.29187389464E+02 -0.72113528193E+01  0.30832599671E+02  0.51100000000E-03 0. -1.
        -11    1    3    3    0    0  0.54910225619E+01  0.95009889859E+01  0.58656750502E+00  0.10989275781E+02  0.51100000000E-03 0.  1.
         12    1    3    3    0    0 -0.66856380290E+00  0.42469604120E+01 -0.42728719642E+00  0.43204426449E+01  0.00000000000E+00 0. -1.
</event>
<event>
 7    1  0.3981356E-008  0.4614232E+02  0.7816164E-02  0.1320468E+00
        -11   -1    0    0    0    0  0.00000000000E+00  0.00000000000E+00  0.45593999997E+02  0.45594000000E+02  0.51100000000E-03 0.  1.
         11   -1    0    0    0    0 -0.00000000000E+00 -0.00000000000E+00 -0.45593999997E+02  0.45594000000E+02  0.51100000000E-03 0. -1.
    9900012    2    1    2    0    0 -0.43989307554E+01  0.64087671673E+01 -0.44369929150E+02  0.46142317619E+02  0.99999987049E+01 0.  0.
        -12    1    1    2    0    0  0.43989307554E+01 -0.64087671673E+01  0.44369929150E+02  0.45045682381E+02  0.00000000000E+00 0.  1.
         11    1    3    3    0    0  0.15029732759E+01  0.30033022847E+01 -0.18559293188E+02  0.18860702987E+02  0.51100000000E-03 0. -1.
        -11    1    3    3    0    0  0.94277843249E+00  0.80739585045E+00 -0.67524719596E+01  0.68656097368E+01  0.51100000000E-03 0.  1.
         12    1    3    3    0    0 -0.68446824638E+01  0.25980690321E+01 -0.19058164003E+02  0.20416004895E+02  0.00000000000E+00 0. -1.
</event>
<event>
 7    1  0.3981356E-008  0.4614232E+02  0.7816164E-02  0.1320468E+00
        -11   -1    0    0    0    0  0.00000000000E+00  0.00000000000E+00  0.45593999997E+02  0.45594000000E+02  0.51100000000E-03 0.  1.
         11   -1    0    0    0    0 -0.00000000000E+00 -0.00000000000E+00 -0.45593999997E+02  0.45594000000E+02  0.51100000000E-03 0. -1.
    9900012    2    1    2    0    0  0.13104574160E+02 -0.11809175896E+02 -0.41447882428E+02  0.46142318109E+02  0.10000003177E+02 0.  0.
        -12    1    1    2    0    0 -0.13104574160E+02  0.11809175896E+02  0.41447882428E+02  0.45045681891E+02  0.00000000000E+00 0.  1.
         11    1    3    3    0    0  0.11971662096E+02 -0.59110173175E+01 -0.29529972465E+02  0.32408025135E+02  0.51100000000E-03 0. -1.
        -11    1    3    3    0    0 -0.50711392291E+00  0.11047097110E+00 -0.46272629339E+00  0.69533031717E+00  0.51100000000E-03 0.  1.
         12    1    3    3    0    0  0.16400259868E+01 -0.60086295493E+01 -0.11455183669E+02  0.13038962658E+02  0.00000000000E+00 0. -1.
</event>
<event>
 7    1  0.3981356E-008  0.4614232E+02  0.7816164E-02  0.1320468E+00
        -11   -1    0    0    0    0  0.00000000000E+00  0.00000000000E+00  0.45593999997E+02  0.45594000000E+02  0.51100000000E-03 0.  1.
         11   -1    0    0    0    0 -0.00000000000E+00 -0.00000000000E+00 -0.45593999997E+02  0.45594000000E+02  0.51100000000E-03 0. -1.
    9900012    2    1    2    0    0  0.36926074735E+02  0.22354540347E+02 -0.12878392682E+02  0.46142317992E+02  0.10000002109E+02 0.  0.
        -12    1    1    2    0    0 -0.36926074735E+02 -0.22354540347E+02  0.12878392682E+02  0.45045682008E+02  0.00000000000E+00 0.  1.
         11    1    3    3    0    0  0.66663940599E+01  0.41989679962E+01 -0.46376441290E+01  0.91422035267E+01  0.51100000000E-03 0.  1.
        -11    1    3    3    0    0 -0.22436729146E+00  0.37472968449E-01 -0.71256560045E+00  0.74799391769E+00  0.51100000000E-03 0. -1.
        -12    1    3    3    0    0  0.30484047967E+02  0.18118099382E+02 -0.75281829523E+01  0.36252120548E+02  0.00000000000E+00 0.  1.
</event>
<event>
 7    1  0.3981356E-008  0.4614232E+02  0.7816164E-02  0.1320468E+00
        -11   -1    0    0    0    0  0.00000000000E+00  0.00000000000E+00  0.45593999997E+02  0.45594000000E+02  0.51100000000E-03 0.  1.
         11   -1    0    0    0    0 -0.00000000000E+00 -0.00000000000E+00 -0.45593999997E+02  0.45594000000E+02  0.51100000000E-03 0. -1.
    9900012    2    1    2    0    0 -0.13784267566E+02 -0.40613128011E+02 -0.13772482017E+02  0.46142318075E+02  0.10000002866E+02 0.  0.
        -12    1    1    2    0    0  0.13784267566E+02  0.40613128011E+02  0.13772482017E+02  0.45045681925E+02  0.00000000000E+00 0.  1.
         11    1    3    3    0    0 -0.32885086089E+01 -0.88469226300E+01 -0.11413636878E+01  0.95071047233E+01  0.51100000000E-03 0. -1.
        -11    1    3    3    0    0 -0.78614505217E+01 -0.26666835462E+02 -0.71666337621E+01  0.28710331897E+02  0.51100000000E-03 0.  1.
        -12    1    3    3    0    0 -0.26343084352E+01 -0.50993699187E+01 -0.54644845672E+01  0.79248814555E+01  0.00000000000E+00 0.  1.
</event>
<event>
 7    1  0.3981356E-008  0.4614232E+02  0.7816164E-02  0.1320468E+00
        -11   -1    0    0    0    0  0.00000000000E+00  0.00000000000E+00  0.45593999997E+02  0.45594000000E+02  0.51100000000E-03 0.  1.
         11   -1    0    0    0    0 -0.00000000000E+00 -0.00000000000E+00 -0.45593999997E+02  0.45594000000E+02  0.51100000000E-03 0. -1.
    9900012    2    1    2    0    0 -0.13505536715E+02  0.25046114971E+02 -0.34919995513E+02  0.46142317812E+02  0.10000000468E+02 0.  0.
        -12    1    1    2    0    0  0.13505536715E+02 -0.25046114971E+02  0.34919995513E+02  0.45045682188E+02  0.00000000000E+00 0.  1.
         11    1    3    3    0    0 -0.25435908739E+01  0.34310697340E+01 -0.98328888128E+00  0.43828017681E+01  0.51100000000E-03 0. -1.
        -11    1    3    3    0    0 -0.72536295478E-01  0.93754874390E+00 -0.98195918785E+00  0.13595967303E+01  0.51100000000E-03 0.  1.
         12    1    3    3    0    0 -0.10889409546E+02  0.20677496493E+02 -0.32954747444E+02  0.40399919314E+02  0.00000000000E+00 0. -1.
</event>
<event>
 7    1  0.3981356E-008  0.4614232E+02  0.7816164E-02  0.1320468E+00
        -11   -1    0    0    0    0  0.00000000000E+00  0.00000000000E+00  0.45593999997E+02  0.45594000000E+02  0.51100000000E-03 0. -1.
         11   -1    0    0    0    0 -0.00000000000E+00 -0.00000000000E+00 -0.45593999997E+02  0.45594000000E+02  0.51100000000E-03 0.  1.
    9900012    2    1    2    0    0  0.25058789792E+02  0.42781385845E+01  0.37186934489E+02  0.46142317496E+02  0.99999975851E+01 0.  0.
        -12    1    1    2    0    0 -0.25058789792E+02 -0.42781385845E+01 -0.37186934489E+02  0.45045682504E+02  0.00000000000E+00 0.  1.
         11    1    3    3    0    0  0.39472634359E+01 -0.21418821255E+01  0.10474230015E+02  0.11396404799E+02  0.51100000000E-03 0. -1.
        -11    1    3    3    0    0  0.74021658139E+00  0.78319191632E+00  0.14622716010E+01  0.18164659813E+01  0.51100000000E-03 0.  1.
         12    1    3    3    0    0  0.20371309774E+02  0.56368287937E+01  0.25250432872E+02  0.32929446716E+02  0.00000000000E+00 0. -1.
</event>
<event>
 7    1  0.3981356E-008  0.4614232E+02  0.7816164E-02  0.1320468E+00
        -11   -1    0    0    0    0  0.00000000000E+00  0.00000000000E+00  0.45593999997E+02  0.45594000000E+02  0.51100000000E-03 0. -1.
         11   -1    0    0    0    0 -0.00000000000E+00 -0.00000000000E+00 -0.45593999997E+02  0.45594000000E+02  0.51100000000E-03 0.  1.
    9900012    2    1    2    0    0 -0.13106031042E+02  0.43031219840E+02  0.23789851497E+01  0.46142317621E+02  0.99999987247E+01 0.  0.
        -12    1    1    2    0    0  0.13106031042E+02 -0.43031219840E+02 -0.23789851497E+01  0.45045682379E+02  0.00000000000E+00 0.  1.
         11    1    3    3    0    0 -0.54097861052E+01  0.22122918748E+02  0.48002877713E+01  0.23275138723E+02  0.51100000000E-03 0. -1.
        -11    1    3    3    0    0  0.44120209660E+00  0.38919490910E+00  0.23626076864E+00  0.63399635585E+00  0.51100000000E-03 0.  1.
        -12    1    3    3    0    0 -0.81374470336E+01  0.20519106184E+02 -0.26575633903E+01  0.22233182543E+02  0.00000000000E+00 0.  1.
</event>
<event>
 7    1  0.3981356E-008  0.4614231E+02  0.7816164E-02  0.1320468E+00
        -11   -1    0    0    0    0  0.00000000000E+00  0.00000000000E+00  0.45593999997E+02  0.45594000000E+02  0.51100000000E-03 0. -1.
         11   -1    0    0    0    0 -0.00000000000E+00 -0.00000000000E+00 -0.45593999997E+02  0.45594000000E+02  0.51100000000E-03 0.  1.
    9900012    2    1    2    0    0 -0.35371978777E+02  0.23933856094E+02  0.14321588330E+02  0.46142309392E+02  0.99999236793E+01 0.  0.
        -12    1    1    2    0    0  0.35371978777E+02 -0.23933856094E+02 -0.14321588330E+02  0.45045690608E+02  0.00000000000E+00 0.  1.
         11    1    3    3    0    0 -0.15906533080E+01  0.24153250682E+01  0.63402740566E+00  0.29607370946E+01  0.51100000000E-03 0. -1.
        -11    1    3    3    0    0 -0.14564358967E+02  0.14316352145E+02  0.63481398988E+01  0.21386382847E+02  0.51100000000E-03 0.  1.
         12    1    3    3    0    0 -0.19216966501E+02  0.72021788810E+01  0.73394210255E+01  0.21795189450E+02  0.00000000000E+00 0. -1.
</event>
<event>
 7    1  0.3981356E-008  0.4614232E+02  0.7816164E-02  0.1320468E+00
        -11   -1    0    0    0    0  0.00000000000E+00  0.00000000000E+00  0.45593999997E+02  0.45594000000E+02  0.51100000000E-03 0.  1.
         11   -1    0    0    0    0 -0.00000000000E+00 -0.00000000000E+00 -0.45593999997E+02  0.45594000000E+02  0.51100000000E-03 0. -1.
    9900012    2    1    2    0    0 -0.14491936006E+02 -0.22150042038E+02 -0.36448223023E+02  0.46142317266E+02  0.99999954810E+01 0.  0.
        -12    1    1    2    0    0  0.14491936006E+02  0.22150042038E+02  0.36448223023E+02  0.45045682734E+02  0.00000000000E+00 0.  1.
         11    1    3    3    0    0 -0.70591328364E+01 -0.91902055921E+01 -0.10515579150E+02  0.15648279150E+02  0.51100000000E-03 0. -1.
        -11    1    3    3    0    0  0.43399512770E+00 -0.11678166725E+01 -0.43251300218E+00  0.13187931262E+01  0.51100000000E-03 0.  1.
         12    1    3    3    0    0 -0.78667982972E+01 -0.11792019773E+02 -0.25500130870E+02  0.29175244989E+02  0.00000000000E+00 0. -1.
</event>
<event>
 7    1  0.3981356E-008  0.4614232E+02  0.7816164E-02  0.1320468E+00
        -11   -1    0    0    0    0  0.00000000000E+00  0.00000000000E+00  0.45593999997E+02  0.45594000000E+02  0.51100000000E-03 0.  1.
         11   -1    0    0    0    0 -0.00000000000E+00 -0.00000000000E+00 -0.45593999997E+02  0.45594000000E+02  0.51100000000E-03 0. -1.
    9900012    2    1    2    0    0 -0.26305258425E+02 -0.22596801347E+02 -0.28749459965E+02  0.46142317630E+02  0.99999988034E+01 0.  0.
        -12    1    1    2    0    0  0.26305258425E+02  0.22596801347E+02  0.28749459965E+02  0.45045682370E+02  0.00000000000E+00 0.  1.
         11    1    3    3    0    0 -0.40344443785E+01 -0.26309926778E+01 -0.29586039255E+01  0.56526278281E+01  0.51100000000E-03 0. -1.
        -11    1    3    3    0    0 -0.35758806707E+01 -0.74265236364E+01 -0.40089158085E+01  0.91657832242E+01  0.51100000000E-03 0.  1.
         12    1    3    3    0    0 -0.18694933375E+02 -0.12539285033E+02 -0.21781940231E+02  0.31323906578E+02  0.00000000000E+00 0. -1.
</event>
<event>
 7    1  0.3981356E-008  0.4614232E+02  0.7816164E-02  0.1320468E+00
        -11   -1    0    0    0    0  0.00000000000E+00  0.00000000000E+00  0.45593999997E+02  0.45594000000E+02  0.51100000000E-03 0. -1.
         11   -1    0    0    0    0 -0.00000000000E+00 -0.00000000000E+00 -0.45593999997E+02  0.45594000000E+02  0.51100000000E-03 0.  1.
    9900012    2    1    2    0    0  0.31484625240E+02  0.59108812372E+01  0.31668492014E+02  0.46142317299E+02  0.99999957888E+01 0.  0.
        -12    1    1    2    0    0 -0.31484625240E+02 -0.59108812372E+01 -0.31668492014E+02  0.45045682701E+02  0.00000000000E+00 0.  1.
         11    1    3    3    0    0  0.77896713031E+01  0.27834275857E+01  0.83929920567E+01  0.11784259165E+02  0.51100000000E-03 0. -1.
        -11    1    3    3    0    0  0.27688683949E+01  0.23775597788E+01  0.67867812369E+01  0.77058304230E+01  0.51100000000E-03 0.  1.
         12    1    3    3    0    0  0.20926085542E+02  0.74989387261E+00  0.16488718721E+02  0.26652227712E+02  0.00000000000E+00 0. -1.
</event>
<event>
 7    1  0.3981356E-008  0.4614232E+02  0.7816164E-02  0.1320468E+00
        -11   -1    0    0    0    0  0.00000000000E+00  0.00000000000E+00  0.45593999997E+02  0.45594000000E+02  0.51100000000E-03 0. -1.
         11   -1    0    0    0    0 -0.00000000000E+00 -0.00000000000E+00 -0.45593999997E+02  0.45594000000E+02  0.51100000000E-03 0.  1.
    9900012    2    1    2    0    0 -0.31341482228E+02  0.24233902513E+02  0.21436953830E+02  0.46142317313E+02  0.99999959102E+01 0.  0.
        -12    1    1    2    0    0  0.31341482228E+02 -0.24233902513E+02 -0.21436953830E+02  0.45045682687E+02  0.00000000000E+00 0.  1.
         11    1    3    3    0    0 -0.95546062839E+01  0.11043952443E+02  0.10741707984E+02  0.18128532138E+02  0.51100000000E-03 0. -1.
        -11    1    3    3    0    0 -0.41708119945E+00  0.14082496123E+01  0.87446111874E+00  0.17093291687E+01  0.51100000000E-03 0.  1.
         12    1    3    3    0    0 -0.21369794745E+02  0.11781700457E+02  0.98207847272E+01  0.26304456006E+02  0.00000000000E+00 0. -1.
</event>
<event>
 7    1  0.3981356E-008  0.4614232E+02  0.7816164E-02  0.1320468E+00
        -11   -1    0    0    0    0  0.00000000000E+00  0.00000000000E+00  0.45593999997E+02  0.45594000000E+02  0.51100000000E-03 0.  1.
         11   -1    0    0    0    0 -0.00000000000E+00 -0.00000000000E+00 -0.45593999997E+02  0.45594000000E+02  0.51100000000E-03 0. -1.
    9900012    2    1    2    0    0  0.28303561090E+02 -0.97538505483E+01 -0.33658345642E+02  0.46142318717E+02  0.10000008715E+02 0.  0.
        -12    1    1    2    0    0 -0.28303561090E+02  0.97538505483E+01  0.33658345642E+02  0.45045681283E+02  0.00000000000E+00 0.  1.
         11    1    3    3    0    0  0.14526994517E+02 -0.33525946900E+01 -0.15559445788E+02  0.21549241619E+02  0.51100000000E-03 0. -1.
        -11    1    3    3    0    0  0.13131567921E+02 -0.45603976465E+01 -0.12611350490E+02  0.18769162587E+02  0.51100000000E-03 0.  1.
        -12    1    3    3    0    0  0.64499865227E+00 -0.18408582118E+01 -0.54875493633E+01  0.58239145110E+01  0.00000000000E+00 0.  1.
</event>
<event>
 7    1  0.3981356E-008  0.4614232E+02  0.7816164E-02  0.1320468E+00
        -11   -1    0    0    0    0  0.00000000000E+00  0.00000000000E+00  0.45593999997E+02  0.45594000000E+02  0.51100000000E-03 0. -1.
         11   -1    0    0    0    0 -0.00000000000E+00 -0.00000000000E+00 -0.45593999997E+02  0.45594000000E+02  0.51100000000E-03 0.  1.
    9900012    2    1    2    0    0  0.23663664744E+02 -0.63890354549E+01  0.37793183294E+02  0.46142317558E+02  0.99999981480E+01 0.  0.
        -12    1    1    2    0    0 -0.23663664744E+02  0.63890354549E+01 -0.37793183294E+02  0.45045682442E+02  0.00000000000E+00 0.  1.
         11    1    3    3    0    0  0.87154263434E+01 -0.41808399620E+01  0.17671282471E+02  0.20142301347E+02  0.51100000000E-03 0. -1.
        -11    1    3    3    0    0  0.77568109730E+01  0.14695903347E+01  0.13110932273E+02  0.15304390140E+02  0.51100000000E-03 0.  1.
        -12    1    3    3    0    0  0.71914274275E+01 -0.36777858275E+01  0.70109685504E+01  0.10695626071E+02  0.00000000000E+00 0.  1.
</event>
<event>
 7    1  0.3981356E-008  0.4614232E+02  0.7816164E-02  0.1320468E+00
        -11   -1    0    0    0    0  0.00000000000E+00  0.00000000000E+00  0.45593999997E+02  0.45594000000E+02  0.51100000000E-03 0.  1.
         11   -1    0    0    0    0 -0.00000000000E+00 -0.00000000000E+00 -0.45593999997E+02  0.45594000000E+02  0.51100000000E-03 0. -1.
    9900012    2    1    2    0    0  0.18737331194E+02 -0.12329416942E+02 -0.39064196113E+02  0.46142317406E+02  0.99999967637E+01 0.  0.
        -12    1    1    2    0    0 -0.18737331194E+02  0.12329416942E+02  0.39064196113E+02  0.45045682594E+02  0.00000000000E+00 0.  1.
         11    1    3    3    0    0  0.34899684096E+01 -0.59830714691E+01 -0.14282983939E+02  0.15873898518E+02  0.51100000000E-03 0. -1.
        -11    1    3    3    0    0  0.66137904622E+00  0.88073419177E+00 -0.15177804913E+01  0.18753060658E+01  0.51100000000E-03 0.  1.
         12    1    3    3    0    0  0.14585983739E+02 -0.72270796646E+01 -0.23263431683E+02  0.28393112823E+02  0.00000000000E+00 0. -1.
</event>
<event>
 7    1  0.3981356E-008  0.4614232E+02  0.7816164E-02  0.1320468E+00
        -11   -1    0    0    0    0  0.00000000000E+00  0.00000000000E+00  0.45593999997E+02  0.45594000000E+02  0.51100000000E-03 0.  1.
         11   -1    0    0    0    0 -0.00000000000E+00 -0.00000000000E+00 -0.45593999997E+02  0.45594000000E+02  0.51100000000E-03 0. -1.
    9900012    2    1    2    0    0 -0.23466628828E+02 -0.37029487105E+02 -0.10356055370E+02  0.46142318002E+02  0.10000002198E+02 0.  0.
        -12    1    1    2    0    0  0.23466628828E+02  0.37029487105E+02  0.10356055370E+02  0.45045681998E+02  0.00000000000E+00 0.  1.
         11    1    3    3    0    0 -0.67351585707E+01 -0.64565088475E+01 -0.18828448272E+01  0.95180865921E+01  0.51100000000E-03 0. -1.
        -11    1    3    3    0    0 -0.18958904953E+01 -0.30358551838E+00 -0.39347384988E+00  0.19599456290E+01  0.51100000000E-03 0.  1.
        -12    1    3    3    0    0 -0.14835579762E+02 -0.30269392739E+02 -0.80797366930E+01  0.34664285781E+02  0.00000000000E+00 0.  1.
</event>
<event>
 7    1  0.3981356E-008  0.4614232E+02  0.7816164E-02  0.1320468E+00
        -11   -1    0    0    0    0  0.00000000000E+00  0.00000000000E+00  0.45593999997E+02  0.45594000000E+02  0.51100000000E-03 0.  1.
         11   -1    0    0    0    0 -0.00000000000E+00 -0.00000000000E+00 -0.45593999997E+02  0.45594000000E+02  0.51100000000E-03 0. -1.
    9900012    2    1    2    0    0 -0.13962435318E+01  0.36070242669E+01 -0.44879320684E+02  0.46142317131E+02  0.99999942543E+01 0.  0.
        -12    1    1    2    0    0  0.13962435318E+01 -0.36070242669E+01  0.44879320684E+02  0.45045682869E+02  0.00000000000E+00 0.  1.
         11    1    3    3    0    0 -0.21618516560E+01  0.11249862313E+01 -0.17474062534E+02  0.17643187305E+02  0.51100000000E-03 0. -1.
        -11    1    3    3    0    0 -0.17274557956E+01 -0.18272228470E+01 -0.13435564826E+02  0.13668842282E+02  0.51100000000E-03 0.  1.
         12    1    3    3    0    0  0.24930639199E+01  0.43092608826E+01 -0.13969693324E+02  0.14830287544E+02  0.00000000000E+00 0. -1.
</event>
<event>
 7    1  0.3981356E-008  0.4614232E+02  0.7816164E-02  0.1320468E+00
        -11   -1    0    0    0    0  0.00000000000E+00  0.00000000000E+00  0.45593999997E+02  0.45594000000E+02  0.51100000000E-03 0.  1.
         11   -1    0    0    0    0 -0.00000000000E+00 -0.00000000000E+00 -0.45593999997E+02  0.45594000000E+02  0.51100000000E-03 0. -1.
    9900012    2    1    2    0    0  0.19579938477E+02 -0.35664305597E+02 -0.19333827265E+02  0.46142316953E+02  0.99999926324E+01 0.  0.
        -12    1    1    2    0    0 -0.19579938477E+02  0.35664305597E+02  0.19333827265E+02  0.45045683047E+02  0.00000000000E+00 0.  1.
         11    1    3    3    0    0  0.10315108106E+02 -0.15446168601E+02 -0.72782242444E+01  0.19948887891E+02  0.51100000000E-03 0. -1.
        -11    1    3    3    0    0  0.96946740202E+00 -0.40656107238E+01 -0.54565869804E+01  0.68733833980E+01  0.51100000000E-03 0.  1.
        -12    1    3    3    0    0  0.82953629689E+01 -0.16152526272E+02 -0.65990160397E+01  0.19320045664E+02  0.00000000000E+00 0.  1.
</event>
<event>
 7    1  0.3981356E-008  0.4614232E+02  0.7816164E-02  0.1320468E+00
        -11   -1    0    0    0    0  0.00000000000E+00  0.00000000000E+00  0.45593999997E+02  0.45594000000E+02  0.51100000000E-03 0. -1.
         11   -1    0    0    0    0 -0.00000000000E+00 -0.00000000000E+00 -0.45593999997E+02  0.45594000000E+02  0.51100000000E-03 0.  1.
    9900012    2    1    2    0    0 -0.32630718126E+02 -0.20729901153E+02  0.23121870641E+02  0.46142317974E+02  0.10000001943E+02 0.  0.
        -12    1    1    2    0    0  0.32630718126E+02  0.20729901153E+02 -0.23121870641E+02  0.45045682026E+02  0.00000000000E+00 0.  1.
         11    1    3    3    0    0 -0.70389631204E+01 -0.45227790099E+01  0.20988603323E+01  0.86259925075E+01  0.51100000000E-03 0. -1.
        -11    1    3    3    0    0 -0.10685141111E+02 -0.29626713051E+01  0.84763419165E+01  0.13957006641E+02  0.51100000000E-03 0.  1.
         12    1    3    3    0    0 -0.14906613895E+02 -0.13244450838E+02  0.12546668392E+02  0.23559318826E+02  0.00000000000E+00 0. -1.
</event>
<event>
 7    1  0.3981356E-008  0.4614232E+02  0.7816164E-02  0.1320468E+00
        -11   -1    0    0    0    0  0.00000000000E+00  0.00000000000E+00  0.45593999997E+02  0.45594000000E+02  0.51100000000E-03 0.  1.
         11   -1    0    0    0    0 -0.00000000000E+00 -0.00000000000E+00 -0.45593999997E+02  0.45594000000E+02  0.51100000000E-03 0. -1.
    9900012    2    1    2    0    0  0.58011770942E+01 -0.22999051964E+02 -0.38294951803E+02  0.46142318958E+02  0.10000010915E+02 0.  0.
        -12    1    1    2    0    0 -0.58011770942E+01  0.22999051964E+02  0.38294951803E+02  0.45045681042E+02  0.00000000000E+00 0.  1.
         11    1    3    3    0    0  0.43309098099E+01 -0.74346381083E+01 -0.15722164561E+02  0.17922530020E+02  0.51100000000E-03 0. -1.
        -11    1    3    3    0    0 -0.97744985467E+00 -0.12579023240E+02 -0.19754915642E+02  0.23440220267E+02  0.51100000000E-03 0.  1.
        -12    1    3    3    0    0  0.24477171389E+01 -0.29853906157E+01 -0.28178716000E+01  0.47795686703E+01  0.00000000000E+00 0.  1.
</event>
<event>
 7    1  0.3981356E-008  0.4614232E+02  0.7816164E-02  0.1320468E+00
        -11   -1    0    0    0    0  0.00000000000E+00  0.00000000000E+00  0.45593999997E+02  0.45594000000E+02  0.51100000000E-03 0. -1.
         11   -1    0    0    0    0 -0.00000000000E+00 -0.00000000000E+00 -0.45593999997E+02  0.45594000000E+02  0.51100000000E-03 0.  1.
    9900012    2    1    2    0    0  0.56665606072E+01  0.84423730412E+01  0.43883139104E+02  0.46142317973E+02  0.10000001934E+02 0.  0.
        -12    1    1    2    0    0 -0.56665606072E+01 -0.84423730412E+01 -0.43883139104E+02  0.45045682027E+02  0.00000000000E+00 0.  1.
         11    1    3    3    0    0  0.40283526612E+01  0.78586624274E+01  0.35150022255E+02  0.36242382166E+02  0.51100000000E-03 0. -1.
        -11    1    3    3    0    0  0.10477055625E+01  0.85912178306E+00  0.23289632374E+00  0.13747793069E+01  0.51100000000E-03 0.  1.
         12    1    3    3    0    0  0.59050238346E+00 -0.27541116924E+00  0.85002205247E+01  0.85251564998E+01  0.00000000000E+00 0. -1.
</event>
<event>
 7    1  0.3981356E-008  0.4614232E+02  0.7816164E-02  0.1320468E+00
        -11   -1    0    0    0    0  0.00000000000E+00  0.00000000000E+00  0.45593999997E+02  0.45594000000E+02  0.51100000000E-03 0.  1.
         11   -1    0    0    0    0 -0.00000000000E+00 -0.00000000000E+00 -0.45593999997E+02  0.45594000000E+02  0.51100000000E-03 0. -1.
    9900012    2    1    2    0    0  0.22217102112E+02 -0.22240392026E+01 -0.39122469392E+02  0.46142316656E+02  0.99999899221E+01 0.  0.
        -12    1    1    2    0    0 -0.22217102112E+02  0.22240392026E+01  0.39122469392E+02  0.45045683344E+02  0.00000000000E+00 0.  1.
         11    1    3    3    0    0  0.16992983512E+02 -0.26750873781E+01 -0.31930305784E+02  0.36269298433E+02  0.51100000000E-03 0. -1.
        -11    1    3    3    0    0  0.48636331594E+01  0.15683508973E+01 -0.70251274231E+01  0.86871783462E+01  0.51100000000E-03 0.  1.
        -12    1    3    3    0    0  0.36048544089E+00 -0.11173027218E+01 -0.16703618419E+00  0.11858398763E+01  0.00000000000E+00 0.  1.
</event>
<event>
 7    1  0.3981356E-008  0.4614232E+02  0.7816164E-02  0.1320468E+00
        -11   -1    0    0    0    0  0.00000000000E+00  0.00000000000E+00  0.45593999997E+02  0.45594000000E+02  0.51100000000E-03 0.  1.
         11   -1    0    0    0    0 -0.00000000000E+00 -0.00000000000E+00 -0.45593999997E+02  0.45594000000E+02  0.51100000000E-03 0. -1.
    9900012    2    1    2    0    0 -0.15232410012E+02 -0.38890934069E+02 -0.16869567452E+02  0.46142319036E+02  0.10000011621E+02 0.  0.
        -12    1    1    2    0    0  0.15232410012E+02  0.38890934069E+02  0.16869567452E+02  0.45045680964E+02  0.00000000000E+00 0.  1.
         11    1    3    3    0    0 -0.17785312915E+01 -0.64845963580E+01 -0.19402431375E+01  0.69984074742E+01  0.51100000000E-03 0. -1.
        -11    1    3    3    0    0 -0.80661235115E+01 -0.20843145744E+02 -0.13958366229E+02  0.26350238349E+02  0.51100000000E-03 0.  1.
         12    1    3    3    0    0 -0.53877552088E+01 -0.11563191967E+02 -0.97095808530E+00  0.12793673213E+02  0.00000000000E+00 0. -1.
</event>
<event>
 7    1  0.3981356E-008  0.4614232E+02  0.7816164E-02  0.1320468E+00
        -11   -1    0    0    0    0  0.00000000000E+00  0.00000000000E+00  0.45593999997E+02  0.45594000000E+02  0.51100000000E-03 0. -1.
         11   -1    0    0    0    0 -0.00000000000E+00 -0.00000000000E+00 -0.45593999997E+02  0.45594000000E+02  0.51100000000E-03 0.  1.
    9900012    2    1    2    0    0  0.21025888114E+02 -0.12535903848E+02  0.37813709951E+02  0.46142317448E+02  0.99999971466E+01 0.  0.
        -12    1    1    2    0    0 -0.21025888114E+02  0.12535903848E+02 -0.37813709951E+02  0.45045682552E+02  0.00000000000E+00 0.  1.
         11    1    3    3    0    0  0.12129404659E+02 -0.10292299231E+02  0.18533369429E+02  0.24424161470E+02  0.51100000000E-03 0. -1.
        -11    1    3    3    0    0  0.28124929820E+01 -0.11048105446E+01  0.10828556068E+02  0.11242257330E+02  0.51100000000E-03 0.  1.
         12    1    3    3    0    0  0.60839904729E+01 -0.11387940725E+01  0.84517844548E+01  0.10475898648E+02  0.00000000000E+00 0. -1.
</event>
<event>
 7    1  0.3981356E-008  0.4614232E+02  0.7816164E-02  0.1320468E+00
        -11   -1    0    0    0    0  0.00000000000E+00  0.00000000000E+00  0.45593999997E+02  0.45594000000E+02  0.51100000000E-03 0. -1.
         11   -1    0    0    0    0 -0.00000000000E+00 -0.00000000000E+00 -0.45593999997E+02  0.45594000000E+02  0.51100000000E-03 0.  1.
    9900012    2    1    2    0    0  0.20974366354E+02 -0.37650956928E+02  0.13099423203E+02  0.46142317745E+02  0.99999998550E+01 0.  0.
        -12    1    1    2    0    0 -0.20974366354E+02  0.37650956928E+02 -0.13099423203E+02  0.45045682255E+02  0.00000000000E+00 0.  1.
         11    1    3    3    0    0  0.76083860890E+00 -0.74205361811E+01  0.27508254221E+01  0.79504888760E+01  0.51100000000E-03 0. -1.
        -11    1    3    3    0    0  0.27485382120E+01 -0.18125269958E+01  0.87594214872E-01  0.32935375238E+01  0.51100000000E-03 0.  1.
         12    1    3    3    0    0  0.17464989533E+02 -0.28417893751E+02  0.10261003566E+02  0.34898291345E+02  0.00000000000E+00 0. -1.
</event>
<event>
 7    1  0.3981356E-008  0.4614232E+02  0.7816164E-02  0.1320468E+00
        -11   -1    0    0    0    0  0.00000000000E+00  0.00000000000E+00  0.45593999997E+02  0.45594000000E+02  0.51100000000E-03 0. -1.
         11   -1    0    0    0    0 -0.00000000000E+00 -0.00000000000E+00 -0.45593999997E+02  0.45594000000E+02  0.51100000000E-03 0.  1.
    9900012    2    1    2    0    0 -0.22987011455E+02  0.38639308944E+02 -0.27775165235E+01  0.46142317751E+02  0.99999999036E+01 0.  0.
        -12    1    1    2    0    0  0.22987011455E+02 -0.38639308944E+02  0.27775165235E+01  0.45045682249E+02  0.00000000000E+00 0.  1.
         11    1    3    3    0    0 -0.10388385565E+02  0.12391052201E+02 -0.39529524541E+01  0.16645797147E+02  0.51100000000E-03 0. -1.
        -11    1    3    3    0    0 -0.39954918504E+01  0.73834945587E+01  0.23848971385E+01  0.87274097903E+01  0.51100000000E-03 0.  1.
         12    1    3    3    0    0 -0.86031340401E+01  0.18864762184E+02 -0.12094612079E+01  0.20769110813E+02  0.00000000000E+00 0. -1.
</event>
<event>
 7    1  0.3981356E-008  0.4614232E+02  0.7816164E-02  0.1320468E+00
        -11   -1    0    0    0    0  0.00000000000E+00  0.00000000000E+00  0.45593999997E+02  0.45594000000E+02  0.51100000000E-03 0.  1.
         11   -1    0    0    0    0 -0.00000000000E+00 -0.00000000000E+00 -0.45593999997E+02  0.45594000000E+02  0.51100000000E-03 0. -1.
    9900012    2    1    2    0    0  0.16359183781E+02  0.26660627180E+02 -0.32414523307E+02  0.46142320331E+02  0.10000023434E+02 0.  0.
        -12    1    1    2    0    0 -0.16359183781E+02 -0.26660627180E+02  0.32414523307E+02  0.45045679669E+02  0.00000000000E+00 0.  1.
         11    1    3    3    0    0  0.86964463615E+01  0.13005960551E+02 -0.17861675421E+02  0.23744949742E+02  0.51100000000E-03 0. -1.
        -11    1    3    3    0    0  0.66870545495E+01  0.11904557416E+02 -0.86493974520E+01  0.16163145188E+02  0.51100000000E-03 0.  1.
         12    1    3    3    0    0  0.97568287035E+00  0.17501092136E+01 -0.59034504339E+01  0.62342254008E+01  0.00000000000E+00 0. -1.
</event>
<event>
 7    1  0.3981356E-008  0.4614231E+02  0.7816164E-02  0.1320468E+00
        -11   -1    0    0    0    0  0.00000000000E+00  0.00000000000E+00  0.45593999997E+02  0.45594000000E+02  0.51100000000E-03 0.  1.
         11   -1    0    0    0    0 -0.00000000000E+00 -0.00000000000E+00 -0.45593999997E+02  0.45594000000E+02  0.51100000000E-03 0. -1.
    9900012    2    1    2    0    0  0.14858310024E+02 -0.22563599853E+02 -0.36044814022E+02  0.46142311716E+02  0.99999448735E+01 0.  0.
        -12    1    1    2    0    0 -0.14858310024E+02  0.22563599853E+02  0.36044814022E+02  0.45045688284E+02  0.00000000000E+00 0.  1.
         11    1    3    3    0    0  0.10981348448E+02 -0.82977872738E+01 -0.17010946853E+02  0.21881855508E+02  0.51100000000E-03 0.  1.
        -11    1    3    3    0    0  0.35681512572E+01 -0.78992229015E+01 -0.10839570508E+02  0.13878966637E+02  0.51100000000E-03 0. -1.
        -12    1    3    3    0    0  0.30881031837E+00 -0.63665896776E+01 -0.81942966620E+01  0.10381489571E+02  0.00000000000E+00 0.  1.
</event>
<event>
 7    1  0.3981356E-008  0.4614232E+02  0.7816164E-02  0.1320468E+00
        -11   -1    0    0    0    0  0.00000000000E+00  0.00000000000E+00  0.45593999997E+02  0.45594000000E+02  0.51100000000E-03 0.  1.
         11   -1    0    0    0    0 -0.00000000000E+00 -0.00000000000E+00 -0.45593999997E+02  0.45594000000E+02  0.51100000000E-03 0. -1.
    9900012    2    1    2    0    0 -0.31188906792E+02 -0.46301103280E+00 -0.32498480531E+02  0.46142317378E+02  0.99999965056E+01 0.  0.
        -12    1    1    2    0    0  0.31188906792E+02  0.46301103280E+00  0.32498480531E+02  0.45045682622E+02  0.00000000000E+00 0.  1.
         11    1    3    3    0    0 -0.21303591024E+01 -0.20766579543E+01 -0.54517592215E+01  0.62106857137E+01  0.51100000000E-03 0. -1.
        -11    1    3    3    0    0 -0.60142038312E+01  0.11974764309E+01 -0.39027965585E+01  0.72688664016E+01  0.51100000000E-03 0.  1.
         12    1    3    3    0    0 -0.23044343858E+02  0.41617049061E+00 -0.23143924751E+02  0.32662765263E+02  0.00000000000E+00 0. -1.
</event>
<event>
 7    1  0.3981356E-008  0.4614232E+02  0.7816164E-02  0.1320468E+00
        -11   -1    0    0    0    0  0.00000000000E+00  0.00000000000E+00  0.45593999997E+02  0.45594000000E+02  0.51100000000E-03 0.  1.
         11   -1    0    0    0    0 -0.00000000000E+00 -0.00000000000E+00 -0.45593999997E+02  0.45594000000E+02  0.51100000000E-03 0. -1.
    9900012    2    1    2    0    0  0.42122503056E+02 -0.12932363440E+02 -0.93574605280E+01  0.46142319237E+02  0.10000013461E+02 0.  0.
        -12    1    1    2    0    0 -0.42122503056E+02  0.12932363440E+02  0.93574605280E+01  0.45045680763E+02  0.00000000000E+00 0.  1.
         11    1    3    3    0    0  0.30121938953E+01 -0.16397407369E+00  0.46409125521E+00  0.30521435933E+01  0.51100000000E-03 0. -1.
        -11    1    3    3    0    0  0.22156592415E+02 -0.34172498945E+01 -0.72317888584E+01  0.23556123506E+02  0.51100000000E-03 0.  1.
         12    1    3    3    0    0  0.16953716746E+02 -0.93511394717E+01 -0.25897629247E+01  0.19534052138E+02  0.00000000000E+00 0. -1.
</event>
<event>
 7    1  0.3981356E-008  0.4614232E+02  0.7816164E-02  0.1320468E+00
        -11   -1    0    0    0    0  0.00000000000E+00  0.00000000000E+00  0.45593999997E+02  0.45594000000E+02  0.51100000000E-03 0.  1.
         11   -1    0    0    0    0 -0.00000000000E+00 -0.00000000000E+00 -0.45593999997E+02  0.45594000000E+02  0.51100000000E-03 0. -1.
    9900012    2    1    2    0    0 -0.87114176814E+01  0.19651787675E+02 -0.39585753797E+02  0.46142318071E+02  0.10000002822E+02 0.  0.
        -12    1    1    2    0    0  0.87114176814E+01 -0.19651787675E+02  0.39585753797E+02  0.45045681929E+02  0.00000000000E+00 0.  1.
         11    1    3    3    0    0 -0.80388757038E-01  0.13245814869E+01 -0.42352168561E+01  0.44382474635E+01  0.51100000000E-03 0. -1.
        -11    1    3    3    0    0 -0.58795448063E+00  0.37621705758E+01 -0.17106516258E+01  0.41744397419E+01  0.51100000000E-03 0.  1.
         12    1    3    3    0    0 -0.80430744437E+01  0.14565035612E+02 -0.33639885315E+02  0.37529630865E+02  0.00000000000E+00 0. -1.
</event>
<event>
 7    1  0.3981356E-008  0.4614232E+02  0.7816164E-02  0.1320468E+00
        -11   -1    0    0    0    0  0.00000000000E+00  0.00000000000E+00  0.45593999997E+02  0.45594000000E+02  0.51100000000E-03 0. -1.
         11   -1    0    0    0    0 -0.00000000000E+00 -0.00000000000E+00 -0.45593999997E+02  0.45594000000E+02  0.51100000000E-03 0.  1.
    9900012    2    1    2    0    0 -0.20402171167E+02 -0.11862506058E+02  0.38368552853E+02  0.46142317784E+02  0.10000000210E+02 0.  0.
        -12    1    1    2    0    0  0.20402171167E+02  0.11862506058E+02 -0.38368552853E+02  0.45045682216E+02  0.00000000000E+00 0.  1.
         11    1    3    3    0    0 -0.43947428959E+01 -0.74451073294E+01  0.13456892750E+02  0.15994728851E+02  0.51100000000E-03 0. -1.
        -11    1    3    3    0    0 -0.84626657741E+01 -0.24159631897E+01  0.16304575692E+02  0.18528161779E+02  0.51100000000E-03 0.  1.
         12    1    3    3    0    0 -0.75447624967E+01 -0.20014355385E+01  0.86070844105E+01  0.11619427154E+02  0.00000000000E+00 0. -1.
</event>
<event>
 7    1  0.3981356E-008  0.4614232E+02  0.7816164E-02  0.1320468E+00
        -11   -1    0    0    0    0  0.00000000000E+00  0.00000000000E+00  0.45593999997E+02  0.45594000000E+02  0.51100000000E-03 0.  1.
         11   -1    0    0    0    0 -0.00000000000E+00 -0.00000000000E+00 -0.45593999997E+02  0.45594000000E+02  0.51100000000E-03 0. -1.
    9900012    2    1    2    0    0 -0.36108002555E+02 -0.76616647818E+00 -0.26920970990E+02  0.46142317203E+02  0.99999949095E+01 0.  0.
        -12    1    1    2    0    0  0.36108002555E+02  0.76616647818E+00  0.26920970990E+02  0.45045682797E+02  0.00000000000E+00 0.  1.
         11    1    3    3    0    0 -0.13396882276E+02 -0.23800457601E+01 -0.13901301920E+02  0.19452179001E+02  0.51100000000E-03 0. -1.
        -11    1    3    3    0    0 -0.18171716955E+02  0.17217431154E+01 -0.80230111176E+01  0.19938515594E+02  0.51100000000E-03 0.  1.
        -12    1    3    3    0    0 -0.45394033240E+01 -0.10786383341E+00 -0.49966579523E+01  0.67516226076E+01  0.00000000000E+00 0.  1.
</event>
<event>
 7    1  0.3981356E-008  0.4614232E+02  0.7816164E-02  0.1320468E+00
        -11   -1    0    0    0    0  0.00000000000E+00  0.00000000000E+00  0.45593999997E+02  0.45594000000E+02  0.51100000000E-03 0.  1.
         11   -1    0    0    0    0 -0.00000000000E+00 -0.00000000000E+00 -0.45593999997E+02  0.45594000000E+02  0.51100000000E-03 0. -1.
    9900012    2    1    2    0    0  0.11516829857E+02  0.43361100792E+02  0.40362078308E+01  0.46142318680E+02  0.10000008383E+02 0.  0.
        -12    1    1    2    0    0 -0.11516829857E+02 -0.43361100792E+02 -0.40362078308E+01  0.45045681320E+02  0.00000000000E+00 0.  1.
         11    1    3    3    0    0 -0.11456411877E+01  0.55623500963E+01  0.29940426828E+00  0.56869917796E+01  0.51100000000E-03 0. -1.
        -11    1    3    3    0    0  0.25248860675E+01  0.59073218571E+01 -0.14658267654E+01  0.65893967512E+01  0.51100000000E-03 0.  1.
        -12    1    3    3    0    0  0.10137584978E+02  0.31891428839E+02  0.52026303279E+01  0.33865930150E+02  0.00000000000E+00 0.  1.
</event>
<event>
 7    1  0.3981356E-008  0.4614231E+02  0.7816164E-02  0.1320468E+00
        -11   -1    0    0    0    0  0.00000000000E+00  0.00000000000E+00  0.45593999997E+02  0.45594000000E+02  0.51100000000E-03 0. -1.
         11   -1    0    0    0    0 -0.00000000000E+00 -0.00000000000E+00 -0.45593999997E+02  0.45594000000E+02  0.51100000000E-03 0.  1.
    9900012    2    1    2    0    0  0.18173128210E+02  0.27777046390E+02  0.30451386238E+02  0.46142314092E+02  0.99999665405E+01 0.  0.
        -12    1    1    2    0    0 -0.18173128210E+02 -0.27777046390E+02 -0.30451386238E+02  0.45045685908E+02  0.00000000000E+00 0.  1.
         11    1    3    3    0    0  0.53365867810E+01  0.51785740083E+01  0.59716364891E+01  0.95371499857E+01  0.51100000000E-03 0. -1.
        -11    1    3    3    0    0  0.59379184856E+00  0.54818522248E-01  0.32563813536E+01  0.33105307144E+01  0.51100000000E-03 0.  1.
        -12    1    3    3    0    0  0.12242749581E+02  0.22543653860E+02  0.21223368396E+02  0.33294633392E+02  0.00000000000E+00 0.  1.
</event>
<event>
 7    1  0.3981356E-008  0.4614231E+02  0.7816164E-02  0.1320468E+00
        -11   -1    0    0    0    0  0.00000000000E+00  0.00000000000E+00  0.45593999997E+02  0.45594000000E+02  0.51100000000E-03 0.  1.
         11   -1    0    0    0    0 -0.00000000000E+00 -0.00000000000E+00 -0.45593999997E+02  0.45594000000E+02  0.51100000000E-03 0. -1.
    9900012    2    1    2    0    0  0.19435234535E+02  0.67231308497E+01 -0.40077239685E+02  0.46142312408E+02  0.99999511873E+01 0.  0.
        -12    1    1    2    0    0 -0.19435234535E+02 -0.67231308497E+01  0.40077239685E+02  0.45045687592E+02  0.00000000000E+00 0.  1.
         11    1    3    3    0    0  0.83431246769E+01  0.68880102031E+01 -0.23341258941E+02  0.25726771720E+02  0.51100000000E-03 0. -1.
        -11    1    3    3    0    0  0.16207329081E+01  0.49465303284E+00 -0.81919140355E+00  0.18821614168E+01  0.51100000000E-03 0.  1.
        -12    1    3    3    0    0  0.94713769498E+01 -0.65953238619E+00 -0.15916789340E+02  0.18533379271E+02  0.00000000000E+00 0.  1.
</event>
<event>
 7    1  0.3981356E-008  0.4614232E+02  0.7816164E-02  0.1320468E+00
        -11   -1    0    0    0    0  0.00000000000E+00  0.00000000000E+00  0.45593999997E+02  0.45594000000E+02  0.51100000000E-03 0.  1.
         11   -1    0    0    0    0 -0.00000000000E+00 -0.00000000000E+00 -0.45593999997E+02  0.45594000000E+02  0.51100000000E-03 0. -1.
    9900012    2    1    2    0    0 -0.33292362028E+02 -0.21077016635E+02 -0.21828683989E+02  0.46142318249E+02  0.10000004453E+02 0.  0.
        -12    1    1    2    0    0  0.33292362028E+02  0.21077016635E+02  0.21828683989E+02  0.45045681751E+02  0.00000000000E+00 0.  1.
         11    1    3    3    0    0 -0.13616717134E+01  0.63864120760E+00 -0.58686036883E+00  0.16144403986E+01  0.51100000000E-03 0. -1.
        -11    1    3    3    0    0 -0.16753406932E+01 -0.33014161159E+01 -0.16685333982E+01  0.40608027249E+01  0.51100000000E-03 0.  1.
         12    1    3    3    0    0 -0.30255349622E+02 -0.18414241727E+02 -0.19573290222E+02  0.40467075126E+02  0.00000000000E+00 0. -1.
</event>
<event>
 7    1  0.3981356E-008  0.4614232E+02  0.7816164E-02  0.1320468E+00
        -11   -1    0    0    0    0  0.00000000000E+00  0.00000000000E+00  0.45593999997E+02  0.45594000000E+02  0.51100000000E-03 0.  1.
         11   -1    0    0    0    0 -0.00000000000E+00 -0.00000000000E+00 -0.45593999997E+02  0.45594000000E+02  0.51100000000E-03 0. -1.
    9900012    2    1    2    0    0 -0.37021172006E+02 -0.25011873754E+02  0.57404235603E+01  0.46142317987E+02  0.10000002059E+02 0.  0.
        -12    1    1    2    0    0  0.37021172006E+02  0.25011873754E+02 -0.57404235603E+01  0.45045682013E+02  0.00000000000E+00 0.  1.
         11    1    3    3    0    0 -0.81646134357E+01 -0.28674790539E+01  0.17253129488E+01  0.88238344109E+01  0.51100000000E-03 0. -1.
        -11    1    3    3    0    0 -0.24453448082E+01 -0.46953462415E+00 -0.11865262041E+01  0.27582637090E+01  0.51100000000E-03 0.  1.
         12    1    3    3    0    0 -0.26411213762E+02 -0.21674860076E+02  0.52016368157E+01  0.34560219867E+02  0.00000000000E+00 0. -1.
</event>
<event>
 7    1  0.3981356E-008  0.4614232E+02  0.7816164E-02  0.1320468E+00
        -11   -1    0    0    0    0  0.00000000000E+00  0.00000000000E+00  0.45593999997E+02  0.45594000000E+02  0.51100000000E-03 0.  1.
         11   -1    0    0    0    0 -0.00000000000E+00 -0.00000000000E+00 -0.45593999997E+02  0.45594000000E+02  0.51100000000E-03 0. -1.
    9900012    2    1    2    0    0  0.16463207048E+02  0.14725941458E+02 -0.39258412338E+02  0.46142317883E+02  0.10000001108E+02 0.  0.
        -12    1    1    2    0    0 -0.16463207048E+02 -0.14725941458E+02  0.39258412338E+02  0.45045682117E+02  0.00000000000E+00 0.  1.
         11    1    3    3    0    0  0.59437642686E+00  0.32058072907E+01 -0.40440157281E+01  0.51946652627E+01  0.51100000000E-03 0.  1.
        -11    1    3    3    0    0  0.34368044186E+01  0.53509727805E+01 -0.16227932463E+02  0.17429581940E+02  0.51100000000E-03 0. -1.
        -12    1    3    3    0    0  0.12432026202E+02  0.61691613865E+01 -0.18986464147E+02  0.23518070680E+02  0.00000000000E+00 0.  1.
</event>
<event>
 7    1  0.3981356E-008  0.4614232E+02  0.7816164E-02  0.1320468E+00
        -11   -1    0    0    0    0  0.00000000000E+00  0.00000000000E+00  0.45593999997E+02  0.45594000000E+02  0.51100000000E-03 0.  1.
         11   -1    0    0    0    0 -0.00000000000E+00 -0.00000000000E+00 -0.45593999997E+02  0.45594000000E+02  0.51100000000E-03 0. -1.
    9900012    2    1    2    0    0  0.35820101090E+02 -0.24317989894E+02 -0.12436608492E+02  0.46142317573E+02  0.99999982831E+01 0.  0.
        -12    1    1    2    0    0 -0.35820101090E+02  0.24317989894E+02  0.12436608492E+02  0.45045682427E+02  0.00000000000E+00 0.  1.
         11    1    3    3    0    0  0.17749956859E+02 -0.13196533249E+02 -0.28770622189E+01  0.22304415383E+02  0.51100000000E-03 0. -1.
        -11    1    3    3    0    0  0.15691438963E+02 -0.11303950846E+02 -0.92325593480E+01  0.21429902329E+02  0.51100000000E-03 0.  1.
         12    1    3    3    0    0  0.23787052671E+01  0.18249420078E+00 -0.32698692486E+00  0.24079998609E+01  0.00000000000E+00 0. -1.
</event>
<event>
 7    1  0.3981356E-008  0.4614232E+02  0.7816164E-02  0.1320468E+00
        -11   -1    0    0    0    0  0.00000000000E+00  0.00000000000E+00  0.45593999997E+02  0.45594000000E+02  0.51100000000E-03 0. -1.
         11   -1    0    0    0    0 -0.00000000000E+00 -0.00000000000E+00 -0.45593999997E+02  0.45594000000E+02  0.51100000000E-03 0.  1.
    9900012    2    1    2    0    0 -0.14457711597E+02 -0.40050523870E+00  0.42660611248E+02  0.46142316732E+02  0.99999906137E+01 0.  0.
        -12    1    1    2    0    0  0.14457711597E+02  0.40050523870E+00 -0.42660611248E+02  0.45045683268E+02  0.00000000000E+00 0.  1.
         11    1    3    3    0    0 -0.11923512329E+02  0.22921693445E+01  0.32085917850E+02  0.34306417929E+02  0.51100000000E-03 0.  1.
        -11    1    3    3    0    0 -0.33238449794E+01 -0.16568847035E+01  0.92970282320E+01  0.10011390841E+02  0.51100000000E-03 0. -1.
        -12    1    3    3    0    0  0.78964571227E+00 -0.10357898797E+01  0.12776651656E+01  0.18245079613E+01  0.00000000000E+00 0.  1.
</event>
<event>
 7    1  0.3981356E-008  0.4614232E+02  0.7816164E-02  0.1320468E+00
        -11   -1    0    0    0    0  0.00000000000E+00  0.00000000000E+00  0.45593999997E+02  0.45594000000E+02  0.51100000000E-03 0.  1.
         11   -1    0    0    0    0 -0.00000000000E+00 -0.00000000000E+00 -0.45593999997E+02  0.45594000000E+02  0.51100000000E-03 0. -1.
    9900012    2    1    2    0    0  0.33018658778E+02  0.23004047184E+02 -0.20240934806E+02  0.46142318118E+02  0.10000003257E+02 0.  0.
        -12    1    1    2    0    0 -0.33018658778E+02 -0.23004047184E+02  0.20240934806E+02  0.45045681882E+02  0.00000000000E+00 0.  1.
         11    1    3    3    0    0  0.80486977144E+01  0.59384334727E+01 -0.48136950935E+01  0.11100368810E+02  0.51100000000E-03 0. -1.
        -11    1    3    3    0    0  0.18331412260E+02  0.80382154044E+01 -0.77775180430E+01  0.21474248986E+02  0.51100000000E-03 0.  1.
        -12    1    3    3    0    0  0.66385488041E+01  0.90273983070E+01 -0.76497216696E+01  0.13567700322E+02  0.00000000000E+00 0.  1.
</event>
<event>
 7    1  0.3981356E-008  0.4614232E+02  0.7816164E-02  0.1320468E+00
        -11   -1    0    0    0    0  0.00000000000E+00  0.00000000000E+00  0.45593999997E+02  0.45594000000E+02  0.51100000000E-03 0. -1.
         11   -1    0    0    0    0 -0.00000000000E+00 -0.00000000000E+00 -0.45593999997E+02  0.45594000000E+02  0.51100000000E-03 0.  1.
    9900012    2    1    2    0    0 -0.40893199350E+02 -0.12909394898E+02  0.13791567289E+02  0.46142316988E+02  0.99999929532E+01 0.  0.
        -12    1    1    2    0    0  0.40893199350E+02  0.12909394898E+02 -0.13791567289E+02  0.45045683012E+02  0.00000000000E+00 0.  1.
         11    1    3    3    0    0 -0.23829676933E+02 -0.10853038733E+02  0.59779737702E+01  0.26858483262E+02  0.51100000000E-03 0. -1.
        -11    1    3    3    0    0 -0.90241530359E+00 -0.69964342882E-01 -0.46481041174E+00  0.10174956361E+01  0.51100000000E-03 0.  1.
         12    1    3    3    0    0 -0.16161107113E+02 -0.19863918225E+01  0.82784039307E+01  0.18266338090E+02  0.00000000000E+00 0. -1.
</event>
<event>
 7    1  0.3981356E-008  0.4614232E+02  0.7816164E-02  0.1320468E+00
        -11   -1    0    0    0    0  0.00000000000E+00  0.00000000000E+00  0.45593999997E+02  0.45594000000E+02  0.51100000000E-03 0.  1.
         11   -1    0    0    0    0 -0.00000000000E+00 -0.00000000000E+00 -0.45593999997E+02  0.45594000000E+02  0.51100000000E-03 0. -1.
    9900012    2    1    2    0    0  0.32203555571E+02  0.12956428071E+02 -0.28708456674E+02  0.46142317583E+02  0.99999983780E+01 0.  0.
        -12    1    1    2    0    0 -0.32203555571E+02 -0.12956428071E+02  0.28708456674E+02  0.45045682417E+02  0.00000000000E+00 0.  1.
         11    1    3    3    0    0  0.11742778811E+02  0.40299551868E+01 -0.89486016745E+01  0.15303949334E+02  0.51100000000E-03 0. -1.
        -11    1    3    3    0    0  0.66302213827E+01 -0.82794518322E+00 -0.45504716220E+01  0.80840658739E+01  0.51100000000E-03 0.  1.
         12    1    3    3    0    0  0.13830555377E+02  0.97544180675E+01 -0.15209383377E+02  0.22754302376E+02  0.00000000000E+00 0. -1.
</event>
<event>
 7    1  0.3981356E-008  0.4614232E+02  0.7816164E-02  0.1320468E+00
        -11   -1    0    0    0    0  0.00000000000E+00  0.00000000000E+00  0.45593999997E+02  0.45594000000E+02  0.51100000000E-03 0.  1.
         11   -1    0    0    0    0 -0.00000000000E+00 -0.00000000000E+00 -0.45593999997E+02  0.45594000000E+02  0.51100000000E-03 0. -1.
    9900012    2    1    2    0    0 -0.25302881628E+02  0.12704475564E+02 -0.35035325024E+02  0.46142317437E+02  0.99999970434E+01 0.  0.
        -12    1    1    2    0    0  0.25302881628E+02 -0.12704475564E+02  0.35035325024E+02  0.45045682563E+02  0.00000000000E+00 0.  1.
         11    1    3    3    0    0 -0.10386322743E+02  0.54719565998E+01 -0.74607494759E+01  0.13909737314E+02  0.51100000000E-03 0. -1.
        -11    1    3    3    0    0 -0.25800144631E+00 -0.86240774299E-01 -0.77678218063E+00  0.82303890231E+00  0.51100000000E-03 0.  1.
         12    1    3    3    0    0 -0.14658557439E+02  0.73187597388E+01 -0.26797793367E+02  0.31409541220E+02  0.00000000000E+00 0. -1.
</event>
<event>
 7    1  0.3981356E-008  0.4614232E+02  0.7816164E-02  0.1320468E+00
        -11   -1    0    0    0    0  0.00000000000E+00  0.00000000000E+00  0.45593999997E+02  0.45594000000E+02  0.51100000000E-03 0.  1.
         11   -1    0    0    0    0 -0.00000000000E+00 -0.00000000000E+00 -0.45593999997E+02  0.45594000000E+02  0.51100000000E-03 0. -1.
    9900012    2    1    2    0    0 -0.41505789039E+02 -0.14381746560E+02 -0.99773924030E+01  0.46142317443E+02  0.99999971014E+01 0.  0.
        -12    1    1    2    0    0  0.41505789039E+02  0.14381746560E+02  0.99773924030E+01  0.45045682557E+02  0.00000000000E+00 0.  1.
         11    1    3    3    0    0 -0.11156736090E+02 -0.63092655066E+01 -0.34061980572E+01  0.13262042712E+02  0.51100000000E-03 0. -1.
        -11    1    3    3    0    0 -0.24672632652E+00 -0.12438126287E+01 -0.73680537192E+00  0.14665695185E+01  0.51100000000E-03 0.  1.
         12    1    3    3    0    0 -0.30102326622E+02 -0.68286684244E+01 -0.58343889738E+01  0.31413705213E+02  0.00000000000E+00 0. -1.
</event>
<event>
 7    1  0.3981356E-008  0.4614232E+02  0.7816164E-02  0.1320468E+00
        -11   -1    0    0    0    0  0.00000000000E+00  0.00000000000E+00  0.45593999997E+02  0.45594000000E+02  0.51100000000E-03 0. -1.
         11   -1    0    0    0    0 -0.00000000000E+00 -0.00000000000E+00 -0.45593999997E+02  0.45594000000E+02  0.51100000000E-03 0.  1.
    9900012    2    1    2    0    0  0.41152697647E+02 -0.15052233444E+02  0.10440272805E+02  0.46142317060E+02  0.99999936102E+01 0.  0.
        -12    1    1    2    0    0 -0.41152697647E+02  0.15052233444E+02 -0.10440272805E+02  0.45045682940E+02  0.00000000000E+00 0.  1.
         11    1    3    3    0    0  0.26252149940E+02 -0.10615949406E+02  0.53276538298E+01  0.28814191882E+02  0.51100000000E-03 0. -1.
        -11    1    3    3    0    0  0.87822104987E+01 -0.50867996249E+01  0.46334153084E+01  0.11156670173E+02  0.51100000000E-03 0.  1.
        -12    1    3    3    0    0  0.61183372084E+01  0.65051558681E+00  0.47920366629E+00  0.61714550049E+01  0.00000000000E+00 0.  1.
</event>
<event>
 7    1  0.3981356E-008  0.4614232E+02  0.7816164E-02  0.1320468E+00
        -11   -1    0    0    0    0  0.00000000000E+00  0.00000000000E+00  0.45593999997E+02  0.45594000000E+02  0.51100000000E-03 0. -1.
         11   -1    0    0    0    0 -0.00000000000E+00 -0.00000000000E+00 -0.45593999997E+02  0.45594000000E+02  0.51100000000E-03 0.  1.
    9900012    2    1    2    0    0  0.20243754903E+02 -0.37464498182E+02  0.14687239743E+02  0.46142320431E+02  0.10000024343E+02 0.  0.
        -12    1    1    2    0    0 -0.20243754903E+02  0.37464498182E+02 -0.14687239743E+02  0.45045679569E+02  0.00000000000E+00 0.  1.
         11    1    3    3    0    0  0.22992136506E+01 -0.65496109308E+01 -0.34775360304E+00  0.69501596805E+01  0.51100000000E-03 0. -1.
        -11    1    3    3    0    0  0.37687950790E+01 -0.93000188280E+01  0.19580911664E+01  0.10223907659E+02  0.51100000000E-03 0.  1.
         12    1    3    3    0    0  0.14175746173E+02 -0.21614868423E+02  0.13076902180E+02  0.28968253091E+02  0.00000000000E+00 0. -1.
</event>
<event>
 7    1  0.3981356E-008  0.4614232E+02  0.7816164E-02  0.1320468E+00
        -11   -1    0    0    0    0  0.00000000000E+00  0.00000000000E+00  0.45593999997E+02  0.45594000000E+02  0.51100000000E-03 0.  1.
         11   -1    0    0    0    0 -0.00000000000E+00 -0.00000000000E+00 -0.45593999997E+02  0.45594000000E+02  0.51100000000E-03 0. -1.
    9900012    2    1    2    0    0 -0.27122251545E+02  0.13519992384E+02 -0.33327267026E+02  0.46142318183E+02  0.10000003844E+02 0.  0.
        -12    1    1    2    0    0  0.27122251545E+02 -0.13519992384E+02  0.33327267026E+02  0.45045681817E+02  0.00000000000E+00 0.  1.
         11    1    3    3    0    0 -0.14246842565E+02  0.10753543295E+02 -0.19025193510E+02  0.26087721342E+02  0.51100000000E-03 0. -1.
        -11    1    3    3    0    0 -0.94391750393E+01  0.34532608406E+01 -0.80092725393E+01  0.12851905801E+02  0.51100000000E-03 0.  1.
         12    1    3    3    0    0 -0.34362339414E+01 -0.68681175068E+00 -0.62928009762E+01  0.72026910393E+01  0.00000000000E+00 0. -1.
</event>
<event>
 7    1  0.3981356E-008  0.4614232E+02  0.7816164E-02  0.1320468E+00
        -11   -1    0    0    0    0  0.00000000000E+00  0.00000000000E+00  0.45593999997E+02  0.45594000000E+02  0.51100000000E-03 0.  1.
         11   -1    0    0    0    0 -0.00000000000E+00 -0.00000000000E+00 -0.45593999997E+02  0.45594000000E+02  0.51100000000E-03 0. -1.
    9900012    2    1    2    0    0  0.25982132040E+02 -0.11535810182E+02 -0.34942343861E+02  0.46142317671E+02  0.99999991827E+01 0.  0.
        -12    1    1    2    0    0 -0.25982132040E+02  0.11535810182E+02  0.34942343861E+02  0.45045682329E+02  0.00000000000E+00 0.  1.
         11    1    3    3    0    0  0.10937174120E+02 -0.24374052177E+01 -0.99200004927E+01  0.14965598283E+02  0.51100000000E-03 0. -1.
        -11    1    3    3    0    0  0.15608384746E+02 -0.90237758168E+01 -0.24241002308E+02  0.30210534545E+02  0.51100000000E-03 0.  1.
        -12    1    3    3    0    0 -0.56342682574E+00 -0.74629147207E-01 -0.78134106076E+00  0.96618484298E+00  0.00000000000E+00 0.  1.
</event>
<event>
 7    1  0.3981356E-008  0.4614232E+02  0.7816164E-02  0.1320468E+00
        -11   -1    0    0    0    0  0.00000000000E+00  0.00000000000E+00  0.45593999997E+02  0.45594000000E+02  0.51100000000E-03 0. -1.
         11   -1    0    0    0    0 -0.00000000000E+00 -0.00000000000E+00 -0.45593999997E+02  0.45594000000E+02  0.51100000000E-03 0.  1.
    9900012    2    1    2    0    0 -0.34710492882E+02 -0.94438435683E+01  0.27112893902E+02  0.46142317485E+02  0.99999974825E+01 0.  0.
        -12    1    1    2    0    0  0.34710492882E+02  0.94438435683E+01 -0.27112893902E+02  0.45045682515E+02  0.00000000000E+00 0.  1.
         11    1    3    3    0    0 -0.15410370722E+02 -0.65810544176E+01  0.89768085837E+01  0.19009810511E+02  0.51100000000E-03 0. -1.
        -11    1    3    3    0    0 -0.79981695517E+01  0.10608125696E+01  0.57175451258E+01  0.98886987016E+01  0.51100000000E-03 0.  1.
         12    1    3    3    0    0 -0.11301952608E+02 -0.39236017203E+01  0.12418540193E+02  0.17243808273E+02  0.00000000000E+00 0. -1.
</event>
<event>
 7    1  0.3981356E-008  0.4614231E+02  0.7816164E-02  0.1320468E+00
        -11   -1    0    0    0    0  0.00000000000E+00  0.00000000000E+00  0.45593999997E+02  0.45594000000E+02  0.51100000000E-03 0. -1.
         11   -1    0    0    0    0 -0.00000000000E+00 -0.00000000000E+00 -0.45593999997E+02  0.45594000000E+02  0.51100000000E-03 0.  1.
    9900012    2    1    2    0    0  0.27151738490E+02  0.75622182307E+01  0.35138436340E+02  0.46142314790E+02  0.99999729113E+01 0.  0.
        -12    1    1    2    0    0 -0.27151738490E+02 -0.75622182307E+01 -0.35138436340E+02  0.45045685210E+02  0.00000000000E+00 0.  1.
         11    1    3    3    0    0  0.50289586831E+01  0.12869449365E+01  0.10049062338E+02  0.11310628048E+02  0.51100000000E-03 0. -1.
        -11    1    3    3    0    0  0.26550305451E+01  0.36520711638E+01  0.48846075866E+01  0.66517819054E+01  0.51100000000E-03 0.  1.
         12    1    3    3    0    0  0.19467749262E+02  0.26232021305E+01  0.20204766415E+02  0.28179904837E+02  0.00000000000E+00 0. -1.
</event>
<event>
 7    1  0.3981356E-008  0.4614232E+02  0.7816164E-02  0.1320468E+00
        -11   -1    0    0    0    0  0.00000000000E+00  0.00000000000E+00  0.45593999997E+02  0.45594000000E+02  0.51100000000E-03 0.  1.
         11   -1    0    0    0    0 -0.00000000000E+00 -0.00000000000E+00 -0.45593999997E+02  0.45594000000E+02  0.51100000000E-03 0. -1.
    9900012    2    1    2    0    0 -0.17457370376E+02  0.36485778071E+02 -0.19827800782E+02  0.46142318013E+02  0.10000002294E+02 0.  0.
        -12    1    1    2    0    0  0.17457370376E+02 -0.36485778071E+02  0.19827800782E+02  0.45045681987E+02  0.00000000000E+00 0.  1.
         11    1    3    3    0    0 -0.47266918733E+01  0.60825553088E+01 -0.43974130049E+01  0.88699682382E+01  0.51100000000E-03 0. -1.
        -11    1    3    3    0    0 -0.18566957801E+00 -0.52096877290E+00 -0.31966962247E+00  0.63880402565E+00  0.51100000000E-03 0.  1.
         12    1    3    3    0    0 -0.12545008925E+02  0.30924191535E+02 -0.15110718154E+02  0.36633545749E+02  0.00000000000E+00 0. -1.
</event>
<event>
 7    1  0.3981356E-008  0.4614232E+02  0.7816164E-02  0.1320468E+00
        -11   -1    0    0    0    0  0.00000000000E+00  0.00000000000E+00  0.45593999997E+02  0.45594000000E+02  0.51100000000E-03 0.  1.
         11   -1    0    0    0    0 -0.00000000000E+00 -0.00000000000E+00 -0.45593999997E+02  0.45594000000E+02  0.51100000000E-03 0. -1.
    9900012    2    1    2    0    0 -0.38245789014E+01 -0.19101499511E+02 -0.40615498911E+02  0.46142318307E+02  0.10000004981E+02 0.  0.
        -12    1    1    2    0    0  0.38245789014E+01  0.19101499511E+02  0.40615498911E+02  0.45045681693E+02  0.00000000000E+00 0.  1.
         11    1    3    3    0    0 -0.15926206153E+01 -0.16136751168E+02 -0.30432761755E+02  0.34483099730E+02  0.51100000000E-03 0. -1.
        -11    1    3    3    0    0 -0.32648369992E+01 -0.21790637033E+01 -0.92867371620E+01  0.10082210404E+02  0.51100000000E-03 0.  1.
         12    1    3    3    0    0  0.10328787131E+01 -0.78568464020E+00 -0.89599999390E+00  0.15770081734E+01  0.00000000000E+00 0. -1.
</event>
<event>
 7    1  0.3981356E-008  0.4614232E+02  0.7816164E-02  0.1320468E+00
        -11   -1    0    0    0    0  0.00000000000E+00  0.00000000000E+00  0.45593999997E+02  0.45594000000E+02  0.51100000000E-03 0.  1.
         11   -1    0    0    0    0 -0.00000000000E+00 -0.00000000000E+00 -0.45593999997E+02  0.45594000000E+02  0.51100000000E-03 0. -1.
    9900012    2    1    2    0    0  0.17686913719E+01  0.77381232082E+01 -0.44340803031E+02  0.46142316152E+02  0.99999853241E+01 0.  0.
        -12    1    1    2    0    0 -0.17686913719E+01 -0.77381232082E+01  0.44340803031E+02  0.45045683848E+02  0.00000000000E+00 0.  1.
         11    1    3    3    0    0 -0.33493596097E+00  0.40816406243E+01 -0.27145136742E+02  0.27452329979E+02  0.51100000000E-03 0. -1.
        -11    1    3    3    0    0  0.28044986135E+01 -0.71427814286E+00 -0.65721020959E+01  0.71810815313E+01  0.51100000000E-03 0.  1.
        -12    1    3    3    0    0 -0.70087128063E+00  0.43707607268E+01 -0.10623564193E+02  0.11508904641E+02  0.00000000000E+00 0.  1.
</event>
<event>
 7    1  0.3981356E-008  0.4614232E+02  0.7816164E-02  0.1320468E+00
        -11   -1    0    0    0    0  0.00000000000E+00  0.00000000000E+00  0.45593999997E+02  0.45594000000E+02  0.51100000000E-03 0.  1.
         11   -1    0    0    0    0 -0.00000000000E+00 -0.00000000000E+00 -0.45593999997E+02  0.45594000000E+02  0.51100000000E-03 0. -1.
    9900012    2    1    2    0    0  0.32673897253E+02  0.18348859531E+02 -0.24996985748E+02  0.46142317584E+02  0.99999983853E+01 0.  0.
        -12    1    1    2    0    0 -0.32673897253E+02 -0.18348859531E+02  0.24996985748E+02  0.45045682416E+02  0.00000000000E+00 0.  1.
         11    1    3    3    0    0  0.12007672923E+02  0.52717068332E+01 -0.92553111760E+01  0.16051040065E+02  0.51100000000E-03 0. -1.
        -11    1    3    3    0    0  0.21309909591E+02  0.12445763405E+02 -0.15552437408E+02  0.29169977428E+02  0.51100000000E-03 0.  1.
        -12    1    3    3    0    0 -0.64368526067E+00  0.63138929257E+00 -0.18923716434E+00  0.92130009114E+00  0.00000000000E+00 0.  1.
</event>
<event>
 7    1  0.3981356E-008  0.4614232E+02  0.7816164E-02  0.1320468E+00
        -11   -1    0    0    0    0  0.00000000000E+00  0.00000000000E+00  0.45593999997E+02  0.45594000000E+02  0.51100000000E-03 0. -1.
         11   -1    0    0    0    0 -0.00000000000E+00 -0.00000000000E+00 -0.45593999997E+02  0.45594000000E+02  0.51100000000E-03 0.  1.
    9900012    2    1    2    0    0  0.33585141546E+02 -0.13085222371E+02  0.27017192756E+02  0.46142317836E+02  0.10000000685E+02 0.  0.
        -12    1    1    2    0    0 -0.33585141546E+02  0.13085222371E+02 -0.27017192756E+02  0.45045682164E+02  0.00000000000E+00 0.  1.
         11    1    3    3    0    0  0.22275840860E+02 -0.10463794064E+02  0.19220140549E+02  0.31226877449E+02  0.51100000000E-03 0. -1.
        -11    1    3    3    0    0  0.93591869175E+01 -0.46669302436E+00  0.74837254466E+01  0.11992427984E+02  0.51100000000E-03 0.  1.
        -12    1    3    3    0    0  0.19501137693E+01 -0.21547352826E+01  0.31332676032E+00  0.29230124033E+01  0.00000000000E+00 0.  1.
</event>
<event>
 7    1  0.3981356E-008  0.4614232E+02  0.7816164E-02  0.1320468E+00
        -11   -1    0    0    0    0  0.00000000000E+00  0.00000000000E+00  0.45593999997E+02  0.45594000000E+02  0.51100000000E-03 0. -1.
         11   -1    0    0    0    0 -0.00000000000E+00 -0.00000000000E+00 -0.45593999997E+02  0.45594000000E+02  0.51100000000E-03 0.  1.
    9900012    2    1    2    0    0  0.86297999595E+00  0.44826763975E+02  0.43508547948E+01  0.46142318294E+02  0.10000004860E+02 0.  0.
        -12    1    1    2    0    0 -0.86297999595E+00 -0.44826763975E+02 -0.43508547948E+01  0.45045681706E+02  0.00000000000E+00 0.  1.
         11    1    3    3    0    0  0.13111465526E+01  0.41704796577E+01  0.32203146274E+01  0.54297727777E+01  0.51100000000E-03 0. -1.
        -11    1    3    3    0    0 -0.37996887221E+00  0.19228695402E+02  0.13978419573E+01  0.19283180899E+02  0.51100000000E-03 0.  1.
         12    1    3    3    0    0 -0.68197684407E-01  0.21427588915E+02 -0.26730178988E+00  0.21429364617E+02  0.00000000000E+00 0. -1.
</event>
<event>
 7    1  0.3981356E-008  0.4614232E+02  0.7816164E-02  0.1320468E+00
        -11   -1    0    0    0    0  0.00000000000E+00  0.00000000000E+00  0.45593999997E+02  0.45594000000E+02  0.51100000000E-03 0.  1.
         11   -1    0    0    0    0 -0.00000000000E+00 -0.00000000000E+00 -0.45593999997E+02  0.45594000000E+02  0.51100000000E-03 0. -1.
    9900012    2    1    2    0    0 -0.30772142674E+02  0.28908900128E+02  0.15699178218E+02  0.46142317986E+02  0.10000002051E+02 0.  0.
        -12    1    1    2    0    0  0.30772142674E+02 -0.28908900128E+02 -0.15699178218E+02  0.45045682014E+02  0.00000000000E+00 0.  1.
         11    1    3    3    0    0 -0.24920473387E+02  0.26726550469E+02  0.12697607027E+02  0.38685497518E+02  0.51100000000E-03 0. -1.
        -11    1    3    3    0    0 -0.30554645937E+01  0.23850542307E+01  0.24899623332E+01  0.46069795147E+01  0.51100000000E-03 0.  1.
         12    1    3    3    0    0 -0.27962046940E+01 -0.20270457145E+00  0.51160885758E+00  0.28498409530E+01  0.00000000000E+00 0. -1.
</event>
<event>
 7    1  0.3981356E-008  0.4614231E+02  0.7816164E-02  0.1320468E+00
        -11   -1    0    0    0    0  0.00000000000E+00  0.00000000000E+00  0.45593999997E+02  0.45594000000E+02  0.51100000000E-03 0. -1.
         11   -1    0    0    0    0 -0.00000000000E+00 -0.00000000000E+00 -0.45593999997E+02  0.45594000000E+02  0.51100000000E-03 0.  1.
    9900012    2    1    2    0    0  0.14861600543E+02 -0.10124408070E+02  0.41300641214E+02  0.46142314588E+02  0.99999710684E+01 0.  0.
        -12    1    1    2    0    0 -0.14861600543E+02  0.10124408070E+02 -0.41300641214E+02  0.45045685412E+02  0.00000000000E+00 0.  1.
         11    1    3    3    0    0  0.91418017131E+01 -0.82222007758E+01  0.26405466101E+02  0.29127749045E+02  0.51100000000E-03 0. -1.
        -11    1    3    3    0    0  0.69021808346E+00 -0.21651598921E+01  0.88954539972E+01  0.91811448326E+01  0.51100000000E-03 0.  1.
        -12    1    3    3    0    0  0.50295807467E+01  0.26295259772E+00  0.59997211158E+01  0.78334207103E+01  0.00000000000E+00 0.  1.
</event>
<event>
 7    1  0.3981356E-008  0.4614232E+02  0.7816164E-02  0.1320468E+00
        -11   -1    0    0    0    0  0.00000000000E+00  0.00000000000E+00  0.45593999997E+02  0.45594000000E+02  0.51100000000E-03 0. -1.
         11   -1    0    0    0    0 -0.00000000000E+00 -0.00000000000E+00 -0.45593999997E+02  0.45594000000E+02  0.51100000000E-03 0.  1.
    9900012    2    1    2    0    0 -0.25512938424E+02  0.17754496338E+02 -0.32603394108E+02  0.46142317914E+02  0.10000001393E+02 0.  0.
        -12    1    1    2    0    0  0.25512938424E+02 -0.17754496338E+02  0.32603394108E+02  0.45045682086E+02  0.00000000000E+00 0.  1.
         11    1    3    3    0    0 -0.87206361611E+01  0.27709368385E+01 -0.50243958367E+01  0.10438972162E+02  0.51100000000E-03 0. -1.
        -11    1    3    3    0    0 -0.30606757536E+01  0.36741350120E+01 -0.45221681681E+01  0.65815658742E+01  0.51100000000E-03 0.  1.
         12    1    3    3    0    0 -0.13731626510E+02  0.11309424487E+02 -0.23056830103E+02  0.29121779878E+02  0.00000000000E+00 0. -1.
</event>
<event>
 7    1  0.3981356E-008  0.4614232E+02  0.7816164E-02  0.1320468E+00
        -11   -1    0    0    0    0  0.00000000000E+00  0.00000000000E+00  0.45593999997E+02  0.45594000000E+02  0.51100000000E-03 0.  1.
         11   -1    0    0    0    0 -0.00000000000E+00 -0.00000000000E+00 -0.45593999997E+02  0.45594000000E+02  0.51100000000E-03 0. -1.
    9900012    2    1    2    0    0  0.11201217437E+02  0.41628462949E+02 -0.13065879941E+02  0.46142318540E+02  0.10000007104E+02 0.  0.
        -12    1    1    2    0    0 -0.11201217437E+02 -0.41628462949E+02  0.13065879941E+02  0.45045681460E+02  0.00000000000E+00 0.  1.
         11    1    3    3    0    0 -0.84188457654E+00  0.26914743967E+01 -0.21798933830E+01  0.35643708408E+01  0.51100000000E-03 0. -1.
        -11    1    3    3    0    0  0.12545190331E+02  0.38339442621E+02 -0.10400943420E+02  0.41659024055E+02  0.51100000000E-03 0.  1.
        -12    1    3    3    0    0 -0.50208831749E+00  0.59754593104E+00 -0.48504313853E+00  0.91892364454E+00  0.00000000000E+00 0.  1.
</event>
<event>
 7    1  0.3981356E-008  0.4614233E+02  0.7816164E-02  0.1320468E+00
        -11   -1    0    0    0    0  0.00000000000E+00  0.00000000000E+00  0.45593999997E+02  0.45594000000E+02  0.51100000000E-03 0.  1.
         11   -1    0    0    0    0 -0.00000000000E+00 -0.00000000000E+00 -0.45593999997E+02  0.45594000000E+02  0.51100000000E-03 0. -1.
    9900012    2    1    2    0    0 -0.92750997548E+00 -0.30853795885E+02 -0.32806937279E+02  0.46142332851E+02  0.10000137600E+02 0.  0.
        -12    1    1    2    0    0  0.92750997548E+00  0.30853795885E+02  0.32806937279E+02  0.45045667149E+02  0.00000000000E+00 0.  1.
         11    1    3    3    0    0  0.38119100434E+01 -0.19670402722E+02 -0.18518375120E+02  0.27283431213E+02  0.51100000000E-03 0. -1.
        -11    1    3    3    0    0 -0.36523463702E+01 -0.71161701557E+01 -0.81864431624E+01  0.11445407970E+02  0.51100000000E-03 0.  1.
         12    1    3    3    0    0 -0.10870736487E+01 -0.40672230077E+01 -0.61021189962E+01  0.74134936674E+01  0.00000000000E+00 0. -1.
</event>
<event>
 7    1  0.3981356E-008  0.4614232E+02  0.7816164E-02  0.1320468E+00
        -11   -1    0    0    0    0  0.00000000000E+00  0.00000000000E+00  0.45593999997E+02  0.45594000000E+02  0.51100000000E-03 0.  1.
         11   -1    0    0    0    0 -0.00000000000E+00 -0.00000000000E+00 -0.45593999997E+02  0.45594000000E+02  0.51100000000E-03 0. -1.
    9900012    2    1    2    0    0 -0.10115763435E+01  0.31977431175E+02 -0.31710157090E+02  0.46142318143E+02  0.10000003481E+02 0.  0.
        -12    1    1    2    0    0  0.10115763435E+01 -0.31977431175E+02  0.31710157090E+02  0.45045681857E+02  0.00000000000E+00 0.  1.
         11    1    3    3    0    0  0.59413245953E+00  0.63508834816E+01 -0.43322326279E+01  0.77107038706E+01  0.51100000000E-03 0.  1.
        -11    1    3    3    0    0 -0.30510505529E+01  0.21148982227E+02 -0.17997777237E+02  0.27937579431E+02  0.51100000000E-03 0. -1.
         12    1    3    3    0    0  0.14453417499E+01  0.44775654666E+01 -0.93801472253E+01  0.10494034841E+02  0.00000000000E+00 0. -1.
</event>
<event>
 7    1  0.5607187E-008  0.4614232E+02  0.7816164E-02  0.1320468E+00
        -11   -1    0    0    0    0  0.00000000000E+00  0.00000000000E+00  0.45593999997E+02  0.45594000000E+02  0.51100000000E-03 0.  1.
         11   -1    0    0    0    0 -0.00000000000E+00 -0.00000000000E+00 -0.45593999997E+02  0.45594000000E+02  0.51100000000E-03 0. -1.
    9900012    2    1    2    0    0 -0.10573817389E+02  0.27986216156E+02 -0.33676098139E+02  0.46142317690E+02  0.99999993531E+01 0.  0.
        -12    1    1    2    0    0  0.10573817389E+02 -0.27986216156E+02  0.33676098139E+02  0.45045682310E+02  0.00000000000E+00 0.  1.
         11    1    3    3    0    0 -0.26899017509E+01  0.15477086015E+02 -0.14470040259E+02  0.21357851678E+02  0.51100000000E-03 0. -1.
        -11    1    3    3    0    0 -0.13320291790E+01  0.63377150445E+01 -0.61838211629E+01  0.89543608457E+01  0.51100000000E-03 0.  1.
        -12    1    3    3    0    0 -0.65518864595E+01  0.61714150965E+01 -0.13022236717E+02  0.15830105167E+02  0.00000000000E+00 0.  1.
</event>
<event>
 7    1  0.3981356E-008  0.4614231E+02  0.7816164E-02  0.1320468E+00
        -11   -1    0    0    0    0  0.00000000000E+00  0.00000000000E+00  0.45593999997E+02  0.45594000000E+02  0.51100000000E-03 0.  1.
         11   -1    0    0    0    0 -0.00000000000E+00 -0.00000000000E+00 -0.45593999997E+02  0.45594000000E+02  0.51100000000E-03 0. -1.
    9900012    2    1    2    0    0 -0.17075387189E+01 -0.45791883981E+01 -0.44779788420E+02  0.46142310908E+02  0.99999375031E+01 0.  0.
        -12    1    1    2    0    0  0.17075387189E+01  0.45791883981E+01  0.44779788420E+02  0.45045689092E+02  0.00000000000E+00 0.  1.
         11    1    3    3    0    0  0.17261445178E+01 -0.23783827095E+01 -0.21033785325E+02  0.21238088534E+02  0.51100000000E-03 0. -1.
        -11    1    3    3    0    0  0.17699639697E+01  0.86793294000E-01 -0.69526229220E+01  0.71749056639E+01  0.51100000000E-03 0.  1.
         12    1    3    3    0    0 -0.52036472064E+01 -0.22875989826E+01 -0.16793380173E+02  0.17729316710E+02  0.00000000000E+00 0. -1.
</event>
<event>
 7    1  0.3981356E-008  0.4614232E+02  0.7816164E-02  0.1320468E+00
        -11   -1    0    0    0    0  0.00000000000E+00  0.00000000000E+00  0.45593999997E+02  0.45594000000E+02  0.51100000000E-03 0.  1.
         11   -1    0    0    0    0 -0.00000000000E+00 -0.00000000000E+00 -0.45593999997E+02  0.45594000000E+02  0.51100000000E-03 0. -1.
    9900012    2    1    2    0    0 -0.17764993120E+02  0.41382743674E+02  0.99348690894E+00  0.46142317956E+02  0.10000001780E+02 0.  0.
        -12    1    1    2    0    0  0.17764993120E+02 -0.41382743674E+02 -0.99348690894E+00  0.45045682044E+02  0.00000000000E+00 0.  1.
         11    1    3    3    0    0 -0.27839456537E+01  0.81171644723E+01  0.10344757056E+01  0.86434282967E+01  0.51100000000E-03 0. -1.
        -11    1    3    3    0    0 -0.14045351017E+02  0.32428212194E+02 -0.17449070497E+01  0.35382277092E+02  0.51100000000E-03 0.  1.
        -12    1    3    3    0    0 -0.93569644862E+00  0.83736700735E+00  0.17039182530E+01  0.21166125677E+01  0.00000000000E+00 0.  1.
</event>
<event>
 7    1  0.3981356E-008  0.4614232E+02  0.7816164E-02  0.1320468E+00
        -11   -1    0    0    0    0  0.00000000000E+00  0.00000000000E+00  0.45593999997E+02  0.45594000000E+02  0.51100000000E-03 0. -1.
         11   -1    0    0    0    0 -0.00000000000E+00 -0.00000000000E+00 -0.45593999997E+02  0.45594000000E+02  0.51100000000E-03 0.  1.
    9900012    2    1    2    0    0 -0.25119631823E+02 -0.18488747148E+02  0.32500518721E+02  0.46142318840E+02  0.10000009840E+02 0.  0.
        -12    1    1    2    0    0  0.25119631823E+02  0.18488747148E+02 -0.32500518721E+02  0.45045681160E+02  0.00000000000E+00 0.  1.
         11    1    3    3    0    0 -0.18720836830E+01 -0.30585869017E+01  0.69069963242E+01  0.77824321157E+01  0.51100000000E-03 0. -1.
        -11    1    3    3    0    0 -0.41016815930E+01 -0.21305646401E+01  0.76666493266E+01  0.89521287823E+01  0.51100000000E-03 0.  1.
        -12    1    3    3    0    0 -0.19145866547E+02 -0.13299595607E+02  0.17926873070E+02  0.29407757942E+02  0.00000000000E+00 0.  1.
</event>
<event>
 7    1  0.3981356E-008  0.4614232E+02  0.7816164E-02  0.1320468E+00
        -11   -1    0    0    0    0  0.00000000000E+00  0.00000000000E+00  0.45593999997E+02  0.45594000000E+02  0.51100000000E-03 0.  1.
         11   -1    0    0    0    0 -0.00000000000E+00 -0.00000000000E+00 -0.45593999997E+02  0.45594000000E+02  0.51100000000E-03 0. -1.
    9900012    2    1    2    0    0 -0.16803224510E+02 -0.18625717686E+02 -0.37414539319E+02  0.46142318013E+02  0.10000002293E+02 0.  0.
        -12    1    1    2    0    0  0.16803224510E+02  0.18625717686E+02  0.37414539319E+02  0.45045681987E+02  0.00000000000E+00 0.  1.
         11    1    3    3    0    0 -0.96263396762E+01 -0.12744965633E+02 -0.19863414050E+02  0.25488346014E+02  0.51100000000E-03 0. -1.
        -11    1    3    3    0    0 -0.41348148256E+01 -0.63707951254E+01 -0.10499353138E+02  0.12958400393E+02  0.51100000000E-03 0.  1.
        -12    1    3    3    0    0 -0.30420700082E+01  0.49004307206E+00 -0.70517721314E+01  0.76955716058E+01  0.00000000000E+00 0.  1.
</event>
<event>
 7    1  0.3981356E-008  0.4614232E+02  0.7816164E-02  0.1320468E+00
        -11   -1    0    0    0    0  0.00000000000E+00  0.00000000000E+00  0.45593999997E+02  0.45594000000E+02  0.51100000000E-03 0.  1.
         11   -1    0    0    0    0 -0.00000000000E+00 -0.00000000000E+00 -0.45593999997E+02  0.45594000000E+02  0.51100000000E-03 0. -1.
    9900012    2    1    2    0    0 -0.28776684961E+02 -0.27676443402E+02 -0.20857381990E+02  0.46142317630E+02  0.99999988038E+01 0.  0.
        -12    1    1    2    0    0  0.28776684961E+02  0.27676443402E+02  0.20857381990E+02  0.45045682370E+02  0.00000000000E+00 0.  1.
         11    1    3    3    0    0 -0.10423881462E+02 -0.13771783840E+02 -0.46079422352E+01  0.17876030509E+02  0.51100000000E-03 0.  1.
        -11    1    3    3    0    0 -0.89647636139E+01 -0.77769710108E+01 -0.74274433844E+01  0.14000542141E+02  0.51100000000E-03 0. -1.
        -12    1    3    3    0    0 -0.93880398845E+01 -0.61276885510E+01 -0.88219963707E+01  0.14265744979E+02  0.00000000000E+00 0.  1.
</event>
<event>
 7    1  0.3981356E-008  0.4614232E+02  0.7816164E-02  0.1320468E+00
        -11   -1    0    0    0    0  0.00000000000E+00  0.00000000000E+00  0.45593999997E+02  0.45594000000E+02  0.51100000000E-03 0. -1.
         11   -1    0    0    0    0 -0.00000000000E+00 -0.00000000000E+00 -0.45593999997E+02  0.45594000000E+02  0.51100000000E-03 0.  1.
    9900012    2    1    2    0    0 -0.28421199026E+02 -0.21056817344E+02  0.27891923710E+02  0.46142317421E+02  0.99999968966E+01 0.  0.
        -12    1    1    2    0    0  0.28421199026E+02  0.21056817344E+02 -0.27891923710E+02  0.45045682579E+02  0.00000000000E+00 0.  1.
         11    1    3    3    0    0 -0.15222935145E+02 -0.84561998687E+01  0.16509390882E+02  0.23995938368E+02  0.51100000000E-03 0. -1.
        -11    1    3    3    0    0 -0.98735765009E+01 -0.63656748625E+01  0.55916601564E+01  0.13010610783E+02  0.51100000000E-03 0.  1.
        -12    1    3    3    0    0 -0.33246873807E+01 -0.62349426132E+01  0.57908726723E+01  0.91357682696E+01  0.00000000000E+00 0.  1.
</event>
<event>
 7    1  0.3981356E-008  0.4614232E+02  0.7816164E-02  0.1320468E+00
        -11   -1    0    0    0    0  0.00000000000E+00  0.00000000000E+00  0.45593999997E+02  0.45594000000E+02  0.51100000000E-03 0. -1.
         11   -1    0    0    0    0 -0.00000000000E+00 -0.00000000000E+00 -0.45593999997E+02  0.45594000000E+02  0.51100000000E-03 0.  1.
    9900012    2    1    2    0    0 -0.12264365768E+02  0.37940888266E+02  0.20956809103E+02  0.46142317433E+02  0.99999970108E+01 0.  0.
        -12    1    1    2    0    0  0.12264365768E+02 -0.37940888266E+02 -0.20956809103E+02  0.45045682567E+02  0.00000000000E+00 0.  1.
         11    1    3    3    0    0 -0.97985681829E+01  0.26088331509E+02  0.12840889499E+02  0.30683895169E+02  0.51100000000E-03 0. -1.
        -11    1    3    3    0    0 -0.32532238552E+01  0.37705833955E+01  0.37869734283E+01  0.62563513810E+01  0.51100000000E-03 0.  1.
         12    1    3    3    0    0  0.78742626987E+00  0.80819733613E+01  0.43289461759E+01  0.92020708830E+01  0.00000000000E+00 0. -1.
</event>
<event>
 7    1  0.3981356E-008  0.4614232E+02  0.7816164E-02  0.1320468E+00
        -11   -1    0    0    0    0  0.00000000000E+00  0.00000000000E+00  0.45593999997E+02  0.45594000000E+02  0.51100000000E-03 0. -1.
         11   -1    0    0    0    0 -0.00000000000E+00 -0.00000000000E+00 -0.45593999997E+02  0.45594000000E+02  0.51100000000E-03 0.  1.
    9900012    2    1    2    0    0  0.96631363458E+00 -0.41791993372E+02  0.16781211848E+02  0.46142317153E+02  0.99999944519E+01 0.  0.
        -12    1    1    2    0    0 -0.96631363458E+00  0.41791993372E+02 -0.16781211848E+02  0.45045682847E+02  0.00000000000E+00 0.  1.
         11    1    3    3    0    0 -0.19875257541E+01 -0.10513861968E+02  0.17261226711E+01  0.10838406333E+02  0.51100000000E-03 0.  1.
        -11    1    3    3    0    0 -0.61423017727E+00 -0.21680431360E+02  0.10496416049E+02  0.24095500261E+02  0.51100000000E-03 0. -1.
        -12    1    3    3    0    0  0.35680695659E+01 -0.95977000438E+01  0.45586731285E+01  0.11208410559E+02  0.00000000000E+00 0.  1.
</event>
<event>
 7    1  0.3981356E-008  0.4614232E+02  0.7816164E-02  0.1320468E+00
        -11   -1    0    0    0    0  0.00000000000E+00  0.00000000000E+00  0.45593999997E+02  0.45594000000E+02  0.51100000000E-03 0. -1.
         11   -1    0    0    0    0 -0.00000000000E+00 -0.00000000000E+00 -0.45593999997E+02  0.45594000000E+02  0.51100000000E-03 0.  1.
    9900012    2    1    2    0    0  0.51708428521E+00 -0.39187814885E+02  0.22207236410E+02  0.46142316959E+02  0.99999926903E+01 0.  0.
        -12    1    1    2    0    0 -0.51708428521E+00  0.39187814885E+02 -0.22207236410E+02  0.45045683041E+02  0.00000000000E+00 0.  1.
         11    1    3    3    0    0  0.11508234974E+01 -0.18803346605E+02  0.98955510440E+01  0.21279383661E+02  0.51100000000E-03 0. -1.
        -11    1    3    3    0    0  0.21673583392E+01 -0.55363013856E+01  0.61230726398E+01  0.85346408253E+01  0.51100000000E-03 0.  1.
        -12    1    3    3    0    0 -0.28010975514E+01 -0.14848166895E+02  0.61886127265E+01  0.16328292474E+02  0.00000000000E+00 0.  1.
</event>
<event>
 7    1  0.3981356E-008  0.4614232E+02  0.7816164E-02  0.1320468E+00
        -11   -1    0    0    0    0  0.00000000000E+00  0.00000000000E+00  0.45593999997E+02  0.45594000000E+02  0.51100000000E-03 0.  1.
         11   -1    0    0    0    0 -0.00000000000E+00 -0.00000000000E+00 -0.45593999997E+02  0.45594000000E+02  0.51100000000E-03 0. -1.
    9900012    2    1    2    0    0 -0.23598204698E+02 -0.35043711938E+01 -0.38209390524E+02  0.46142318668E+02  0.10000008270E+02 0.  0.
        -12    1    1    2    0    0  0.23598204698E+02  0.35043711938E+01  0.38209390524E+02  0.45045681332E+02  0.00000000000E+00 0.  1.
         11    1    3    3    0    0 -0.37834674463E+01 -0.19036790669E+01 -0.40640949613E+01  0.58698797281E+01  0.51100000000E-03 0. -1.
        -11    1    3    3    0    0 -0.19324125269E+01  0.23461928043E+01 -0.47158155269E+01  0.56105040053E+01  0.51100000000E-03 0.  1.
         12    1    3    3    0    0 -0.17882324725E+02 -0.39468849312E+01 -0.29429480036E+02  0.34661934935E+02  0.00000000000E+00 0. -1.
</event>
<event>
 7    1  0.3981356E-008  0.4614232E+02  0.7816164E-02  0.1320468E+00
        -11   -1    0    0    0    0  0.00000000000E+00  0.00000000000E+00  0.45593999997E+02  0.45594000000E+02  0.51100000000E-03 0. -1.
         11   -1    0    0    0    0 -0.00000000000E+00 -0.00000000000E+00 -0.45593999997E+02  0.45594000000E+02  0.51100000000E-03 0.  1.
    9900012    2    1    2    0    0 -0.31845245071E+01  0.84771561241E+01  0.44126071105E+02  0.46142317372E+02  0.99999964486E+01 0.  0.
        -12    1    1    2    0    0  0.31845245071E+01 -0.84771561241E+01 -0.44126071105E+02  0.45045682628E+02  0.00000000000E+00 0.  1.
         11    1    3    3    0    0  0.13746256926E+00  0.38150957269E+01  0.27252835150E+02  0.27518918499E+02  0.51100000000E-03 0. -1.
        -11    1    3    3    0    0 -0.15100965322E+01 -0.14041550133E+00  0.96133297755E+01  0.97322257312E+01  0.51100000000E-03 0.  1.
         12    1    3    3    0    0 -0.18118905441E+01  0.48024758986E+01  0.72599061791E+01  0.88911731414E+01  0.00000000000E+00 0. -1.
</event>
<event>
 7    1  0.3981356E-008  0.4614232E+02  0.7816164E-02  0.1320468E+00
        -11   -1    0    0    0    0  0.00000000000E+00  0.00000000000E+00  0.45593999997E+02  0.45594000000E+02  0.51100000000E-03 0.  1.
         11   -1    0    0    0    0 -0.00000000000E+00 -0.00000000000E+00 -0.45593999997E+02  0.45594000000E+02  0.51100000000E-03 0. -1.
    9900012    2    1    2    0    0 -0.75181433852E+01  0.21160538101E+02 -0.39048977680E+02  0.46142317515E+02  0.99999977592E+01 0.  0.
        -12    1    1    2    0    0  0.75181433852E+01 -0.21160538101E+02  0.39048977680E+02  0.45045682485E+02  0.00000000000E+00 0.  1.
         11    1    3    3    0    0 -0.46824596917E+01  0.74693108412E+01 -0.18677943673E+02  0.20653852264E+02  0.51100000000E-03 0. -1.
        -11    1    3    3    0    0  0.18243892812E+01  0.55729851905E+01 -0.92524338381E+01  0.10954181502E+02  0.51100000000E-03 0.  1.
        -12    1    3    3    0    0 -0.46600729747E+01  0.81182420689E+01 -0.11118600168E+02  0.14534283750E+02  0.00000000000E+00 0.  1.
</event>
<event>
 7    1  0.3981356E-008  0.4614232E+02  0.7816164E-02  0.1320468E+00
        -11   -1    0    0    0    0  0.00000000000E+00  0.00000000000E+00  0.45593999997E+02  0.45594000000E+02  0.51100000000E-03 0.  1.
         11   -1    0    0    0    0 -0.00000000000E+00 -0.00000000000E+00 -0.45593999997E+02  0.45594000000E+02  0.51100000000E-03 0. -1.
    9900012    2    1    2    0    0 -0.29991593596E+01 -0.11322443258E+02 -0.43496216054E+02  0.46142317752E+02  0.99999999139E+01 0.  0.
        -12    1    1    2    0    0  0.29991593596E+01  0.11322443258E+02  0.43496216054E+02  0.45045682248E+02  0.00000000000E+00 0.  1.
         11    1    3    3    0    0 -0.27020879056E+01 -0.59116759962E+01 -0.31979254847E+02  0.32633141635E+02  0.51100000000E-03 0. -1.
        -11    1    3    3    0    0 -0.11979916858E+00 -0.26894449416E+01 -0.10066670739E+02  0.10420428300E+02  0.51100000000E-03 0.  1.
        -12    1    3    3    0    0 -0.17727228541E+00 -0.27213223198E+01 -0.14502904683E+01  0.30887478165E+01  0.00000000000E+00 0.  1.
</event>
<event>
 7    1  0.3981356E-008  0.4614232E+02  0.7816164E-02  0.1320468E+00
        -11   -1    0    0    0    0  0.00000000000E+00  0.00000000000E+00  0.45593999997E+02  0.45594000000E+02  0.51100000000E-03 0.  1.
         11   -1    0    0    0    0 -0.00000000000E+00 -0.00000000000E+00 -0.45593999997E+02  0.45594000000E+02  0.51100000000E-03 0. -1.
    9900012    2    1    2    0    0 -0.24450778872E+01  0.40815257253E+02 -0.18901054048E+02  0.46142317914E+02  0.10000001391E+02 0.  0.
        -12    1    1    2    0    0  0.24450778872E+01 -0.40815257253E+02  0.18901054048E+02  0.45045682086E+02  0.00000000000E+00 0.  1.
         11    1    3    3    0    0 -0.28866629868E+01  0.24964015874E+02 -0.13623466890E+02  0.28585551633E+02  0.51100000000E-03 0. -1.
        -11    1    3    3    0    0  0.27079697777E+01  0.10743050105E+02 -0.42959203773E+01  0.11882809349E+02  0.51100000000E-03 0.  1.
         12    1    3    3    0    0 -0.22663846781E+01  0.51081912732E+01 -0.98166678049E+00  0.56739569315E+01  0.00000000000E+00 0. -1.
</event>
<event>
 7    1  0.3981356E-008  0.4614232E+02  0.7816164E-02  0.1320468E+00
        -11   -1    0    0    0    0  0.00000000000E+00  0.00000000000E+00  0.45593999997E+02  0.45594000000E+02  0.51100000000E-03 0. -1.
         11   -1    0    0    0    0 -0.00000000000E+00 -0.00000000000E+00 -0.45593999997E+02  0.45594000000E+02  0.51100000000E-03 0.  1.
    9900012    2    1    2    0    0 -0.39559740651E+02 -0.14807443186E+02  0.15648643297E+02  0.46142317730E+02  0.99999997207E+01 0.  0.
        -12    1    1    2    0    0  0.39559740651E+02  0.14807443186E+02 -0.15648643297E+02  0.45045682270E+02  0.00000000000E+00 0.  1.
         11    1    3    3    0    0 -0.27660618323E+02 -0.87776064608E+01  0.10123712730E+02  0.30735089733E+02  0.51100000000E-03 0. -1.
        -11    1    3    3    0    0 -0.75435779847E+01 -0.18857749430E+01  0.52632567581E+01  0.93895467361E+01  0.51100000000E-03 0.  1.
        -12    1    3    3    0    0 -0.43555443434E+01 -0.41440617825E+01  0.26167380937E+00  0.60176812617E+01  0.00000000000E+00 0.  1.
</event>
<event>
 7    1  0.3981356E-008  0.4614232E+02  0.7816164E-02  0.1320468E+00
        -11   -1    0    0    0    0  0.00000000000E+00  0.00000000000E+00  0.45593999997E+02  0.45594000000E+02  0.51100000000E-03 0. -1.
         11   -1    0    0    0    0 -0.00000000000E+00 -0.00000000000E+00 -0.45593999997E+02  0.45594000000E+02  0.51100000000E-03 0.  1.
    9900012    2    1    2    0    0  0.32619287188E+01  0.40095027665E+01  0.44748152125E+02  0.46142318631E+02  0.10000007934E+02 0.  0.
        -12    1    1    2    0    0 -0.32619287188E+01 -0.40095027665E+01 -0.44748152125E+02  0.45045681369E+02  0.00000000000E+00 0.  1.
         11    1    3    3    0    0 -0.96536427342E+00  0.37986708760E+01  0.27968713743E+02  0.28242003776E+02  0.51100000000E-03 0. -1.
        -11    1    3    3    0    0 -0.89163692439E+00 -0.19630122354E+00  0.12790692384E+01  0.15714862243E+01  0.51100000000E-03 0.  1.
         12    1    3    3    0    0  0.51189299166E+01  0.40713311400E+00  0.15500369143E+02  0.16328828631E+02  0.00000000000E+00 0. -1.
</event>
<event>
 7    1  0.3981356E-008  0.4614231E+02  0.7816164E-02  0.1320468E+00
        -11   -1    0    0    0    0  0.00000000000E+00  0.00000000000E+00  0.45593999997E+02  0.45594000000E+02  0.51100000000E-03 0.  1.
         11   -1    0    0    0    0 -0.00000000000E+00 -0.00000000000E+00 -0.45593999997E+02  0.45594000000E+02  0.51100000000E-03 0. -1.
    9900012    2    1    2    0    0 -0.44941932659E+02 -0.27211174682E+00 -0.30434162426E+01  0.46142314987E+02  0.99999746998E+01 0.  0.
        -12    1    1    2    0    0  0.44941932659E+02  0.27211174682E+00  0.30434162426E+01  0.45045685013E+02  0.00000000000E+00 0.  1.
         11    1    3    3    0    0 -0.21700322965E+02  0.96917659305E-01 -0.49713666023E+01  0.22262701902E+02  0.51100000000E-03 0. -1.
        -11    1    3    3    0    0 -0.37085838045E+01 -0.15996741011E+01  0.14838143753E+01  0.43028195902E+01  0.51100000000E-03 0.  1.
        -12    1    3    3    0    0 -0.19533025889E+02  0.12306446950E+01  0.44413598440E+00  0.19576793494E+02  0.00000000000E+00 0.  1.
</event>
<event>
 7    1  0.3981356E-008  0.4614232E+02  0.7816164E-02  0.1320468E+00
        -11   -1    0    0    0    0  0.00000000000E+00  0.00000000000E+00  0.45593999997E+02  0.45594000000E+02  0.51100000000E-03 0. -1.
         11   -1    0    0    0    0 -0.00000000000E+00 -0.00000000000E+00 -0.45593999997E+02  0.45594000000E+02  0.51100000000E-03 0.  1.
    9900012    2    1    2    0    0  0.31518324968E+02  0.31672259729E+02 -0.57075950395E+01  0.46142317785E+02  0.10000000217E+02 0.  0.
        -12    1    1    2    0    0 -0.31518324968E+02 -0.31672259729E+02  0.57075950395E+01  0.45045682215E+02  0.00000000000E+00 0.  1.
         11    1    3    3    0    0  0.22179826614E+01  0.31333235754E+01  0.12864628103E+01  0.40487220870E+01  0.51100000000E-03 0. -1.
        -11    1    3    3    0    0  0.11001118548E+02  0.67188442507E+01 -0.37902164106E+01  0.13436265035E+02  0.51100000000E-03 0.  1.
         12    1    3    3    0    0  0.18299223758E+02  0.21820091903E+02 -0.32038414392E+01  0.28657330663E+02  0.00000000000E+00 0. -1.
</event>
<event>
 7    1  0.3981356E-008  0.4614233E+02  0.7816164E-02  0.1320468E+00
        -11   -1    0    0    0    0  0.00000000000E+00  0.00000000000E+00  0.45593999997E+02  0.45594000000E+02  0.51100000000E-03 0.  1.
         11   -1    0    0    0    0 -0.00000000000E+00 -0.00000000000E+00 -0.45593999997E+02  0.45594000000E+02  0.51100000000E-03 0. -1.
    9900012    2    1    2    0    0 -0.34878042249E+02  0.38218581235E+01 -0.28249394063E+02  0.46142326561E+02  0.10000080240E+02 0.  0.
        -12    1    1    2    0    0  0.34878042249E+02 -0.38218581235E+01  0.28249394063E+02  0.45045673439E+02  0.00000000000E+00 0.  1.
         11    1    3    3    0    0 -0.17041667428E+02 -0.24132870413E+01 -0.13698239463E+02  0.21997366837E+02  0.51100000000E-03 0. -1.
        -11    1    3    3    0    0 -0.14101233397E+02  0.32121906386E+01 -0.10900282134E+02  0.18110193342E+02  0.51100000000E-03 0.  1.
        -12    1    3    3    0    0 -0.37351414242E+01  0.30229545262E+01 -0.36508724657E+01  0.60347663821E+01  0.00000000000E+00 0.  1.
</event>
<event>
 7    1  0.3981356E-008  0.4614232E+02  0.7816164E-02  0.1320468E+00
        -11   -1    0    0    0    0  0.00000000000E+00  0.00000000000E+00  0.45593999997E+02  0.45594000000E+02  0.51100000000E-03 0. -1.
         11   -1    0    0    0    0 -0.00000000000E+00 -0.00000000000E+00 -0.45593999997E+02  0.45594000000E+02  0.51100000000E-03 0.  1.
    9900012    2    1    2    0    0  0.35156382455E+02  0.25435186819E+02  0.12091051598E+02  0.46142317803E+02  0.10000000381E+02 0.  0.
        -12    1    1    2    0    0 -0.35156382455E+02 -0.25435186819E+02 -0.12091051598E+02  0.45045682197E+02  0.00000000000E+00 0.  1.
         11    1    3    3    0    0  0.26206859651E+02  0.14722496834E+02  0.50028199294E+01  0.30472604308E+02  0.51100000000E-03 0. -1.
        -11    1    3    3    0    0  0.52698341667E+01  0.66732773424E+01  0.45657689794E+01  0.96514262815E+01  0.51100000000E-03 0.  1.
         12    1    3    3    0    0  0.36796886376E+01  0.40394126432E+01  0.25224626887E+01  0.60182872138E+01  0.00000000000E+00 0. -1.
</event>
<event>
 7    1  0.3981356E-008  0.4614232E+02  0.7816164E-02  0.1320468E+00
        -11   -1    0    0    0    0  0.00000000000E+00  0.00000000000E+00  0.45593999997E+02  0.45594000000E+02  0.51100000000E-03 0.  1.
         11   -1    0    0    0    0 -0.00000000000E+00 -0.00000000000E+00 -0.45593999997E+02  0.45594000000E+02  0.51100000000E-03 0. -1.
    9900012    2    1    2    0    0 -0.23349449020E+02 -0.22688037851E+02 -0.31131490075E+02  0.46142317573E+02  0.99999982842E+01 0.  0.
        -12    1    1    2    0    0  0.23349449020E+02  0.22688037851E+02  0.31131490075E+02  0.45045682427E+02  0.00000000000E+00 0.  1.
         11    1    3    3    0    0 -0.16920464531E+02 -0.14851895697E+02 -0.18143007514E+02  0.28914523127E+02  0.51100000000E-03 0. -1.
        -11    1    3    3    0    0 -0.28642526159E+01 -0.44937681050E+01 -0.30180226535E+01  0.61242432860E+01  0.51100000000E-03 0.  1.
        -12    1    3    3    0    0 -0.35647318732E+01 -0.33423740493E+01 -0.99704599068E+01  0.11103551160E+02  0.00000000000E+00 0.  1.
</event>
<event>
 7    1  0.3981356E-008  0.4614232E+02  0.7816164E-02  0.1320468E+00
        -11   -1    0    0    0    0  0.00000000000E+00  0.00000000000E+00  0.45593999997E+02  0.45594000000E+02  0.51100000000E-03 0.  1.
         11   -1    0    0    0    0 -0.00000000000E+00 -0.00000000000E+00 -0.45593999997E+02  0.45594000000E+02  0.51100000000E-03 0. -1.
    9900012    2    1    2    0    0  0.37019480483E+02  0.15043192623E+02 -0.20793607481E+02  0.46142315505E+02  0.99999794254E+01 0.  0.
        -12    1    1    2    0    0 -0.37019480483E+02 -0.15043192623E+02  0.20793607481E+02  0.45045684495E+02  0.00000000000E+00 0.  1.
         11    1    3    3    0    0  0.48393902828E+01  0.48523365953E+00 -0.42077218978E+01  0.64311798174E+01  0.51100000000E-03 0. -1.
        -11    1    3    3    0    0  0.32194164784E+02  0.13322415776E+02 -0.16126164995E+02  0.38392762417E+02  0.51100000000E-03 0.  1.
        -12    1    3    3    0    0 -0.14074583678E-01  0.12355431874E+01 -0.45972058855E+00  0.13183732709E+01  0.00000000000E+00 0.  1.
</event>
<event>
 7    1  0.3981356E-008  0.4614232E+02  0.7816164E-02  0.1320468E+00
        -11   -1    0    0    0    0  0.00000000000E+00  0.00000000000E+00  0.45593999997E+02  0.45594000000E+02  0.51100000000E-03 0.  1.
         11   -1    0    0    0    0 -0.00000000000E+00 -0.00000000000E+00 -0.45593999997E+02  0.45594000000E+02  0.51100000000E-03 0. -1.
    9900012    2    1    2    0    0 -0.88350024766E+01 -0.50943947679E+01 -0.43875999682E+02  0.46142317911E+02  0.10000001364E+02 0.  0.
        -12    1    1    2    0    0  0.88350024766E+01  0.50943947679E+01  0.43875999682E+02  0.45045682089E+02  0.00000000000E+00 0.  1.
         11    1    3    3    0    0 -0.32338623462E+01  0.31387782088E+00 -0.10111445493E+02  0.10620626873E+02  0.51100000000E-03 0. -1.
        -11    1    3    3    0    0 -0.52845265783E+01 -0.28883950334E+01 -0.10387212622E+02  0.12006799463E+02  0.51100000000E-03 0.  1.
         12    1    3    3    0    0 -0.31661355217E+00 -0.25198775554E+01 -0.23377341567E+02  0.23514891575E+02  0.00000000000E+00 0. -1.
</event>
<event>
 7    1  0.3981356E-008  0.4614232E+02  0.7816164E-02  0.1320468E+00
        -11   -1    0    0    0    0  0.00000000000E+00  0.00000000000E+00  0.45593999997E+02  0.45594000000E+02  0.51100000000E-03 0.  1.
         11   -1    0    0    0    0 -0.00000000000E+00 -0.00000000000E+00 -0.45593999997E+02  0.45594000000E+02  0.51100000000E-03 0. -1.
    9900012    2    1    2    0    0  0.37969487403E+02 -0.20020691661E+02 -0.13660285022E+02  0.46142318130E+02  0.10000003368E+02 0.  0.
        -12    1    1    2    0    0 -0.37969487403E+02  0.20020691661E+02  0.13660285022E+02  0.45045681870E+02  0.00000000000E+00 0.  1.
         11    1    3    3    0    0  0.24463470294E+02 -0.15560348496E+02 -0.63357373858E+01  0.29677051617E+02  0.51100000000E-03 0. -1.
        -11    1    3    3    0    0  0.94664275811E+01 -0.49337765766E+01 -0.51279967942E+01  0.11842793329E+02  0.51100000000E-03 0.  1.
        -12    1    3    3    0    0  0.40395895272E+01  0.47343341141E+00 -0.21965508417E+01  0.46224731847E+01  0.00000000000E+00 0.  1.
</event>
<event>
 7    1  0.3981356E-008  0.4614232E+02  0.7816164E-02  0.1320468E+00
        -11   -1    0    0    0    0  0.00000000000E+00  0.00000000000E+00  0.45593999997E+02  0.45594000000E+02  0.51100000000E-03 0.  1.
         11   -1    0    0    0    0 -0.00000000000E+00 -0.00000000000E+00 -0.45593999997E+02  0.45594000000E+02  0.51100000000E-03 0. -1.
    9900012    2    1    2    0    0 -0.34378435005E+02 -0.12444399382E+02 -0.26312993692E+02  0.46142317561E+02  0.99999981762E+01 0.  0.
        -12    1    1    2    0    0  0.34378435005E+02  0.12444399382E+02  0.26312993692E+02  0.45045682439E+02  0.00000000000E+00 0.  1.
         11    1    3    3    0    0 -0.16886284214E+01 -0.63995360220E+00 -0.35203549803E+01  0.39565017385E+01  0.51100000000E-03 0. -1.
        -11    1    3    3    0    0 -0.21838463187E+01 -0.63487246979E+00 -0.41445134244E+01  0.47274982372E+01  0.51100000000E-03 0.  1.
        -12    1    3    3    0    0 -0.30505960265E+02 -0.11169573310E+02 -0.18648125287E+02  0.37458317585E+02  0.00000000000E+00 0.  1.
</event>
<event>
 7    1  0.3981356E-008  0.4614232E+02  0.7816164E-02  0.1320468E+00
        -11   -1    0    0    0    0  0.00000000000E+00  0.00000000000E+00  0.45593999997E+02  0.45594000000E+02  0.51100000000E-03 0. -1.
         11   -1    0    0    0    0 -0.00000000000E+00 -0.00000000000E+00 -0.45593999997E+02  0.45594000000E+02  0.51100000000E-03 0.  1.
    9900012    2    1    2    0    0 -0.11533777549E+02  0.20980727754E+02  0.38156186654E+02  0.46142317170E+02  0.99999946091E+01 0.  0.
        -12    1    1    2    0    0  0.11533777549E+02 -0.20980727754E+02 -0.38156186654E+02  0.45045682830E+02  0.00000000000E+00 0.  1.
         11    1    3    3    0    0 -0.25720560930E+01  0.97861553700E+01  0.17798330447E+02  0.20473516465E+02  0.51100000000E-03 0. -1.
        -11    1    3    3    0    0 -0.24191987199E+01  0.16870632900E+01  0.96801070910E+00  0.31041504450E+01  0.51100000000E-03 0.  1.
         12    1    3    3    0    0 -0.65425227357E+01  0.95075090938E+01  0.19389845498E+02  0.22564650260E+02  0.00000000000E+00 0. -1.
</event>
<event>
 7    1  0.3981356E-008  0.4614232E+02  0.7816164E-02  0.1320468E+00
        -11   -1    0    0    0    0  0.00000000000E+00  0.00000000000E+00  0.45593999997E+02  0.45594000000E+02  0.51100000000E-03 0.  1.
         11   -1    0    0    0    0 -0.00000000000E+00 -0.00000000000E+00 -0.45593999997E+02  0.45594000000E+02  0.51100000000E-03 0. -1.
    9900012    2    1    2    0    0  0.73088536742E+01  0.43416555782E+02 -0.95234914131E+01  0.46142317114E+02  0.99999940994E+01 0.  0.
        -12    1    1    2    0    0 -0.73088536742E+01 -0.43416555782E+02  0.95234914131E+01  0.45045682886E+02  0.00000000000E+00 0.  1.
         11    1    3    3    0    0  0.37352773950E+00  0.19284117830E+02 -0.40101720061E+01  0.19700208203E+02  0.51100000000E-03 0. -1.
        -11    1    3    3    0    0  0.99739510389E-01  0.10772356899E+02 -0.33375039947E+01  0.11277967649E+02  0.51100000000E-03 0.  1.
        -12    1    3    3    0    0  0.68355864243E+01  0.13360081053E+02 -0.21758154124E+01  0.15164141262E+02  0.00000000000E+00 0.  1.
</event>
<event>
 7    1  0.3981356E-008  0.4614231E+02  0.7816164E-02  0.1320468E+00
        -11   -1    0    0    0    0  0.00000000000E+00  0.00000000000E+00  0.45593999997E+02  0.45594000000E+02  0.51100000000E-03 0.  1.
         11   -1    0    0    0    0 -0.00000000000E+00 -0.00000000000E+00 -0.45593999997E+02  0.45594000000E+02  0.51100000000E-03 0. -1.
    9900012    2    1    2    0    0 -0.49706392473E+00  0.22046221457E+02 -0.39278888167E+02  0.46142311985E+02  0.99999473308E+01 0.  0.
        -12    1    1    2    0    0  0.49706392473E+00 -0.22046221457E+02  0.39278888167E+02  0.45045688015E+02  0.00000000000E+00 0.  1.
         11    1    3    3    0    0 -0.34499949123E+01  0.68054820141E+01 -0.10337321965E+02  0.12848240191E+02  0.51100000000E-03 0. -1.
        -11    1    3    3    0    0  0.38579805012E+01  0.12190723475E+02 -0.19389098711E+02  0.23225737911E+02  0.51100000000E-03 0.  1.
        -12    1    3    3    0    0 -0.90504951362E+00  0.30500159674E+01 -0.95524674906E+01  0.10068333883E+02  0.00000000000E+00 0.  1.
</event>
<event>
 7    1  0.3981356E-008  0.4614232E+02  0.7816164E-02  0.1320468E+00
        -11   -1    0    0    0    0  0.00000000000E+00  0.00000000000E+00  0.45593999997E+02  0.45594000000E+02  0.51100000000E-03 0.  1.
         11   -1    0    0    0    0 -0.00000000000E+00 -0.00000000000E+00 -0.45593999997E+02  0.45594000000E+02  0.51100000000E-03 0. -1.
    9900012    2    1    2    0    0 -0.26629054803E+02 -0.11320373167E+02 -0.34523269031E+02  0.46142317488E+02  0.99999975138E+01 0.  0.
        -12    1    1    2    0    0  0.26629054803E+02  0.11320373167E+02  0.34523269031E+02  0.45045682512E+02  0.00000000000E+00 0.  1.
         11    1    3    3    0    0 -0.48013186617E+01 -0.12328548239E+01 -0.84511414062E+01  0.97976723377E+01  0.51100000000E-03 0. -1.
        -11    1    3    3    0    0 -0.15358756951E+02 -0.28651287805E+01 -0.16301874741E+02  0.22579891460E+02  0.51100000000E-03 0.  1.
         12    1    3    3    0    0 -0.64689791904E+01 -0.72223895625E+01 -0.97702528836E+01  0.13764753691E+02  0.00000000000E+00 0. -1.
</event>
<event>
 7    1  0.3981356E-008  0.4614232E+02  0.7816164E-02  0.1320468E+00
        -11   -1    0    0    0    0  0.00000000000E+00  0.00000000000E+00  0.45593999997E+02  0.45594000000E+02  0.51100000000E-03 0. -1.
         11   -1    0    0    0    0 -0.00000000000E+00 -0.00000000000E+00 -0.45593999997E+02  0.45594000000E+02  0.51100000000E-03 0.  1.
    9900012    2    1    2    0    0 -0.21380056556E+02 -0.27867651139E+02  0.28202848944E+02  0.46142317778E+02  0.10000000152E+02 0.  0.
        -12    1    1    2    0    0  0.21380056556E+02  0.27867651139E+02 -0.28202848944E+02  0.45045682222E+02  0.00000000000E+00 0.  1.
         11    1    3    3    0    0 -0.14597369283E+01 -0.51248584642E+01  0.71415976876E+01  0.89105232153E+01  0.51100000000E-03 0. -1.
        -11    1    3    3    0    0 -0.14776856125E+01 -0.28673498685E+01  0.42260846204E+01  0.53164877050E+01  0.51100000000E-03 0.  1.
        -12    1    3    3    0    0 -0.18442634015E+02 -0.19875442806E+02  0.16835166636E+02  0.31915306857E+02  0.00000000000E+00 0.  1.
</event>
<event>
 7    1  0.3981356E-008  0.4614232E+02  0.7816164E-02  0.1320468E+00
        -11   -1    0    0    0    0  0.00000000000E+00  0.00000000000E+00  0.45593999997E+02  0.45594000000E+02  0.51100000000E-03 0.  1.
         11   -1    0    0    0    0 -0.00000000000E+00 -0.00000000000E+00 -0.45593999997E+02  0.45594000000E+02  0.51100000000E-03 0. -1.
    9900012    2    1    2    0    0 -0.56024588458E+01 -0.18698696490E+02 -0.40596608569E+02  0.46142318488E+02  0.10000006629E+02 0.  0.
        -12    1    1    2    0    0  0.56024588458E+01  0.18698696490E+02  0.40596608569E+02  0.45045681512E+02  0.00000000000E+00 0.  1.
         11    1    3    3    0    0 -0.42347864575E+01 -0.78315401169E+01 -0.26108111202E+02  0.27584414218E+02  0.51100000000E-03 0. -1.
        -11    1    3    3    0    0 -0.12392204133E+01 -0.10814725716E+02 -0.14708099881E+02  0.18298146407E+02  0.51100000000E-03 0.  1.
        -12    1    3    3    0    0 -0.12845197495E+00 -0.52430657113E-01  0.21960251376E+00  0.25975786364E+00  0.00000000000E+00 0.  1.
</event>
<event>
 7    1  0.3981356E-008  0.4614232E+02  0.7816164E-02  0.1320468E+00
        -11   -1    0    0    0    0  0.00000000000E+00  0.00000000000E+00  0.45593999997E+02  0.45594000000E+02  0.51100000000E-03 0.  1.
         11   -1    0    0    0    0 -0.00000000000E+00 -0.00000000000E+00 -0.45593999997E+02  0.45594000000E+02  0.51100000000E-03 0. -1.
    9900012    2    1    2    0    0 -0.23157241508E+01 -0.29532598530E+02 -0.33934886734E+02  0.46142317722E+02  0.99999996413E+01 0.  0.
        -12    1    1    2    0    0  0.23157241508E+01  0.29532598530E+02  0.33934886734E+02  0.45045682278E+02  0.00000000000E+00 0.  1.
         11    1    3    3    0    0  0.61351005348E+00 -0.43049625466E+01 -0.62945847642E+01  0.76505486554E+01  0.51100000000E-03 0. -1.
        -11    1    3    3    0    0 -0.34002790811E+01 -0.38396203942E+01 -0.33607095686E+01  0.61317984039E+01  0.51100000000E-03 0.  1.
        -12    1    3    3    0    0  0.47104487679E+00 -0.21388015589E+02 -0.24279592401E+02  0.32359970662E+02  0.00000000000E+00 0.  1.
</event>
<event>
 7    1  0.3981356E-008  0.4614232E+02  0.7816164E-02  0.1320468E+00
        -11   -1    0    0    0    0  0.00000000000E+00  0.00000000000E+00  0.45593999997E+02  0.45594000000E+02  0.51100000000E-03 0. -1.
         11   -1    0    0    0    0 -0.00000000000E+00 -0.00000000000E+00 -0.45593999997E+02  0.45594000000E+02  0.51100000000E-03 0.  1.
    9900012    2    1    2    0    0 -0.23160192596E+02 -0.48873397463E+01  0.38325355281E+02  0.46142317984E+02  0.10000002032E+02 0.  0.
        -12    1    1    2    0    0  0.23160192596E+02  0.48873397463E+01 -0.38325355281E+02  0.45045682016E+02  0.00000000000E+00 0.  1.
         11    1    3    3    0    0 -0.13111276210E+02 -0.30258389623E+01  0.17076265937E+02  0.21740748007E+02  0.51100000000E-03 0. -1.
        -11    1    3    3    0    0 -0.65500027806E+00  0.74061509526E+00 -0.37351949358E-01  0.98940967897E+00  0.51100000000E-03 0.  1.
        -12    1    3    3    0    0 -0.93939161076E+01 -0.26021158793E+01  0.21286441294E+02  0.23412160298E+02  0.00000000000E+00 0.  1.
</event>
<event>
 7    1  0.3981356E-008  0.4614232E+02  0.7816164E-02  0.1320468E+00
        -11   -1    0    0    0    0  0.00000000000E+00  0.00000000000E+00  0.45593999997E+02  0.45594000000E+02  0.51100000000E-03 0.  1.
         11   -1    0    0    0    0 -0.00000000000E+00 -0.00000000000E+00 -0.45593999997E+02  0.45594000000E+02  0.51100000000E-03 0. -1.
    9900012    2    1    2    0    0 -0.28805691319E+02 -0.25718749118E+02  0.23192489226E+02  0.46142318020E+02  0.10000002360E+02 0.  0.
        -12    1    1    2    0    0  0.28805691319E+02  0.25718749118E+02 -0.23192489226E+02  0.45045681980E+02  0.00000000000E+00 0.  1.
         11    1    3    3    0    0 -0.13728441881E+02 -0.15622627611E+02  0.10335070204E+02  0.23223916257E+02  0.51100000000E-03 0. -1.
        -11    1    3    3    0    0 -0.52252721738E+01 -0.55399251402E+01  0.27795654498E+01  0.81068011077E+01  0.51100000000E-03 0.  1.
        -12    1    3    3    0    0 -0.98519772640E+01 -0.45561963674E+01  0.10077853572E+02  0.14811600655E+02  0.00000000000E+00 0.  1.
</event>
<event>
 7    1  0.3981356E-008  0.4614232E+02  0.7816164E-02  0.1320468E+00
        -11   -1    0    0    0    0  0.00000000000E+00  0.00000000000E+00  0.45593999997E+02  0.45594000000E+02  0.51100000000E-03 0.  1.
         11   -1    0    0    0    0 -0.00000000000E+00 -0.00000000000E+00 -0.45593999997E+02  0.45594000000E+02  0.51100000000E-03 0. -1.
    9900012    2    1    2    0    0  0.34594859465E+02 -0.35208914989E+01 -0.28634114181E+02  0.46142317929E+02  0.10000001533E+02 0.  0.
        -12    1    1    2    0    0 -0.34594859465E+02  0.35208914989E+01  0.28634114181E+02  0.45045682071E+02  0.00000000000E+00 0.  1.
         11    1    3    3    0    0  0.12915717911E+02 -0.43935528154E+00 -0.10893941526E+02  0.16902270985E+02  0.51100000000E-03 0. -1.
        -11    1    3    3    0    0  0.16855572318E+02 -0.55746623388E+01 -0.14453433276E+02  0.22892988273E+02  0.51100000000E-03 0.  1.
        -12    1    3    3    0    0  0.48235692360E+01  0.24931261214E+01 -0.32867393789E+01  0.63470586713E+01  0.00000000000E+00 0.  1.
</event>
<event>
 7    1  0.3981356E-008  0.4614232E+02  0.7816164E-02  0.1320468E+00
        -11   -1    0    0    0    0  0.00000000000E+00  0.00000000000E+00  0.45593999997E+02  0.45594000000E+02  0.51100000000E-03 0. -1.
         11   -1    0    0    0    0 -0.00000000000E+00 -0.00000000000E+00 -0.45593999997E+02  0.45594000000E+02  0.51100000000E-03 0.  1.
    9900012    2    1    2    0    0 -0.20471889457E+02 -0.22884786804E+02  0.32959093660E+02  0.46142316746E+02  0.99999907400E+01 0.  0.
        -12    1    1    2    0    0  0.20471889457E+02  0.22884786804E+02 -0.32959093660E+02  0.45045683254E+02  0.00000000000E+00 0.  1.
         11    1    3    3    0    0 -0.72999497418E+01 -0.95587119543E+01  0.12780853368E+02  0.17550169616E+02  0.51100000000E-03 0. -1.
        -11    1    3    3    0    0 -0.71975859336E+01 -0.23559414564E+01  0.57566908889E+01  0.95128961767E+01  0.51100000000E-03 0.  1.
        -12    1    3    3    0    0 -0.59743537816E+01 -0.10970133393E+02  0.14421549402E+02  0.19079250953E+02  0.00000000000E+00 0.  1.
</event>
<event>
 7    1  0.3981356E-008  0.4614232E+02  0.7816164E-02  0.1320468E+00
        -11   -1    0    0    0    0  0.00000000000E+00  0.00000000000E+00  0.45593999997E+02  0.45594000000E+02  0.51100000000E-03 0.  1.
         11   -1    0    0    0    0 -0.00000000000E+00 -0.00000000000E+00 -0.45593999997E+02  0.45594000000E+02  0.51100000000E-03 0. -1.
    9900012    2    1    2    0    0  0.24473112169E+02  0.35762797484E+02  0.12296441303E+02  0.46142319055E+02  0.10000011796E+02 0.  0.
        -12    1    1    2    0    0 -0.24473112169E+02 -0.35762797484E+02 -0.12296441303E+02  0.45045680945E+02  0.00000000000E+00 0.  1.
         11    1    3    3    0    0  0.16422027992E+02  0.27797056175E+02  0.53172068230E+01  0.32720513810E+02  0.51100000000E-03 0. -1.
        -11    1    3    3    0    0  0.68353366137E+01  0.75043287646E+01  0.59737849841E+01  0.11778067929E+02  0.51100000000E-03 0.  1.
         12    1    3    3    0    0  0.12157475635E+01  0.46141254425E+00  0.10054494964E+01  0.16437373160E+01  0.00000000000E+00 0. -1.
</event>
<event>
 7    1  0.3981356E-008  0.4614232E+02  0.7816164E-02  0.1320468E+00
        -11   -1    0    0    0    0  0.00000000000E+00  0.00000000000E+00  0.45593999997E+02  0.45594000000E+02  0.51100000000E-03 0.  1.
         11   -1    0    0    0    0 -0.00000000000E+00 -0.00000000000E+00 -0.45593999997E+02  0.45594000000E+02  0.51100000000E-03 0. -1.
    9900012    2    1    2    0    0  0.23402863243E+02  0.21910075922E+02 -0.31644400349E+02  0.46142317540E+02  0.99999979793E+01 0.  0.
        -12    1    1    2    0    0 -0.23402863243E+02 -0.21910075922E+02  0.31644400349E+02  0.45045682460E+02  0.00000000000E+00 0.  1.
         11    1    3    3    0    0  0.13811378836E+02  0.11956774784E+02 -0.23636762585E+02  0.29873319105E+02  0.51100000000E-03 0. -1.
        -11    1    3    3    0    0  0.21710987405E+01  0.17752841574E+01 -0.33958576855E+00  0.28249995285E+01  0.51100000000E-03 0.  1.
         12    1    3    3    0    0  0.74203856671E+01  0.81780169811E+01 -0.76680519950E+01  0.13443998906E+02  0.00000000000E+00 0. -1.
</event>
<event>
 7    1  0.3981356E-008  0.4614232E+02  0.7816164E-02  0.1320468E+00
        -11   -1    0    0    0    0  0.00000000000E+00  0.00000000000E+00  0.45593999997E+02  0.45594000000E+02  0.51100000000E-03 0. -1.
         11   -1    0    0    0    0 -0.00000000000E+00 -0.00000000000E+00 -0.45593999997E+02  0.45594000000E+02  0.51100000000E-03 0.  1.
    9900012    2    1    2    0    0 -0.61592720619E+00  0.44682485781E+02 -0.56753607815E+01  0.46142316279E+02  0.99999864832E+01 0.  0.
        -12    1    1    2    0    0  0.61592720619E+00 -0.44682485781E+02  0.56753607815E+01  0.45045683721E+02  0.00000000000E+00 0.  1.
         11    1    3    3    0    0  0.28699537350E+01  0.11822946273E+02 -0.63104621691E+00  0.12182648013E+02  0.51100000000E-03 0. -1.
        -11    1    3    3    0    0  0.60169046875E+00  0.16299779955E+01 -0.14429047090E+01  0.22585025894E+01  0.51100000000E-03 0.  1.
         12    1    3    3    0    0 -0.40875714099E+01  0.31229561513E+02 -0.36014098556E+01  0.31701165676E+02  0.00000000000E+00 0. -1.
</event>
<event>
 7    1  0.3981356E-008  0.4614232E+02  0.7816164E-02  0.1320468E+00
        -11   -1    0    0    0    0  0.00000000000E+00  0.00000000000E+00  0.45593999997E+02  0.45594000000E+02  0.51100000000E-03 0.  1.
         11   -1    0    0    0    0 -0.00000000000E+00 -0.00000000000E+00 -0.45593999997E+02  0.45594000000E+02  0.51100000000E-03 0. -1.
    9900012    2    1    2    0    0  0.37276290540E+02 -0.98970065922E+01 -0.23273180264E+02  0.46142317682E+02  0.99999992800E+01 0.  0.
        -12    1    1    2    0    0 -0.37276290540E+02  0.98970065922E+01  0.23273180264E+02  0.45045682318E+02  0.00000000000E+00 0.  1.
         11    1    3    3    0    0  0.25772558202E+02 -0.54755969290E+01 -0.19751062989E+02  0.32928884091E+02  0.51100000000E-03 0.  1.
        -11    1    3    3    0    0  0.47328876307E+01 -0.23034649770E+00 -0.17822294388E+01  0.50625711716E+01  0.51100000000E-03 0. -1.
        -12    1    3    3    0    0  0.67708447071E+01 -0.41910631655E+01 -0.17398878357E+01  0.81508624197E+01  0.00000000000E+00 0.  1.
</event>
<event>
 7    1  0.3981356E-008  0.4614232E+02  0.7816164E-02  0.1320468E+00
        -11   -1    0    0    0    0  0.00000000000E+00  0.00000000000E+00  0.45593999997E+02  0.45594000000E+02  0.51100000000E-03 0.  1.
         11   -1    0    0    0    0 -0.00000000000E+00 -0.00000000000E+00 -0.45593999997E+02  0.45594000000E+02  0.51100000000E-03 0. -1.
    9900012    2    1    2    0    0  0.17427983387E+02 -0.24012961546E+02 -0.33893310549E+02  0.46142318441E+02  0.10000006197E+02 0.  0.
        -12    1    1    2    0    0 -0.17427983387E+02  0.24012961546E+02  0.33893310549E+02  0.45045681559E+02  0.00000000000E+00 0.  1.
         11    1    3    3    0    0  0.12898471148E+01 -0.21396832670E+01 -0.46037679097E+01  0.52379985958E+01  0.51100000000E-03 0. -1.
        -11    1    3    3    0    0  0.85158225005E+01 -0.52750718747E+01 -0.77624755887E+01  0.12672870380E+02  0.51100000000E-03 0.  1.
        -12    1    3    3    0    0  0.76223137721E+01 -0.16598206405E+02 -0.21527067050E+02  0.28231449465E+02  0.00000000000E+00 0.  1.
</event>
<event>
 7    1  0.3981356E-008  0.4614232E+02  0.7816164E-02  0.1320468E+00
        -11   -1    0    0    0    0  0.00000000000E+00  0.00000000000E+00  0.45593999997E+02  0.45594000000E+02  0.51100000000E-03 0.  1.
         11   -1    0    0    0    0 -0.00000000000E+00 -0.00000000000E+00 -0.45593999997E+02  0.45594000000E+02  0.51100000000E-03 0. -1.
    9900012    2    1    2    0    0  0.26022472587E+02 -0.10895267315E+02 -0.35117481385E+02  0.46142318429E+02  0.10000006087E+02 0.  0.
        -12    1    1    2    0    0 -0.26022472587E+02  0.10895267315E+02  0.35117481385E+02  0.45045681571E+02  0.00000000000E+00 0.  1.
         11    1    3    3    0    0  0.93550342306E+00 -0.22806642246E+01 -0.25731270837E+01  0.35633662750E+01  0.51100000000E-03 0.  1.
        -11    1    3    3    0    0  0.20120519369E+02 -0.57231999553E+01 -0.29232301134E+02  0.35946039383E+02  0.51100000000E-03 0. -1.
         12    1    3    3    0    0  0.49664497941E+01 -0.28914031348E+01 -0.33120531673E+01  0.66329127710E+01  0.00000000000E+00 0. -1.
</event>
<event>
 7    1  0.3981356E-008  0.4614232E+02  0.7816164E-02  0.1320468E+00
        -11   -1    0    0    0    0  0.00000000000E+00  0.00000000000E+00  0.45593999997E+02  0.45594000000E+02  0.51100000000E-03 0.  1.
         11   -1    0    0    0    0 -0.00000000000E+00 -0.00000000000E+00 -0.45593999997E+02  0.45594000000E+02  0.51100000000E-03 0. -1.
    9900012    2    1    2    0    0  0.34211977540E+02 -0.29291742674E+02 -0.80491336880E+00  0.46142317836E+02  0.10000000684E+02 0.  0.
        -12    1    1    2    0    0 -0.34211977540E+02  0.29291742674E+02  0.80491336880E+00  0.45045682164E+02  0.00000000000E+00 0.  1.
         11    1    3    3    0    0  0.14701322292E+01 -0.27416372559E+01  0.11891676331E+00  0.31131985275E+01  0.51100000000E-03 0. -1.
        -11    1    3    3    0    0  0.20288892101E+01 -0.69127199226E+00 -0.19053250810E+01  0.28678410555E+01  0.51100000000E-03 0.  1.
         12    1    3    3    0    0  0.30712956101E+02 -0.25858833426E+02  0.98149494888E+00  0.40161278253E+02  0.00000000000E+00 0. -1.
</event>
<event>
 7    1  0.3981356E-008  0.4614232E+02  0.7816164E-02  0.1320468E+00
        -11   -1    0    0    0    0  0.00000000000E+00  0.00000000000E+00  0.45593999997E+02  0.45594000000E+02  0.51100000000E-03 0.  1.
         11   -1    0    0    0    0 -0.00000000000E+00 -0.00000000000E+00 -0.45593999997E+02  0.45594000000E+02  0.51100000000E-03 0. -1.
    9900012    2    1    2    0    0  0.21796848836E+02 -0.38254102186E+02 -0.95202121116E+01  0.46142318832E+02  0.10000009762E+02 0.  0.
        -12    1    1    2    0    0 -0.21796848836E+02  0.38254102186E+02  0.95202121116E+01  0.45045681168E+02  0.00000000000E+00 0.  1.
         11    1    3    3    0    0  0.17721618252E+02 -0.34613547133E+02 -0.11101854224E+02  0.40440135585E+02  0.51100000000E-03 0. -1.
        -11    1    3    3    0    0  0.62280525103E+00 -0.38092307094E+00  0.23043735889E+00  0.76556541470E+00  0.51100000000E-03 0.  1.
         12    1    3    3    0    0  0.34524253331E+01 -0.32596319818E+01  0.13512047532E+01  0.49366178323E+01  0.00000000000E+00 0. -1.
</event>
<event>
 7    1  0.3981356E-008  0.4614232E+02  0.7816164E-02  0.1320468E+00
        -11   -1    0    0    0    0  0.00000000000E+00  0.00000000000E+00  0.45593999997E+02  0.45594000000E+02  0.51100000000E-03 0. -1.
         11   -1    0    0    0    0 -0.00000000000E+00 -0.00000000000E+00 -0.45593999997E+02  0.45594000000E+02  0.51100000000E-03 0.  1.
    9900012    2    1    2    0    0 -0.37067965652E+01  0.38688664069E+02  0.22771926296E+02  0.46142315463E+02  0.99999790422E+01 0.  0.
        -12    1    1    2    0    0  0.37067965652E+01 -0.38688664069E+02 -0.22771926296E+02  0.45045684537E+02  0.00000000000E+00 0.  1.
         11    1    3    3    0    0 -0.73125427713E+00 -0.15682916726E+00  0.31243242661E+00  0.81051988738E+00  0.51100000000E-03 0. -1.
        -11    1    3    3    0    0 -0.15049555926E+01  0.39834583922E+01  0.10209249131E+01  0.43789405154E+01  0.51100000000E-03 0.  1.
         12    1    3    3    0    0 -0.14705866955E+01  0.34862034844E+02  0.21438568956E+02  0.40952855060E+02  0.00000000000E+00 0. -1.
</event>
<event>
 7    1  0.3981356E-008  0.4614232E+02  0.7816164E-02  0.1320468E+00
        -11   -1    0    0    0    0  0.00000000000E+00  0.00000000000E+00  0.45593999997E+02  0.45594000000E+02  0.51100000000E-03 0. -1.
         11   -1    0    0    0    0 -0.00000000000E+00 -0.00000000000E+00 -0.45593999997E+02  0.45594000000E+02  0.51100000000E-03 0.  1.
    9900012    2    1    2    0    0 -0.16858087856E+01 -0.37392027772E+02  0.25062079065E+02  0.46142317641E+02  0.99999989028E+01 0.  0.
        -12    1    1    2    0    0  0.16858087856E+01  0.37392027772E+02 -0.25062079065E+02  0.45045682359E+02  0.00000000000E+00 0.  1.
         11    1    3    3    0    0 -0.28041415031E+01 -0.73217848560E+01  0.67395816492E+01  0.10338941151E+02  0.51100000000E-03 0. -1.
        -11    1    3    3    0    0 -0.22986161952E+01 -0.96049891095E+01  0.43696163482E+01  0.10799675898E+02  0.51100000000E-03 0.  1.
        -12    1    3    3    0    0  0.34169489128E+01 -0.20465253807E+02  0.13952881067E+02  0.25003700592E+02  0.00000000000E+00 0.  1.
</event>
<event>
 7    1  0.3981356E-008  0.4614232E+02  0.7816164E-02  0.1320468E+00
        -11   -1    0    0    0    0  0.00000000000E+00  0.00000000000E+00  0.45593999997E+02  0.45594000000E+02  0.51100000000E-03 0.  1.
         11   -1    0    0    0    0 -0.00000000000E+00 -0.00000000000E+00 -0.45593999997E+02  0.45594000000E+02  0.51100000000E-03 0. -1.
    9900012    2    1    2    0    0 -0.21390414887E+01 -0.35979567613E+02 -0.27018671588E+02  0.46142318759E+02  0.10000009098E+02 0.  0.
        -12    1    1    2    0    0  0.21390414887E+01  0.35979567613E+02  0.27018671588E+02  0.45045681241E+02  0.00000000000E+00 0.  1.
         11    1    3    3    0    0 -0.11868468692E+01 -0.28586673583E+02 -0.18466253436E+02  0.34053032585E+02  0.51100000000E-03 0. -1.
        -11    1    3    3    0    0 -0.22616455725E+00 -0.43928979817E+00  0.46537606284E+00  0.67874964067E+00  0.51100000000E-03 0.  1.
         12    1    3    3    0    0 -0.72603006225E+00 -0.69536042316E+01 -0.90177942150E+01  0.11410536533E+02  0.00000000000E+00 0. -1.
</event>
<event>
 7    1  0.3981356E-008  0.4614232E+02  0.7816164E-02  0.1320468E+00
        -11   -1    0    0    0    0  0.00000000000E+00  0.00000000000E+00  0.45593999997E+02  0.45594000000E+02  0.51100000000E-03 0.  1.
         11   -1    0    0    0    0 -0.00000000000E+00 -0.00000000000E+00 -0.45593999997E+02  0.45594000000E+02  0.51100000000E-03 0. -1.
    9900012    2    1    2    0    0  0.44814839126E+02  0.41616072466E+01 -0.18505938111E+01  0.46142317874E+02  0.10000001025E+02 0.  0.
        -12    1    1    2    0    0 -0.44814839126E+02 -0.41616072466E+01  0.18505938111E+01  0.45045682126E+02  0.00000000000E+00 0.  1.
         11    1    3    3    0    0  0.35004717815E+02  0.25206896458E+01 -0.47542944420E+01  0.35415921018E+02  0.51100000000E-03 0. -1.
        -11    1    3    3    0    0  0.28375253314E+01 -0.78355222065E+00  0.84796083854E+00  0.30634199735E+01  0.51100000000E-03 0.  1.
        -12    1    3    3    0    0  0.69725959795E+01  0.24244698215E+01  0.20557397923E+01  0.76629768825E+01  0.00000000000E+00 0.  1.
</event>
<event>
 7    1  0.3981356E-008  0.4614232E+02  0.7816164E-02  0.1320468E+00
        -11   -1    0    0    0    0  0.00000000000E+00  0.00000000000E+00  0.45593999997E+02  0.45594000000E+02  0.51100000000E-03 0.  1.
         11   -1    0    0    0    0 -0.00000000000E+00 -0.00000000000E+00 -0.45593999997E+02  0.45594000000E+02  0.51100000000E-03 0. -1.
    9900012    2    1    2    0    0  0.30341475549E+02 -0.60010048046E+01 -0.32748989841E+02  0.46142317268E+02  0.99999955068E+01 0.  0.
        -12    1    1    2    0    0 -0.30341475549E+02  0.60010048046E+01  0.32748989841E+02  0.45045682732E+02  0.00000000000E+00 0.  1.
         11    1    3    3    0    0  0.32756964479E+01  0.26922271528E-01 -0.44443391938E+00  0.33058181736E+01  0.51100000000E-03 0. -1.
        -11    1    3    3    0    0  0.10508561153E+02 -0.40030363451E+01 -0.15591166531E+02  0.19223387619E+02  0.51100000000E-03 0.  1.
         12    1    3    3    0    0  0.16557217948E+02 -0.20248907311E+01 -0.16713389391E+02  0.23613111476E+02  0.00000000000E+00 0. -1.
</event>
<event>
 7    1  0.3981356E-008  0.4614232E+02  0.7816164E-02  0.1320468E+00
        -11   -1    0    0    0    0  0.00000000000E+00  0.00000000000E+00  0.45593999997E+02  0.45594000000E+02  0.51100000000E-03 0.  1.
         11   -1    0    0    0    0 -0.00000000000E+00 -0.00000000000E+00 -0.45593999997E+02  0.45594000000E+02  0.51100000000E-03 0. -1.
    9900012    2    1    2    0    0  0.24456238770E+02  0.26235994147E+02 -0.27252127547E+02  0.46142318081E+02  0.10000002920E+02 0.  0.
        -12    1    1    2    0    0 -0.24456238770E+02 -0.26235994147E+02  0.27252127547E+02  0.45045681919E+02  0.00000000000E+00 0.  1.
         11    1    3    3    0    0  0.23298554932E+00  0.29352057881E+01 -0.47233966420E+01  0.55659852122E+01  0.51100000000E-03 0.  1.
        -11    1    3    3    0    0  0.76040873454E+00  0.13127949278E+01 -0.16268065510E+01  0.22244441512E+01  0.51100000000E-03 0. -1.
         12    1    3    3    0    0  0.23462844486E+02  0.21987993431E+02 -0.20901924354E+02  0.38351888718E+02  0.00000000000E+00 0. -1.
</event>
<event>
 7    1  0.3981356E-008  0.4614232E+02  0.7816164E-02  0.1320468E+00
        -11   -1    0    0    0    0  0.00000000000E+00  0.00000000000E+00  0.45593999997E+02  0.45594000000E+02  0.51100000000E-03 0.  1.
         11   -1    0    0    0    0 -0.00000000000E+00 -0.00000000000E+00 -0.45593999997E+02  0.45594000000E+02  0.51100000000E-03 0. -1.
    9900012    2    1    2    0    0 -0.30854064767E+02 -0.92438576247E+01 -0.31491130097E+02  0.46142317729E+02  0.99999997073E+01 0.  0.
        -12    1    1    2    0    0  0.30854064767E+02  0.92438576247E+01  0.31491130097E+02  0.45045682271E+02  0.00000000000E+00 0.  1.
         11    1    3    3    0    0 -0.21246736067E+02 -0.48490546291E+01 -0.23599450065E+02  0.32122751562E+02  0.51100000000E-03 0. -1.
        -11    1    3    3    0    0 -0.65923678970E+01 -0.22484868506E+01 -0.75972846321E+01  0.10306975388E+02  0.51100000000E-03 0.  1.
        -12    1    3    3    0    0 -0.30149608031E+01 -0.21463161450E+01 -0.29439540036E+00  0.37125907787E+01  0.00000000000E+00 0.  1.
</event>
<event>
 7    1  0.3981356E-008  0.4614232E+02  0.7816164E-02  0.1320468E+00
        -11   -1    0    0    0    0  0.00000000000E+00  0.00000000000E+00  0.45593999997E+02  0.45594000000E+02  0.51100000000E-03 0. -1.
         11   -1    0    0    0    0 -0.00000000000E+00 -0.00000000000E+00 -0.45593999997E+02  0.45594000000E+02  0.51100000000E-03 0.  1.
    9900012    2    1    2    0    0  0.73747887797E+01  0.12293158598E+02  0.42703681609E+02  0.46142315625E+02  0.99999805195E+01 0.  0.
        -12    1    1    2    0    0 -0.73747887797E+01 -0.12293158598E+02 -0.42703681609E+02  0.45045684375E+02  0.00000000000E+00 0.  1.
         11    1    3    3    0    0 -0.12764920675E+00 -0.10132978815E+01  0.50062349562E+01  0.51093498231E+01  0.51100000000E-03 0.  1.
        -11    1    3    3    0    0  0.12471317025E+01  0.24185546036E+01  0.26270095617E+01  0.37823171935E+01  0.51100000000E-03 0. -1.
        -12    1    3    3    0    0  0.62553062840E+01  0.10887901876E+02  0.35070437091E+02  0.37250648608E+02  0.00000000000E+00 0.  1.
</event>
<event>
 7    1  0.3981356E-008  0.4614232E+02  0.7816164E-02  0.1320468E+00
        -11   -1    0    0    0    0  0.00000000000E+00  0.00000000000E+00  0.45593999997E+02  0.45594000000E+02  0.51100000000E-03 0.  1.
         11   -1    0    0    0    0 -0.00000000000E+00 -0.00000000000E+00 -0.45593999997E+02  0.45594000000E+02  0.51100000000E-03 0. -1.
    9900012    2    1    2    0    0  0.35783397250E+02 -0.12545491832E+02 -0.24316097707E+02  0.46142317723E+02  0.99999996537E+01 0.  0.
        -12    1    1    2    0    0 -0.35783397250E+02  0.12545491832E+02  0.24316097707E+02  0.45045682277E+02  0.00000000000E+00 0.  1.
         11    1    3    3    0    0  0.82875316742E+01 -0.62223807833E+01 -0.62030983586E+01  0.12078064140E+02  0.51100000000E-03 0. -1.
        -11    1    3    3    0    0  0.76308841300E+01 -0.22294683314E+01 -0.84357679885E+01  0.11591509973E+02  0.51100000000E-03 0.  1.
         12    1    3    3    0    0  0.19864981446E+02 -0.40936427172E+01 -0.96772313603E+01  0.22472743610E+02  0.00000000000E+00 0. -1.
</event>
<event>
 7    1  0.3981356E-008  0.4614232E+02  0.7816164E-02  0.1320468E+00
        -11   -1    0    0    0    0  0.00000000000E+00  0.00000000000E+00  0.45593999997E+02  0.45594000000E+02  0.51100000000E-03 0.  1.
         11   -1    0    0    0    0 -0.00000000000E+00 -0.00000000000E+00 -0.45593999997E+02  0.45594000000E+02  0.51100000000E-03 0. -1.
    9900012    2    1    2    0    0 -0.11713498821E+02  0.34256114727E+01 -0.43360956937E+02  0.46142318131E+02  0.10000003369E+02 0.  0.
        -12    1    1    2    0    0  0.11713498821E+02 -0.34256114727E+01  0.43360956937E+02  0.45045681869E+02  0.00000000000E+00 0.  1.
         11    1    3    3    0    0 -0.25425655449E+01 -0.11626059434E+01 -0.10240701581E+02  0.10615472729E+02  0.51100000000E-03 0. -1.
        -11    1    3    3    0    0 -0.16315668360E+01  0.44354723801E+01 -0.18273783763E+02  0.18875025797E+02  0.51100000000E-03 0.  1.
         12    1    3    3    0    0 -0.75393664405E+01  0.15274503603E+00 -0.14846471593E+02  0.16651819604E+02  0.00000000000E+00 0. -1.
</event>
<event>
 7    1  0.3981356E-008  0.4614232E+02  0.7816164E-02  0.1320468E+00
        -11   -1    0    0    0    0  0.00000000000E+00  0.00000000000E+00  0.45593999997E+02  0.45594000000E+02  0.51100000000E-03 0. -1.
         11   -1    0    0    0    0 -0.00000000000E+00 -0.00000000000E+00 -0.45593999997E+02  0.45594000000E+02  0.51100000000E-03 0.  1.
    9900012    2    1    2    0    0  0.11432048649E+02 -0.36919119854E+02  0.23138719070E+02  0.46142317995E+02  0.10000002129E+02 0.  0.
        -12    1    1    2    0    0 -0.11432048649E+02  0.36919119854E+02 -0.23138719070E+02  0.45045682005E+02  0.00000000000E+00 0.  1.
         11    1    3    3    0    0  0.51170769984E+01 -0.69437730505E+01  0.63074344962E+01  0.10685700322E+02  0.51100000000E-03 0. -1.
        -11    1    3    3    0    0  0.67775446868E+00 -0.90222295949E+00  0.20917956579E+01  0.23767555036E+01  0.51100000000E-03 0.  1.
         12    1    3    3    0    0  0.56372171817E+01 -0.29073123844E+02  0.14739488916E+02  0.33079862169E+02  0.00000000000E+00 0. -1.
</event>
<event>
 7    1  0.3981356E-008  0.4614232E+02  0.7816164E-02  0.1320468E+00
        -11   -1    0    0    0    0  0.00000000000E+00  0.00000000000E+00  0.45593999997E+02  0.45594000000E+02  0.51100000000E-03 0. -1.
         11   -1    0    0    0    0 -0.00000000000E+00 -0.00000000000E+00 -0.45593999997E+02  0.45594000000E+02  0.51100000000E-03 0.  1.
    9900012    2    1    2    0    0 -0.19339349987E+02  0.38252671549E+02  0.13850492315E+02  0.46142317900E+02  0.10000001265E+02 0.  0.
        -12    1    1    2    0    0  0.19339349987E+02 -0.38252671549E+02 -0.13850492315E+02  0.45045682100E+02  0.00000000000E+00 0.  1.
         11    1    3    3    0    0 -0.25948191215E+01  0.11866950516E+02  0.34349179588E+01  0.12623639034E+02  0.51100000000E-03 0. -1.
        -11    1    3    3    0    0 -0.24454131839E+01  0.84436708222E+00  0.90561242079E+00  0.27410099466E+01  0.51100000000E-03 0.  1.
         12    1    3    3    0    0 -0.14299117681E+02  0.25541353951E+02  0.95099619351E+01  0.30777668919E+02  0.00000000000E+00 0. -1.
</event>
<event>
 7    1  0.3981356E-008  0.4614232E+02  0.7816164E-02  0.1320468E+00
        -11   -1    0    0    0    0  0.00000000000E+00  0.00000000000E+00  0.45593999997E+02  0.45594000000E+02  0.51100000000E-03 0.  1.
         11   -1    0    0    0    0 -0.00000000000E+00 -0.00000000000E+00 -0.45593999997E+02  0.45594000000E+02  0.51100000000E-03 0. -1.
    9900012    2    1    2    0    0 -0.18885896892E+02  0.14100363813E+02 -0.38387701604E+02  0.46142323232E+02  0.10000049889E+02 0.  0.
        -12    1    1    2    0    0  0.18885896892E+02 -0.14100363813E+02  0.38387701604E+02  0.45045676768E+02  0.00000000000E+00 0.  1.
         11    1    3    3    0    0 -0.11173019040E+02  0.68976961977E+01 -0.18118564174E+02  0.22376258295E+02  0.51100000000E-03 0. -1.
        -11    1    3    3    0    0 -0.54607018505E+01  0.81209724218E+01 -0.14376197760E+02  0.17390932122E+02  0.51100000000E-03 0.  1.
         12    1    3    3    0    0 -0.22521760014E+01 -0.91830480636E+00 -0.58929396698E+01  0.63751328151E+01  0.00000000000E+00 0. -1.
</event>
<event>
 7    1  0.4037581E-008  0.4614232E+02  0.7816164E-02  0.1320468E+00
        -11   -1    0    0    0    0  0.00000000000E+00  0.00000000000E+00  0.45593999997E+02  0.45594000000E+02  0.51100000000E-03 0.  1.
         11   -1    0    0    0    0 -0.00000000000E+00 -0.00000000000E+00 -0.45593999997E+02  0.45594000000E+02  0.51100000000E-03 0. -1.
    9900012    2    1    2    0    0  0.12358053474E+02 -0.28062441363E+02 -0.32998354344E+02  0.46142317739E+02  0.99999997985E+01 0.  0.
        -12    1    1    2    0    0 -0.12358053474E+02  0.28062441363E+02  0.32998354344E+02  0.45045682261E+02  0.00000000000E+00 0.  1.
         11    1    3    3    0    0  0.79526269143E+01 -0.16526427530E+02 -0.16291684556E+02  0.24531328290E+02  0.51100000000E-03 0. -1.
        -11    1    3    3    0    0  0.95654851392E+00 -0.89090626261E+01 -0.86092143225E+01  0.12425978973E+02  0.51100000000E-03 0.  1.
        -12    1    3    3    0    0  0.34488780454E+01 -0.26269512074E+01 -0.80974554655E+01  0.91850104755E+01  0.00000000000E+00 0.  1.
</event>
<event>
 7    1  0.3981356E-008  0.4614232E+02  0.7816164E-02  0.1320468E+00
        -11   -1    0    0    0    0  0.00000000000E+00  0.00000000000E+00  0.45593999997E+02  0.45594000000E+02  0.51100000000E-03 0. -1.
         11   -1    0    0    0    0 -0.00000000000E+00 -0.00000000000E+00 -0.45593999997E+02  0.45594000000E+02  0.51100000000E-03 0.  1.
    9900012    2    1    2    0    0 -0.37058904401E+02 -0.25602908593E+02 -0.49207043337E+00  0.46142318107E+02  0.10000003158E+02 0.  0.
        -12    1    1    2    0    0  0.37058904401E+02  0.25602908593E+02  0.49207043337E+00  0.45045681893E+02  0.00000000000E+00 0.  1.
         11    1    3    3    0    0 -0.21843305889E+02 -0.17000702266E+02  0.68741272972E-01  0.27679570360E+02  0.51100000000E-03 0. -1.
        -11    1    3    3    0    0 -0.22763994894E+01 -0.41155885582E+01  0.48360766724E+00  0.47279953948E+01  0.51100000000E-03 0.  1.
         12    1    3    3    0    0 -0.12939199023E+02 -0.44866177691E+01 -0.10444193736E+01  0.13734752353E+02  0.00000000000E+00 0. -1.
</event>
<event>
 7    1  0.3981356E-008  0.4614233E+02  0.7816164E-02  0.1320468E+00
        -11   -1    0    0    0    0  0.00000000000E+00  0.00000000000E+00  0.45593999997E+02  0.45594000000E+02  0.51100000000E-03 0. -1.
         11   -1    0    0    0    0 -0.00000000000E+00 -0.00000000000E+00 -0.45593999997E+02  0.45594000000E+02  0.51100000000E-03 0.  1.
    9900012    2    1    2    0    0 -0.18136103944E+01  0.42817536680E+02 -0.13873791039E+02  0.46142326425E+02  0.10000079005E+02 0.  0.
        -12    1    1    2    0    0  0.18136103944E+01 -0.42817536680E+02  0.13873791039E+02  0.45045673575E+02  0.00000000000E+00 0.  1.
         11    1    3    3    0    0  0.76857351310E-01  0.36205990468E+02 -0.86513231690E+01  0.37225328012E+02  0.51100000000E-03 0. -1.
        -11    1    3    3    0    0 -0.16706876385E+01  0.24979263676E+01 -0.14732795937E+01  0.33468472247E+01  0.51100000000E-03 0.  1.
         12    1    3    3    0    0 -0.21978010722E+00  0.41136198448E+01 -0.37491882766E+01  0.55701511879E+01  0.00000000000E+00 0. -1.
</event>
<event>
 7    1  0.3981356E-008  0.4614232E+02  0.7816164E-02  0.1320468E+00
        -11   -1    0    0    0    0  0.00000000000E+00  0.00000000000E+00  0.45593999997E+02  0.45594000000E+02  0.51100000000E-03 0.  1.
         11   -1    0    0    0    0 -0.00000000000E+00 -0.00000000000E+00 -0.45593999997E+02  0.45594000000E+02  0.51100000000E-03 0. -1.
    9900012    2    1    2    0    0  0.28978191771E+02 -0.26898323061E+02 -0.21583746499E+02  0.46142317691E+02  0.99999993567E+01 0.  0.
        -12    1    1    2    0    0 -0.28978191771E+02  0.26898323061E+02  0.21583746499E+02  0.45045682309E+02  0.00000000000E+00 0.  1.
         11    1    3    3    0    0  0.19598876051E+01 -0.27667209266E+01 -0.13075885378E+01  0.36339636977E+01  0.51100000000E-03 0. -1.
        -11    1    3    3    0    0  0.22293283465E+02 -0.20966005467E+02 -0.12942046360E+02  0.33227404912E+02  0.51100000000E-03 0.  1.
         12    1    3    3    0    0  0.47250207007E+01 -0.31655966671E+01 -0.73341116004E+01  0.92809490812E+01  0.00000000000E+00 0. -1.
</event>
<event>
 7    1  0.3981356E-008  0.4614232E+02  0.7816164E-02  0.1320468E+00
        -11   -1    0    0    0    0  0.00000000000E+00  0.00000000000E+00  0.45593999997E+02  0.45594000000E+02  0.51100000000E-03 0. -1.
         11   -1    0    0    0    0 -0.00000000000E+00 -0.00000000000E+00 -0.45593999997E+02  0.45594000000E+02  0.51100000000E-03 0.  1.
    9900012    2    1    2    0    0 -0.40140548564E+02  0.13083190931E+02  0.15706047052E+02  0.46142318320E+02  0.10000005100E+02 0.  0.
        -12    1    1    2    0    0  0.40140548564E+02 -0.13083190931E+02 -0.15706047052E+02  0.45045681680E+02  0.00000000000E+00 0.  1.
         11    1    3    3    0    0 -0.16673454235E+02  0.31604939195E+01  0.98788478024E+01  0.19636303932E+02  0.51100000000E-03 0. -1.
        -11    1    3    3    0    0 -0.17439490072E+02  0.86447000901E+01  0.59162846896E+01  0.20343772472E+02  0.51100000000E-03 0.  1.
        -12    1    3    3    0    0 -0.60276042581E+01  0.12779969213E+01 -0.89085440077E-01  0.61622419166E+01  0.00000000000E+00 0.  1.
</event>
<event>
 7    1  0.3981356E-008  0.4614232E+02  0.7816164E-02  0.1320468E+00
        -11   -1    0    0    0    0  0.00000000000E+00  0.00000000000E+00  0.45593999997E+02  0.45594000000E+02  0.51100000000E-03 0.  1.
         11   -1    0    0    0    0 -0.00000000000E+00 -0.00000000000E+00 -0.45593999997E+02  0.45594000000E+02  0.51100000000E-03 0. -1.
    9900012    2    1    2    0    0 -0.17167520465E+02 -0.22675922207E+02 -0.34931250894E+02  0.46142317678E+02  0.99999992423E+01 0.  0.
        -12    1    1    2    0    0  0.17167520465E+02  0.22675922207E+02  0.34931250894E+02  0.45045682322E+02  0.00000000000E+00 0.  1.
         11    1    3    3    0    0  0.46517572113E-01  0.41387212236E+00 -0.11853315601E+01  0.12563698447E+01  0.51100000000E-03 0. -1.
        -11    1    3    3    0    0  0.36448981142E+00  0.12873479269E+00 -0.95319150245E+00  0.10285911583E+01  0.51100000000E-03 0.  1.
         12    1    3    3    0    0 -0.17578527849E+02 -0.23218529122E+02 -0.32792727831E+02  0.43857356675E+02  0.00000000000E+00 0. -1.
</event>
<event>
 7    1  0.3981356E-008  0.4614232E+02  0.7816164E-02  0.1320468E+00
        -11   -1    0    0    0    0  0.00000000000E+00  0.00000000000E+00  0.45593999997E+02  0.45594000000E+02  0.51100000000E-03 0. -1.
         11   -1    0    0    0    0 -0.00000000000E+00 -0.00000000000E+00 -0.45593999997E+02  0.45594000000E+02  0.51100000000E-03 0.  1.
    9900012    2    1    2    0    0 -0.24747670724E+01 -0.37716763573E+02  0.24503771459E+02  0.46142317164E+02  0.99999945543E+01 0.  0.
        -12    1    1    2    0    0  0.24747670724E+01  0.37716763573E+02 -0.24503771459E+02  0.45045682836E+02  0.00000000000E+00 0.  1.
         11    1    3    3    0    0 -0.18281648042E+01 -0.17446007716E+02  0.13929802891E+02  0.22399660279E+02  0.51100000000E-03 0. -1.
        -11    1    3    3    0    0 -0.26623768308E+01 -0.13889338695E+02  0.93115006461E+01  0.16932395705E+02  0.51100000000E-03 0.  1.
        -12    1    3    3    0    0  0.20157745625E+01 -0.63814171621E+01  0.12624679215E+01  0.68102611798E+01  0.00000000000E+00 0.  1.
</event>
<event>
 7    1  0.3981356E-008  0.4614232E+02  0.7816164E-02  0.1320468E+00
        -11   -1    0    0    0    0  0.00000000000E+00  0.00000000000E+00  0.45593999997E+02  0.45594000000E+02  0.51100000000E-03 0.  1.
         11   -1    0    0    0    0 -0.00000000000E+00 -0.00000000000E+00 -0.45593999997E+02  0.45594000000E+02  0.51100000000E-03 0. -1.
    9900012    2    1    2    0    0  0.31040023169E+01  0.44786855653E+02 -0.36900233212E+01  0.46142317169E+02  0.99999945970E+01 0.  0.
        -12    1    1    2    0    0 -0.31040023169E+01 -0.44786855653E+02  0.36900233212E+01  0.45045682831E+02  0.00000000000E+00 0.  1.
         11    1    3    3    0    0  0.40480250946E+01  0.85173650086E+01 -0.11815628256E+01  0.95041098914E+01  0.51100000000E-03 0. -1.
        -11    1    3    3    0    0 -0.10876880240E+01  0.22156531143E+02  0.57897509618E+00  0.22190767223E+02  0.51100000000E-03 0.  1.
         12    1    3    3    0    0  0.14366524626E+00  0.14112959501E+02 -0.30874355919E+01  0.14447440054E+02  0.00000000000E+00 0. -1.
</event>
<event>
 7    1  0.3981356E-008  0.4614231E+02  0.7816164E-02  0.1320468E+00
        -11   -1    0    0    0    0  0.00000000000E+00  0.00000000000E+00  0.45593999997E+02  0.45594000000E+02  0.51100000000E-03 0. -1.
         11   -1    0    0    0    0 -0.00000000000E+00 -0.00000000000E+00 -0.45593999997E+02  0.45594000000E+02  0.51100000000E-03 0.  1.
    9900012    2    1    2    0    0  0.20065425388E+02 -0.39591535388E+02 -0.76813325069E+01  0.46142313863E+02  0.99999644581E+01 0.  0.
        -12    1    1    2    0    0 -0.20065425388E+02  0.39591535388E+02  0.76813325069E+01  0.45045686137E+02  0.00000000000E+00 0.  1.
         11    1    3    3    0    0  0.42253636372E+01 -0.49719817561E+01 -0.12530045734E+01  0.66441192924E+01  0.51100000000E-03 0. -1.
        -11    1    3    3    0    0  0.36446561176E+01 -0.20369528226E+01 -0.90744205340E+00  0.42727211889E+01  0.51100000000E-03 0.  1.
        -12    1    3    3    0    0  0.12195405634E+02 -0.32582600810E+02 -0.55208858801E+01  0.35225473382E+02  0.00000000000E+00 0.  1.
</event>
<event>
 7    1  0.3981356E-008  0.4614232E+02  0.7816164E-02  0.1320468E+00
        -11   -1    0    0    0    0  0.00000000000E+00  0.00000000000E+00  0.45593999997E+02  0.45594000000E+02  0.51100000000E-03 0. -1.
         11   -1    0    0    0    0 -0.00000000000E+00 -0.00000000000E+00 -0.45593999997E+02  0.45594000000E+02  0.51100000000E-03 0.  1.
    9900012    2    1    2    0    0 -0.15581434644E+02 -0.41535433699E+02  0.78192136920E+01  0.46142318066E+02  0.10000002777E+02 0.  0.
        -12    1    1    2    0    0  0.15581434644E+02  0.41535433699E+02 -0.78192136920E+01  0.45045681934E+02  0.00000000000E+00 0.  1.
         11    1    3    3    0    0 -0.54201123241E+01 -0.20094399693E+02  0.29263288640E+01  0.21017276643E+02  0.51100000000E-03 0. -1.
        -11    1    3    3    0    0 -0.96451034611E+01 -0.13346551945E+02  0.41393731864E+01  0.16979189623E+02  0.51100000000E-03 0.  1.
         12    1    3    3    0    0 -0.51621885908E+00 -0.80944820612E+01  0.75351164165E+00  0.81458517998E+01  0.00000000000E+00 0. -1.
</event>
<event>
 7    1  0.3981356E-008  0.4614232E+02  0.7816164E-02  0.1320468E+00
        -11   -1    0    0    0    0  0.00000000000E+00  0.00000000000E+00  0.45593999997E+02  0.45594000000E+02  0.51100000000E-03 0.  1.
         11   -1    0    0    0    0 -0.00000000000E+00 -0.00000000000E+00 -0.45593999997E+02  0.45594000000E+02  0.51100000000E-03 0. -1.
    9900012    2    1    2    0    0 -0.29577409537E+02 -0.21914690637E+02 -0.25962215946E+02  0.46142317882E+02  0.10000001102E+02 0.  0.
        -12    1    1    2    0    0  0.29577409537E+02  0.21914690637E+02  0.25962215946E+02  0.45045682118E+02  0.00000000000E+00 0.  1.
         11    1    3    3    0    0 -0.39095446927E+01 -0.45868316642E+01 -0.41764846293E+01  0.73325703911E+01  0.51100000000E-03 0.  1.
        -11    1    3    3    0    0 -0.55870427535E+01 -0.42642253737E+00 -0.20335027985E+01  0.59608738287E+01  0.51100000000E-03 0. -1.
        -12    1    3    3    0    0 -0.20080822091E+02 -0.16901436435E+02 -0.19752228518E+02  0.32848873662E+02  0.00000000000E+00 0.  1.
</event>
<event>
 7    1  0.3981356E-008  0.4614232E+02  0.7816164E-02  0.1320468E+00
        -11   -1    0    0    0    0  0.00000000000E+00  0.00000000000E+00  0.45593999997E+02  0.45594000000E+02  0.51100000000E-03 0.  1.
         11   -1    0    0    0    0 -0.00000000000E+00 -0.00000000000E+00 -0.45593999997E+02  0.45594000000E+02  0.51100000000E-03 0. -1.
    9900012    2    1    2    0    0  0.10756634991E+02 -0.41705454726E+02 -0.13193306146E+02  0.46142317884E+02  0.10000001120E+02 0.  0.
        -12    1    1    2    0    0 -0.10756634991E+02  0.41705454726E+02  0.13193306146E+02  0.45045682116E+02  0.00000000000E+00 0.  1.
         11    1    3    3    0    0  0.26662540489E+01 -0.21689269137E+02 -0.85442645543E+01  0.23463541152E+02  0.51100000000E-03 0. -1.
        -11    1    3    3    0    0  0.56698417285E+01 -0.18447262031E+02 -0.43104229396E+01  0.19774436220E+02  0.51100000000E-03 0.  1.
        -12    1    3    3    0    0  0.24205392133E+01 -0.15689235586E+01 -0.33861865162E+00  0.29043405115E+01  0.00000000000E+00 0.  1.
</event>
<event>
 7    1  0.3981356E-008  0.4614232E+02  0.7816164E-02  0.1320468E+00
        -11   -1    0    0    0    0  0.00000000000E+00  0.00000000000E+00  0.45593999997E+02  0.45594000000E+02  0.51100000000E-03 0.  1.
         11   -1    0    0    0    0 -0.00000000000E+00 -0.00000000000E+00 -0.45593999997E+02  0.45594000000E+02  0.51100000000E-03 0. -1.
    9900012    2    1    2    0    0  0.16541108004E+02  0.18088702064E+02 -0.37792909297E+02  0.46142318859E+02  0.10000010008E+02 0.  0.
        -12    1    1    2    0    0 -0.16541108004E+02 -0.18088702064E+02  0.37792909297E+02  0.45045681141E+02  0.00000000000E+00 0.  1.
         11    1    3    3    0    0  0.78983282127E+01  0.81814681326E+01 -0.18783286652E+02  0.21957501385E+02  0.51100000000E-03 0. -1.
        -11    1    3    3    0    0  0.36460393905E+01  0.60670811208E+01 -0.15335043805E+02  0.16889838523E+02  0.51100000000E-03 0.  1.
         12    1    3    3    0    0  0.49967404005E+01  0.38401528110E+01 -0.36745788400E+01  0.72949789508E+01  0.00000000000E+00 0. -1.
</event>
<event>
 7    1  0.3981356E-008  0.4614232E+02  0.7816164E-02  0.1320468E+00
        -11   -1    0    0    0    0  0.00000000000E+00  0.00000000000E+00  0.45593999997E+02  0.45594000000E+02  0.51100000000E-03 0.  1.
         11   -1    0    0    0    0 -0.00000000000E+00 -0.00000000000E+00 -0.45593999997E+02  0.45594000000E+02  0.51100000000E-03 0. -1.
    9900012    2    1    2    0    0  0.17613266143E+02 -0.21920553754E+02 -0.35190562169E+02  0.46142317778E+02  0.10000000156E+02 0.  0.
        -12    1    1    2    0    0 -0.17613266143E+02  0.21920553754E+02  0.35190562169E+02  0.45045682222E+02  0.00000000000E+00 0.  1.
         11    1    3    3    0    0  0.57267199308E+01 -0.45485045313E+01 -0.11749097625E+02  0.13839274183E+02  0.51100000000E-03 0. -1.
        -11    1    3    3    0    0  0.41512587785E+01 -0.18629803245E+01 -0.27674784524E+01  0.53256532352E+01  0.51100000000E-03 0.  1.
        -12    1    3    3    0    0  0.77352874334E+01 -0.15509068898E+02 -0.20673986091E+02  0.26977390360E+02  0.00000000000E+00 0.  1.
</event>
<event>
 7    1  0.3981356E-008  0.4614232E+02  0.7816164E-02  0.1320468E+00
        -11   -1    0    0    0    0  0.00000000000E+00  0.00000000000E+00  0.45593999997E+02  0.45594000000E+02  0.51100000000E-03 0. -1.
         11   -1    0    0    0    0 -0.00000000000E+00 -0.00000000000E+00 -0.45593999997E+02  0.45594000000E+02  0.51100000000E-03 0.  1.
    9900012    2    1    2    0    0  0.39313749143E+02  0.20741142229E+02  0.73039469242E+01  0.46142317706E+02  0.99999994957E+01 0.  0.
        -12    1    1    2    0    0 -0.39313749143E+02 -0.20741142229E+02 -0.73039469242E+01  0.45045682294E+02  0.00000000000E+00 0.  1.
         11    1    3    3    0    0  0.20920525309E+02  0.91978381340E+01  0.36540655956E+01  0.23143482910E+02  0.51100000000E-03 0. -1.
        -11    1    3    3    0    0  0.70949236627E+01  0.24912814497E+01  0.40001064153E+01  0.85173515036E+01  0.51100000000E-03 0.  1.
         12    1    3    3    0    0  0.11298300171E+02  0.90520226457E+01 -0.35022508677E+00  0.14481483292E+02  0.00000000000E+00 0. -1.
</event>
<event>
 7    1  0.3981356E-008  0.4614232E+02  0.7816164E-02  0.1320468E+00
        -11   -1    0    0    0    0  0.00000000000E+00  0.00000000000E+00  0.45593999997E+02  0.45594000000E+02  0.51100000000E-03 0.  1.
         11   -1    0    0    0    0 -0.00000000000E+00 -0.00000000000E+00 -0.45593999997E+02  0.45594000000E+02  0.51100000000E-03 0. -1.
    9900012    2    1    2    0    0  0.21131767063E+02 -0.34060382229E+02 -0.20553637420E+02  0.46142320651E+02  0.10000026353E+02 0.  0.
        -12    1    1    2    0    0 -0.21131767063E+02  0.34060382229E+02  0.20553637420E+02  0.45045679349E+02  0.00000000000E+00 0.  1.
         11    1    3    3    0    0 -0.56750382311E+00 -0.20065460644E+01 -0.15673637099E+01  0.26086235754E+01  0.51100000000E-03 0.  1.
        -11    1    3    3    0    0  0.16566045750E+02 -0.27572066388E+02 -0.17259009112E+02  0.36503782167E+02  0.51100000000E-03 0. -1.
         12    1    3    3    0    0  0.51332251366E+01 -0.44817697767E+01 -0.17272645980E+01  0.70299149088E+01  0.00000000000E+00 0. -1.
</event>
<event>
 7    1  0.3981356E-008  0.4614232E+02  0.7816164E-02  0.1320468E+00
        -11   -1    0    0    0    0  0.00000000000E+00  0.00000000000E+00  0.45593999997E+02  0.45594000000E+02  0.51100000000E-03 0.  1.
         11   -1    0    0    0    0 -0.00000000000E+00 -0.00000000000E+00 -0.45593999997E+02  0.45594000000E+02  0.51100000000E-03 0. -1.
    9900012    2    1    2    0    0 -0.27052701660E+01  0.58047160242E+01 -0.44588117831E+02  0.46142318004E+02  0.10000002215E+02 0.  0.
        -12    1    1    2    0    0  0.27052701660E+01 -0.58047160242E+01  0.44588117831E+02  0.45045681996E+02  0.00000000000E+00 0.  1.
         11    1    3    3    0    0 -0.24094517720E+01  0.23056629993E+00 -0.22254465932E+01  0.32880437133E+01  0.51100000000E-03 0. -1.
        -11    1    3    3    0    0 -0.25460833645E+00 -0.98767585325E-01 -0.96128228439E+01  0.96167012915E+01  0.51100000000E-03 0.  1.
        -12    1    3    3    0    0 -0.41210057576E-01  0.56729173096E+01 -0.32749848394E+02  0.33237572999E+02  0.00000000000E+00 0.  1.
</event>
<event>
 7    1  0.3981356E-008  0.4614232E+02  0.7816164E-02  0.1320468E+00
        -11   -1    0    0    0    0  0.00000000000E+00  0.00000000000E+00  0.45593999997E+02  0.45594000000E+02  0.51100000000E-03 0.  1.
         11   -1    0    0    0    0 -0.00000000000E+00 -0.00000000000E+00 -0.45593999997E+02  0.45594000000E+02  0.51100000000E-03 0. -1.
    9900012    2    1    2    0    0 -0.27239700440E+02  0.16017310868E+02 -0.32102304077E+02  0.46142318137E+02  0.10000003427E+02 0.  0.
        -12    1    1    2    0    0  0.27239700440E+02 -0.16017310868E+02  0.32102304077E+02  0.45045681863E+02  0.00000000000E+00 0.  1.
         11    1    3    3    0    0 -0.11286866260E+02  0.11102306696E+02 -0.14742216840E+02  0.21633019242E+02  0.51100000000E-03 0. -1.
        -11    1    3    3    0    0 -0.11088393025E+02  0.23891955458E+01 -0.14229242077E+02  0.18197033978E+02  0.51100000000E-03 0.  1.
        -12    1    3    3    0    0 -0.48644411550E+01  0.25258086261E+01 -0.31308451597E+01  0.63122649168E+01  0.00000000000E+00 0.  1.
</event>
<event>
 7    1  0.3981356E-008  0.4614232E+02  0.7816164E-02  0.1320468E+00
        -11   -1    0    0    0    0  0.00000000000E+00  0.00000000000E+00  0.45593999997E+02  0.45594000000E+02  0.51100000000E-03 0. -1.
         11   -1    0    0    0    0 -0.00000000000E+00 -0.00000000000E+00 -0.45593999997E+02  0.45594000000E+02  0.51100000000E-03 0.  1.
    9900012    2    1    2    0    0  0.10519138097E+02 -0.39855456750E+02 -0.18166006634E+02  0.46142317676E+02  0.99999992220E+01 0.  0.
        -12    1    1    2    0    0 -0.10519138097E+02  0.39855456750E+02  0.18166006634E+02  0.45045682324E+02  0.00000000000E+00 0.  1.
         11    1    3    3    0    0  0.93101537333E+00 -0.83742402504E+00 -0.49385435722E+00  0.13460910112E+01  0.51100000000E-03 0. -1.
        -11    1    3    3    0    0  0.23903301420E+01 -0.24777141914E+02 -0.13436410650E+02  0.28287056599E+02  0.51100000000E-03 0.  1.
         12    1    3    3    0    0  0.71977925816E+01 -0.14240890811E+02 -0.42357416266E+01  0.16509170066E+02  0.00000000000E+00 0. -1.
</event>
<event>
 7    1  0.3981356E-008  0.4614232E+02  0.7816164E-02  0.1320468E+00
        -11   -1    0    0    0    0  0.00000000000E+00  0.00000000000E+00  0.45593999997E+02  0.45594000000E+02  0.51100000000E-03 0. -1.
         11   -1    0    0    0    0 -0.00000000000E+00 -0.00000000000E+00 -0.45593999997E+02  0.45594000000E+02  0.51100000000E-03 0.  1.
    9900012    2    1    2    0    0 -0.10136000484E+02  0.30228992875E+02  0.31821108981E+02  0.46142317712E+02  0.99999995482E+01 0.  0.
        -12    1    1    2    0    0  0.10136000484E+02 -0.30228992875E+02 -0.31821108981E+02  0.45045682288E+02  0.00000000000E+00 0.  1.
         11    1    3    3    0    0 -0.42887796600E+01  0.13128107840E+02  0.93655709580E+01  0.16686963956E+02  0.51100000000E-03 0. -1.
        -11    1    3    3    0    0  0.37734675598E+00 -0.26497918511E-01  0.21020665294E+01  0.21358316107E+01  0.51100000000E-03 0.  1.
        -12    1    3    3    0    0 -0.62245675795E+01  0.17127382953E+02  0.20353471494E+02  0.27319522145E+02  0.00000000000E+00 0.  1.
</event>
<event>
 7    1  0.3981356E-008  0.4614232E+02  0.7816164E-02  0.1320468E+00
        -11   -1    0    0    0    0  0.00000000000E+00  0.00000000000E+00  0.45593999997E+02  0.45594000000E+02  0.51100000000E-03 0. -1.
         11   -1    0    0    0    0 -0.00000000000E+00 -0.00000000000E+00 -0.45593999997E+02  0.45594000000E+02  0.51100000000E-03 0.  1.
    9900012    2    1    2    0    0 -0.25590400312E+02  0.12408309139E+02  0.34932488127E+02  0.46142318181E+02  0.10000003826E+02 0.  0.
        -12    1    1    2    0    0  0.25590400312E+02 -0.12408309139E+02 -0.34932488127E+02  0.45045681819E+02  0.00000000000E+00 0.  1.
         11    1    3    3    0    0 -0.14598075560E+01 -0.31054987020E+00  0.50587952693E+00  0.15758787007E+01  0.51100000000E-03 0. -1.
        -11    1    3    3    0    0 -0.38506287464E+00  0.23577583673E+01  0.31433352243E+01  0.39481457077E+01  0.51100000000E-03 0.  1.
         12    1    3    3    0    0 -0.23745529882E+02  0.10361100641E+02  0.31283273376E+02  0.40618293772E+02  0.00000000000E+00 0. -1.
</event>
<event>
 7    1  0.3981356E-008  0.4614232E+02  0.7816164E-02  0.1320468E+00
        -11   -1    0    0    0    0  0.00000000000E+00  0.00000000000E+00  0.45593999997E+02  0.45594000000E+02  0.51100000000E-03 0.  1.
         11   -1    0    0    0    0 -0.00000000000E+00 -0.00000000000E+00 -0.45593999997E+02  0.45594000000E+02  0.51100000000E-03 0. -1.
    9900012    2    1    2    0    0  0.13915261816E+02 -0.31119165076E+02 -0.29446164712E+02  0.46142316936E+02  0.99999924746E+01 0.  0.
        -12    1    1    2    0    0 -0.13915261816E+02  0.31119165076E+02  0.29446164712E+02  0.45045683064E+02  0.00000000000E+00 0.  1.
         11    1    3    3    0    0  0.28023147091E+01 -0.19516857649E+01 -0.51413138123E+01  0.61721271076E+01  0.51100000000E-03 0. -1.
        -11    1    3    3    0    0  0.16952843660E+01 -0.15923642703E+01 -0.58719048588E+00  0.23988342958E+01  0.51100000000E-03 0.  1.
         12    1    3    3    0    0  0.94176627411E+01 -0.27575115041E+02 -0.23717660414E+02  0.37571355532E+02  0.00000000000E+00 0. -1.
</event>
<event>
 7    1  0.3981356E-008  0.4614232E+02  0.7816164E-02  0.1320468E+00
        -11   -1    0    0    0    0  0.00000000000E+00  0.00000000000E+00  0.45593999997E+02  0.45594000000E+02  0.51100000000E-03 0.  1.
         11   -1    0    0    0    0 -0.00000000000E+00 -0.00000000000E+00 -0.45593999997E+02  0.45594000000E+02  0.51100000000E-03 0. -1.
    9900012    2    1    2    0    0  0.30665746738E+02 -0.16965808589E+02 -0.28299944709E+02  0.46142317026E+02  0.99999933007E+01 0.  0.
        -12    1    1    2    0    0 -0.30665746738E+02  0.16965808589E+02  0.28299944709E+02  0.45045682974E+02  0.00000000000E+00 0.  1.
         11    1    3    3    0    0 -0.55318232145E+00  0.99367712543E-02 -0.65638662829E-01  0.55715178844E+00  0.51100000000E-03 0. -1.
        -11    1    3    3    0    0  0.16081575408E+01 -0.76576417981E+00 -0.28002059913E+01  0.33186924096E+01  0.51100000000E-03 0.  1.
         12    1    3    3    0    0  0.29610771518E+02 -0.16209981180E+02 -0.25434100054E+02  0.42266472828E+02  0.00000000000E+00 0. -1.
</event>
<event>
 7    1  0.3981356E-008  0.4614232E+02  0.7816164E-02  0.1320468E+00
        -11   -1    0    0    0    0  0.00000000000E+00  0.00000000000E+00  0.45593999997E+02  0.45594000000E+02  0.51100000000E-03 0.  1.
         11   -1    0    0    0    0 -0.00000000000E+00 -0.00000000000E+00 -0.45593999997E+02  0.45594000000E+02  0.51100000000E-03 0. -1.
    9900012    2    1    2    0    0 -0.44865284134E+02 -0.25745729640E+01 -0.30969735905E+01  0.46142318833E+02  0.10000009775E+02 0.  0.
        -12    1    1    2    0    0  0.44865284134E+02  0.25745729640E+01  0.30969735905E+01  0.45045681167E+02  0.00000000000E+00 0.  1.
         11    1    3    3    0    0 -0.16589185329E+02  0.26361874155E+01 -0.32937973250E+01  0.17117232693E+02  0.51100000000E-03 0. -1.
        -11    1    3    3    0    0 -0.23957922422E+01 -0.15289543197E+01  0.48179496693E+00  0.28826460814E+01  0.51100000000E-03 0.  1.
        -12    1    3    3    0    0 -0.25880306563E+02 -0.36818060598E+01 -0.28497123247E+00  0.26142440059E+02  0.00000000000E+00 0.  1.
</event>
<event>
 7    1  0.3981356E-008  0.4614232E+02  0.7816164E-02  0.1320468E+00
        -11   -1    0    0    0    0  0.00000000000E+00  0.00000000000E+00  0.45593999997E+02  0.45594000000E+02  0.51100000000E-03 0.  1.
         11   -1    0    0    0    0 -0.00000000000E+00 -0.00000000000E+00 -0.45593999997E+02  0.45594000000E+02  0.51100000000E-03 0. -1.
    9900012    2    1    2    0    0  0.10546498635E+02 -0.10969071867E+02 -0.42397691918E+02  0.46142318176E+02  0.10000003780E+02 0.  0.
        -12    1    1    2    0    0 -0.10546498635E+02  0.10969071867E+02  0.42397691918E+02  0.45045681824E+02  0.00000000000E+00 0.  1.
         11    1    3    3    0    0  0.16085897704E+01 -0.47874374764E+00 -0.74233811040E+01  0.76107387224E+01  0.51100000000E-03 0. -1.
        -11    1    3    3    0    0  0.70882022362E+01 -0.46377671001E+01 -0.11592036041E+02  0.14357116509E+02  0.51100000000E-03 0.  1.
        -12    1    3    3    0    0  0.18497066280E+01 -0.58525610188E+01 -0.23382274772E+02  0.24174462944E+02  0.00000000000E+00 0.  1.
</event>
<event>
 7    1  0.3981356E-008  0.4614232E+02  0.7816164E-02  0.1320468E+00
        -11   -1    0    0    0    0  0.00000000000E+00  0.00000000000E+00  0.45593999997E+02  0.45594000000E+02  0.51100000000E-03 0.  1.
         11   -1    0    0    0    0 -0.00000000000E+00 -0.00000000000E+00 -0.45593999997E+02  0.45594000000E+02  0.51100000000E-03 0. -1.
    9900012    2    1    2    0    0  0.31511850182E+02  0.30178840353E+02 -0.11196172924E+02  0.46142318796E+02  0.10000009439E+02 0.  0.
        -12    1    1    2    0    0 -0.31511850182E+02 -0.30178840353E+02  0.11196172924E+02  0.45045681204E+02  0.00000000000E+00 0.  1.
         11    1    3    3    0    0  0.11913906059E+02  0.13014587971E+02 -0.79012487242E+01  0.19332624998E+02  0.51100000000E-03 0. -1.
        -11    1    3    3    0    0 -0.19963526788E+00  0.64386023937E+00 -0.56684893483E+00  0.88075434944E+00  0.51100000000E-03 0.  1.
         12    1    3    3    0    0  0.19797579391E+02  0.16520392143E+02 -0.27280752645E+01  0.25928939449E+02  0.00000000000E+00 0. -1.
</event>
<event>
 7    1  0.3981356E-008  0.4614232E+02  0.7816164E-02  0.1320468E+00
        -11   -1    0    0    0    0  0.00000000000E+00  0.00000000000E+00  0.45593999997E+02  0.45594000000E+02  0.51100000000E-03 0. -1.
         11   -1    0    0    0    0 -0.00000000000E+00 -0.00000000000E+00 -0.45593999997E+02  0.45594000000E+02  0.51100000000E-03 0.  1.
    9900012    2    1    2    0    0 -0.58540932108E+01  0.39449964534E+02  0.20941417750E+02  0.46142322222E+02  0.10000040677E+02 0.  0.
        -12    1    1    2    0    0  0.58540932108E+01 -0.39449964534E+02 -0.20941417750E+02  0.45045677778E+02  0.00000000000E+00 0.  1.
         11    1    3    3    0    0 -0.37961763336E+01  0.22819591070E+02  0.84520609136E+01  0.24628885994E+02  0.51100000000E-03 0. -1.
        -11    1    3    3    0    0  0.10979355455E+01  0.10778770758E+01  0.47888239392E+00  0.16114000313E+01  0.51100000000E-03 0.  1.
        -12    1    3    3    0    0 -0.31558524227E+01  0.15552496389E+02  0.12010474443E+02  0.19902036197E+02  0.00000000000E+00 0.  1.
</event>
<event>
 7    1  0.3981356E-008  0.4614232E+02  0.7816164E-02  0.1320468E+00
        -11   -1    0    0    0    0  0.00000000000E+00  0.00000000000E+00  0.45593999997E+02  0.45594000000E+02  0.51100000000E-03 0. -1.
         11   -1    0    0    0    0 -0.00000000000E+00 -0.00000000000E+00 -0.45593999997E+02  0.45594000000E+02  0.51100000000E-03 0.  1.
    9900012    2    1    2    0    0 -0.64354847105E+01  0.43315218143E+02 -0.10558883372E+02  0.46142316474E+02  0.99999882660E+01 0.  0.
        -12    1    1    2    0    0  0.64354847105E+01 -0.43315218143E+02  0.10558883372E+02  0.45045683526E+02  0.00000000000E+00 0.  1.
         11    1    3    3    0    0 -0.38118393869E+01  0.21521766326E+02 -0.17274797956E+01  0.21924888415E+02  0.51100000000E-03 0. -1.
        -11    1    3    3    0    0 -0.34270130126E+01  0.10775746623E+02 -0.60559816395E+01  0.12827160534E+02  0.51100000000E-03 0.  1.
        -12    1    3    3    0    0  0.80336768901E+00  0.11017705194E+02 -0.27754219371E+01  0.11390267526E+02  0.00000000000E+00 0.  1.
</event>
<event>
 7    1  0.3981356E-008  0.4614232E+02  0.7816164E-02  0.1320468E+00
        -11   -1    0    0    0    0  0.00000000000E+00  0.00000000000E+00  0.45593999997E+02  0.45594000000E+02  0.51100000000E-03 0.  1.
         11   -1    0    0    0    0 -0.00000000000E+00 -0.00000000000E+00 -0.45593999997E+02  0.45594000000E+02  0.51100000000E-03 0. -1.
    9900012    2    1    2    0    0  0.16532767115E+02 -0.13710113731E+02 -0.39595629717E+02  0.46142317635E+02  0.99999988545E+01 0.  0.
        -12    1    1    2    0    0 -0.16532767115E+02  0.13710113731E+02  0.39595629717E+02  0.45045682365E+02  0.00000000000E+00 0.  1.
         11    1    3    3    0    0  0.53836754268E+01 -0.50890194254E+01 -0.10653784671E+02  0.12976332606E+02  0.51100000000E-03 0. -1.
        -11    1    3    3    0    0  0.31308631130E+01 -0.67556015873E+01 -0.96311293588E+01  0.12173705665E+02  0.51100000000E-03 0.  1.
         12    1    3    3    0    0  0.80182285749E+01 -0.18654927181E+01 -0.19310715687E+02  0.20992279365E+02  0.00000000000E+00 0. -1.
</event>
<event>
 7    1  0.3981356E-008  0.4614232E+02  0.7816164E-02  0.1320468E+00
        -11   -1    0    0    0    0  0.00000000000E+00  0.00000000000E+00  0.45593999997E+02  0.45594000000E+02  0.51100000000E-03 0.  1.
         11   -1    0    0    0    0 -0.00000000000E+00 -0.00000000000E+00 -0.45593999997E+02  0.45594000000E+02  0.51100000000E-03 0. -1.
    9900012    2    1    2    0    0 -0.19606457757E+02 -0.13989588861E+02 -0.38065623380E+02  0.46142318014E+02  0.10000002305E+02 0.  0.
        -12    1    1    2    0    0  0.19606457757E+02  0.13989588861E+02  0.38065623380E+02  0.45045681986E+02  0.00000000000E+00 0.  1.
         11    1    3    3    0    0 -0.96004502087E+01 -0.10908477129E+02 -0.18464766804E+02  0.23497045152E+02  0.51100000000E-03 0. -1.
        -11    1    3    3    0    0 -0.31798434346E+01 -0.28100699946E+01 -0.99887933696E+01  0.10852828704E+02  0.51100000000E-03 0.  1.
        -12    1    3    3    0    0 -0.68261641140E+01 -0.27104173830E+00 -0.96120632063E+01  0.11792444158E+02  0.00000000000E+00 0.  1.
</event>
<event>
 7    1  0.3981356E-008  0.4614232E+02  0.7816164E-02  0.1320468E+00
        -11   -1    0    0    0    0  0.00000000000E+00  0.00000000000E+00  0.45593999997E+02  0.45594000000E+02  0.51100000000E-03 0.  1.
         11   -1    0    0    0    0 -0.00000000000E+00 -0.00000000000E+00 -0.45593999997E+02  0.45594000000E+02  0.51100000000E-03 0. -1.
    9900012    2    1    2    0    0  0.49776953132E-01  0.27509738288E+02 -0.35669669224E+02  0.46142317843E+02  0.10000000747E+02 0.  0.
        -12    1    1    2    0    0 -0.49776953132E-01 -0.27509738288E+02  0.35669669224E+02  0.45045682157E+02  0.00000000000E+00 0.  1.
         11    1    3    3    0    0  0.52735705045E+00  0.17983767643E+02 -0.23067597956E+02  0.29254197645E+02  0.51100000000E-03 0. -1.
        -11    1    3    3    0    0  0.16821151610E+01  0.82747809964E+01 -0.78935610424E+01  0.11558971327E+02  0.51100000000E-03 0.  1.
         12    1    3    3    0    0 -0.21596952583E+01  0.12511896485E+01 -0.47085102257E+01  0.53291488711E+01  0.00000000000E+00 0. -1.
</event>
<event>
 7    1  0.3981356E-008  0.4614232E+02  0.7816164E-02  0.1320468E+00
        -11   -1    0    0    0    0  0.00000000000E+00  0.00000000000E+00  0.45593999997E+02  0.45594000000E+02  0.51100000000E-03 0.  1.
         11   -1    0    0    0    0 -0.00000000000E+00 -0.00000000000E+00 -0.45593999997E+02  0.45594000000E+02  0.51100000000E-03 0. -1.
    9900012    2    1    2    0    0  0.27106226303E+01  0.11508936561E+01 -0.44949321023E+02  0.46142317724E+02  0.99999996606E+01 0.  0.
        -12    1    1    2    0    0 -0.27106226303E+01 -0.11508936561E+01  0.44949321023E+02  0.45045682276E+02  0.00000000000E+00 0.  1.
         11    1    3    3    0    0  0.62327878554E+00  0.17537364077E+00 -0.68058252209E+00  0.93937489262E+00  0.51100000000E-03 0. -1.
        -11    1    3    3    0    0 -0.43275643939E+00 -0.17424802840E+01 -0.16980934522E+01  0.24712420580E+01  0.51100000000E-03 0.  1.
         12    1    3    3    0    0  0.25201002841E+01  0.27180002993E+01 -0.42570645049E+02  0.42731700773E+02  0.00000000000E+00 0. -1.
</event>
<event>
 7    1  0.3981356E-008  0.4614232E+02  0.7816164E-02  0.1320468E+00
        -11   -1    0    0    0    0  0.00000000000E+00  0.00000000000E+00  0.45593999997E+02  0.45594000000E+02  0.51100000000E-03 0. -1.
         11   -1    0    0    0    0 -0.00000000000E+00 -0.00000000000E+00 -0.45593999997E+02  0.45594000000E+02  0.51100000000E-03 0.  1.
    9900012    2    1    2    0    0 -0.13521065174E+02 -0.41824329963E+02  0.98498589631E+01  0.46142317611E+02  0.99999986275E+01 0.  0.
        -12    1    1    2    0    0  0.13521065174E+02  0.41824329963E+02 -0.98498589631E+01  0.45045682389E+02  0.00000000000E+00 0.  1.
         11    1    3    3    0    0 -0.55151294916E+01 -0.85282730923E+01  0.50571934910E+01  0.11345629181E+02  0.51100000000E-03 0. -1.
        -11    1    3    3    0    0 -0.25355244635E+01 -0.14903642885E+02  0.45925192299E+00  0.15124760102E+02  0.51100000000E-03 0.  1.
         12    1    3    3    0    0 -0.54704112193E+01 -0.18392413986E+02  0.43334135491E+01  0.19671928327E+02  0.00000000000E+00 0. -1.
</event>
<event>
 7    1  0.3981356E-008  0.4614232E+02  0.7816164E-02  0.1320468E+00
        -11   -1    0    0    0    0  0.00000000000E+00  0.00000000000E+00  0.45593999997E+02  0.45594000000E+02  0.51100000000E-03 0.  1.
         11   -1    0    0    0    0 -0.00000000000E+00 -0.00000000000E+00 -0.45593999997E+02  0.45594000000E+02  0.51100000000E-03 0. -1.
    9900012    2    1    2    0    0 -0.33335643008E+02  0.21249912074E+02 -0.21593739712E+02  0.46142318158E+02  0.10000003616E+02 0.  0.
        -12    1    1    2    0    0  0.33335643008E+02 -0.21249912074E+02  0.21593739712E+02  0.45045681842E+02  0.00000000000E+00 0.  1.
         11    1    3    3    0    0 -0.71235644797E+01  0.26264083831E+01 -0.36519428833E+01  0.84249557254E+01  0.51100000000E-03 0. -1.
        -11    1    3    3    0    0 -0.12772274835E+02  0.44244654814E+01 -0.88450521785E+01  0.16153694548E+02  0.51100000000E-03 0.  1.
        -12    1    3    3    0    0 -0.13439803693E+02  0.14199038209E+02 -0.90967446498E+01  0.21563667884E+02  0.00000000000E+00 0.  1.
</event>
<event>
 7    1  0.3981356E-008  0.4614232E+02  0.7816164E-02  0.1320468E+00
        -11   -1    0    0    0    0  0.00000000000E+00  0.00000000000E+00  0.45593999997E+02  0.45594000000E+02  0.51100000000E-03 0.  1.
         11   -1    0    0    0    0 -0.00000000000E+00 -0.00000000000E+00 -0.45593999997E+02  0.45594000000E+02  0.51100000000E-03 0. -1.
    9900012    2    1    2    0    0  0.47124555330E+01  0.39115897720E+02 -0.21836954981E+02  0.46142319914E+02  0.10000019631E+02 0.  0.
        -12    1    1    2    0    0 -0.47124555330E+01 -0.39115897720E+02  0.21836954981E+02  0.45045680086E+02  0.00000000000E+00 0.  1.
         11    1    3    3    0    0 -0.80204819354E+00  0.29241090282E+01 -0.27537016962E+01  0.40959209229E+01  0.51100000000E-03 0. -1.
        -11    1    3    3    0    0 -0.11623463699E+01  0.15855931561E+02 -0.10089152784E+02  0.18829567677E+02  0.51100000000E-03 0.  1.
         12    1    3    3    0    0  0.66768500964E+01  0.20335857130E+02 -0.89941005015E+01  0.23216831314E+02  0.00000000000E+00 0. -1.
</event>
<event>
 7    1  0.3981356E-008  0.4614232E+02  0.7816164E-02  0.1320468E+00
        -11   -1    0    0    0    0  0.00000000000E+00  0.00000000000E+00  0.45593999997E+02  0.45594000000E+02  0.51100000000E-03 0.  1.
         11   -1    0    0    0    0 -0.00000000000E+00 -0.00000000000E+00 -0.45593999997E+02  0.45594000000E+02  0.51100000000E-03 0. -1.
    9900012    2    1    2    0    0  0.27964803782E+02  0.33412172133E+02 -0.11432849616E+02  0.46142317104E+02  0.99999940073E+01 0.  0.
        -12    1    1    2    0    0 -0.27964803782E+02 -0.33412172133E+02  0.11432849616E+02  0.45045682896E+02  0.00000000000E+00 0.  1.
         11    1    3    3    0    0  0.10474873760E+02  0.10814138643E+02 -0.19110792284E+01  0.15176323631E+02  0.51100000000E-03 0. -1.
        -11    1    3    3    0    0  0.62065293765E+01  0.51924229150E+01  0.11697474410E+00  0.80929565661E+01  0.51100000000E-03 0.  1.
         12    1    3    3    0    0  0.11283400646E+02  0.17405610575E+02 -0.96387451314E+01  0.22873036907E+02  0.00000000000E+00 0. -1.
</event>
<event>
 7    1  0.3981356E-008  0.4614232E+02  0.7816164E-02  0.1320468E+00
        -11   -1    0    0    0    0  0.00000000000E+00  0.00000000000E+00  0.45593999997E+02  0.45594000000E+02  0.51100000000E-03 0.  1.
         11   -1    0    0    0    0 -0.00000000000E+00 -0.00000000000E+00 -0.45593999997E+02  0.45594000000E+02  0.51100000000E-03 0. -1.
    9900012    2    1    2    0    0 -0.39912877506E+02  0.14871412925E+02 -0.14660041855E+02  0.46142317184E+02  0.99999947373E+01 0.  0.
        -12    1    1    2    0    0  0.39912877506E+02 -0.14871412925E+02  0.14660041855E+02  0.45045682816E+02  0.00000000000E+00 0.  1.
         11    1    3    3    0    0 -0.10402434688E+02  0.45247668470E+01 -0.21843882126E+01  0.11552303432E+02  0.51100000000E-03 0. -1.
        -11    1    3    3    0    0 -0.24433941866E+02  0.11528091349E+02 -0.11023772243E+02  0.29179409864E+02  0.51100000000E-03 0.  1.
         12    1    3    3    0    0 -0.50765009512E+01 -0.11814452710E+01 -0.14518814001E+01  0.54106038883E+01  0.00000000000E+00 0. -1.
</event>
<event>
 7    1  0.3981356E-008  0.4614232E+02  0.7816164E-02  0.1320468E+00
        -11   -1    0    0    0    0  0.00000000000E+00  0.00000000000E+00  0.45593999997E+02  0.45594000000E+02  0.51100000000E-03 0.  1.
         11   -1    0    0    0    0 -0.00000000000E+00 -0.00000000000E+00 -0.45593999997E+02  0.45594000000E+02  0.51100000000E-03 0. -1.
    9900012    2    1    2    0    0 -0.24730558117E+02  0.16747156077E+02 -0.33720110869E+02  0.46142316317E+02  0.99999868304E+01 0.  0.
        -12    1    1    2    0    0  0.24730558117E+02 -0.16747156077E+02  0.33720110869E+02  0.45045683683E+02  0.00000000000E+00 0.  1.
         11    1    3    3    0    0 -0.87149780336E+01  0.22174243177E+01 -0.11561705859E+02  0.14647213228E+02  0.51100000000E-03 0. -1.
        -11    1    3    3    0    0 -0.33142146288E+00  0.24278583168E+01 -0.35652328114E+01  0.43261092743E+01  0.51100000000E-03 0.  1.
         12    1    3    3    0    0 -0.15684158621E+02  0.12101873443E+02 -0.18593172199E+02  0.27168993814E+02  0.00000000000E+00 0. -1.
</event>
<event>
 7    1  0.3981356E-008  0.4614233E+02  0.7816164E-02  0.1320468E+00
        -11   -1    0    0    0    0  0.00000000000E+00  0.00000000000E+00  0.45593999997E+02  0.45594000000E+02  0.51100000000E-03 0. -1.
         11   -1    0    0    0    0 -0.00000000000E+00 -0.00000000000E+00 -0.45593999997E+02  0.45594000000E+02  0.51100000000E-03 0.  1.
    9900012    2    1    2    0    0  0.37831042614E+02  0.22072978276E+02 -0.10521818358E+02  0.46142325215E+02  0.10000067972E+02 0.  0.
        -12    1    1    2    0    0 -0.37831042614E+02 -0.22072978276E+02  0.10521818358E+02  0.45045674785E+02  0.00000000000E+00 0.  1.
         11    1    3    3    0    0  0.13504638724E+02  0.38257980477E+01 -0.20953421396E+01  0.14191633335E+02  0.51100000000E-03 0. -1.
        -11    1    3    3    0    0  0.40249394740E+01  0.41445416896E+01 -0.34708336063E+01  0.67397366247E+01  0.51100000000E-03 0.  1.
        -12    1    3    3    0    0  0.20301464416E+02  0.14102638539E+02 -0.49556426118E+01  0.25210955255E+02  0.00000000000E+00 0.  1.
</event>
<event>
 7    1  0.3981356E-008  0.4614232E+02  0.7816164E-02  0.1320468E+00
        -11   -1    0    0    0    0  0.00000000000E+00  0.00000000000E+00  0.45593999997E+02  0.45594000000E+02  0.51100000000E-03 0.  1.
         11   -1    0    0    0    0 -0.00000000000E+00 -0.00000000000E+00 -0.45593999997E+02  0.45594000000E+02  0.51100000000E-03 0. -1.
    9900012    2    1    2    0    0  0.24102338128E+02  0.16217296011E+01 -0.38020530333E+02  0.46142318332E+02  0.10000005203E+02 0.  0.
        -12    1    1    2    0    0 -0.24102338128E+02 -0.16217296011E+01  0.38020530333E+02  0.45045681668E+02  0.00000000000E+00 0.  1.
         11    1    3    3    0    0  0.10017681228E+02  0.32075402784E+01 -0.10338275905E+02  0.14748633861E+02  0.51100000000E-03 0. -1.
        -11    1    3    3    0    0  0.30753135221E+01  0.14130936320E+01 -0.68845428114E+01  0.76714611942E+01  0.51100000000E-03 0.  1.
        -12    1    3    3    0    0  0.11009343378E+02 -0.29989043093E+01 -0.20797711617E+02  0.23722223276E+02  0.00000000000E+00 0.  1.
</event>
<event>
 7    1  0.3981356E-008  0.4614232E+02  0.7816164E-02  0.1320468E+00
        -11   -1    0    0    0    0  0.00000000000E+00  0.00000000000E+00  0.45593999997E+02  0.45594000000E+02  0.51100000000E-03 0. -1.
         11   -1    0    0    0    0 -0.00000000000E+00 -0.00000000000E+00 -0.45593999997E+02  0.45594000000E+02  0.51100000000E-03 0.  1.
    9900012    2    1    2    0    0  0.17711837612E+02  0.34610785776E+02  0.22748578252E+02  0.46142317676E+02  0.99999992202E+01 0.  0.
        -12    1    1    2    0    0 -0.17711837612E+02 -0.34610785776E+02 -0.22748578252E+02  0.45045682324E+02  0.00000000000E+00 0.  1.
         11    1    3    3    0    0  0.63531421137E+01  0.11040959662E+02  0.47907544914E+01  0.13609428123E+02  0.51100000000E-03 0. -1.
        -11    1    3    3    0    0  0.49465840587E+01  0.17875047652E+02  0.11992851867E+02  0.22086523461E+02  0.51100000000E-03 0.  1.
        -12    1    3    3    0    0  0.64121114394E+01  0.56947784613E+01  0.59649718936E+01  0.10446366092E+02  0.00000000000E+00 0.  1.
</event>
<event>
 7    1  0.3981356E-008  0.4614232E+02  0.7816164E-02  0.1320468E+00
        -11   -1    0    0    0    0  0.00000000000E+00  0.00000000000E+00  0.45593999997E+02  0.45594000000E+02  0.51100000000E-03 0.  1.
         11   -1    0    0    0    0 -0.00000000000E+00 -0.00000000000E+00 -0.45593999997E+02  0.45594000000E+02  0.51100000000E-03 0. -1.
    9900012    2    1    2    0    0  0.27610900741E+02 -0.13698118753E+02 -0.32849858576E+02  0.46142317570E+02  0.99999982577E+01 0.  0.
        -12    1    1    2    0    0 -0.27610900741E+02  0.13698118753E+02  0.32849858576E+02  0.45045682430E+02  0.00000000000E+00 0.  1.
         11    1    3    3    0    0  0.98922631897E+01 -0.10073522074E+02 -0.12455633012E+02  0.18827520070E+02  0.51100000000E-03 0. -1.
        -11    1    3    3    0    0  0.11327768222E+02 -0.30609430315E+01 -0.13805409272E+02  0.18118416889E+02  0.51100000000E-03 0.  1.
         12    1    3    3    0    0  0.63908693294E+01 -0.56365364826E+00 -0.65888162921E+01  0.91963806115E+01  0.00000000000E+00 0. -1.
</event>
<event>
 7    1  0.3981356E-008  0.4614232E+02  0.7816164E-02  0.1320468E+00
        -11   -1    0    0    0    0  0.00000000000E+00  0.00000000000E+00  0.45593999997E+02  0.45594000000E+02  0.51100000000E-03 0.  1.
         11   -1    0    0    0    0 -0.00000000000E+00 -0.00000000000E+00 -0.45593999997E+02  0.45594000000E+02  0.51100000000E-03 0. -1.
    9900012    2    1    2    0    0  0.43918918022E+02 -0.99769619794E+01 -0.83806765233E+00  0.46142317766E+02  0.10000000046E+02 0.  0.
        -12    1    1    2    0    0 -0.43918918022E+02  0.99769619794E+01  0.83806765233E+00  0.45045682234E+02  0.00000000000E+00 0.  1.
         11    1    3    3    0    0  0.79775254348E+01  0.98929131664E+00 -0.63778639292E-01  0.80388853300E+01  0.51100000000E-03 0. -1.
        -11    1    3    3    0    0  0.18100192370E+02 -0.37292573522E+01 -0.29992654822E+01  0.18722177169E+02  0.51100000000E-03 0.  1.
         12    1    3    3    0    0  0.17841200216E+02 -0.72369959438E+01  0.22249764691E+01  0.19381255267E+02  0.00000000000E+00 0. -1.
</event>
<event>
 7    1  0.3981356E-008  0.4614232E+02  0.7816164E-02  0.1320468E+00
        -11   -1    0    0    0    0  0.00000000000E+00  0.00000000000E+00  0.45593999997E+02  0.45594000000E+02  0.51100000000E-03 0. -1.
         11   -1    0    0    0    0 -0.00000000000E+00 -0.00000000000E+00 -0.45593999997E+02  0.45594000000E+02  0.51100000000E-03 0.  1.
    9900012    2    1    2    0    0  0.13684279323E+02 -0.30830622633E+02  0.29855095013E+02  0.46142317734E+02  0.99999997545E+01 0.  0.
        -12    1    1    2    0    0 -0.13684279323E+02  0.30830622633E+02 -0.29855095013E+02  0.45045682266E+02  0.00000000000E+00 0.  1.
         11    1    3    3    0    0  0.63575346506E+01 -0.10572843993E+02  0.14160798570E+02  0.18781147284E+02  0.51100000000E-03 0. -1.
        -11    1    3    3    0    0 -0.98503404482E+00 -0.42789730463E+01  0.27505164566E+01  0.51812395660E+01  0.51100000000E-03 0.  1.
         12    1    3    3    0    0  0.83117787176E+01 -0.15978805594E+02  0.12943779987E+02  0.22179930884E+02  0.00000000000E+00 0. -1.
</event>
<event>
 7    1  0.3981356E-008  0.4614232E+02  0.7816164E-02  0.1320468E+00
        -11   -1    0    0    0    0  0.00000000000E+00  0.00000000000E+00  0.45593999997E+02  0.45594000000E+02  0.51100000000E-03 0.  1.
         11   -1    0    0    0    0 -0.00000000000E+00 -0.00000000000E+00 -0.45593999997E+02  0.45594000000E+02  0.51100000000E-03 0. -1.
    9900012    2    1    2    0    0  0.21306713692E+02  0.30012242639E+02 -0.25969265282E+02  0.46142317678E+02  0.99999992425E+01 0.  0.
        -12    1    1    2    0    0 -0.21306713692E+02 -0.30012242639E+02  0.25969265282E+02  0.45045682322E+02  0.00000000000E+00 0.  1.
         11    1    3    3    0    0  0.99142156145E+01  0.16859112875E+02 -0.12208498282E+02  0.23055775605E+02  0.51100000000E-03 0.  1.
        -11    1    3    3    0    0  0.16397335502E+01  0.55462456278E+01 -0.66751642524E+01  0.88321789349E+01  0.51100000000E-03 0. -1.
        -12    1    3    3    0    0  0.97527645270E+01  0.76068841363E+01 -0.70856027478E+01  0.14254363138E+02  0.00000000000E+00 0.  1.
</event>
<event>
 7    1  0.3981356E-008  0.4614232E+02  0.7816164E-02  0.1320468E+00
        -11   -1    0    0    0    0  0.00000000000E+00  0.00000000000E+00  0.45593999997E+02  0.45594000000E+02  0.51100000000E-03 0.  1.
         11   -1    0    0    0    0 -0.00000000000E+00 -0.00000000000E+00 -0.45593999997E+02  0.45594000000E+02  0.51100000000E-03 0. -1.
    9900012    2    1    2    0    0  0.45452709825E+00 -0.12321693874E+02 -0.43325313438E+02  0.46142317417E+02  0.99999968658E+01 0.  0.
        -12    1    1    2    0    0 -0.45452709825E+00  0.12321693874E+02  0.43325313438E+02  0.45045682583E+02  0.00000000000E+00 0.  1.
         11    1    3    3    0    0 -0.11902163181E+01 -0.72884597442E+00 -0.48494048125E+01  0.50462420309E+01  0.51100000000E-03 0. -1.
        -11    1    3    3    0    0  0.14365148706E+01 -0.93262414775E+01 -0.16540262915E+02  0.19042653508E+02  0.51100000000E-03 0.  1.
        -12    1    3    3    0    0  0.20822854574E+00 -0.22666064226E+01 -0.21935645711E+02  0.22053421879E+02  0.00000000000E+00 0.  1.
</event>
<event>
 7    1  0.3981356E-008  0.4614232E+02  0.7816164E-02  0.1320468E+00
        -11   -1    0    0    0    0  0.00000000000E+00  0.00000000000E+00  0.45593999997E+02  0.45594000000E+02  0.51100000000E-03 0.  1.
         11   -1    0    0    0    0 -0.00000000000E+00 -0.00000000000E+00 -0.45593999997E+02  0.45594000000E+02  0.51100000000E-03 0. -1.
    9900012    2    1    2    0    0  0.21666589499E+02  0.28951129342E+02 -0.26860837380E+02  0.46142316794E+02  0.99999911817E+01 0.  0.
        -12    1    1    2    0    0 -0.21666589499E+02 -0.28951129342E+02  0.26860837380E+02  0.45045683206E+02  0.00000000000E+00 0.  1.
         11    1    3    3    0    0  0.10064927139E+02  0.15467965309E+02 -0.16020678597E+02  0.24438143385E+02  0.51100000000E-03 0.  1.
        -11    1    3    3    0    0  0.10757204398E+02  0.12888186481E+02 -0.11614033717E+02  0.20413441078E+02  0.51100000000E-03 0. -1.
        -12    1    3    3    0    0  0.84445796242E+00  0.59497755205E+00  0.77387493347E+00  0.12907323310E+01  0.00000000000E+00 0.  1.
</event>
<event>
 7    1  0.3981356E-008  0.4614232E+02  0.7816164E-02  0.1320468E+00
        -11   -1    0    0    0    0  0.00000000000E+00  0.00000000000E+00  0.45593999997E+02  0.45594000000E+02  0.51100000000E-03 0. -1.
         11   -1    0    0    0    0 -0.00000000000E+00 -0.00000000000E+00 -0.45593999997E+02  0.45594000000E+02  0.51100000000E-03 0.  1.
    9900012    2    1    2    0    0 -0.42378163780E+02 -0.13863214932E+02  0.64043757787E+01  0.46142317379E+02  0.99999965201E+01 0.  0.
        -12    1    1    2    0    0  0.42378163780E+02  0.13863214932E+02 -0.64043757787E+01  0.45045682621E+02  0.00000000000E+00 0.  1.
         11    1    3    3    0    0 -0.24422444605E+02 -0.48664812537E+01  0.34836828268E+01  0.25145068833E+02  0.51100000000E-03 0. -1.
        -11    1    3    3    0    0 -0.44585521311E+01 -0.14292908577E+01 -0.14789787771E+01  0.49100853298E+01  0.51100000000E-03 0.  1.
        -12    1    3    3    0    0 -0.13497167044E+02 -0.75674428210E+01  0.43996717290E+01  0.16087163217E+02  0.00000000000E+00 0.  1.
</event>
<event>
 7    1  0.3981356E-008  0.4614232E+02  0.7816164E-02  0.1320468E+00
        -11   -1    0    0    0    0  0.00000000000E+00  0.00000000000E+00  0.45593999997E+02  0.45594000000E+02  0.51100000000E-03 0.  1.
         11   -1    0    0    0    0 -0.00000000000E+00 -0.00000000000E+00 -0.45593999997E+02  0.45594000000E+02  0.51100000000E-03 0. -1.
    9900012    2    1    2    0    0 -0.21903240313E+02 -0.57639932383E+01 -0.38937615883E+02  0.46142317799E+02  0.10000000347E+02 0.  0.
        -12    1    1    2    0    0  0.21903240313E+02  0.57639932383E+01  0.38937615883E+02  0.45045682201E+02  0.00000000000E+00 0.  1.
         11    1    3    3    0    0 -0.53712557135E+01 -0.21629943616E+01 -0.39602728202E+01  0.70151759507E+01  0.51100000000E-03 0.  1.
        -11    1    3    3    0    0 -0.90367374874E+01  0.38871480666E+00 -0.18121849835E+02  0.20253769163E+02  0.51100000000E-03 0. -1.
        -12    1    3    3    0    0 -0.74952471125E+01 -0.39897136833E+01 -0.16855493228E+02  0.18873372685E+02  0.00000000000E+00 0.  1.
</event>
<event>
 7    1  0.3981356E-008  0.4614232E+02  0.7816164E-02  0.1320468E+00
        -11   -1    0    0    0    0  0.00000000000E+00  0.00000000000E+00  0.45593999997E+02  0.45594000000E+02  0.51100000000E-03 0.  1.
         11   -1    0    0    0    0 -0.00000000000E+00 -0.00000000000E+00 -0.45593999997E+02  0.45594000000E+02  0.51100000000E-03 0. -1.
    9900012    2    1    2    0    0 -0.26246143049E+02  0.32742375412E+02 -0.16376515932E+02  0.46142318225E+02  0.10000004227E+02 0.  0.
        -12    1    1    2    0    0  0.26246143049E+02 -0.32742375412E+02  0.16376515932E+02  0.45045681775E+02  0.00000000000E+00 0.  1.
         11    1    3    3    0    0 -0.17481246854E+02  0.25433266100E+02 -0.13389032500E+02  0.33640915677E+02  0.51100000000E-03 0. -1.
        -11    1    3    3    0    0  0.22683618418E+00  0.11820747007E+01 -0.66634248622E+00  0.13757789876E+01  0.51100000000E-03 0.  1.
         12    1    3    3    0    0 -0.89917323791E+01  0.61270346116E+01 -0.23211409458E+01  0.11125623560E+02  0.00000000000E+00 0. -1.
</event>
<event>
 7    1  0.3981356E-008  0.4614232E+02  0.7816164E-02  0.1320468E+00
        -11   -1    0    0    0    0  0.00000000000E+00  0.00000000000E+00  0.45593999997E+02  0.45594000000E+02  0.51100000000E-03 0.  1.
         11   -1    0    0    0    0 -0.00000000000E+00 -0.00000000000E+00 -0.45593999997E+02  0.45594000000E+02  0.51100000000E-03 0. -1.
    9900012    2    1    2    0    0  0.26734483076E+02 -0.36205189226E+02  0.18881716096E+01  0.46142317584E+02  0.99999983887E+01 0.  0.
        -12    1    1    2    0    0 -0.26734483076E+02  0.36205189226E+02 -0.18881716096E+01  0.45045682416E+02  0.00000000000E+00 0.  1.
         11    1    3    3    0    0  0.18848043495E+02 -0.25695791937E+02 -0.14418774401E+01  0.31899866421E+02  0.51100000000E-03 0. -1.
        -11    1    3    3    0    0  0.62290532153E+01 -0.50379496827E+01  0.10184937016E+01  0.80758510787E+01  0.51100000000E-03 0.  1.
        -12    1    3    3    0    0  0.16573863656E+01 -0.54714476065E+01  0.23115553481E+01  0.61666000845E+01  0.00000000000E+00 0.  1.
</event>
<event>
 7    1  0.3981356E-008  0.4614232E+02  0.7816164E-02  0.1320468E+00
        -11   -1    0    0    0    0  0.00000000000E+00  0.00000000000E+00  0.45593999997E+02  0.45594000000E+02  0.51100000000E-03 0. -1.
         11   -1    0    0    0    0 -0.00000000000E+00 -0.00000000000E+00 -0.45593999997E+02  0.45594000000E+02  0.51100000000E-03 0.  1.
    9900012    2    1    2    0    0 -0.32503988556E+02  0.22385199549E+01  0.31106161314E+02  0.46142317462E+02  0.99999972752E+01 0.  0.
        -12    1    1    2    0    0  0.32503988556E+02 -0.22385199549E+01 -0.31106161314E+02  0.45045682538E+02  0.00000000000E+00 0.  1.
         11    1    3    3    0    0 -0.88064559898E+01  0.14767793216E+01  0.70714720866E+01  0.11390358291E+02  0.51100000000E-03 0. -1.
        -11    1    3    3    0    0 -0.48918739875E+01  0.33635734308E+01  0.75843253786E+01  0.96315133309E+01  0.51100000000E-03 0.  1.
        -12    1    3    3    0    0 -0.18805658578E+02 -0.26018327976E+01  0.16450363849E+02  0.25120445840E+02  0.00000000000E+00 0.  1.
</event>
<event>
 7    1  0.3981356E-008  0.4614232E+02  0.7816164E-02  0.1320468E+00
        -11   -1    0    0    0    0  0.00000000000E+00  0.00000000000E+00  0.45593999997E+02  0.45594000000E+02  0.51100000000E-03 0.  1.
         11   -1    0    0    0    0 -0.00000000000E+00 -0.00000000000E+00 -0.45593999997E+02  0.45594000000E+02  0.51100000000E-03 0. -1.
    9900012    2    1    2    0    0 -0.89119920031E+01  0.40005447582E+02 -0.18688344267E+02  0.46142315976E+02  0.99999837231E+01 0.  0.
        -12    1    1    2    0    0  0.89119920031E+01 -0.40005447582E+02  0.18688344267E+02  0.45045684024E+02  0.00000000000E+00 0.  1.
         11    1    3    3    0    0 -0.97019787328E+01  0.30050954414E+02 -0.13804248165E+02  0.34463684078E+02  0.51100000000E-03 0. -1.
        -11    1    3    3    0    0 -0.96500244079E+00  0.70888450124E+00 -0.52814257298E+00  0.13086946876E+01  0.51100000000E-03 0.  1.
        -12    1    3    3    0    0  0.17549891705E+01  0.92456086666E+01 -0.43559535297E+01  0.10369937211E+02  0.00000000000E+00 0.  1.
</event>
<event>
 7    1  0.3981356E-008  0.4614232E+02  0.7816164E-02  0.1320468E+00
        -11   -1    0    0    0    0  0.00000000000E+00  0.00000000000E+00  0.45593999997E+02  0.45594000000E+02  0.51100000000E-03 0.  1.
         11   -1    0    0    0    0 -0.00000000000E+00 -0.00000000000E+00 -0.45593999997E+02  0.45594000000E+02  0.51100000000E-03 0. -1.
    9900012    2    1    2    0    0  0.24164867459E+02 -0.38008525241E+02  0.72439605126E+00  0.46142316966E+02  0.99999927502E+01 0.  0.
        -12    1    1    2    0    0 -0.24164867459E+02  0.38008525241E+02 -0.72439605126E+00  0.45045683034E+02  0.00000000000E+00 0.  1.
         11    1    3    3    0    0  0.17641949804E+01  0.48900352518E-01 -0.59265623811E+00  0.18617241609E+01  0.51100000000E-03 0. -1.
        -11    1    3    3    0    0  0.65740937715E+01 -0.12738278506E+02  0.15740662413E+01  0.14420822897E+02  0.51100000000E-03 0.  1.
         12    1    3    3    0    0  0.15826578707E+02 -0.25319147088E+02 -0.25701395189E+00  0.29859769909E+02  0.00000000000E+00 0. -1.
</event>
<event>
 7    1  0.3981356E-008  0.4614232E+02  0.7816164E-02  0.1320468E+00
        -11   -1    0    0    0    0  0.00000000000E+00  0.00000000000E+00  0.45593999997E+02  0.45594000000E+02  0.51100000000E-03 0.  1.
         11   -1    0    0    0    0 -0.00000000000E+00 -0.00000000000E+00 -0.45593999997E+02  0.45594000000E+02  0.51100000000E-03 0. -1.
    9900012    2    1    2    0    0  0.24917347335E+01 -0.24770746561E+02 -0.37540842204E+02  0.46142318070E+02  0.10000002816E+02 0.  0.
        -12    1    1    2    0    0 -0.24917347335E+01  0.24770746561E+02  0.37540842204E+02  0.45045681930E+02  0.00000000000E+00 0.  1.
         11    1    3    3    0    0  0.44658635040E+01 -0.14416601726E+02 -0.20295404388E+02  0.25292010234E+02  0.51100000000E-03 0. -1.
        -11    1    3    3    0    0 -0.80692838132E+00 -0.77660747214E+00 -0.35744081468E-01  0.11205045644E+01  0.51100000000E-03 0.  1.
        -12    1    3    3    0    0 -0.11672003892E+01 -0.95775373637E+01 -0.17209693734E+02  0.19729803272E+02  0.00000000000E+00 0.  1.
</event>
<event>
 7    1  0.3981356E-008  0.4614232E+02  0.7816164E-02  0.1320468E+00
        -11   -1    0    0    0    0  0.00000000000E+00  0.00000000000E+00  0.45593999997E+02  0.45594000000E+02  0.51100000000E-03 0.  1.
         11   -1    0    0    0    0 -0.00000000000E+00 -0.00000000000E+00 -0.45593999997E+02  0.45594000000E+02  0.51100000000E-03 0. -1.
    9900012    2    1    2    0    0  0.27483283942E+01  0.24877456725E+00 -0.44961075714E+02  0.46142317331E+02  0.99999960772E+01 0.  0.
        -12    1    1    2    0    0 -0.27483283942E+01 -0.24877456725E+00  0.44961075714E+02  0.45045682669E+02  0.00000000000E+00 0.  1.
         11    1    3    3    0    0  0.73344176162E+00 -0.10470636436E+01 -0.25003412372E+02  0.25036072168E+02  0.51100000000E-03 0. -1.
        -11    1    3    3    0    0  0.17622814521E+01 -0.15004688043E+01 -0.24328612447E+01  0.33579542352E+01  0.51100000000E-03 0.  1.
        -12    1    3    3    0    0  0.25260518043E+00  0.27963070151E+01 -0.17524802097E+02  0.17748290928E+02  0.00000000000E+00 0.  1.
</event>
<event>
 7    1  0.3981356E-008  0.4614232E+02  0.7816164E-02  0.1320468E+00
        -11   -1    0    0    0    0  0.00000000000E+00  0.00000000000E+00  0.45593999997E+02  0.45594000000E+02  0.51100000000E-03 0. -1.
         11   -1    0    0    0    0 -0.00000000000E+00 -0.00000000000E+00 -0.45593999997E+02  0.45594000000E+02  0.51100000000E-03 0.  1.
    9900012    2    1    2    0    0  0.36522940627E+01  0.34816486412E+02  0.28347601237E+02  0.46142317922E+02  0.10000001470E+02 0.  0.
        -12    1    1    2    0    0 -0.36522940627E+01 -0.34816486412E+02 -0.28347601237E+02  0.45045682078E+02  0.00000000000E+00 0.  1.
         11    1    3    3    0    0 -0.18953005968E+01  0.53870197242E+01  0.72320564540E+01  0.92149219571E+01  0.51100000000E-03 0. -1.
        -11    1    3    3    0    0  0.57668878810E+00  0.15108463536E+02  0.11143997467E+02  0.18782622825E+02  0.51100000000E-03 0.  1.
        -12    1    3    3    0    0  0.49709058714E+01  0.14321003152E+02  0.99715473156E+01  0.18144773141E+02  0.00000000000E+00 0.  1.
</event>
<event>
 7    1  0.3981356E-008  0.4614232E+02  0.7816164E-02  0.1320468E+00
        -11   -1    0    0    0    0  0.00000000000E+00  0.00000000000E+00  0.45593999997E+02  0.45594000000E+02  0.51100000000E-03 0.  1.
         11   -1    0    0    0    0 -0.00000000000E+00 -0.00000000000E+00 -0.45593999997E+02  0.45594000000E+02  0.51100000000E-03 0. -1.
    9900012    2    1    2    0    0  0.79090137241E+00  0.37312360126E+02 -0.25224507062E+02  0.46142317636E+02  0.99999988569E+01 0.  0.
        -12    1    1    2    0    0 -0.79090137241E+00 -0.37312360126E+02  0.25224507062E+02  0.45045682364E+02  0.00000000000E+00 0.  1.
         11    1    3    3    0    0 -0.64816649878E+00  0.75363056631E+01 -0.61311947530E+01  0.97369180041E+01  0.51100000000E-03 0. -1.
        -11    1    3    3    0    0  0.94851086826E+00  0.49504348964E+00 -0.25621655093E+01  0.27765866242E+01  0.51100000000E-03 0.  1.
         12    1    3    3    0    0  0.49055700294E+00  0.29281010973E+02 -0.16531146800E+02  0.33628813007E+02  0.00000000000E+00 0. -1.
</event>
<event>
 7    1  0.3981356E-008  0.4614232E+02  0.7816164E-02  0.1320468E+00
        -11   -1    0    0    0    0  0.00000000000E+00  0.00000000000E+00  0.45593999997E+02  0.45594000000E+02  0.51100000000E-03 0.  1.
         11   -1    0    0    0    0 -0.00000000000E+00 -0.00000000000E+00 -0.45593999997E+02  0.45594000000E+02  0.51100000000E-03 0. -1.
    9900012    2    1    2    0    0 -0.28422707824E+02  0.23710630845E+02 -0.25672339815E+02  0.46142319111E+02  0.10000012312E+02 0.  0.
        -12    1    1    2    0    0  0.28422707824E+02 -0.23710630845E+02  0.25672339815E+02  0.45045680889E+02  0.00000000000E+00 0.  1.
         11    1    3    3    0    0 -0.21162986201E+02  0.21999675138E+02 -0.19519968701E+02  0.36233780778E+02  0.51100000000E-03 0. -1.
        -11    1    3    3    0    0  0.15384977148E+00  0.77047198532E-01 -0.94888201430E-01  0.19649441437E+00  0.51100000000E-03 0.  1.
         12    1    3    3    0    0 -0.74135713948E+01  0.16339085083E+01 -0.60574829131E+01  0.97120439189E+01  0.00000000000E+00 0. -1.
</event>
<event>
 7    1  0.3981356E-008  0.4614232E+02  0.7816164E-02  0.1320468E+00
        -11   -1    0    0    0    0  0.00000000000E+00  0.00000000000E+00  0.45593999997E+02  0.45594000000E+02  0.51100000000E-03 0.  1.
         11   -1    0    0    0    0 -0.00000000000E+00 -0.00000000000E+00 -0.45593999997E+02  0.45594000000E+02  0.51100000000E-03 0. -1.
    9900012    2    1    2    0    0  0.15099249718E+02 -0.17044970781E+02 -0.38866375393E+02  0.46142317552E+02  0.99999980962E+01 0.  0.
        -12    1    1    2    0    0 -0.15099249718E+02  0.17044970781E+02  0.38866375393E+02  0.45045682448E+02  0.00000000000E+00 0.  1.
         11    1    3    3    0    0  0.96846232359E+01 -0.14579934837E+02 -0.27152638463E+02  0.32305296824E+02  0.51100000000E-03 0. -1.
        -11    1    3    3    0    0  0.19584645826E+01 -0.21974328616E+01 -0.20956635386E+01  0.36133226580E+01  0.51100000000E-03 0.  1.
         12    1    3    3    0    0  0.34561618997E+01 -0.26760308244E+00 -0.96180733910E+01  0.10223698071E+02  0.00000000000E+00 0. -1.
</event>
<event>
 7    1  0.3981356E-008  0.4614232E+02  0.7816164E-02  0.1320468E+00
        -11   -1    0    0    0    0  0.00000000000E+00  0.00000000000E+00  0.45593999997E+02  0.45594000000E+02  0.51100000000E-03 0.  1.
         11   -1    0    0    0    0 -0.00000000000E+00 -0.00000000000E+00 -0.45593999997E+02  0.45594000000E+02  0.51100000000E-03 0. -1.
    9900012    2    1    2    0    0 -0.20718866961E+02  0.10589319948E+02 -0.38570823180E+02  0.46142317122E+02  0.99999941737E+01 0.  0.
        -12    1    1    2    0    0  0.20718866961E+02 -0.10589319948E+02  0.38570823180E+02  0.45045682878E+02  0.00000000000E+00 0.  1.
         11    1    3    3    0    0 -0.79430832859E+01  0.39662647081E+01 -0.15851674410E+02  0.18168638080E+02  0.51100000000E-03 0. -1.
        -11    1    3    3    0    0 -0.86091123919E+01  0.23698236547E+01 -0.76048125894E+01  0.11728855661E+02  0.51100000000E-03 0.  1.
        -12    1    3    3    0    0 -0.41666712836E+01  0.42532315855E+01 -0.15114336180E+02  0.16244823381E+02  0.00000000000E+00 0.  1.
</event>
<event>
 7    1  0.3981356E-008  0.4614232E+02  0.7816164E-02  0.1320468E+00
        -11   -1    0    0    0    0  0.00000000000E+00  0.00000000000E+00  0.45593999997E+02  0.45594000000E+02  0.51100000000E-03 0.  1.
         11   -1    0    0    0    0 -0.00000000000E+00 -0.00000000000E+00 -0.45593999997E+02  0.45594000000E+02  0.51100000000E-03 0. -1.
    9900012    2    1    2    0    0 -0.94521743331E+01 -0.66862031979E+01 -0.43532341779E+02  0.46142315484E+02  0.99999792311E+01 0.  0.
        -12    1    1    2    0    0  0.94521743331E+01  0.66862031979E+01  0.43532341779E+02  0.45045684516E+02  0.00000000000E+00 0.  1.
         11    1    3    3    0    0 -0.19938802981E+01 -0.20861244738E+01 -0.14319240224E+02  0.14607125481E+02  0.51100000000E-03 0. -1.
        -11    1    3    3    0    0 -0.17748800201E+01  0.19968986242E+01 -0.36044279165E+01  0.44866138755E+01  0.51100000000E-03 0.  1.
         12    1    3    3    0    0 -0.56834140149E+01 -0.65969773483E+01 -0.25608673638E+02  0.27048576127E+02  0.00000000000E+00 0. -1.
</event>
<event>
 7    1  0.3981356E-008  0.4614232E+02  0.7816164E-02  0.1320468E+00
        -11   -1    0    0    0    0  0.00000000000E+00  0.00000000000E+00  0.45593999997E+02  0.45594000000E+02  0.51100000000E-03 0.  1.
         11   -1    0    0    0    0 -0.00000000000E+00 -0.00000000000E+00 -0.45593999997E+02  0.45594000000E+02  0.51100000000E-03 0. -1.
    9900012    2    1    2    0    0  0.63405502471E+01 -0.40986901487E+02 -0.17577963620E+02  0.46142317899E+02  0.10000001261E+02 0.  0.
        -12    1    1    2    0    0 -0.63405502471E+01  0.40986901487E+02  0.17577963620E+02  0.45045682101E+02  0.00000000000E+00 0.  1.
         11    1    3    3    0    0  0.16337173293E+00 -0.28102116190E+01  0.16325685943E+00  0.28196866368E+01  0.51100000000E-03 0. -1.
        -11    1    3    3    0    0 -0.45627263367E+00 -0.41665000571E+01 -0.47032454740E+01  0.62998750536E+01  0.51100000000E-03 0.  1.
         12    1    3    3    0    0  0.66334511478E+01 -0.34010189810E+02 -0.13037975005E+02  0.37022756209E+02  0.00000000000E+00 0. -1.
</event>
<event>
 7    1  0.3981356E-008  0.4614231E+02  0.7816164E-02  0.1320468E+00
        -11   -1    0    0    0    0  0.00000000000E+00  0.00000000000E+00  0.45593999997E+02  0.45594000000E+02  0.51100000000E-03 0. -1.
         11   -1    0    0    0    0 -0.00000000000E+00 -0.00000000000E+00 -0.45593999997E+02  0.45594000000E+02  0.51100000000E-03 0.  1.
    9900012    2    1    2    0    0 -0.12324016301E+02  0.17730029338E+02  0.39533257873E+02  0.46142314344E+02  0.99999688420E+01 0.  0.
        -12    1    1    2    0    0  0.12324016301E+02 -0.17730029338E+02 -0.39533257873E+02  0.45045685656E+02  0.00000000000E+00 0.  1.
         11    1    3    3    0    0 -0.80523117979E+01  0.36187450034E+01  0.14379255220E+02  0.16872996819E+02  0.51100000000E-03 0. -1.
        -11    1    3    3    0    0 -0.38555888368E+01  0.10859380490E+02  0.17629147397E+02  0.21061304521E+02  0.51100000000E-03 0.  1.
         12    1    3    3    0    0 -0.41611566607E+00  0.32519038447E+01  0.75248552560E+01  0.82080130047E+01  0.00000000000E+00 0. -1.
</event>
<event>
 7    1  0.3981356E-008  0.4614232E+02  0.7816164E-02  0.1320468E+00
        -11   -1    0    0    0    0  0.00000000000E+00  0.00000000000E+00  0.45593999997E+02  0.45594000000E+02  0.51100000000E-03 0.  1.
         11   -1    0    0    0    0 -0.00000000000E+00 -0.00000000000E+00 -0.45593999997E+02  0.45594000000E+02  0.51100000000E-03 0. -1.
    9900012    2    1    2    0    0 -0.87977390211E+01  0.15288661471E+02 -0.41448403179E+02  0.46142317548E+02  0.99999980556E+01 0.  0.
        -12    1    1    2    0    0  0.87977390211E+01 -0.15288661471E+02  0.41448403179E+02  0.45045682452E+02  0.00000000000E+00 0.  1.
         11    1    3    3    0    0 -0.15059955535E+01  0.13402279876E+01 -0.83122586053E+01  0.85532378109E+01  0.51100000000E-03 0. -1.
        -11    1    3    3    0    0 -0.55997152683E+01  0.32981091331E+01 -0.85299708279E+01  0.10723559928E+02  0.51100000000E-03 0.  1.
        -12    1    3    3    0    0 -0.16920281994E+01  0.10650324351E+02 -0.24606173746E+02  0.26865519809E+02  0.00000000000E+00 0.  1.
</event>
<event>
 7    1  0.4439240E-008  0.4614232E+02  0.7816164E-02  0.1320468E+00
        -11   -1    0    0    0    0  0.00000000000E+00  0.00000000000E+00  0.45593999997E+02  0.45594000000E+02  0.51100000000E-03 0. -1.
         11   -1    0    0    0    0 -0.00000000000E+00 -0.00000000000E+00 -0.45593999997E+02  0.45594000000E+02  0.51100000000E-03 0.  1.
    9900012    2    1    2    0    0 -0.17945535310E+02 -0.21005271767E+02  0.35578781333E+02  0.46142319178E+02  0.10000012920E+02 0.  0.
        -12    1    1    2    0    0  0.17945535310E+02  0.21005271767E+02 -0.35578781333E+02  0.45045680822E+02  0.00000000000E+00 0.  1.
         11    1    3    3    0    0 -0.12607265004E+02 -0.12422501364E+02  0.21125034660E+02  0.27559549355E+02  0.51100000000E-03 0. -1.
        -11    1    3    3    0    0 -0.30944839076E+01 -0.61161146929E+01  0.13457609147E+02  0.15102646583E+02  0.51100000000E-03 0.  1.
        -12    1    3    3    0    0 -0.22437863980E+01 -0.24666557103E+01  0.99613752630E+00  0.34801232398E+01  0.00000000000E+00 0.  1.
</event>
<event>
 7    1  0.3981356E-008  0.4614232E+02  0.7816164E-02  0.1320468E+00
        -11   -1    0    0    0    0  0.00000000000E+00  0.00000000000E+00  0.45593999997E+02  0.45594000000E+02  0.51100000000E-03 0.  1.
         11   -1    0    0    0    0 -0.00000000000E+00 -0.00000000000E+00 -0.45593999997E+02  0.45594000000E+02  0.51100000000E-03 0. -1.
    9900012    2    1    2    0    0  0.14866534979E+02  0.11064820796E+02 -0.41056903794E+02  0.46142317958E+02  0.10000001793E+02 0.  0.
        -12    1    1    2    0    0 -0.14866534979E+02 -0.11064820796E+02  0.41056903794E+02  0.45045682042E+02  0.00000000000E+00 0.  1.
         11    1    3    3    0    0  0.51319856837E+01  0.76246731077E+00 -0.77650968430E+01  0.93389165699E+01  0.51100000000E-03 0. -1.
        -11    1    3    3    0    0  0.12568519488E+01  0.57972384574E+01 -0.15315255346E+02  0.16423906269E+02  0.51100000000E-03 0.  1.
         12    1    3    3    0    0  0.84776973460E+01  0.45051150280E+01 -0.17976551605E+02  0.20379495119E+02  0.00000000000E+00 0. -1.
</event>
<event>
 7    1  0.3981356E-008  0.4614232E+02  0.7816164E-02  0.1320468E+00
        -11   -1    0    0    0    0  0.00000000000E+00  0.00000000000E+00  0.45593999997E+02  0.45594000000E+02  0.51100000000E-03 0.  1.
         11   -1    0    0    0    0 -0.00000000000E+00 -0.00000000000E+00 -0.45593999997E+02  0.45594000000E+02  0.51100000000E-03 0. -1.
    9900012    2    1    2    0    0  0.12041233854E+02  0.16997974643E+02 -0.39939840723E+02  0.46142319501E+02  0.10000015861E+02 0.  0.
        -12    1    1    2    0    0 -0.12041233854E+02 -0.16997974643E+02  0.39939840723E+02  0.45045680499E+02  0.00000000000E+00 0.  1.
         11    1    3    3    0    0  0.60386202527E+01  0.67750969617E+01 -0.13838382413E+02  0.16548948651E+02  0.51100000000E-03 0. -1.
        -11    1    3    3    0    0 -0.15355559036E+01  0.66107504149E+00 -0.21381453891E+01  0.27141514530E+01  0.51100000000E-03 0.  1.
         12    1    3    3    0    0  0.75381695053E+01  0.95618026395E+01 -0.23963312921E+02  0.26879219396E+02  0.00000000000E+00 0. -1.
</event>
<event>
 7    1  0.3981356E-008  0.4614232E+02  0.7816164E-02  0.1320468E+00
        -11   -1    0    0    0    0  0.00000000000E+00  0.00000000000E+00  0.45593999997E+02  0.45594000000E+02  0.51100000000E-03 0.  1.
         11   -1    0    0    0    0 -0.00000000000E+00 -0.00000000000E+00 -0.45593999997E+02  0.45594000000E+02  0.51100000000E-03 0. -1.
    9900012    2    1    2    0    0  0.25237788197E+02 -0.35776398104E+02 -0.10593244759E+02  0.46142318199E+02  0.10000003990E+02 0.  0.
        -12    1    1    2    0    0 -0.25237788197E+02  0.35776398104E+02  0.10593244759E+02  0.45045681801E+02  0.00000000000E+00 0.  1.
         11    1    3    3    0    0  0.69583621240E+01 -0.83874120059E+01 -0.55462023342E+01  0.12228157842E+02  0.51100000000E-03 0. -1.
        -11    1    3    3    0    0  0.16316347054E+02 -0.21177297330E+02 -0.22623803640E+01  0.26829451514E+02  0.51100000000E-03 0.  1.
        -12    1    3    3    0    0  0.19630790198E+01 -0.62116887687E+01 -0.27846620612E+01  0.70847088432E+01  0.00000000000E+00 0.  1.
</event>
<event>
 7    1  0.3981356E-008  0.4614232E+02  0.7816164E-02  0.1320468E+00
        -11   -1    0    0    0    0  0.00000000000E+00  0.00000000000E+00  0.45593999997E+02  0.45594000000E+02  0.51100000000E-03 0. -1.
         11   -1    0    0    0    0 -0.00000000000E+00 -0.00000000000E+00 -0.45593999997E+02  0.45594000000E+02  0.51100000000E-03 0.  1.
    9900012    2    1    2    0    0  0.44943224072E+01 -0.29097712091E+02  0.34091607287E+02  0.46142317962E+02  0.10000001833E+02 0.  0.
        -12    1    1    2    0    0 -0.44943224072E+01  0.29097712091E+02 -0.34091607287E+02  0.45045682038E+02  0.00000000000E+00 0.  1.
         11    1    3    3    0    0 -0.96734971403E+00 -0.21488316383E+02  0.22222595532E+02  0.30927774878E+02  0.51100000000E-03 0. -1.
        -11    1    3    3    0    0  0.62560577276E+00 -0.42929783947E+00  0.16876121176E+01  0.18503281164E+01  0.51100000000E-03 0.  1.
         12    1    3    3    0    0  0.48360663485E+01 -0.71800978685E+01  0.10181399637E+02  0.13364214968E+02  0.00000000000E+00 0. -1.
</event>
<event>
 7    1  0.3981356E-008  0.4614231E+02  0.7816164E-02  0.1320468E+00
        -11   -1    0    0    0    0  0.00000000000E+00  0.00000000000E+00  0.45593999997E+02  0.45594000000E+02  0.51100000000E-03 0.  1.
         11   -1    0    0    0    0 -0.00000000000E+00 -0.00000000000E+00 -0.45593999997E+02  0.45594000000E+02  0.51100000000E-03 0. -1.
    9900012    2    1    2    0    0 -0.30530207399E+02  0.80793218654E+01 -0.32120796212E+02  0.46142305922E+02  0.99998920450E+01 0.  0.
        -12    1    1    2    0    0  0.30530207399E+02 -0.80793218654E+01  0.32120796212E+02  0.45045694078E+02  0.00000000000E+00 0.  1.
         11    1    3    3    0    0 -0.12003565763E+02  0.24912721693E+01 -0.88792016022E+01  0.15137114963E+02  0.51100000000E-03 0. -1.
        -11    1    3    3    0    0 -0.17293734738E+02  0.29455153986E+01 -0.20730368157E+02  0.27156904948E+02  0.51100000000E-03 0.  1.
         12    1    3    3    0    0 -0.12329068985E+01  0.26425342976E+01 -0.25112264527E+01  0.38482860121E+01  0.00000000000E+00 0. -1.
</event>
<event>
 7    1  0.3981356E-008  0.4614231E+02  0.7816164E-02  0.1320468E+00
        -11   -1    0    0    0    0  0.00000000000E+00  0.00000000000E+00  0.45593999997E+02  0.45594000000E+02  0.51100000000E-03 0.  1.
         11   -1    0    0    0    0 -0.00000000000E+00 -0.00000000000E+00 -0.45593999997E+02  0.45594000000E+02  0.51100000000E-03 0. -1.
    9900012    2    1    2    0    0 -0.30653183959E+01 -0.34029582568E+00 -0.44939980461E+02  0.46142314058E+02  0.99999662357E+01 0.  0.
        -12    1    1    2    0    0  0.30653183959E+01  0.34029582568E+00  0.44939980461E+02  0.45045685942E+02  0.00000000000E+00 0.  1.
         11    1    3    3    0    0  0.88255731448E+00 -0.19565893317E+01 -0.10159364806E+02  0.10383633408E+02  0.51100000000E-03 0. -1.
        -11    1    3    3    0    0 -0.50256818839E+00 -0.13272564327E+01 -0.24287004350E+02  0.24328435317E+02  0.51100000000E-03 0.  1.
        -12    1    3    3    0    0 -0.34453075220E+01  0.29435499387E+01 -0.10493611305E+02  0.11430245334E+02  0.00000000000E+00 0.  1.
</event>
<event>
 7    1  0.3981356E-008  0.4614231E+02  0.7816164E-02  0.1320468E+00
        -11   -1    0    0    0    0  0.00000000000E+00  0.00000000000E+00  0.45593999997E+02  0.45594000000E+02  0.51100000000E-03 0. -1.
         11   -1    0    0    0    0 -0.00000000000E+00 -0.00000000000E+00 -0.45593999997E+02  0.45594000000E+02  0.51100000000E-03 0.  1.
    9900012    2    1    2    0    0 -0.43367687034E+02  0.83525379197E+01 -0.88652466633E+01  0.46142314671E+02  0.99999718209E+01 0.  0.
        -12    1    1    2    0    0  0.43367687034E+02 -0.83525379197E+01  0.88652466633E+01  0.45045685329E+02  0.00000000000E+00 0.  1.
         11    1    3    3    0    0 -0.29356717885E+02  0.26443572296E+01 -0.46758303116E+01  0.29844143471E+02  0.51100000000E-03 0. -1.
        -11    1    3    3    0    0 -0.10080605116E+02  0.37769182479E+01 -0.49583505218E+01  0.11851959801E+02  0.51100000000E-03 0.  1.
        -12    1    3    3    0    0 -0.39303640322E+01  0.19312624423E+01  0.76893417014E+00  0.44462113990E+01  0.00000000000E+00 0.  1.
</event>
<event>
 7    1  0.3981356E-008  0.4614232E+02  0.7816164E-02  0.1320468E+00
        -11   -1    0    0    0    0  0.00000000000E+00  0.00000000000E+00  0.45593999997E+02  0.45594000000E+02  0.51100000000E-03 0.  1.
         11   -1    0    0    0    0 -0.00000000000E+00 -0.00000000000E+00 -0.45593999997E+02  0.45594000000E+02  0.51100000000E-03 0. -1.
    9900012    2    1    2    0    0 -0.14941984300E+02 -0.30579329137E+02 -0.29508562557E+02  0.46142317305E+02  0.99999958398E+01 0.  0.
        -12    1    1    2    0    0  0.14941984300E+02  0.30579329137E+02  0.29508562557E+02  0.45045682695E+02  0.00000000000E+00 0.  1.
         11    1    3    3    0    0 -0.57036109011E+01 -0.14430670409E+02 -0.16276164136E+02  0.22487528655E+02  0.51100000000E-03 0. -1.
        -11    1    3    3    0    0 -0.54908377296E+01 -0.14097801222E+02 -0.88170866346E+01  0.17511091206E+02  0.51100000000E-03 0.  1.
        -12    1    3    3    0    0 -0.37475356691E+01 -0.20508575057E+01 -0.44153117867E+01  0.61436974432E+01  0.00000000000E+00 0.  1.
</event>
<event>
 7    1  0.3981356E-008  0.4614232E+02  0.7816164E-02  0.1320468E+00
        -11   -1    0    0    0    0  0.00000000000E+00  0.00000000000E+00  0.45593999997E+02  0.45594000000E+02  0.51100000000E-03 0.  1.
         11   -1    0    0    0    0 -0.00000000000E+00 -0.00000000000E+00 -0.45593999997E+02  0.45594000000E+02  0.51100000000E-03 0. -1.
    9900012    2    1    2    0    0  0.43427932206E+02 -0.56796338474E+01 -0.10529480393E+02  0.46142317702E+02  0.99999994655E+01 0.  0.
        -12    1    1    2    0    0 -0.43427932206E+02  0.56796338474E+01  0.10529480393E+02  0.45045682298E+02  0.00000000000E+00 0.  1.
         11    1    3    3    0    0  0.33396197336E+01 -0.31655909573E+01 -0.13107404522E+01  0.47845654838E+01  0.51100000000E-03 0. -1.
        -11    1    3    3    0    0  0.21290530987E+02 -0.30398561569E+01 -0.45731150752E+01  0.21987287620E+02  0.51100000000E-03 0.  1.
        -12    1    3    3    0    0  0.18797781485E+02  0.52581326684E+00 -0.46456248658E+01  0.19370464598E+02  0.00000000000E+00 0.  1.
</event>
<event>
 7    1  0.3981356E-008  0.4614232E+02  0.7816164E-02  0.1320468E+00
        -11   -1    0    0    0    0  0.00000000000E+00  0.00000000000E+00  0.45593999997E+02  0.45594000000E+02  0.51100000000E-03 0.  1.
         11   -1    0    0    0    0 -0.00000000000E+00 -0.00000000000E+00 -0.45593999997E+02  0.45594000000E+02  0.51100000000E-03 0. -1.
    9900012    2    1    2    0    0 -0.33522314166E+01  0.31371809840E+02 -0.32150981923E+02  0.46142317114E+02  0.99999940951E+01 0.  0.
        -12    1    1    2    0    0  0.33522314166E+01 -0.31371809840E+02  0.32150981923E+02  0.45045682886E+02  0.00000000000E+00 0.  1.
         11    1    3    3    0    0 -0.12290711214E+01  0.10597723016E+02 -0.14129364735E+02  0.17704838238E+02  0.51100000000E-03 0. -1.
        -11    1    3    3    0    0 -0.27486153935E+01  0.25094489975E+01 -0.31398754206E+01  0.48693981939E+01  0.51100000000E-03 0.  1.
         12    1    3    3    0    0  0.62545509826E+00  0.18264637826E+02 -0.14881741767E+02  0.23568080682E+02  0.00000000000E+00 0. -1.
</event>
<event>
 7    1  0.3981356E-008  0.4614232E+02  0.7816164E-02  0.1320468E+00
        -11   -1    0    0    0    0  0.00000000000E+00  0.00000000000E+00  0.45593999997E+02  0.45594000000E+02  0.51100000000E-03 0. -1.
         11   -1    0    0    0    0 -0.00000000000E+00 -0.00000000000E+00 -0.45593999997E+02  0.45594000000E+02  0.51100000000E-03 0.  1.
    9900012    2    1    2    0    0 -0.27926801871E+02  0.32675325880E+02  0.13473318576E+02  0.46142317659E+02  0.99999990707E+01 0.  0.
        -12    1    1    2    0    0  0.27926801871E+02 -0.32675325880E+02 -0.13473318576E+02  0.45045682341E+02  0.00000000000E+00 0.  1.
         11    1    3    3    0    0 -0.87266198880E+01  0.15254286606E+02  0.33831273412E+01  0.17896723315E+02  0.51100000000E-03 0. -1.
        -11    1    3    3    0    0 -0.21989004153E+01  0.38091044250E+01  0.42664280305E+00  0.44188758638E+01  0.51100000000E-03 0.  1.
         12    1    3    3    0    0 -0.17001281567E+02  0.13611934849E+02  0.96635484321E+01  0.23826718481E+02  0.00000000000E+00 0. -1.
</event>
<event>
 7    1  0.3981356E-008  0.4614232E+02  0.7816164E-02  0.1320468E+00
        -11   -1    0    0    0    0  0.00000000000E+00  0.00000000000E+00  0.45593999997E+02  0.45594000000E+02  0.51100000000E-03 0.  1.
         11   -1    0    0    0    0 -0.00000000000E+00 -0.00000000000E+00 -0.45593999997E+02  0.45594000000E+02  0.51100000000E-03 0. -1.
    9900012    2    1    2    0    0  0.37701004942E+02 -0.24979952665E+01 -0.24525659559E+02  0.46142315070E+02  0.99999754609E+01 0.  0.
        -12    1    1    2    0    0 -0.37701004942E+02  0.24979952665E+01  0.24525659559E+02  0.45045684930E+02  0.00000000000E+00 0.  1.
         11    1    3    3    0    0  0.29114414522E+02 -0.10992118452E+01 -0.21490519646E+02  0.36203588697E+02  0.51100000000E-03 0. -1.
        -11    1    3    3    0    0  0.38346686151E+01 -0.25094348143E+01 -0.13920236877E+01  0.47895382536E+01  0.51100000000E-03 0.  1.
        -12    1    3    3    0    0  0.47519218052E+01  0.11106513929E+01 -0.16431162257E+01  0.51491881196E+01  0.00000000000E+00 0.  1.
</event>
<event>
 7    1  0.3981356E-008  0.4614232E+02  0.7816164E-02  0.1320468E+00
        -11   -1    0    0    0    0  0.00000000000E+00  0.00000000000E+00  0.45593999997E+02  0.45594000000E+02  0.51100000000E-03 0. -1.
         11   -1    0    0    0    0 -0.00000000000E+00 -0.00000000000E+00 -0.45593999997E+02  0.45594000000E+02  0.51100000000E-03 0.  1.
    9900012    2    1    2    0    0 -0.23315211982E+02  0.38299678076E+02  0.43184485928E+01  0.46142318201E+02  0.10000004012E+02 0.  0.
        -12    1    1    2    0    0  0.23315211982E+02 -0.38299678076E+02 -0.43184485928E+01  0.45045681799E+02  0.00000000000E+00 0.  1.
         11    1    3    3    0    0 -0.52960960679E+01  0.66676027665E+01 -0.91849225235E+00  0.85644140775E+01  0.51100000000E-03 0. -1.
        -11    1    3    3    0    0 -0.34714885378E+01  0.24263900013E+01 -0.10167036793E+01  0.43557189693E+01  0.51100000000E-03 0.  1.
         12    1    3    3    0    0 -0.14547627377E+02  0.29205685308E+02  0.62536445245E+01  0.33222185154E+02  0.00000000000E+00 0. -1.
</event>
<event>
 7    1  0.3981356E-008  0.4614232E+02  0.7816164E-02  0.1320468E+00
        -11   -1    0    0    0    0  0.00000000000E+00  0.00000000000E+00  0.45593999997E+02  0.45594000000E+02  0.51100000000E-03 0. -1.
         11   -1    0    0    0    0 -0.00000000000E+00 -0.00000000000E+00 -0.45593999997E+02  0.45594000000E+02  0.51100000000E-03 0.  1.
    9900012    2    1    2    0    0 -0.10407730502E+02  0.12279544210E+02  0.42071431500E+02  0.46142318646E+02  0.10000008069E+02 0.  0.
        -12    1    1    2    0    0  0.10407730502E+02 -0.12279544210E+02 -0.42071431500E+02  0.45045681354E+02  0.00000000000E+00 0.  1.
         11    1    3    3    0    0 -0.37452915243E+01  0.29627841304E+01  0.11982395965E+02  0.12898957777E+02  0.51100000000E-03 0. -1.
        -11    1    3    3    0    0 -0.39369611523E+01  0.94068696795E+01  0.28027077992E+02  0.29824586524E+02  0.51100000000E-03 0.  1.
        -12    1    3    3    0    0 -0.27254778253E+01 -0.90109600248E-01  0.20619575428E+01  0.34187743454E+01  0.00000000000E+00 0.  1.
</event>
<event>
 7    1  0.3981356E-008  0.4614232E+02  0.7816164E-02  0.1320468E+00
        -11   -1    0    0    0    0  0.00000000000E+00  0.00000000000E+00  0.45593999997E+02  0.45594000000E+02  0.51100000000E-03 0.  1.
         11   -1    0    0    0    0 -0.00000000000E+00 -0.00000000000E+00 -0.45593999997E+02  0.45594000000E+02  0.51100000000E-03 0. -1.
    9900012    2    1    2    0    0 -0.15492764883E+01  0.31538711325E+01 -0.44908421330E+02  0.46142317997E+02  0.10000002155E+02 0.  0.
        -12    1    1    2    0    0  0.15492764883E+01 -0.31538711325E+01  0.44908421330E+02  0.45045682003E+02  0.00000000000E+00 0.  1.
         11    1    3    3    0    0  0.99011829248E+00  0.10023731041E+01 -0.10682268540E+02  0.10774782944E+02  0.51100000000E-03 0. -1.
        -11    1    3    3    0    0  0.13727920745E+01  0.98985378073E+00 -0.11631053388E+01  0.20535780670E+01  0.51100000000E-03 0.  1.
         12    1    3    3    0    0 -0.39121868554E+01  0.11616442477E+01 -0.33063047451E+02  0.33313956986E+02  0.00000000000E+00 0. -1.
</event>
<event>
 7    1  0.3981356E-008  0.4614232E+02  0.7816164E-02  0.1320468E+00
        -11   -1    0    0    0    0  0.00000000000E+00  0.00000000000E+00  0.45593999997E+02  0.45594000000E+02  0.51100000000E-03 0.  1.
         11   -1    0    0    0    0 -0.00000000000E+00 -0.00000000000E+00 -0.45593999997E+02  0.45594000000E+02  0.51100000000E-03 0. -1.
    9900012    2    1    2    0    0 -0.31382099420E+02 -0.38468878756E+01 -0.32085491006E+02  0.46142318260E+02  0.10000004546E+02 0.  0.
        -12    1    1    2    0    0  0.31382099420E+02  0.38468878756E+01  0.32085491006E+02  0.45045681740E+02  0.00000000000E+00 0.  1.
         11    1    3    3    0    0 -0.50323735345E+01  0.17462754459E+01 -0.65778957591E+01  0.84642172823E+01  0.51100000000E-03 0.  1.
        -11    1    3    3    0    0 -0.22673926185E+02 -0.58731077508E+01 -0.24414648293E+02  0.33833051515E+02  0.51100000000E-03 0. -1.
         12    1    3    3    0    0 -0.36757997002E+01  0.27994442933E+00 -0.10929469543E+01  0.38450494619E+01  0.00000000000E+00 0. -1.
</event>
<event>
 7    1  0.3981356E-008  0.4614232E+02  0.7816164E-02  0.1320468E+00
        -11   -1    0    0    0    0  0.00000000000E+00  0.00000000000E+00  0.45593999997E+02  0.45594000000E+02  0.51100000000E-03 0.  1.
         11   -1    0    0    0    0 -0.00000000000E+00 -0.00000000000E+00 -0.45593999997E+02  0.45594000000E+02  0.51100000000E-03 0. -1.
    9900012    2    1    2    0    0  0.12332762863E+02  0.35702864096E+02 -0.24542247111E+02  0.46142318323E+02  0.10000005127E+02 0.  0.
        -12    1    1    2    0    0 -0.12332762863E+02 -0.35702864096E+02  0.24542247111E+02  0.45045681677E+02  0.00000000000E+00 0.  1.
         11    1    3    3    0    0  0.55088285753E+01  0.88823236772E+01 -0.37733925664E+01  0.11112216606E+02  0.51100000000E-03 0. -1.
        -11    1    3    3    0    0  0.39800998881E+01  0.12181506431E+02 -0.64126624414E+01  0.14330126793E+02  0.51100000000E-03 0.  1.
         12    1    3    3    0    0  0.28438343991E+01  0.14639033987E+02 -0.14356192103E+02  0.20699974924E+02  0.00000000000E+00 0. -1.
</event>
<event>
 7    1  0.3981356E-008  0.4614232E+02  0.7816164E-02  0.1320468E+00
        -11   -1    0    0    0    0  0.00000000000E+00  0.00000000000E+00  0.45593999997E+02  0.45594000000E+02  0.51100000000E-03 0. -1.
         11   -1    0    0    0    0 -0.00000000000E+00 -0.00000000000E+00 -0.45593999997E+02  0.45594000000E+02  0.51100000000E-03 0.  1.
    9900012    2    1    2    0    0  0.69980698877E+01 -0.12411750414E+02  0.42732761790E+02  0.46142318068E+02  0.10000002801E+02 0.  0.
        -12    1    1    2    0    0 -0.69980698877E+01  0.12411750414E+02 -0.42732761790E+02  0.45045681932E+02  0.00000000000E+00 0.  1.
         11    1    3    3    0    0 -0.30494703220E+00 -0.12796346493E+01  0.74144990467E+01  0.75302890982E+01  0.51100000000E-03 0. -1.
        -11    1    3    3    0    0  0.12974012603E+01 -0.14303620235E+01  0.53316132769E+00  0.20033588822E+01  0.51100000000E-03 0.  1.
         12    1    3    3    0    0  0.60056156596E+01 -0.97017537413E+01  0.34785101416E+02  0.36608670088E+02  0.00000000000E+00 0. -1.
</event>
<event>
 7    1  0.3981356E-008  0.4614232E+02  0.7816164E-02  0.1320468E+00
        -11   -1    0    0    0    0  0.00000000000E+00  0.00000000000E+00  0.45593999997E+02  0.45594000000E+02  0.51100000000E-03 0.  1.
         11   -1    0    0    0    0 -0.00000000000E+00 -0.00000000000E+00 -0.45593999997E+02  0.45594000000E+02  0.51100000000E-03 0. -1.
    9900012    2    1    2    0    0  0.96626680697E+01  0.94038748771E+01 -0.42980386029E+02  0.46142316520E+02  0.99999886851E+01 0.  0.
        -12    1    1    2    0    0 -0.96626680697E+01 -0.94038748771E+01  0.42980386029E+02  0.45045683480E+02  0.00000000000E+00 0.  1.
         11    1    3    3    0    0  0.10629465088E+01  0.46770925704E+01 -0.21584739965E+02  0.22111219998E+02  0.51100000000E-03 0. -1.
        -11    1    3    3    0    0  0.85936790069E+00  0.21715707509E+01 -0.23435886824E+01  0.33085708226E+01  0.51100000000E-03 0.  1.
         12    1    3    3    0    0  0.77403536602E+01  0.25552115558E+01 -0.19052057382E+02  0.20722525699E+02  0.00000000000E+00 0. -1.
</event>
<event>
 7    1  0.3981356E-008  0.4614232E+02  0.7816164E-02  0.1320468E+00
        -11   -1    0    0    0    0  0.00000000000E+00  0.00000000000E+00  0.45593999997E+02  0.45594000000E+02  0.51100000000E-03 0.  1.
         11   -1    0    0    0    0 -0.00000000000E+00 -0.00000000000E+00 -0.45593999997E+02  0.45594000000E+02  0.51100000000E-03 0. -1.
    9900012    2    1    2    0    0 -0.32438887735E+02  0.77325963486E+01 -0.30282650685E+02  0.46142318561E+02  0.10000007298E+02 0.  0.
        -12    1    1    2    0    0  0.32438887735E+02 -0.77325963486E+01  0.30282650685E+02  0.45045681439E+02  0.00000000000E+00 0.  1.
         11    1    3    3    0    0 -0.23757374259E+02  0.57869835709E+01 -0.19272619515E+02  0.31134159275E+02  0.51100000000E-03 0. -1.
        -11    1    3    3    0    0 -0.28361195628E+01 -0.16672101085E+01 -0.41815525426E+01  0.53205775671E+01  0.51100000000E-03 0.  1.
         12    1    3    3    0    0 -0.58453939136E+01  0.36128228861E+01 -0.68284786269E+01  0.96875817193E+01  0.00000000000E+00 0. -1.
</event>
<event>
 7    1  0.3981356E-008  0.4614232E+02  0.7816164E-02  0.1320468E+00
        -11   -1    0    0    0    0  0.00000000000E+00  0.00000000000E+00  0.45593999997E+02  0.45594000000E+02  0.51100000000E-03 0.  1.
         11   -1    0    0    0    0 -0.00000000000E+00 -0.00000000000E+00 -0.45593999997E+02  0.45594000000E+02  0.51100000000E-03 0. -1.
    9900012    2    1    2    0    0  0.11144007798E+02 -0.87112504014E+01 -0.42767261897E+02  0.46142317815E+02  0.10000000490E+02 0.  0.
        -12    1    1    2    0    0 -0.11144007798E+02  0.87112504014E+01  0.42767261897E+02  0.45045682185E+02  0.00000000000E+00 0.  1.
         11    1    3    3    0    0 -0.35165897290E-01 -0.17717905498E+01 -0.57192607476E+01  0.59875222048E+01  0.51100000000E-03 0. -1.
        -11    1    3    3    0    0 -0.11262159634E+01  0.33170255663E+00 -0.23099667024E+01  0.25912034674E+01  0.51100000000E-03 0.  1.
        -12    1    3    3    0    0  0.12305389659E+02 -0.72711624082E+01 -0.34738034447E+02  0.37563592143E+02  0.00000000000E+00 0.  1.
</event>
<event>
 7    1  0.3981356E-008  0.4614233E+02  0.7816164E-02  0.1320468E+00
        -11   -1    0    0    0    0  0.00000000000E+00  0.00000000000E+00  0.45593999997E+02  0.45594000000E+02  0.51100000000E-03 0. -1.
         11   -1    0    0    0    0 -0.00000000000E+00 -0.00000000000E+00 -0.45593999997E+02  0.45594000000E+02  0.51100000000E-03 0.  1.
    9900012    2    1    2    0    0  0.14451970375E+02 -0.40467906681E+02  0.13513027128E+02  0.46142325169E+02  0.10000067551E+02 0.  0.
        -12    1    1    2    0    0 -0.14451970375E+02  0.40467906681E+02 -0.13513027128E+02  0.45045674831E+02  0.00000000000E+00 0.  1.
         11    1    3    3    0    0  0.26136482008E+00 -0.57368048467E+01  0.15965197026E+01  0.59605466897E+01  0.51100000000E-03 0. -1.
        -11    1    3    3    0    0 -0.96534082689E-01 -0.15408084292E+01 -0.96391261174E+00  0.18200376998E+01  0.51100000000E-03 0.  1.
         12    1    3    3    0    0  0.14287139637E+02 -0.33190293405E+02  0.12880420037E+02  0.38361740780E+02  0.00000000000E+00 0. -1.
</event>
<event>
 7    1  0.3981356E-008  0.4614232E+02  0.7816164E-02  0.1320468E+00
        -11   -1    0    0    0    0  0.00000000000E+00  0.00000000000E+00  0.45593999997E+02  0.45594000000E+02  0.51100000000E-03 0.  1.
         11   -1    0    0    0    0 -0.00000000000E+00 -0.00000000000E+00 -0.45593999997E+02  0.45594000000E+02  0.51100000000E-03 0. -1.
    9900012    2    1    2    0    0  0.27069622683E+02  0.23266932143E+02 -0.27477243629E+02  0.46142317399E+02  0.99999967021E+01 0.  0.
        -12    1    1    2    0    0 -0.27069622683E+02 -0.23266932143E+02  0.27477243629E+02  0.45045682601E+02  0.00000000000E+00 0.  1.
         11    1    3    3    0    0  0.11425083295E+02  0.14806343656E+02 -0.11270661600E+02  0.21835479247E+02  0.51100000000E-03 0. -1.
        -11    1    3    3    0    0  0.33267549274E+01  0.15548046690E+01 -0.16493591229E+01  0.40255560713E+01  0.51100000000E-03 0.  1.
         12    1    3    3    0    0  0.12317784460E+02  0.69057838174E+01 -0.14557222906E+02  0.20281282082E+02  0.00000000000E+00 0. -1.
</event>
<event>
 7    1  0.3981356E-008  0.4614232E+02  0.7816164E-02  0.1320468E+00
        -11   -1    0    0    0    0  0.00000000000E+00  0.00000000000E+00  0.45593999997E+02  0.45594000000E+02  0.51100000000E-03 0.  1.
         11   -1    0    0    0    0 -0.00000000000E+00 -0.00000000000E+00 -0.45593999997E+02  0.45594000000E+02  0.51100000000E-03 0. -1.
    9900012    2    1    2    0    0 -0.27161118017E+02 -0.16630646013E+02 -0.31856063221E+02  0.46142317824E+02  0.10000000576E+02 0.  0.
        -12    1    1    2    0    0  0.27161118017E+02  0.16630646013E+02  0.31856063221E+02  0.45045682176E+02  0.00000000000E+00 0.  1.
         11    1    3    3    0    0 -0.15441425628E+02 -0.77902751887E+01 -0.17136213384E+02  0.24346987952E+02  0.51100000000E-03 0. -1.
        -11    1    3    3    0    0 -0.11081237317E+02 -0.98034570672E+01 -0.12846259631E+02  0.19594080170E+02  0.51100000000E-03 0.  1.
        -12    1    3    3    0    0 -0.63845507265E+00  0.96308624334E+00 -0.18735902054E+01  0.22012497018E+01  0.00000000000E+00 0.  1.
</event>
<event>
 7    1  0.3981356E-008  0.4614232E+02  0.7816164E-02  0.1320468E+00
        -11   -1    0    0    0    0  0.00000000000E+00  0.00000000000E+00  0.45593999997E+02  0.45594000000E+02  0.51100000000E-03 0. -1.
         11   -1    0    0    0    0 -0.00000000000E+00 -0.00000000000E+00 -0.45593999997E+02  0.45594000000E+02  0.51100000000E-03 0.  1.
    9900012    2    1    2    0    0  0.33576266262E+02 -0.30005276175E+02 -0.11963273278E+01  0.46142318148E+02  0.10000003532E+02 0.  0.
        -12    1    1    2    0    0 -0.33576266262E+02  0.30005276175E+02  0.11963273278E+01  0.45045681852E+02  0.00000000000E+00 0.  1.
         11    1    3    3    0    0  0.13526457135E+02 -0.12559223896E+02 -0.15358522542E+01  0.18521824692E+02  0.51100000000E-03 0. -1.
        -11    1    3    3    0    0  0.11227324902E+02 -0.48443756283E+01 -0.16888426328E+00  0.12229036014E+02  0.51100000000E-03 0.  1.
        -12    1    3    3    0    0  0.88224842240E+01 -0.12601676651E+02  0.50840918965E+00  0.15391457443E+02  0.00000000000E+00 0.  1.
</event>
<event>
 7    1  0.3981356E-008  0.4614232E+02  0.7816164E-02  0.1320468E+00
        -11   -1    0    0    0    0  0.00000000000E+00  0.00000000000E+00  0.45593999997E+02  0.45594000000E+02  0.51100000000E-03 0.  1.
         11   -1    0    0    0    0 -0.00000000000E+00 -0.00000000000E+00 -0.45593999997E+02  0.45594000000E+02  0.51100000000E-03 0. -1.
    9900012    2    1    2    0    0 -0.18446194465E+02  0.39005849576E+02 -0.12938126545E+02  0.46142317522E+02  0.99999978222E+01 0.  0.
        -12    1    1    2    0    0  0.18446194465E+02 -0.39005849576E+02  0.12938126545E+02  0.45045682478E+02  0.00000000000E+00 0.  1.
         11    1    3    3    0    0 -0.79992589772E+01  0.20179712246E+02 -0.64451730202E+01  0.22643965776E+02  0.51100000000E-03 0. -1.
        -11    1    3    3    0    0 -0.51761126434E+01  0.97145283636E+01  0.22722331033E+00  0.11009806271E+02  0.51100000000E-03 0.  1.
        -12    1    3    3    0    0 -0.52708228447E+01  0.91116089660E+01 -0.67201768351E+01  0.12488545476E+02  0.00000000000E+00 0.  1.
</event>
<event>
 7    1  0.3981356E-008  0.4614232E+02  0.7816164E-02  0.1320468E+00
        -11   -1    0    0    0    0  0.00000000000E+00  0.00000000000E+00  0.45593999997E+02  0.45594000000E+02  0.51100000000E-03 0. -1.
         11   -1    0    0    0    0 -0.00000000000E+00 -0.00000000000E+00 -0.45593999997E+02  0.45594000000E+02  0.51100000000E-03 0.  1.
    9900012    2    1    2    0    0  0.61349852470E+01 -0.41665752169E+02  0.15982508235E+02  0.46142317440E+02  0.99999970708E+01 0.  0.
        -12    1    1    2    0    0 -0.61349852470E+01  0.41665752169E+02 -0.15982508235E+02  0.45045682560E+02  0.00000000000E+00 0.  1.
         11    1    3    3    0    0  0.50114303075E+01 -0.28215008468E+02  0.71061199089E+01  0.29524533476E+02  0.51100000000E-03 0. -1.
        -11    1    3    3    0    0  0.66872112139E+00 -0.41167548405E+00  0.13328427014E+01  0.15469759437E+01  0.51100000000E-03 0.  1.
         12    1    3    3    0    0  0.45483381816E+00 -0.13039068218E+02  0.75435456251E+01  0.15070808020E+02  0.00000000000E+00 0. -1.
</event>
<event>
 7    1  0.3981356E-008  0.4614232E+02  0.7816164E-02  0.1320468E+00
        -11   -1    0    0    0    0  0.00000000000E+00  0.00000000000E+00  0.45593999997E+02  0.45594000000E+02  0.51100000000E-03 0.  1.
         11   -1    0    0    0    0 -0.00000000000E+00 -0.00000000000E+00 -0.45593999997E+02  0.45594000000E+02  0.51100000000E-03 0. -1.
    9900012    2    1    2    0    0 -0.91606413789E+01 -0.28299027237E+02 -0.33828408482E+02  0.46142317483E+02  0.99999974640E+01 0.  0.
        -12    1    1    2    0    0  0.91606413789E+01  0.28299027237E+02  0.33828408482E+02  0.45045682517E+02  0.00000000000E+00 0.  1.
         11    1    3    3    0    0 -0.39320423372E+01 -0.13734615464E+02 -0.19861234113E+02  0.24465674723E+02  0.51100000000E-03 0. -1.
        -11    1    3    3    0    0 -0.47347624134E+01 -0.46284960518E+01 -0.59021654216E+01  0.88699778882E+01  0.51100000000E-03 0.  1.
         12    1    3    3    0    0 -0.49383662835E+00 -0.99359157206E+01 -0.80650089469E+01  0.12806664872E+02  0.00000000000E+00 0. -1.
</event>
<event>
 7    1  0.3981356E-008  0.4614233E+02  0.7816164E-02  0.1320468E+00
        -11   -1    0    0    0    0  0.00000000000E+00  0.00000000000E+00  0.45593999997E+02  0.45594000000E+02  0.51100000000E-03 0.  1.
         11   -1    0    0    0    0 -0.00000000000E+00 -0.00000000000E+00 -0.45593999997E+02  0.45594000000E+02  0.51100000000E-03 0. -1.
    9900012    2    1    2    0    0 -0.27318682934E+02  0.33300116627E+02 -0.13187286193E+02  0.46142326270E+02  0.10000077594E+02 0.  0.
        -12    1    1    2    0    0  0.27318682934E+02 -0.33300116627E+02  0.13187286193E+02  0.45045673730E+02  0.00000000000E+00 0.  1.
         11    1    3    3    0    0 -0.25713621297E+01  0.51679879611E+01 -0.40143386081E+01  0.70309969058E+01  0.51100000000E-03 0. -1.
        -11    1    3    3    0    0  0.40611149414E-01  0.14057275527E+01 -0.10765989744E+01  0.17710970698E+01  0.51100000000E-03 0.  1.
        -12    1    3    3    0    0 -0.24787931954E+02  0.26726401113E+02 -0.80963486102E+01  0.37340232295E+02  0.00000000000E+00 0.  1.
</event>
<event>
 7    1  0.3981356E-008  0.4614232E+02  0.7816164E-02  0.1320468E+00
        -11   -1    0    0    0    0  0.00000000000E+00  0.00000000000E+00  0.45593999997E+02  0.45594000000E+02  0.51100000000E-03 0.  1.
         11   -1    0    0    0    0 -0.00000000000E+00 -0.00000000000E+00 -0.45593999997E+02  0.45594000000E+02  0.51100000000E-03 0. -1.
    9900012    2    1    2    0    0 -0.26899988836E+00 -0.45009838610E+02 -0.17763844256E+01  0.46142317918E+02  0.10000001428E+02 0.  0.
        -12    1    1    2    0    0  0.26899988836E+00  0.45009838610E+02  0.17763844256E+01  0.45045682082E+02  0.00000000000E+00 0.  1.
         11    1    3    3    0    0  0.20200841155E+01 -0.32852133850E+02  0.24271422368E+00  0.32915077833E+02  0.51100000000E-03 0. -1.
        -11    1    3    3    0    0 -0.90905397286E+00 -0.63331434365E+01  0.10770745824E+01  0.64880794408E+01  0.51100000000E-03 0.  1.
        -12    1    3    3    0    0 -0.13800300310E+01 -0.58245613237E+01 -0.30961732317E+01  0.67391606436E+01  0.00000000000E+00 0.  1.
</event>
<event>
 7    1  0.3981356E-008  0.4614232E+02  0.7816164E-02  0.1320468E+00
        -11   -1    0    0    0    0  0.00000000000E+00  0.00000000000E+00  0.45593999997E+02  0.45594000000E+02  0.51100000000E-03 0.  1.
         11   -1    0    0    0    0 -0.00000000000E+00 -0.00000000000E+00 -0.45593999997E+02  0.45594000000E+02  0.51100000000E-03 0. -1.
    9900012    2    1    2    0    0  0.43270113232E+02 -0.98657843366E+01 -0.77121391143E+01  0.46142317750E+02  0.99999998962E+01 0.  0.
        -12    1    1    2    0    0 -0.43270113232E+02  0.98657843366E+01  0.77121391143E+01  0.45045682250E+02  0.00000000000E+00 0.  1.
         11    1    3    3    0    0  0.25574074946E+02 -0.33826027518E+01 -0.46293909931E+01  0.26208902533E+02  0.51100000000E-03 0. -1.
        -11    1    3    3    0    0  0.98927461835E+01 -0.62795745102E+01 -0.31261873381E+01  0.12127346396E+02  0.51100000000E-03 0.  1.
        -12    1    3    3    0    0  0.78032921021E+01 -0.20360707457E+00  0.43439216827E-01  0.78060688209E+01  0.00000000000E+00 0.  1.
</event>
<event>
 7    1  0.3981356E-008  0.4614232E+02  0.7816164E-02  0.1320468E+00
        -11   -1    0    0    0    0  0.00000000000E+00  0.00000000000E+00  0.45593999997E+02  0.45594000000E+02  0.51100000000E-03 0. -1.
         11   -1    0    0    0    0 -0.00000000000E+00 -0.00000000000E+00 -0.45593999997E+02  0.45594000000E+02  0.51100000000E-03 0.  1.
    9900012    2    1    2    0    0  0.48474312050E+01  0.35126734058E+02  0.27780001687E+02  0.46142317315E+02  0.99999959297E+01 0.  0.
        -12    1    1    2    0    0 -0.48474312050E+01 -0.35126734058E+02 -0.27780001687E+02  0.45045682685E+02  0.00000000000E+00 0.  1.
         11    1    3    3    0    0  0.17170012420E+01  0.26135033311E+02  0.17717219331E+02  0.31621004420E+02  0.51100000000E-03 0. -1.
        -11    1    3    3    0    0  0.11069844894E+00  0.33843018937E+00  0.28132593553E+01  0.28357040750E+01  0.51100000000E-03 0.  1.
         12    1    3    3    0    0  0.30197315141E+01  0.86532705580E+01  0.72495230002E+01  0.11685608820E+02  0.00000000000E+00 0. -1.
</event>
<event>
 7    1  0.3981356E-008  0.4614232E+02  0.7816164E-02  0.1320468E+00
        -11   -1    0    0    0    0  0.00000000000E+00  0.00000000000E+00  0.45593999997E+02  0.45594000000E+02  0.51100000000E-03 0.  1.
         11   -1    0    0    0    0 -0.00000000000E+00 -0.00000000000E+00 -0.45593999997E+02  0.45594000000E+02  0.51100000000E-03 0. -1.
    9900012    2    1    2    0    0  0.37804337478E+02  0.10837946856E+02 -0.21965528954E+02  0.46142317783E+02  0.10000000197E+02 0.  0.
        -12    1    1    2    0    0 -0.37804337478E+02 -0.10837946856E+02  0.21965528954E+02  0.45045682217E+02  0.00000000000E+00 0.  1.
         11    1    3    3    0    0  0.83778751186E+01  0.17429787764E-01 -0.67425256487E+01  0.10754103760E+02  0.51100000000E-03 0. -1.
        -11    1    3    3    0    0 -0.15238701993E+00  0.63864603599E+00 -0.20530935532E+00  0.68792641731E+00  0.51100000000E-03 0.  1.
         12    1    3    3    0    0  0.29578849379E+02  0.10181871032E+02 -0.15017693950E+02  0.34700287605E+02  0.00000000000E+00 0. -1.
</event>
<event>
 7    1  0.3981356E-008  0.4614232E+02  0.7816164E-02  0.1320468E+00
        -11   -1    0    0    0    0  0.00000000000E+00  0.00000000000E+00  0.45593999997E+02  0.45594000000E+02  0.51100000000E-03 0.  1.
         11   -1    0    0    0    0 -0.00000000000E+00 -0.00000000000E+00 -0.45593999997E+02  0.45594000000E+02  0.51100000000E-03 0. -1.
    9900012    2    1    2    0    0  0.71016359768E+01 -0.10903258366E+02 -0.43125389303E+02  0.46142317864E+02  0.10000000942E+02 0.  0.
        -12    1    1    2    0    0 -0.71016359768E+01  0.10903258366E+02  0.43125389303E+02  0.45045682136E+02  0.00000000000E+00 0.  1.
         11    1    3    3    0    0  0.29717509085E-01 -0.18568250521E+01 -0.32580672835E+01  0.37501580086E+01  0.51100000000E-03 0. -1.
        -11    1    3    3    0    0  0.50793766963E+01 -0.48434878900E+01 -0.34853139548E+02  0.35552788628E+02  0.51100000000E-03 0.  1.
        -12    1    3    3    0    0  0.19925417715E+01 -0.42029454236E+01 -0.50141824709E+01  0.68393712282E+01  0.00000000000E+00 0.  1.
</event>
<event>
 7    1  0.3981356E-008  0.4614232E+02  0.7816164E-02  0.1320468E+00
        -11   -1    0    0    0    0  0.00000000000E+00  0.00000000000E+00  0.45593999997E+02  0.45594000000E+02  0.51100000000E-03 0.  1.
         11   -1    0    0    0    0 -0.00000000000E+00 -0.00000000000E+00 -0.45593999997E+02  0.45594000000E+02  0.51100000000E-03 0. -1.
    9900012    2    1    2    0    0 -0.24457125758E+02  0.37751473580E+02 -0.24059860658E+01  0.46142317335E+02  0.99999961139E+01 0.  0.
        -12    1    1    2    0    0  0.24457125758E+02 -0.37751473580E+02  0.24059860658E+01  0.45045682665E+02  0.00000000000E+00 0.  1.
         11    1    3    3    0    0 -0.16234164080E+01  0.30331447371E+01 -0.25582780487E+01  0.42872175902E+01  0.51100000000E-03 0. -1.
        -11    1    3    3    0    0 -0.17341776397E+02  0.27565925622E+02 -0.18433804217E+01  0.32619250691E+02  0.51100000000E-03 0.  1.
        -12    1    3    3    0    0 -0.54919329537E+01  0.71524032203E+01  0.19956724046E+01  0.92358490536E+01  0.00000000000E+00 0.  1.
</event>
<event>
 7    1  0.3981356E-008  0.4614232E+02  0.7816164E-02  0.1320468E+00
        -11   -1    0    0    0    0  0.00000000000E+00  0.00000000000E+00  0.45593999997E+02  0.45594000000E+02  0.51100000000E-03 0.  1.
         11   -1    0    0    0    0 -0.00000000000E+00 -0.00000000000E+00 -0.45593999997E+02  0.45594000000E+02  0.51100000000E-03 0. -1.
    9900012    2    1    2    0    0  0.47722054447E+01  0.20316670752E+01 -0.44746081562E+02  0.46142318397E+02  0.10000005803E+02 0.  0.
        -12    1    1    2    0    0 -0.47722054447E+01 -0.20316670752E+01  0.44746081562E+02  0.45045681603E+02  0.00000000000E+00 0.  1.
         11    1    3    3    0    0  0.29659085716E+01 -0.18314103114E+01 -0.93516768280E+01  0.99802072694E+01  0.51100000000E-03 0. -1.
        -11    1    3    3    0    0 -0.68845178828E+00  0.40239481434E+00 -0.23707309475E+02  0.23720716900E+02  0.51100000000E-03 0.  1.
        -12    1    3    3    0    0  0.24947486614E+01  0.34606825723E+01 -0.11687095259E+02  0.12441394228E+02  0.00000000000E+00 0.  1.
</event>
<event>
 7    1  0.3981356E-008  0.4614232E+02  0.7816164E-02  0.1320468E+00
        -11   -1    0    0    0    0  0.00000000000E+00  0.00000000000E+00  0.45593999997E+02  0.45594000000E+02  0.51100000000E-03 0.  1.
         11   -1    0    0    0    0 -0.00000000000E+00 -0.00000000000E+00 -0.45593999997E+02  0.45594000000E+02  0.51100000000E-03 0. -1.
    9900012    2    1    2    0    0 -0.33498611956E+02  0.30012772235E+02  0.24879779597E+01  0.46142317248E+02  0.99999953249E+01 0.  0.
        -12    1    1    2    0    0  0.33498611956E+02 -0.30012772235E+02 -0.24879779597E+01  0.45045682752E+02  0.00000000000E+00 0.  1.
         11    1    3    3    0    0 -0.37410621552E+01  0.29157509031E+01  0.90243204997E+00  0.48282018645E+01  0.51100000000E-03 0. -1.
        -11    1    3    3    0    0 -0.11945267875E+02  0.16824831345E+02  0.21393965477E+01  0.20744671418E+02  0.51100000000E-03 0.  1.
         12    1    3    3    0    0 -0.17812281926E+02  0.10272189987E+02 -0.55385063799E+00  0.20569443966E+02  0.00000000000E+00 0. -1.
</event>
<event>
 7    1  0.3981356E-008  0.4614232E+02  0.7816164E-02  0.1320468E+00
        -11   -1    0    0    0    0  0.00000000000E+00  0.00000000000E+00  0.45593999997E+02  0.45594000000E+02  0.51100000000E-03 0. -1.
         11   -1    0    0    0    0 -0.00000000000E+00 -0.00000000000E+00 -0.45593999997E+02  0.45594000000E+02  0.51100000000E-03 0.  1.
    9900012    2    1    2    0    0  0.13963454902E+02 -0.41212077348E+02  0.11649036390E+02  0.46142318287E+02  0.10000004797E+02 0.  0.
        -12    1    1    2    0    0 -0.13963454902E+02  0.41212077348E+02 -0.11649036390E+02  0.45045681713E+02  0.00000000000E+00 0.  1.
         11    1    3    3    0    0  0.63429498369E+01 -0.18464814440E+02  0.85576564881E+01  0.21317032387E+02  0.51100000000E-03 0. -1.
        -11    1    3    3    0    0  0.26000722072E+00  0.21894704594E+00  0.45035011246E+00  0.56423137866E+00  0.51100000000E-03 0.  1.
         12    1    3    3    0    0  0.73604978442E+01 -0.22966209954E+02  0.26410297897E+01  0.24261054522E+02  0.00000000000E+00 0. -1.
</event>
<event>
 7    1  0.3981356E-008  0.4614232E+02  0.7816164E-02  0.1320468E+00
        -11   -1    0    0    0    0  0.00000000000E+00  0.00000000000E+00  0.45593999997E+02  0.45594000000E+02  0.51100000000E-03 0. -1.
         11   -1    0    0    0    0 -0.00000000000E+00 -0.00000000000E+00 -0.45593999997E+02  0.45594000000E+02  0.51100000000E-03 0.  1.
    9900012    2    1    2    0    0  0.38721031758E+02  0.19592939853E+02  0.12079387353E+02  0.46142321058E+02  0.10000030067E+02 0.  0.
        -12    1    1    2    0    0 -0.38721031758E+02 -0.19592939853E+02 -0.12079387353E+02  0.45045678942E+02  0.00000000000E+00 0.  1.
         11    1    3    3    0    0  0.69422273812E+01  0.35995564311E+01  0.10687799582E+00  0.78206617802E+01  0.51100000000E-03 0. -1.
        -11    1    3    3    0    0  0.25536459638E+02  0.15261973450E+02  0.11885594376E+02  0.32036010338E+02  0.51100000000E-03 0.  1.
        -12    1    3    3    0    0  0.62423447390E+01  0.73140997156E+00  0.86914981267E-01  0.62856489403E+01  0.00000000000E+00 0.  1.
</event>
<event>
 7    1  0.3981356E-008  0.4614232E+02  0.7816164E-02  0.1320468E+00
        -11   -1    0    0    0    0  0.00000000000E+00  0.00000000000E+00  0.45593999997E+02  0.45594000000E+02  0.51100000000E-03 0.  1.
         11   -1    0    0    0    0 -0.00000000000E+00 -0.00000000000E+00 -0.45593999997E+02  0.45594000000E+02  0.51100000000E-03 0. -1.
    9900012    2    1    2    0    0  0.31460011779E+02 -0.13821488390E+02 -0.29126407272E+02  0.46142317820E+02  0.10000000538E+02 0.  0.
        -12    1    1    2    0    0 -0.31460011779E+02  0.13821488390E+02  0.29126407272E+02  0.45045682180E+02  0.00000000000E+00 0.  1.
         11    1    3    3    0    0  0.89044756399E+01 -0.44196633465E+01 -0.85911250514E+01  0.13138894186E+02  0.51100000000E-03 0. -1.
        -11    1    3    3    0    0  0.19863567862E+02 -0.10990821434E+02 -0.18329875305E+02  0.29177796575E+02  0.51100000000E-03 0.  1.
        -12    1    3    3    0    0  0.26919682767E+01  0.15889963902E+01 -0.22054069163E+01  0.38256270593E+01  0.00000000000E+00 0.  1.
</event>
<event>
 7    1  0.3981356E-008  0.4614232E+02  0.7816164E-02  0.1320468E+00
        -11   -1    0    0    0    0  0.00000000000E+00  0.00000000000E+00  0.45593999997E+02  0.45594000000E+02  0.51100000000E-03 0. -1.
         11   -1    0    0    0    0 -0.00000000000E+00 -0.00000000000E+00 -0.45593999997E+02  0.45594000000E+02  0.51100000000E-03 0.  1.
    9900012    2    1    2    0    0 -0.44648980711E+02 -0.37662381014E+00  0.59531630636E+01  0.46142317915E+02  0.10000001405E+02 0.  0.
        -12    1    1    2    0    0  0.44648980711E+02  0.37662381014E+00 -0.59531630636E+01  0.45045682085E+02  0.00000000000E+00 0.  1.
         11    1    3    3    0    0 -0.35249078297E+02 -0.29771750407E+01  0.65015907332E+01  0.35967092937E+02  0.51100000000E-03 0. -1.
        -11    1    3    3    0    0 -0.10629215188E-01  0.38661767342E+00 -0.35734250387E+00  0.52657395664E+00  0.51100000000E-03 0.  1.
        -12    1    3    3    0    0 -0.93892731985E+01  0.22139335571E+01 -0.19108516576E+00  0.96486510213E+01  0.00000000000E+00 0.  1.
</event>
<event>
 7    1  0.3981356E-008  0.4614232E+02  0.7816164E-02  0.1320468E+00
        -11   -1    0    0    0    0  0.00000000000E+00  0.00000000000E+00  0.45593999997E+02  0.45594000000E+02  0.51100000000E-03 0. -1.
         11   -1    0    0    0    0 -0.00000000000E+00 -0.00000000000E+00 -0.45593999997E+02  0.45594000000E+02  0.51100000000E-03 0.  1.
    9900012    2    1    2    0    0 -0.10054480443E+02  0.43838430260E+02 -0.24925855521E+01  0.46142317328E+02  0.99999960506E+01 0.  0.
        -12    1    1    2    0    0  0.10054480443E+02 -0.43838430260E+02  0.24925855521E+01  0.45045682672E+02  0.00000000000E+00 0.  1.
         11    1    3    3    0    0 -0.47193294026E+01  0.27796250023E+02 -0.42587433607E+00  0.28197250833E+02  0.51100000000E-03 0. -1.
        -11    1    3    3    0    0 -0.26587237101E+01  0.94461940678E+01 -0.39555147966E+01  0.10580429656E+02  0.51100000000E-03 0.  1.
        -12    1    3    3    0    0 -0.26764273307E+01  0.65959861694E+01  0.18888035806E+01  0.73646368390E+01  0.00000000000E+00 0.  1.
</event>
<event>
 7    1  0.3981356E-008  0.4614231E+02  0.7816164E-02  0.1320468E+00
        -11   -1    0    0    0    0  0.00000000000E+00  0.00000000000E+00  0.45593999997E+02  0.45594000000E+02  0.51100000000E-03 0.  1.
         11   -1    0    0    0    0 -0.00000000000E+00 -0.00000000000E+00 -0.45593999997E+02  0.45594000000E+02  0.51100000000E-03 0. -1.
    9900012    2    1    2    0    0 -0.53133998519E+01 -0.26104234962E+01 -0.44654984395E+02  0.46142310304E+02  0.99999320018E+01 0.  0.
        -12    1    1    2    0    0  0.53133998519E+01  0.26104234962E+01  0.44654984395E+02  0.45045689696E+02  0.00000000000E+00 0.  1.
         11    1    3    3    0    0 -0.15112520561E+01 -0.29835289254E+01 -0.84164236544E+01  0.90565730283E+01  0.51100000000E-03 0. -1.
        -11    1    3    3    0    0 -0.55009272582E+01  0.38169202655E+00 -0.32686424386E+02  0.33148276409E+02  0.51100000000E-03 0.  1.
        -12    1    3    3    0    0  0.16987794624E+01 -0.85865974079E-02 -0.35521363550E+01  0.39374608666E+01  0.00000000000E+00 0.  1.
</event>
<event>
 7    1  0.3981356E-008  0.4614232E+02  0.7816164E-02  0.1320468E+00
        -11   -1    0    0    0    0  0.00000000000E+00  0.00000000000E+00  0.45593999997E+02  0.45594000000E+02  0.51100000000E-03 0.  1.
         11   -1    0    0    0    0 -0.00000000000E+00 -0.00000000000E+00 -0.45593999997E+02  0.45594000000E+02  0.51100000000E-03 0. -1.
    9900012    2    1    2    0    0  0.75009737717E+01 -0.81276947200E+01 -0.43666800202E+02  0.46142317978E+02  0.10000001974E+02 0.  0.
        -12    1    1    2    0    0 -0.75009737717E+01  0.81276947200E+01  0.43666800202E+02  0.45045682022E+02  0.00000000000E+00 0.  1.
         11    1    3    3    0    0  0.65931908131E+00 -0.30587692040E+01 -0.69392020330E+01  0.76120493831E+01  0.51100000000E-03 0. -1.
        -11    1    3    3    0    0  0.23401248419E+01  0.17441528027E+01 -0.15773553677E+02  0.16041298237E+02  0.51100000000E-03 0.  1.
         12    1    3    3    0    0  0.45015298485E+01 -0.68130783186E+01 -0.20954044492E+02  0.22488970358E+02  0.00000000000E+00 0. -1.
</event>
<event>
 7    1  0.3981356E-008  0.4614232E+02  0.7816164E-02  0.1320468E+00
        -11   -1    0    0    0    0  0.00000000000E+00  0.00000000000E+00  0.45593999997E+02  0.45594000000E+02  0.51100000000E-03 0. -1.
         11   -1    0    0    0    0 -0.00000000000E+00 -0.00000000000E+00 -0.45593999997E+02  0.45594000000E+02  0.51100000000E-03 0.  1.
    9900012    2    1    2    0    0 -0.13637650205E+02 -0.27317930368E+02  0.33118856496E+02  0.46142317873E+02  0.10000001019E+02 0.  0.
        -12    1    1    2    0    0  0.13637650205E+02  0.27317930368E+02 -0.33118856496E+02  0.45045682127E+02  0.00000000000E+00 0.  1.
         11    1    3    3    0    0 -0.34188493114E+01 -0.10141170209E+02  0.12019385642E+02  0.16093399122E+02  0.51100000000E-03 0. -1.
        -11    1    3    3    0    0 -0.51578860602E+01 -0.11475097113E+02  0.80510445882E+01  0.14936564585E+02  0.51100000000E-03 0.  1.
         12    1    3    3    0    0 -0.50609148332E+01 -0.57016630454E+01  0.13048426265E+02  0.15112354166E+02  0.00000000000E+00 0. -1.
</event>
<event>
 7    1  0.3981356E-008  0.4614232E+02  0.7816164E-02  0.1320468E+00
        -11   -1    0    0    0    0  0.00000000000E+00  0.00000000000E+00  0.45593999997E+02  0.45594000000E+02  0.51100000000E-03 0.  1.
         11   -1    0    0    0    0 -0.00000000000E+00 -0.00000000000E+00 -0.45593999997E+02  0.45594000000E+02  0.51100000000E-03 0. -1.
    9900012    2    1    2    0    0 -0.21003827432E+02 -0.13246250818E+02 -0.37583103324E+02  0.46142316711E+02  0.99999904258E+01 0.  0.
        -12    1    1    2    0    0  0.21003827432E+02  0.13246250818E+02  0.37583103324E+02  0.45045683289E+02  0.00000000000E+00 0.  1.
         11    1    3    3    0    0 -0.14391349182E+02 -0.12345082804E+02 -0.24947278791E+02  0.31334944073E+02  0.51100000000E-03 0. -1.
        -11    1    3    3    0    0 -0.56043504824E+01  0.70098741698E+00 -0.79358915372E+01  0.97405596574E+01  0.51100000000E-03 0.  1.
         12    1    3    3    0    0 -0.10081277671E+01 -0.16021554308E+01 -0.46999329951E+01  0.50668129803E+01  0.00000000000E+00 0. -1.
</event>
<event>
 7    1  0.3981356E-008  0.4614232E+02  0.7816164E-02  0.1320468E+00
        -11   -1    0    0    0    0  0.00000000000E+00  0.00000000000E+00  0.45593999997E+02  0.45594000000E+02  0.51100000000E-03 0.  1.
         11   -1    0    0    0    0 -0.00000000000E+00 -0.00000000000E+00 -0.45593999997E+02  0.45594000000E+02  0.51100000000E-03 0. -1.
    9900012    2    1    2    0    0  0.14728915066E+02 -0.28910422199E+01 -0.42471336492E+02  0.46142317770E+02  0.10000000084E+02 0.  0.
        -12    1    1    2    0    0 -0.14728915066E+02  0.28910422199E+01  0.42471336492E+02  0.45045682230E+02  0.00000000000E+00 0.  1.
         11    1    3    3    0    0  0.87513715869E+01 -0.48830023188E+01 -0.26948395526E+02  0.28751456276E+02  0.51100000000E-03 0. -1.
        -11    1    3    3    0    0  0.16387092063E+01 -0.14544341764E+01 -0.31860811484E+01  0.38667635022E+01  0.51100000000E-03 0.  1.
        -12    1    3    3    0    0  0.43388342723E+01  0.34463942754E+01 -0.12336859817E+02  0.13524097992E+02  0.00000000000E+00 0.  1.
</event>
<event>
 7    1  0.3981356E-008  0.4614232E+02  0.7816164E-02  0.1320468E+00
        -11   -1    0    0    0    0  0.00000000000E+00  0.00000000000E+00  0.45593999997E+02  0.45594000000E+02  0.51100000000E-03 0.  1.
         11   -1    0    0    0    0 -0.00000000000E+00 -0.00000000000E+00 -0.45593999997E+02  0.45594000000E+02  0.51100000000E-03 0. -1.
    9900012    2    1    2    0    0 -0.34081719040E+02 -0.94707604356E+01 -0.27890042469E+02  0.46142319354E+02  0.10000014525E+02 0.  0.
        -12    1    1    2    0    0  0.34081719040E+02  0.94707604356E+01  0.27890042469E+02  0.45045680646E+02  0.00000000000E+00 0.  1.
         11    1    3    3    0    0 -0.89537184389E+01 -0.19806596004E+01 -0.69585915170E+01  0.11511476122E+02  0.51100000000E-03 0. -1.
        -11    1    3    3    0    0 -0.57052780850E+01 -0.14310999074E+01 -0.98244997795E+01  0.11450722298E+02  0.51100000000E-03 0.  1.
        -12    1    3    3    0    0 -0.19422722516E+02 -0.60590009279E+01 -0.11106951172E+02  0.23180120934E+02  0.00000000000E+00 0.  1.
</event>
<event>
 7    1  0.3981356E-008  0.4614232E+02  0.7816164E-02  0.1320468E+00
        -11   -1    0    0    0    0  0.00000000000E+00  0.00000000000E+00  0.45593999997E+02  0.45594000000E+02  0.51100000000E-03 0.  1.
         11   -1    0    0    0    0 -0.00000000000E+00 -0.00000000000E+00 -0.45593999997E+02  0.45594000000E+02  0.51100000000E-03 0. -1.
    9900012    2    1    2    0    0 -0.25025247820E+02  0.34177770256E+02 -0.15320919917E+02  0.46142316575E+02  0.99999891828E+01 0.  0.
        -12    1    1    2    0    0  0.25025247820E+02 -0.34177770256E+02  0.15320919917E+02  0.45045683425E+02  0.00000000000E+00 0.  1.
         11    1    3    3    0    0 -0.56508760762E+01  0.72374953889E+01 -0.52457693938E+01  0.10575057292E+02  0.51100000000E-03 0. -1.
        -11    1    3    3    0    0 -0.45308237931E+01  0.96060394447E+01 -0.65423590797E+01  0.12474246296E+02  0.51100000000E-03 0.  1.
         12    1    3    3    0    0 -0.14843547950E+02  0.17334235423E+02 -0.35327914437E+01  0.23093012987E+02  0.00000000000E+00 0. -1.
</event>
<event>
 7    1  0.3981356E-008  0.4614232E+02  0.7816164E-02  0.1320468E+00
        -11   -1    0    0    0    0  0.00000000000E+00  0.00000000000E+00  0.45593999997E+02  0.45594000000E+02  0.51100000000E-03 0.  1.
         11   -1    0    0    0    0 -0.00000000000E+00 -0.00000000000E+00 -0.45593999997E+02  0.45594000000E+02  0.51100000000E-03 0. -1.
    9900012    2    1    2    0    0  0.18278234214E+02  0.34973342687E+02 -0.21722906327E+02  0.46142320918E+02  0.10000028786E+02 0.  0.
        -12    1    1    2    0    0 -0.18278234214E+02 -0.34973342687E+02  0.21722906327E+02  0.45045679082E+02  0.00000000000E+00 0.  1.
         11    1    3    3    0    0  0.29203301899E+01  0.55839865577E+01 -0.64104239698E+01  0.89890361012E+01  0.51100000000E-03 0. -1.
        -11    1    3    3    0    0  0.76388069883E+01  0.20753399183E+02 -0.83477760784E+01  0.23637688456E+02  0.51100000000E-03 0.  1.
        -12    1    3    3    0    0  0.77190970354E+01  0.86359569465E+01 -0.69647062789E+01  0.13515596360E+02  0.00000000000E+00 0.  1.
</event>
<event>
 7    1  0.3981356E-008  0.4614232E+02  0.7816164E-02  0.1320468E+00
        -11   -1    0    0    0    0  0.00000000000E+00  0.00000000000E+00  0.45593999997E+02  0.45594000000E+02  0.51100000000E-03 0.  1.
         11   -1    0    0    0    0 -0.00000000000E+00 -0.00000000000E+00 -0.45593999997E+02  0.45594000000E+02  0.51100000000E-03 0. -1.
    9900012    2    1    2    0    0  0.16122781328E+02 -0.17477564224E+02 -0.38258387671E+02  0.46142317009E+02  0.99999931431E+01 0.  0.
        -12    1    1    2    0    0 -0.16122781328E+02  0.17477564224E+02  0.38258387671E+02  0.45045682991E+02  0.00000000000E+00 0.  1.
         11    1    3    3    0    0  0.67990259543E+01 -0.24654187819E+01 -0.74309574970E+01  0.10369386350E+02  0.51100000000E-03 0.  1.
        -11    1    3    3    0    0  0.13248299360E+01 -0.51047923537E+01 -0.70966078231E+01  0.88417148897E+01  0.51100000000E-03 0. -1.
        -12    1    3    3    0    0  0.79989254376E+01 -0.99073530882E+01 -0.23730822351E+02  0.26931215769E+02  0.00000000000E+00 0.  1.
</event>
<event>
 7    1  0.3981356E-008  0.4614232E+02  0.7816164E-02  0.1320468E+00
        -11   -1    0    0    0    0  0.00000000000E+00  0.00000000000E+00  0.45593999997E+02  0.45594000000E+02  0.51100000000E-03 0.  1.
         11   -1    0    0    0    0 -0.00000000000E+00 -0.00000000000E+00 -0.45593999997E+02  0.45594000000E+02  0.51100000000E-03 0. -1.
    9900012    2    1    2    0    0 -0.37355748801E+01  0.19520516906E+02 -0.40424107043E+02  0.46142317297E+02  0.99999957646E+01 0.  0.
        -12    1    1    2    0    0  0.37355748801E+01 -0.19520516906E+02  0.40424107043E+02  0.45045682703E+02  0.00000000000E+00 0.  1.
         11    1    3    3    0    0 -0.28356026036E+01  0.83571204920E+01 -0.10436436739E+02  0.13667527834E+02  0.51100000000E-03 0. -1.
        -11    1    3    3    0    0 -0.18422348413E+01  0.86395061520E+01 -0.16451752848E+02  0.18673378585E+02  0.51100000000E-03 0.  1.
        -12    1    3    3    0    0  0.94226256484E+00  0.25238902620E+01 -0.13535917457E+02  0.13801410877E+02  0.00000000000E+00 0.  1.
</event>
<event>
 7    1  0.3981356E-008  0.4614232E+02  0.7816164E-02  0.1320468E+00
        -11   -1    0    0    0    0  0.00000000000E+00  0.00000000000E+00  0.45593999997E+02  0.45594000000E+02  0.51100000000E-03 0.  1.
         11   -1    0    0    0    0 -0.00000000000E+00 -0.00000000000E+00 -0.45593999997E+02  0.45594000000E+02  0.51100000000E-03 0. -1.
    9900012    2    1    2    0    0 -0.80620276982E+01  0.27588119295E+02 -0.34684477661E+02  0.46142316439E+02  0.99999879479E+01 0.  0.
        -12    1    1    2    0    0  0.80620276982E+01 -0.27588119295E+02  0.34684477661E+02  0.45045683561E+02  0.00000000000E+00 0.  1.
         11    1    3    3    0    0 -0.49420172552E+01  0.63475868124E+01 -0.61483307476E+01  0.10125085883E+02  0.51100000000E-03 0. -1.
        -11    1    3    3    0    0 -0.25933240994E+01  0.50253988997E+01 -0.59554936375E+01  0.82126651407E+01  0.51100000000E-03 0.  1.
         12    1    3    3    0    0 -0.52668634363E+00  0.16215133583E+02 -0.22580653275E+02  0.27804565416E+02  0.00000000000E+00 0. -1.
</event>
<event>
 7    1  0.3981356E-008  0.4614232E+02  0.7816164E-02  0.1320468E+00
        -11   -1    0    0    0    0  0.00000000000E+00  0.00000000000E+00  0.45593999997E+02  0.45594000000E+02  0.51100000000E-03 0.  1.
         11   -1    0    0    0    0 -0.00000000000E+00 -0.00000000000E+00 -0.45593999997E+02  0.45594000000E+02  0.51100000000E-03 0. -1.
    9900012    2    1    2    0    0 -0.25165018891E+02  0.11518240428E+02 -0.35541038749E+02  0.46142317924E+02  0.10000001484E+02 0.  0.
        -12    1    1    2    0    0  0.25165018891E+02 -0.11518240428E+02  0.35541038749E+02  0.45045682076E+02  0.00000000000E+00 0.  1.
         11    1    3    3    0    0 -0.13100975807E+02  0.13367767716E+01 -0.13077974476E+02  0.18559524668E+02  0.51100000000E-03 0. -1.
        -11    1    3    3    0    0 -0.17013327728E+01  0.20512881509E+01 -0.24234526462E+01  0.36021437050E+01  0.51100000000E-03 0.  1.
         12    1    3    3    0    0 -0.10362710311E+02  0.81301755059E+01 -0.20039611626E+02  0.23980649551E+02  0.00000000000E+00 0. -1.
</event>
<event>
 7    1  0.3981356E-008  0.4614232E+02  0.7816164E-02  0.1320468E+00
        -11   -1    0    0    0    0  0.00000000000E+00  0.00000000000E+00  0.45593999997E+02  0.45594000000E+02  0.51100000000E-03 0.  1.
         11   -1    0    0    0    0 -0.00000000000E+00 -0.00000000000E+00 -0.45593999997E+02  0.45594000000E+02  0.51100000000E-03 0. -1.
    9900012    2    1    2    0    0 -0.14931371319E+02  0.10516210031E+02 -0.41177382884E+02  0.46142318919E+02  0.10000010559E+02 0.  0.
        -12    1    1    2    0    0  0.14931371319E+02 -0.10516210031E+02  0.41177382884E+02  0.45045681081E+02  0.00000000000E+00 0.  1.
         11    1    3    3    0    0 -0.87609975104E+01  0.34727940638E+01 -0.20332205099E+02  0.22410130308E+02  0.51100000000E-03 0. -1.
        -11    1    3    3    0    0  0.40544715114E+00  0.23556870562E+00  0.30590037440E+00  0.55987079546E+00  0.51100000000E-03 0.  1.
         12    1    3    3    0    0 -0.65758209593E+01  0.68078472620E+01 -0.21151078160E+02  0.23172317816E+02  0.00000000000E+00 0. -1.
</event>
<event>
 7    1  0.3981356E-008  0.4614232E+02  0.7816164E-02  0.1320468E+00
        -11   -1    0    0    0    0  0.00000000000E+00  0.00000000000E+00  0.45593999997E+02  0.45594000000E+02  0.51100000000E-03 0.  1.
         11   -1    0    0    0    0 -0.00000000000E+00 -0.00000000000E+00 -0.45593999997E+02  0.45594000000E+02  0.51100000000E-03 0. -1.
    9900012    2    1    2    0    0  0.31475344372E+02 -0.19751906761E+02 -0.25461308445E+02  0.46142319278E+02  0.10000013828E+02 0.  0.
        -12    1    1    2    0    0 -0.31475344372E+02  0.19751906761E+02  0.25461308445E+02  0.45045680722E+02  0.00000000000E+00 0.  1.
         11    1    3    3    0    0  0.64970374516E+01 -0.10801260345E+01 -0.68524319820E+01  0.95044196155E+01  0.51100000000E-03 0. -1.
        -11    1    3    3    0    0  0.17528311961E+00 -0.47910164051E+00 -0.11752921320E+01  0.12812394041E+01  0.51100000000E-03 0.  1.
         12    1    3    3    0    0  0.24803023801E+02 -0.18192679086E+02 -0.17433584331E+02  0.35356660258E+02  0.00000000000E+00 0. -1.
</event>
<event>
 7    1  0.3981356E-008  0.4614232E+02  0.7816164E-02  0.1320468E+00
        -11   -1    0    0    0    0  0.00000000000E+00  0.00000000000E+00  0.45593999997E+02  0.45594000000E+02  0.51100000000E-03 0.  1.
         11   -1    0    0    0    0 -0.00000000000E+00 -0.00000000000E+00 -0.45593999997E+02  0.45594000000E+02  0.51100000000E-03 0. -1.
    9900012    2    1    2    0    0 -0.25265852874E+02 -0.89020723770E+00 -0.37282137039E+02  0.46142317270E+02  0.99999955254E+01 0.  0.
        -12    1    1    2    0    0  0.25265852874E+02  0.89020723770E+00  0.37282137039E+02  0.45045682730E+02  0.00000000000E+00 0.  1.
         11    1    3    3    0    0 -0.10281930041E+02  0.40745619432E+01 -0.13637117870E+02  0.17558220993E+02  0.51100000000E-03 0. -1.
        -11    1    3    3    0    0  0.79893885369E-01 -0.23668200759E+00 -0.20746571429E+00  0.32472094075E+00  0.51100000000E-03 0.  1.
         12    1    3    3    0    0 -0.15063816719E+02 -0.47280871733E+01 -0.23437553455E+02  0.28259375337E+02  0.00000000000E+00 0. -1.
</event>
<event>
 7    1  0.3981356E-008  0.4614232E+02  0.7816164E-02  0.1320468E+00
        -11   -1    0    0    0    0  0.00000000000E+00  0.00000000000E+00  0.45593999997E+02  0.45594000000E+02  0.51100000000E-03 0.  1.
         11   -1    0    0    0    0 -0.00000000000E+00 -0.00000000000E+00 -0.45593999997E+02  0.45594000000E+02  0.51100000000E-03 0. -1.
    9900012    2    1    2    0    0  0.11339158219E+02 -0.26571516656E+02 -0.34561416122E+02  0.46142317734E+02  0.99999997508E+01 0.  0.
        -12    1    1    2    0    0 -0.11339158219E+02  0.26571516656E+02  0.34561416122E+02  0.45045682266E+02  0.00000000000E+00 0.  1.
         11    1    3    3    0    0  0.37471364172E+01 -0.67431949971E+01 -0.12896030469E+02  0.15027285591E+02  0.51100000000E-03 0. -1.
        -11    1    3    3    0    0  0.52719292397E+01 -0.14998243891E+02 -0.19905810318E+02  0.25475122029E+02  0.51100000000E-03 0.  1.
        -12    1    3    3    0    0  0.23200925625E+01 -0.48300777677E+01 -0.17595753347E+01  0.56399101145E+01  0.00000000000E+00 0.  1.
</event>
<event>
 7    1  0.3981356E-008  0.4614232E+02  0.7816164E-02  0.1320468E+00
        -11   -1    0    0    0    0  0.00000000000E+00  0.00000000000E+00  0.45593999997E+02  0.45594000000E+02  0.51100000000E-03 0.  1.
         11   -1    0    0    0    0 -0.00000000000E+00 -0.00000000000E+00 -0.45593999997E+02  0.45594000000E+02  0.51100000000E-03 0. -1.
    9900012    2    1    2    0    0  0.31666589618E+02 -0.27867336154E+02 -0.15803548877E+02  0.46142317860E+02  0.10000000900E+02 0.  0.
        -12    1    1    2    0    0 -0.31666589618E+02  0.27867336154E+02  0.15803548877E+02  0.45045682140E+02  0.00000000000E+00 0.  1.
         11    1    3    3    0    0  0.84028865894E+01 -0.26683268428E+01 -0.46512613791E+01  0.99680842619E+01  0.51100000000E-03 0. -1.
        -11    1    3    3    0    0  0.11205204330E+02 -0.10907813464E+02 -0.62758033421E+01  0.16850006127E+02  0.51100000000E-03 0.  1.
        -12    1    3    3    0    0  0.12058498699E+02 -0.14291195847E+02 -0.48764841560E+01  0.19324227471E+02  0.00000000000E+00 0.  1.
</event>
<event>
 7    1  0.3981356E-008  0.4614232E+02  0.7816164E-02  0.1320468E+00
        -11   -1    0    0    0    0  0.00000000000E+00  0.00000000000E+00  0.45593999997E+02  0.45594000000E+02  0.51100000000E-03 0.  1.
         11   -1    0    0    0    0 -0.00000000000E+00 -0.00000000000E+00 -0.45593999997E+02  0.45594000000E+02  0.51100000000E-03 0. -1.
    9900012    2    1    2    0    0 -0.13884423736E+02 -0.25634449672E+02 -0.34339646050E+02  0.46142317374E+02  0.99999964665E+01 0.  0.
        -12    1    1    2    0    0  0.13884423736E+02  0.25634449672E+02  0.34339646050E+02  0.45045682626E+02  0.00000000000E+00 0.  1.
         11    1    3    3    0    0 -0.47051952525E+01 -0.62542986994E+01 -0.10625167701E+02  0.13196564080E+02  0.51100000000E-03 0. -1.
        -11    1    3    3    0    0 -0.10455271906E+02 -0.15146589083E+02 -0.18286164321E+02  0.25944472963E+02  0.51100000000E-03 0.  1.
         12    1    3    3    0    0  0.12760434224E+01 -0.42335618888E+01 -0.54283140277E+01  0.70012803305E+01  0.00000000000E+00 0. -1.
</event>
<event>
 7    1  0.3981356E-008  0.4614232E+02  0.7816164E-02  0.1320468E+00
        -11   -1    0    0    0    0  0.00000000000E+00  0.00000000000E+00  0.45593999997E+02  0.45594000000E+02  0.51100000000E-03 0.  1.
         11   -1    0    0    0    0 -0.00000000000E+00 -0.00000000000E+00 -0.45593999997E+02  0.45594000000E+02  0.51100000000E-03 0. -1.
    9900012    2    1    2    0    0  0.12784849641E+02 -0.27924053803E+02 -0.32953123278E+02  0.46142317688E+02  0.99999993372E+01 0.  0.
        -12    1    1    2    0    0 -0.12784849641E+02  0.27924053803E+02  0.32953123278E+02  0.45045682312E+02  0.00000000000E+00 0.  1.
         11    1    3    3    0    0 -0.16364751141E+00 -0.41092611725E+01 -0.64585415464E+01  0.76567334457E+01  0.51100000000E-03 0. -1.
        -11    1    3    3    0    0  0.90943285116E+01 -0.16028465330E+02 -0.22016475577E+02  0.28711386400E+02  0.51100000000E-03 0.  1.
        -12    1    3    3    0    0  0.38541686412E+01 -0.77863272997E+01 -0.44781061553E+01  0.97741978429E+01  0.00000000000E+00 0.  1.
</event>
<event>
 7    1  0.3981356E-008  0.4614232E+02  0.7816164E-02  0.1320468E+00
        -11   -1    0    0    0    0  0.00000000000E+00  0.00000000000E+00  0.45593999997E+02  0.45594000000E+02  0.51100000000E-03 0.  1.
         11   -1    0    0    0    0 -0.00000000000E+00 -0.00000000000E+00 -0.45593999997E+02  0.45594000000E+02  0.51100000000E-03 0. -1.
    9900012    2    1    2    0    0  0.74783948371E+01  0.30749214291E+02 -0.32057339127E+02  0.46142316957E+02  0.99999926710E+01 0.  0.
        -12    1    1    2    0    0 -0.74783948371E+01 -0.30749214291E+02  0.32057339127E+02  0.45045683043E+02  0.00000000000E+00 0.  1.
         11    1    3    3    0    0 -0.68830071710E+00  0.82487845183E+00 -0.21287366449E+01  0.23844710738E+01  0.51100000000E-03 0. -1.
        -11    1    3    3    0    0  0.57738438144E+01  0.10735252663E+02 -0.83105658183E+01  0.14752912479E+02  0.51100000000E-03 0.  1.
         12    1    3    3    0    0  0.23928517397E+01  0.19189083176E+02 -0.21618036664E+02  0.29004933404E+02  0.00000000000E+00 0. -1.
</event>
<event>
 7    1  0.3981356E-008  0.4614231E+02  0.7816164E-02  0.1320468E+00
        -11   -1    0    0    0    0  0.00000000000E+00  0.00000000000E+00  0.45593999997E+02  0.45594000000E+02  0.51100000000E-03 0. -1.
         11   -1    0    0    0    0 -0.00000000000E+00 -0.00000000000E+00 -0.45593999997E+02  0.45594000000E+02  0.51100000000E-03 0.  1.
    9900012    2    1    2    0    0 -0.38827284095E+02  0.22138561245E+02  0.56071688884E+01  0.46142309561E+02  0.99999252212E+01 0.  0.
        -12    1    1    2    0    0  0.38827284095E+02 -0.22138561245E+02 -0.56071688884E+01  0.45045690439E+02  0.00000000000E+00 0.  1.
         11    1    3    3    0    0 -0.23337477837E+02  0.12815442190E+02  0.37804714084E+01  0.26891734690E+02  0.51100000000E-03 0. -1.
        -11    1    3    3    0    0 -0.16875764693E+01 -0.29998557216E+00 -0.12815302538E+01  0.21401461950E+01  0.51100000000E-03 0.  1.
         12    1    3    3    0    0 -0.13802229789E+02  0.96231046269E+01  0.31082277339E+01  0.17110428675E+02  0.00000000000E+00 0. -1.
</event>
<event>
 7    1  0.3981356E-008  0.4614232E+02  0.7816164E-02  0.1320468E+00
        -11   -1    0    0    0    0  0.00000000000E+00  0.00000000000E+00  0.45593999997E+02  0.45594000000E+02  0.51100000000E-03 0.  1.
         11   -1    0    0    0    0 -0.00000000000E+00 -0.00000000000E+00 -0.45593999997E+02  0.45594000000E+02  0.51100000000E-03 0. -1.
    9900012    2    1    2    0    0  0.23078940495E+02 -0.12910060241E+02 -0.36466512367E+02  0.46142315701E+02  0.99999812106E+01 0.  0.
        -12    1    1    2    0    0 -0.23078940495E+02  0.12910060241E+02  0.36466512367E+02  0.45045684299E+02  0.00000000000E+00 0.  1.
         11    1    3    3    0    0  0.82017479913E+01 -0.10026592390E+01 -0.96689149985E+01  0.12718565688E+02  0.51100000000E-03 0. -1.
        -11    1    3    3    0    0 -0.36574619887E+00  0.46847963716E-01 -0.13918985128E-01  0.36899730752E+00  0.51100000000E-03 0.  1.
         12    1    3    3    0    0  0.15242938703E+02 -0.11954248966E+02 -0.26783678383E+02  0.33054752705E+02  0.00000000000E+00 0. -1.
</event>
<event>
 7    1  0.3981356E-008  0.4614232E+02  0.7816164E-02  0.1320468E+00
        -11   -1    0    0    0    0  0.00000000000E+00  0.00000000000E+00  0.45593999997E+02  0.45594000000E+02  0.51100000000E-03 0. -1.
         11   -1    0    0    0    0 -0.00000000000E+00 -0.00000000000E+00 -0.45593999997E+02  0.45594000000E+02  0.51100000000E-03 0.  1.
    9900012    2    1    2    0    0  0.10860471806E+02 -0.43179767014E+02 -0.68316428542E+01  0.46142317950E+02  0.10000001725E+02 0.  0.
        -12    1    1    2    0    0 -0.10860471806E+02  0.43179767014E+02  0.68316428542E+01  0.45045682050E+02  0.00000000000E+00 0.  1.
         11    1    3    3    0    0  0.34806541476E+01 -0.11045358486E+02 -0.43768235222E+01  0.12380286014E+02  0.51100000000E-03 0. -1.
        -11    1    3    3    0    0 -0.45409549554E-01 -0.11662653758E+01 -0.15016530972E+01  0.19018935931E+01  0.51100000000E-03 0.  1.
         12    1    3    3    0    0  0.74252272081E+01 -0.30968143152E+02 -0.95316623482E+00  0.31860138343E+02  0.00000000000E+00 0. -1.
</event>
<event>
 7    1  0.3981356E-008  0.4614232E+02  0.7816164E-02  0.1320468E+00
        -11   -1    0    0    0    0  0.00000000000E+00  0.00000000000E+00  0.45593999997E+02  0.45594000000E+02  0.51100000000E-03 0.  1.
         11   -1    0    0    0    0 -0.00000000000E+00 -0.00000000000E+00 -0.45593999997E+02  0.45594000000E+02  0.51100000000E-03 0. -1.
    9900012    2    1    2    0    0 -0.14021239458E+01  0.11444599916E+02 -0.43545019315E+02  0.46142317344E+02  0.99999961991E+01 0.  0.
        -12    1    1    2    0    0  0.14021239458E+01 -0.11444599916E+02  0.43545019315E+02  0.45045682656E+02  0.00000000000E+00 0.  1.
         11    1    3    3    0    0 -0.95412173372E+00  0.39758359705E+01 -0.14020920340E+02  0.14604924765E+02  0.51100000000E-03 0. -1.
        -11    1    3    3    0    0 -0.36385729920E+01  0.86293682856E+00 -0.92821080824E+01  0.10007067707E+02  0.51100000000E-03 0.  1.
        -12    1    3    3    0    0  0.31905707800E+01  0.66058271172E+01 -0.20241990892E+02  0.21530324872E+02  0.00000000000E+00 0.  1.
</event>
<event>
 7    1  0.3981356E-008  0.4614232E+02  0.7816164E-02  0.1320468E+00
        -11   -1    0    0    0    0  0.00000000000E+00  0.00000000000E+00  0.45593999997E+02  0.45594000000E+02  0.51100000000E-03 0.  1.
         11   -1    0    0    0    0 -0.00000000000E+00 -0.00000000000E+00 -0.45593999997E+02  0.45594000000E+02  0.51100000000E-03 0. -1.
    9900012    2    1    2    0    0 -0.27138785386E+02  0.20215635425E+02 -0.29730924291E+02  0.46142318220E+02  0.10000004180E+02 0.  0.
        -12    1    1    2    0    0  0.27138785386E+02 -0.20215635425E+02  0.29730924291E+02  0.45045681780E+02  0.00000000000E+00 0.  1.
         11    1    3    3    0    0 -0.50163853498E+01  0.22703080525E+01 -0.21406032185E+01  0.59076732333E+01  0.51100000000E-03 0.  1.
        -11    1    3    3    0    0 -0.78482317834E+01  0.61200580123E+01 -0.54068387023E+01  0.11326241972E+02  0.51100000000E-03 0. -1.
        -12    1    3    3    0    0 -0.14274168253E+02  0.11825269361E+02 -0.22183482370E+02  0.28908403014E+02  0.00000000000E+00 0.  1.
</event>
<event>
 7    1  0.3981356E-008  0.4614232E+02  0.7816164E-02  0.1320468E+00
        -11   -1    0    0    0    0  0.00000000000E+00  0.00000000000E+00  0.45593999997E+02  0.45594000000E+02  0.51100000000E-03 0.  1.
         11   -1    0    0    0    0 -0.00000000000E+00 -0.00000000000E+00 -0.45593999997E+02  0.45594000000E+02  0.51100000000E-03 0. -1.
    9900012    2    1    2    0    0 -0.13449628749E+02 -0.36475531796E+01 -0.42835923329E+02  0.46142317797E+02  0.10000000325E+02 0.  0.
        -12    1    1    2    0    0  0.13449628749E+02  0.36475531796E+01  0.42835923329E+02  0.45045682203E+02  0.00000000000E+00 0.  1.
         11    1    3    3    0    0 -0.44043050599E+01  0.84472563192E+00 -0.10527792400E+02  0.11443158547E+02  0.51100000000E-03 0. -1.
        -11    1    3    3    0    0 -0.35122674883E+01  0.20676126675E+01 -0.10498362610E+02  0.11261734449E+02  0.51100000000E-03 0.  1.
        -12    1    3    3    0    0 -0.55330562010E+01 -0.65598914791E+01 -0.21809768320E+02  0.23437424801E+02  0.00000000000E+00 0.  1.
</event>
<event>
 7    1  0.3981356E-008  0.4614232E+02  0.7816164E-02  0.1320468E+00
        -11   -1    0    0    0    0  0.00000000000E+00  0.00000000000E+00  0.45593999997E+02  0.45594000000E+02  0.51100000000E-03 0.  1.
         11   -1    0    0    0    0 -0.00000000000E+00 -0.00000000000E+00 -0.45593999997E+02  0.45594000000E+02  0.51100000000E-03 0. -1.
    9900012    2    1    2    0    0 -0.25213050606E+02  0.20088431427E+02 -0.31462206379E+02  0.46142318428E+02  0.10000006082E+02 0.  0.
        -12    1    1    2    0    0  0.25213050606E+02 -0.20088431427E+02  0.31462206379E+02  0.45045681572E+02  0.00000000000E+00 0.  1.
         11    1    3    3    0    0 -0.12745576645E+02  0.57531410631E+01 -0.12057202801E+02  0.18464140807E+02  0.51100000000E-03 0. -1.
        -11    1    3    3    0    0 -0.45715221784E+01  0.36032725708E+01 -0.92357761418E+01  0.10917048569E+02  0.51100000000E-03 0.  1.
        -12    1    3    3    0    0 -0.78959517828E+01  0.10732017793E+02 -0.10169227436E+02  0.16761129052E+02  0.00000000000E+00 0.  1.
</event>
<event>
 7    1  0.3981356E-008  0.4614232E+02  0.7816164E-02  0.1320468E+00
        -11   -1    0    0    0    0  0.00000000000E+00  0.00000000000E+00  0.45593999997E+02  0.45594000000E+02  0.51100000000E-03 0.  1.
         11   -1    0    0    0    0 -0.00000000000E+00 -0.00000000000E+00 -0.45593999997E+02  0.45594000000E+02  0.51100000000E-03 0. -1.
    9900012    2    1    2    0    0  0.19958703915E+02 -0.16333794062E+01 -0.40349666860E+02  0.46142318675E+02  0.10000008337E+02 0.  0.
        -12    1    1    2    0    0 -0.19958703915E+02  0.16333794062E+01  0.40349666860E+02  0.45045681325E+02  0.00000000000E+00 0.  1.
         11    1    3    3    0    0  0.38851700525E+01 -0.31009265398E+01 -0.88927050000E+01  0.10187761983E+02  0.51100000000E-03 0. -1.
        -11    1    3    3    0    0  0.69251384131E+01 -0.43470072696E+00 -0.73884460672E+01  0.10135859229E+02  0.51100000000E-03 0.  1.
        -12    1    3    3    0    0  0.91483954496E+01  0.19022478605E+01 -0.24068515793E+02  0.25818697463E+02  0.00000000000E+00 0.  1.
</event>
<event>
 7    1  0.3981356E-008  0.4614231E+02  0.7816164E-02  0.1320468E+00
        -11   -1    0    0    0    0  0.00000000000E+00  0.00000000000E+00  0.45593999997E+02  0.45594000000E+02  0.51100000000E-03 0. -1.
         11   -1    0    0    0    0 -0.00000000000E+00 -0.00000000000E+00 -0.45593999997E+02  0.45594000000E+02  0.51100000000E-03 0.  1.
    9900012    2    1    2    0    0  0.29640114459E+01  0.40153064841E+02  0.20200496729E+02  0.46142311549E+02  0.99999433504E+01 0.  0.
        -12    1    1    2    0    0 -0.29640114459E+01 -0.40153064841E+02 -0.20200496729E+02  0.45045688451E+02  0.00000000000E+00 0.  1.
         11    1    3    3    0    0 -0.32264894370E+00  0.44042286954E+01  0.49063631023E+01  0.66010402131E+01  0.51100000000E-03 0. -1.
        -11    1    3    3    0    0  0.10366139575E+01  0.32291621244E+02  0.14065780807E+02  0.35237331923E+02  0.51100000000E-03 0.  1.
        -12    1    3    3    0    0  0.22500464320E+01  0.34572149011E+01  0.12283528197E+01  0.43039394127E+01  0.00000000000E+00 0.  1.
</event>
<event>
 7    1  0.3981356E-008  0.4614232E+02  0.7816164E-02  0.1320468E+00
        -11   -1    0    0    0    0  0.00000000000E+00  0.00000000000E+00  0.45593999997E+02  0.45594000000E+02  0.51100000000E-03 0.  1.
         11   -1    0    0    0    0 -0.00000000000E+00 -0.00000000000E+00 -0.45593999997E+02  0.45594000000E+02  0.51100000000E-03 0. -1.
    9900012    2    1    2    0    0  0.22329847084E+02 -0.37638420979E+02 -0.10669615202E+02  0.46142317708E+02  0.99999995195E+01 0.  0.
        -12    1    1    2    0    0 -0.22329847084E+02  0.37638420979E+02  0.10669615202E+02  0.45045682292E+02  0.00000000000E+00 0.  1.
         11    1    3    3    0    0  0.76253861169E+01 -0.18551348488E+02 -0.56124188745E+01  0.20827824900E+02  0.51100000000E-03 0. -1.
        -11    1    3    3    0    0  0.17559016523E+01 -0.44016366850E+01  0.95341445698E+00  0.48339006514E+01  0.51100000000E-03 0.  1.
         12    1    3    3    0    0  0.12948559314E+02 -0.14685435806E+02 -0.60106107849E+01  0.20480592157E+02  0.00000000000E+00 0. -1.
</event>
<event>
 7    1  0.3981356E-008  0.4614232E+02  0.7816164E-02  0.1320468E+00
        -11   -1    0    0    0    0  0.00000000000E+00  0.00000000000E+00  0.45593999997E+02  0.45594000000E+02  0.51100000000E-03 0.  1.
         11   -1    0    0    0    0 -0.00000000000E+00 -0.00000000000E+00 -0.45593999997E+02  0.45594000000E+02  0.51100000000E-03 0. -1.
    9900012    2    1    2    0    0 -0.17420552211E+02  0.19964969131E+02 -0.36428530996E+02  0.46142317606E+02  0.99999985874E+01 0.  0.
        -12    1    1    2    0    0  0.17420552211E+02 -0.19964969131E+02  0.36428530996E+02  0.45045682394E+02  0.00000000000E+00 0.  1.
         11    1    3    3    0    0 -0.34928533364E+01  0.42717785334E+01 -0.58299563247E+01  0.80272353446E+01  0.51100000000E-03 0. -1.
        -11    1    3    3    0    0 -0.12157026690E+02  0.11051170789E+02 -0.17019000758E+02  0.23655190991E+02  0.51100000000E-03 0.  1.
        -12    1    3    3    0    0 -0.17706721853E+01  0.46420198090E+01 -0.13579573913E+02  0.14459891271E+02  0.00000000000E+00 0.  1.
</event>
<event>
 7    1  0.3981356E-008  0.4614232E+02  0.7816164E-02  0.1320468E+00
        -11   -1    0    0    0    0  0.00000000000E+00  0.00000000000E+00  0.45593999997E+02  0.45594000000E+02  0.51100000000E-03 0.  1.
         11   -1    0    0    0    0 -0.00000000000E+00 -0.00000000000E+00 -0.45593999997E+02  0.45594000000E+02  0.51100000000E-03 0. -1.
    9900012    2    1    2    0    0  0.42758705710E+02  0.14170406666E+02  0.78338194936E-01  0.46142317899E+02  0.10000001258E+02 0.  0.
        -12    1    1    2    0    0 -0.42758705710E+02 -0.14170406666E+02 -0.78338194936E-01  0.45045682101E+02  0.00000000000E+00 0.  1.
         11    1    3    3    0    0  0.34260905249E+02  0.12108334389E+02  0.10857347399E+01  0.36353819749E+02  0.51100000000E-03 0. -1.
        -11    1    3    3    0    0  0.54404180814E+00 -0.10385463278E+01 -0.36361072283E+00  0.12275068158E+01  0.51100000000E-03 0.  1.
        -12    1    3    3    0    0  0.79537586527E+01  0.31006186048E+01 -0.64378582213E+00  0.85609913341E+01  0.00000000000E+00 0.  1.
</event>
<event>
 7    1  0.3981356E-008  0.4614232E+02  0.7816164E-02  0.1320468E+00
        -11   -1    0    0    0    0  0.00000000000E+00  0.00000000000E+00  0.45593999997E+02  0.45594000000E+02  0.51100000000E-03 0.  1.
         11   -1    0    0    0    0 -0.00000000000E+00 -0.00000000000E+00 -0.45593999997E+02  0.45594000000E+02  0.51100000000E-03 0. -1.
    9900012    2    1    2    0    0  0.35016312775E+00  0.45041502955E+02 -0.50396933367E+00  0.46142316658E+02  0.99999899418E+01 0.  0.
        -12    1    1    2    0    0 -0.35016312775E+00 -0.45041502955E+02  0.50396933367E+00  0.45045683342E+02  0.00000000000E+00 0.  1.
         11    1    3    3    0    0 -0.10321883284E+01  0.13803531061E+02  0.28124718656E+01  0.14124902858E+02  0.51100000000E-03 0.  1.
        -11    1    3    3    0    0  0.18159632399E+01  0.13305069505E+02  0.13102824147E+01  0.13492199127E+02  0.51100000000E-03 0. -1.
        -12    1    3    3    0    0 -0.43361178377E+00  0.17932902389E+02 -0.46267236140E+01  0.18525214673E+02  0.00000000000E+00 0.  1.
</event>
<event>
 7    1  0.3981356E-008  0.4614232E+02  0.7816164E-02  0.1320468E+00
        -11   -1    0    0    0    0  0.00000000000E+00  0.00000000000E+00  0.45593999997E+02  0.45594000000E+02  0.51100000000E-03 0. -1.
         11   -1    0    0    0    0 -0.00000000000E+00 -0.00000000000E+00 -0.45593999997E+02  0.45594000000E+02  0.51100000000E-03 0.  1.
    9900012    2    1    2    0    0  0.51293187887E+01 -0.42138230216E+02  0.15072265071E+02  0.46142317284E+02  0.99999956462E+01 0.  0.
        -12    1    1    2    0    0 -0.51293187887E+01  0.42138230216E+02 -0.15072265071E+02  0.45045682716E+02  0.00000000000E+00 0.  1.
         11    1    3    3    0    0  0.23347793199E+01 -0.92939285892E+01  0.25231233753E+01  0.99093115262E+01  0.51100000000E-03 0.  1.
        -11    1    3    3    0    0  0.15350810373E+01 -0.16873082045E+02  0.20218519061E+01  0.17062979132E+02  0.51100000000E-03 0. -1.
         12    1    3    3    0    0  0.12594584315E+01 -0.15971219582E+02  0.10527289790E+02  0.19170026625E+02  0.00000000000E+00 0. -1.
</event>
<event>
 7    1  0.3981356E-008  0.4614232E+02  0.7816164E-02  0.1320468E+00
        -11   -1    0    0    0    0  0.00000000000E+00  0.00000000000E+00  0.45593999997E+02  0.45594000000E+02  0.51100000000E-03 0.  1.
         11   -1    0    0    0    0 -0.00000000000E+00 -0.00000000000E+00 -0.45593999997E+02  0.45594000000E+02  0.51100000000E-03 0. -1.
    9900012    2    1    2    0    0 -0.18914951691E+02  0.21814586328E+02 -0.34575452559E+02  0.46142317701E+02  0.99999994533E+01 0.  0.
        -12    1    1    2    0    0  0.18914951691E+02 -0.21814586328E+02  0.34575452559E+02  0.45045682299E+02  0.00000000000E+00 0.  1.
         11    1    3    3    0    0 -0.50273468652E+01  0.39207655607E+01 -0.76704498386E+01  0.99740874306E+01  0.51100000000E-03 0. -1.
        -11    1    3    3    0    0  0.92678902259E+00  0.14341341533E+00 -0.18603701943E+01  0.20833825431E+01  0.51100000000E-03 0.  1.
         12    1    3    3    0    0 -0.14814393848E+02  0.17750407352E+02 -0.25044632526E+02  0.34084847728E+02  0.00000000000E+00 0. -1.
</event>
<event>
 7    1  0.3981356E-008  0.4614232E+02  0.7816164E-02  0.1320468E+00
        -11   -1    0    0    0    0  0.00000000000E+00  0.00000000000E+00  0.45593999997E+02  0.45594000000E+02  0.51100000000E-03 0.  1.
         11   -1    0    0    0    0 -0.00000000000E+00 -0.00000000000E+00 -0.45593999997E+02  0.45594000000E+02  0.51100000000E-03 0. -1.
    9900012    2    1    2    0    0  0.93338704310E+01  0.16832068370E+02 -0.40726817831E+02  0.46142319258E+02  0.10000013652E+02 0.  0.
        -12    1    1    2    0    0 -0.93338704310E+01 -0.16832068370E+02  0.40726817831E+02  0.45045680742E+02  0.00000000000E+00 0.  1.
         11    1    3    3    0    0  0.24182233333E+01  0.73831550197E+01 -0.12436513514E+02  0.14663752957E+02  0.51100000000E-03 0.  1.
        -11    1    3    3    0    0 -0.78557316743E+00 -0.36723493788E+00 -0.48271361938E+01  0.49044093218E+01  0.51100000000E-03 0. -1.
         12    1    3    3    0    0  0.77012202651E+01  0.98161482886E+01 -0.23463168123E+02  0.26574156979E+02  0.00000000000E+00 0. -1.
</event>
<event>
 7    1  0.3981356E-008  0.4614232E+02  0.7816164E-02  0.1320468E+00
        -11   -1    0    0    0    0  0.00000000000E+00  0.00000000000E+00  0.45593999997E+02  0.45594000000E+02  0.51100000000E-03 0.  1.
         11   -1    0    0    0    0 -0.00000000000E+00 -0.00000000000E+00 -0.45593999997E+02  0.45594000000E+02  0.51100000000E-03 0. -1.
    9900012    2    1    2    0    0  0.55818371204E+01 -0.16691531241E+02 -0.41465038942E+02  0.46142316796E+02  0.99999912023E+01 0.  0.
        -12    1    1    2    0    0 -0.55818371204E+01  0.16691531241E+02  0.41465038942E+02  0.45045683204E+02  0.00000000000E+00 0.  1.
         11    1    3    3    0    0  0.22814933401E+01 -0.25362572041E+01 -0.16206537604E+02  0.16561692964E+02  0.51100000000E-03 0. -1.
        -11    1    3    3    0    0 -0.61196647901E-01 -0.71722201029E+01 -0.85346263640E+01  0.11148288374E+02  0.51100000000E-03 0.  1.
         12    1    3    3    0    0  0.33615404282E+01 -0.69830539343E+01 -0.16723874975E+02  0.18432335459E+02  0.00000000000E+00 0. -1.
</event>
<event>
 7    1  0.3981356E-008  0.4614231E+02  0.7816164E-02  0.1320468E+00
        -11   -1    0    0    0    0  0.00000000000E+00  0.00000000000E+00  0.45593999997E+02  0.45594000000E+02  0.51100000000E-03 0.  1.
         11   -1    0    0    0    0 -0.00000000000E+00 -0.00000000000E+00 -0.45593999997E+02  0.45594000000E+02  0.51100000000E-03 0. -1.
    9900012    2    1    2    0    0  0.33121820823E+02  0.27486890358E+02 -0.13286453356E+02  0.46142312094E+02  0.99999483188E+01 0.  0.
        -12    1    1    2    0    0 -0.33121820823E+02 -0.27486890358E+02  0.13286453356E+02  0.45045687906E+02  0.00000000000E+00 0.  1.
         11    1    3    3    0    0  0.10915025100E+02  0.92600757844E+01 -0.22151280560E+01  0.14484252450E+02  0.51100000000E-03 0. -1.
        -11    1    3    3    0    0  0.81756312506E+01  0.47112072457E+01 -0.70162799955E+01  0.11758597080E+02  0.51100000000E-03 0.  1.
        -12    1    3    3    0    0  0.14031164473E+02  0.13515607328E+02 -0.40550453043E+01  0.19899462564E+02  0.00000000000E+00 0.  1.
</event>
<event>
 7    1  0.3981356E-008  0.4614232E+02  0.7816164E-02  0.1320468E+00
        -11   -1    0    0    0    0  0.00000000000E+00  0.00000000000E+00  0.45593999997E+02  0.45594000000E+02  0.51100000000E-03 0.  1.
         11   -1    0    0    0    0 -0.00000000000E+00 -0.00000000000E+00 -0.45593999997E+02  0.45594000000E+02  0.51100000000E-03 0. -1.
    9900012    2    1    2    0    0  0.35700287563E+02  0.26244551865E+01 -0.27344381858E+02  0.46142317451E+02  0.99999971678E+01 0.  0.
        -12    1    1    2    0    0 -0.35700287563E+02 -0.26244551865E+01  0.27344381858E+02  0.45045682549E+02  0.00000000000E+00 0.  1.
         11    1    3    3    0    0  0.84711024122E+01  0.18142879979E+01 -0.68008790425E+01  0.11013771971E+02  0.51100000000E-03 0. -1.
        -11    1    3    3    0    0  0.20206989081E+02 -0.28216038378E+01 -0.16549999110E+02  0.26271397503E+02  0.51100000000E-03 0.  1.
        -12    1    3    3    0    0  0.70221960701E+01  0.36317710265E+01 -0.39935037059E+01  0.88571479769E+01  0.00000000000E+00 0.  1.
</event>
<event>
 7    1  0.3981356E-008  0.4614232E+02  0.7816164E-02  0.1320468E+00
        -11   -1    0    0    0    0  0.00000000000E+00  0.00000000000E+00  0.45593999997E+02  0.45594000000E+02  0.51100000000E-03 0.  1.
         11   -1    0    0    0    0 -0.00000000000E+00 -0.00000000000E+00 -0.45593999997E+02  0.45594000000E+02  0.51100000000E-03 0. -1.
    9900012    2    1    2    0    0 -0.34462318643E+02 -0.25216787804E+02 -0.14337917033E+02  0.46142315875E+02  0.99999828034E+01 0.  0.
        -12    1    1    2    0    0  0.34462318643E+02  0.25216787804E+02  0.14337917033E+02  0.45045684125E+02  0.00000000000E+00 0.  1.
         11    1    3    3    0    0 -0.76442321199E+01 -0.66680829002E+01 -0.24997271829E+01  0.10447308291E+02  0.51100000000E-03 0. -1.
        -11    1    3    3    0    0 -0.11328133898E+02 -0.11759677586E+02 -0.29621315980E+01  0.16594904592E+02  0.51100000000E-03 0.  1.
         12    1    3    3    0    0 -0.15489952625E+02 -0.67890273178E+01 -0.88760582517E+01  0.19100102993E+02  0.00000000000E+00 0. -1.
</event>
<event>
 7    1  0.3981356E-008  0.4614231E+02  0.7816164E-02  0.1320468E+00
        -11   -1    0    0    0    0  0.00000000000E+00  0.00000000000E+00  0.45593999997E+02  0.45594000000E+02  0.51100000000E-03 0.  1.
         11   -1    0    0    0    0 -0.00000000000E+00 -0.00000000000E+00 -0.45593999997E+02  0.45594000000E+02  0.51100000000E-03 0. -1.
    9900012    2    1    2    0    0 -0.35881446854E+02 -0.17879115900E+02 -0.20541987432E+02  0.46142309181E+02  0.99999217613E+01 0.  0.
        -12    1    1    2    0    0  0.35881446854E+02  0.17879115900E+02  0.20541987432E+02  0.45045690819E+02  0.00000000000E+00 0.  1.
         11    1    3    3    0    0 -0.11327977557E+01 -0.28506875071E+01 -0.15958024201E+01  0.34577790044E+01  0.51100000000E-03 0. -1.
        -11    1    3    3    0    0 -0.17328934916E+01  0.41797309203E+00 -0.62712085344E+00  0.18896830911E+01  0.51100000000E-03 0.  1.
         12    1    3    3    0    0 -0.33015755607E+02 -0.15446401485E+02 -0.18319064158E+02  0.40794847086E+02  0.00000000000E+00 0. -1.
</event>
<event>
 7    1  0.3981356E-008  0.4614232E+02  0.7816164E-02  0.1320468E+00
        -11   -1    0    0    0    0  0.00000000000E+00  0.00000000000E+00  0.45593999997E+02  0.45594000000E+02  0.51100000000E-03 0.  1.
         11   -1    0    0    0    0 -0.00000000000E+00 -0.00000000000E+00 -0.45593999997E+02  0.45594000000E+02  0.51100000000E-03 0. -1.
    9900012    2    1    2    0    0  0.23661096909E+02  0.26360448504E+02 -0.27827910473E+02  0.46142319257E+02  0.10000013644E+02 0.  0.
        -12    1    1    2    0    0 -0.23661096909E+02 -0.26360448504E+02  0.27827910473E+02  0.45045680743E+02  0.00000000000E+00 0.  1.
         11    1    3    3    0    0  0.10198854720E+02  0.11027003209E+02 -0.96354795475E+01  0.17845276791E+02  0.51100000000E-03 0. -1.
        -11    1    3    3    0    0  0.31458009480E+01  0.17424080972E+01 -0.35651416047E+00  0.36137448982E+01  0.51100000000E-03 0.  1.
        -12    1    3    3    0    0  0.10316441241E+02  0.13591037198E+02 -0.17835916765E+02  0.24683297568E+02  0.00000000000E+00 0.  1.
</event>
<event>
 7    1  0.3981356E-008  0.4614232E+02  0.7816164E-02  0.1320468E+00
        -11   -1    0    0    0    0  0.00000000000E+00  0.00000000000E+00  0.45593999997E+02  0.45594000000E+02  0.51100000000E-03 0.  1.
         11   -1    0    0    0    0 -0.00000000000E+00 -0.00000000000E+00 -0.45593999997E+02  0.45594000000E+02  0.51100000000E-03 0. -1.
    9900012    2    1    2    0    0  0.44735388925E+01  0.38614978095E+02 -0.22759268375E+02  0.46142318959E+02  0.10000010919E+02 0.  0.
        -12    1    1    2    0    0 -0.44735388925E+01 -0.38614978095E+02  0.22759268375E+02  0.45045681041E+02  0.00000000000E+00 0.  1.
         11    1    3    3    0    0  0.48706250611E+00  0.12817947356E+02 -0.50888230173E+01  0.13799750877E+02  0.51100000000E-03 0. -1.
        -11    1    3    3    0    0  0.72047784625E+00  0.79001974151E+00 -0.29582512135E+01  0.31455476506E+01  0.51100000000E-03 0.  1.
         12    1    3    3    0    0  0.32659985402E+01  0.25007010997E+02 -0.14712194145E+02  0.29197020431E+02  0.00000000000E+00 0. -1.
</event>
<event>
 7    1  0.3981356E-008  0.4614232E+02  0.7816164E-02  0.1320468E+00
        -11   -1    0    0    0    0  0.00000000000E+00  0.00000000000E+00  0.45593999997E+02  0.45594000000E+02  0.51100000000E-03 0. -1.
         11   -1    0    0    0    0 -0.00000000000E+00 -0.00000000000E+00 -0.45593999997E+02  0.45594000000E+02  0.51100000000E-03 0.  1.
    9900012    2    1    2    0    0 -0.10801869310E+02 -0.93252548413E+01  0.42725554073E+02  0.46142315087E+02  0.99999756144E+01 0.  0.
        -12    1    1    2    0    0  0.10801869310E+02  0.93252548413E+01 -0.42725554073E+02  0.45045684913E+02  0.00000000000E+00 0.  1.
         11    1    3    3    0    0 -0.31607741311E+01 -0.56261678140E-02  0.11957679192E+02  0.12368371626E+02  0.51100000000E-03 0. -1.
        -11    1    3    3    0    0 -0.87466496348E+01 -0.89103479831E+01  0.29546821607E+02  0.32076671403E+02  0.51100000000E-03 0.  1.
        -12    1    3    3    0    0  0.11055544556E+01 -0.40928069041E+00  0.12210532745E+01  0.16972720575E+01  0.00000000000E+00 0.  1.
</event>
<event>
 7    1  0.3981356E-008  0.4614232E+02  0.7816164E-02  0.1320468E+00
        -11   -1    0    0    0    0  0.00000000000E+00  0.00000000000E+00  0.45593999997E+02  0.45594000000E+02  0.51100000000E-03 0.  1.
         11   -1    0    0    0    0 -0.00000000000E+00 -0.00000000000E+00 -0.45593999997E+02  0.45594000000E+02  0.51100000000E-03 0. -1.
    9900012    2    1    2    0    0 -0.29823083613E+02 -0.33399224988E+02 -0.49182283025E+01  0.46142317459E+02  0.99999972460E+01 0.  0.
        -12    1    1    2    0    0  0.29823083613E+02  0.33399224988E+02  0.49182283025E+01  0.45045682541E+02  0.00000000000E+00 0.  1.
         11    1    3    3    0    0 -0.59167098467E+01 -0.30242910414E+01 -0.24346711260E+01  0.70768224130E+01  0.51100000000E-03 0. -1.
        -11    1    3    3    0    0 -0.10809967103E+01 -0.29664281793E+01 -0.11891357513E+01  0.33737655708E+01  0.51100000000E-03 0.  1.
         12    1    3    3    0    0 -0.22825377056E+02 -0.27408505767E+02 -0.12944214253E+01  0.35691729475E+02  0.00000000000E+00 0. -1.
</event>
<event>
 7    1  0.3981356E-008  0.4614232E+02  0.7816164E-02  0.1320468E+00
        -11   -1    0    0    0    0  0.00000000000E+00  0.00000000000E+00  0.45593999997E+02  0.45594000000E+02  0.51100000000E-03 0.  1.
         11   -1    0    0    0    0 -0.00000000000E+00 -0.00000000000E+00 -0.45593999997E+02  0.45594000000E+02  0.51100000000E-03 0. -1.
    9900012    2    1    2    0    0  0.33733436052E+02 -0.78306817812E+01 -0.28807105475E+02  0.46142316402E+02  0.99999876043E+01 0.  0.
        -12    1    1    2    0    0 -0.33733436052E+02  0.78306817812E+01  0.28807105475E+02  0.45045683598E+02  0.00000000000E+00 0.  1.
         11    1    3    3    0    0  0.21549036233E+02 -0.32943922528E+01 -0.16124428739E+02  0.27114777987E+02  0.51100000000E-03 0. -1.
        -11    1    3    3    0    0  0.70547273538E+01 -0.34458692847E+01 -0.11010514735E+02  0.13523114588E+02  0.51100000000E-03 0.  1.
        -12    1    3    3    0    0  0.51296724653E+01 -0.10904202438E+01 -0.16721620005E+01  0.55044238268E+01  0.00000000000E+00 0.  1.
</event>
<event>
 7    1  0.3981356E-008  0.4614232E+02  0.7816164E-02  0.1320468E+00
        -11   -1    0    0    0    0  0.00000000000E+00  0.00000000000E+00  0.45593999997E+02  0.45594000000E+02  0.51100000000E-03 0. -1.
         11   -1    0    0    0    0 -0.00000000000E+00 -0.00000000000E+00 -0.45593999997E+02  0.45594000000E+02  0.51100000000E-03 0.  1.
    9900012    2    1    2    0    0 -0.10272135167E+02  0.35082310980E+02  0.26321629548E+02  0.46142317780E+02  0.10000000172E+02 0.  0.
        -12    1    1    2    0    0  0.10272135167E+02 -0.35082310980E+02 -0.26321629548E+02  0.45045682220E+02  0.00000000000E+00 0.  1.
         11    1    3    3    0    0 -0.11311025385E+01  0.11898164810E+02  0.67357932191E+01  0.13719206586E+02  0.51100000000E-03 0. -1.
        -11    1    3    3    0    0 -0.11247354339E+01  0.18580133444E+01 -0.28695686409E+00  0.21907961765E+01  0.51100000000E-03 0.  1.
         12    1    3    3    0    0 -0.80162971946E+01  0.21326132825E+02  0.19872793193E+02  0.30232315017E+02  0.00000000000E+00 0. -1.
</event>
<event>
 7    1  0.3981356E-008  0.4614232E+02  0.7816164E-02  0.1320468E+00
        -11   -1    0    0    0    0  0.00000000000E+00  0.00000000000E+00  0.45593999997E+02  0.45594000000E+02  0.51100000000E-03 0. -1.
         11   -1    0    0    0    0 -0.00000000000E+00 -0.00000000000E+00 -0.45593999997E+02  0.45594000000E+02  0.51100000000E-03 0.  1.
    9900012    2    1    2    0    0  0.13086999265E+02  0.39371523957E+02  0.17542149690E+02  0.46142318030E+02  0.10000002448E+02 0.  0.
        -12    1    1    2    0    0 -0.13086999265E+02 -0.39371523957E+02 -0.17542149690E+02  0.45045681970E+02  0.00000000000E+00 0.  1.
         11    1    3    3    0    0  0.79251441260E+01  0.21260149014E+02  0.10674920324E+02  0.25075002886E+02  0.51100000000E-03 0. -1.
        -11    1    3    3    0    0 -0.83354669667E+00  0.85135185500E+01  0.36663146211E+01  0.93068072591E+01  0.51100000000E-03 0.  1.
         12    1    3    3    0    0  0.59954018361E+01  0.95978563927E+01  0.32009147441E+01  0.11760507885E+02  0.00000000000E+00 0. -1.
</event>
<event>
 7    1  0.3981356E-008  0.4614232E+02  0.7816164E-02  0.1320468E+00
        -11   -1    0    0    0    0  0.00000000000E+00  0.00000000000E+00  0.45593999997E+02  0.45594000000E+02  0.51100000000E-03 0.  1.
         11   -1    0    0    0    0 -0.00000000000E+00 -0.00000000000E+00 -0.45593999997E+02  0.45594000000E+02  0.51100000000E-03 0. -1.
    9900012    2    1    2    0    0 -0.21436879516E+01 -0.23914548699E+02 -0.38113152364E+02  0.46142318513E+02  0.10000006861E+02 0.  0.
        -12    1    1    2    0    0  0.21436879516E+01  0.23914548699E+02  0.38113152364E+02  0.45045681487E+02  0.00000000000E+00 0.  1.
         11    1    3    3    0    0 -0.13842149053E+01 -0.73942242010E+01 -0.11040064850E+02  0.13359402479E+02  0.51100000000E-03 0. -1.
        -11    1    3    3    0    0  0.74993761518E+00 -0.14382047845E+02 -0.16547804786E+02  0.21937081623E+02  0.51100000000E-03 0.  1.
        -12    1    3    3    0    0 -0.15094106615E+01 -0.21382766528E+01 -0.10525282728E+02  0.10845834412E+02  0.00000000000E+00 0.  1.
</event>
<event>
 7    1  0.3981356E-008  0.4614231E+02  0.7816164E-02  0.1320468E+00
        -11   -1    0    0    0    0  0.00000000000E+00  0.00000000000E+00  0.45593999997E+02  0.45594000000E+02  0.51100000000E-03 0. -1.
         11   -1    0    0    0    0 -0.00000000000E+00 -0.00000000000E+00 -0.45593999997E+02  0.45594000000E+02  0.51100000000E-03 0.  1.
    9900012    2    1    2    0    0 -0.40028825232E+02 -0.21795215880E+01  0.20544016134E+02  0.46142314716E+02  0.99999722299E+01 0.  0.
        -12    1    1    2    0    0  0.40028825232E+02  0.21795215880E+01 -0.20544016134E+02  0.45045685284E+02  0.00000000000E+00 0.  1.
         11    1    3    3    0    0 -0.54345465492E+01 -0.69421846205E-01  0.13129193256E+01  0.55913212217E+01  0.51100000000E-03 0. -1.
        -11    1    3    3    0    0 -0.14932755956E+02 -0.24005161278E+00  0.13113922361E+02  0.19875104658E+02  0.51100000000E-03 0.  1.
        -12    1    3    3    0    0 -0.19661522726E+02 -0.18700481290E+01  0.61171744478E+01  0.20675888836E+02  0.00000000000E+00 0.  1.
</event>
<event>
 7    1  0.3981356E-008  0.4614232E+02  0.7816164E-02  0.1320468E+00
        -11   -1    0    0    0    0  0.00000000000E+00  0.00000000000E+00  0.45593999997E+02  0.45594000000E+02  0.51100000000E-03 0.  1.
         11   -1    0    0    0    0 -0.00000000000E+00 -0.00000000000E+00 -0.45593999997E+02  0.45594000000E+02  0.51100000000E-03 0. -1.
    9900012    2    1    2    0    0 -0.38694551507E+02  0.53221018329E+01 -0.22439259471E+02  0.46142318189E+02  0.10000003901E+02 0.  0.
        -12    1    1    2    0    0  0.38694551507E+02 -0.53221018329E+01  0.22439259471E+02  0.45045681811E+02  0.00000000000E+00 0.  1.
         11    1    3    3    0    0 -0.67008672549E+01  0.96977061710E+00 -0.37234263876E+01  0.77269645620E+01  0.51100000000E-03 0. -1.
        -11    1    3    3    0    0 -0.50887073006E+01 -0.26424724422E+01 -0.36318109595E+01  0.67873156480E+01  0.51100000000E-03 0.  1.
        -12    1    3    3    0    0 -0.26904976951E+02  0.69948036580E+01 -0.15084022124E+02  0.31628037979E+02  0.00000000000E+00 0.  1.
</event>
<event>
 7    1  0.3981356E-008  0.4614232E+02  0.7816164E-02  0.1320468E+00
        -11   -1    0    0    0    0  0.00000000000E+00  0.00000000000E+00  0.45593999997E+02  0.45594000000E+02  0.51100000000E-03 0.  1.
         11   -1    0    0    0    0 -0.00000000000E+00 -0.00000000000E+00 -0.45593999997E+02  0.45594000000E+02  0.51100000000E-03 0. -1.
    9900012    2    1    2    0    0 -0.73967036511E+01  0.35695279260E+02 -0.26462224732E+02  0.46142317365E+02  0.99999963868E+01 0.  0.
        -12    1    1    2    0    0  0.73967036511E+01 -0.35695279260E+02  0.26462224732E+02  0.45045682635E+02  0.00000000000E+00 0.  1.
         11    1    3    3    0    0 -0.33830386426E+01  0.18977451497E+02 -0.11084160879E+02  0.22236169599E+02  0.51100000000E-03 0. -1.
        -11    1    3    3    0    0 -0.55376510861E+01  0.10918462942E+02 -0.11248126805E+02  0.16625244944E+02  0.51100000000E-03 0.  1.
        -12    1    3    3    0    0  0.15239860777E+01  0.57993648206E+01 -0.41299370477E+01  0.72809028221E+01  0.00000000000E+00 0.  1.
</event>
<event>
 7    1  0.3981356E-008  0.4614232E+02  0.7816164E-02  0.1320468E+00
        -11   -1    0    0    0    0  0.00000000000E+00  0.00000000000E+00  0.45593999997E+02  0.45594000000E+02  0.51100000000E-03 0. -1.
         11   -1    0    0    0    0 -0.00000000000E+00 -0.00000000000E+00 -0.45593999997E+02  0.45594000000E+02  0.51100000000E-03 0.  1.
    9900012    2    1    2    0    0 -0.30306534336E+02 -0.30818974810E+02  0.12681409589E+02  0.46142318953E+02  0.10000010872E+02 0.  0.
        -12    1    1    2    0    0  0.30306534336E+02  0.30818974810E+02 -0.12681409589E+02  0.45045681047E+02  0.00000000000E+00 0.  1.
         11    1    3    3    0    0 -0.29795783647E+00 -0.10362463011E+01  0.16066525755E+01  0.19349206775E+01  0.51100000000E-03 0. -1.
        -11    1    3    3    0    0 -0.19297921797E+01 -0.23261805066E+01  0.26993140641E+01  0.40523462690E+01  0.51100000000E-03 0.  1.
         12    1    3    3    0    0 -0.28078784320E+02 -0.27456548002E+02  0.83754429490E+01  0.40155052007E+02  0.00000000000E+00 0. -1.
</event>
<event>
 7    1  0.3981356E-008  0.4614232E+02  0.7816164E-02  0.1320468E+00
        -11   -1    0    0    0    0  0.00000000000E+00  0.00000000000E+00  0.45593999997E+02  0.45594000000E+02  0.51100000000E-03 0.  1.
         11   -1    0    0    0    0 -0.00000000000E+00 -0.00000000000E+00 -0.45593999997E+02  0.45594000000E+02  0.51100000000E-03 0. -1.
    9900012    2    1    2    0    0  0.29591024267E+02 -0.28435988695E+02 -0.18570923906E+02  0.46142318909E+02  0.10000010467E+02 0.  0.
        -12    1    1    2    0    0 -0.29591024267E+02  0.28435988695E+02  0.18570923906E+02  0.45045681091E+02  0.00000000000E+00 0.  1.
         11    1    3    3    0    0  0.12976637972E+02 -0.64743709313E+01 -0.61708488311E+01  0.15760393002E+02  0.51100000000E-03 0.  1.
        -11    1    3    3    0    0  0.35859954938E+01 -0.35645886912E+01 -0.34806795682E+01  0.61384677841E+01  0.51100000000E-03 0. -1.
        -12    1    3    3    0    0  0.13028390801E+02 -0.18397029072E+02 -0.89193955069E+01  0.24243458123E+02  0.00000000000E+00 0.  1.
</event>
<event>
 7    1  0.3981356E-008  0.4614232E+02  0.7816164E-02  0.1320468E+00
        -11   -1    0    0    0    0  0.00000000000E+00  0.00000000000E+00  0.45593999997E+02  0.45594000000E+02  0.51100000000E-03 0.  1.
         11   -1    0    0    0    0 -0.00000000000E+00 -0.00000000000E+00 -0.45593999997E+02  0.45594000000E+02  0.51100000000E-03 0. -1.
    9900012    2    1    2    0    0 -0.36900146643E+02  0.19803367032E+02 -0.16592748933E+02  0.46142317796E+02  0.10000000314E+02 0.  0.
        -12    1    1    2    0    0  0.36900146643E+02 -0.19803367032E+02  0.16592748933E+02  0.45045682204E+02  0.00000000000E+00 0.  1.
         11    1    3    3    0    0 -0.87742482795E+01  0.39074867932E+01 -0.60100046958E+01  0.11330315204E+02  0.51100000000E-03 0. -1.
        -11    1    3    3    0    0 -0.22477055561E+01  0.23676584061E+01 -0.34556771229E+01  0.47539132547E+01  0.51100000000E-03 0.  1.
         12    1    3    3    0    0 -0.25878192808E+02  0.13528221832E+02 -0.71270671147E+01  0.30058089337E+02  0.00000000000E+00 0. -1.
</event>
<event>
 7    1  0.3981356E-008  0.4614232E+02  0.7816164E-02  0.1320468E+00
        -11   -1    0    0    0    0  0.00000000000E+00  0.00000000000E+00  0.45593999997E+02  0.45594000000E+02  0.51100000000E-03 0.  1.
         11   -1    0    0    0    0 -0.00000000000E+00 -0.00000000000E+00 -0.45593999997E+02  0.45594000000E+02  0.51100000000E-03 0. -1.
    9900012    2    1    2    0    0 -0.25657497954E+02  0.38921494714E+01 -0.36819255181E+02  0.46142316734E+02  0.99999906363E+01 0.  0.
        -12    1    1    2    0    0  0.25657497954E+02 -0.38921494714E+01  0.36819255181E+02  0.45045683266E+02  0.00000000000E+00 0.  1.
         11    1    3    3    0    0 -0.14377100903E+02  0.29820870185E+01 -0.16295047898E+02  0.21934503861E+02  0.51100000000E-03 0.  1.
        -11    1    3    3    0    0 -0.67864364389E+01  0.34060371782E+01 -0.13706955640E+02  0.15669634392E+02  0.51100000000E-03 0. -1.
         12    1    3    3    0    0 -0.44939606120E+01 -0.24959747253E+01 -0.68172516434E+01  0.85381784815E+01  0.00000000000E+00 0. -1.
</event>
<event>
 7    1  0.3981356E-008  0.4614232E+02  0.7816164E-02  0.1320468E+00
        -11   -1    0    0    0    0  0.00000000000E+00  0.00000000000E+00  0.45593999997E+02  0.45594000000E+02  0.51100000000E-03 0.  1.
         11   -1    0    0    0    0 -0.00000000000E+00 -0.00000000000E+00 -0.45593999997E+02  0.45594000000E+02  0.51100000000E-03 0. -1.
    9900012    2    1    2    0    0 -0.12790524272E+01  0.32838241798E+02 -0.30807911890E+02  0.46142317249E+02  0.99999953316E+01 0.  0.
        -12    1    1    2    0    0  0.12790524272E+01 -0.32838241798E+02  0.30807911890E+02  0.45045682751E+02  0.00000000000E+00 0.  1.
         11    1    3    3    0    0  0.15676557084E+01  0.66214439007E+01 -0.71659923770E+01  0.98819284939E+01  0.51100000000E-03 0. -1.
        -11    1    3    3    0    0 -0.24386549145E+01  0.10382002511E+02 -0.49438385579E+01  0.11754767283E+02  0.51100000000E-03 0.  1.
        -12    1    3    3    0    0 -0.40805322103E+00  0.15834795387E+02 -0.18698080955E+02  0.24505621473E+02  0.00000000000E+00 0.  1.
</event>
<event>
 7    1  0.3981356E-008  0.4614232E+02  0.7816164E-02  0.1320468E+00
        -11   -1    0    0    0    0  0.00000000000E+00  0.00000000000E+00  0.45593999997E+02  0.45594000000E+02  0.51100000000E-03 0.  1.
         11   -1    0    0    0    0 -0.00000000000E+00 -0.00000000000E+00 -0.45593999997E+02  0.45594000000E+02  0.51100000000E-03 0. -1.
    9900012    2    1    2    0    0 -0.79396943717E+01  0.67664407853E+01 -0.43821113934E+02  0.46142317698E+02  0.99999994275E+01 0.  0.
        -12    1    1    2    0    0  0.79396943717E+01 -0.67664407853E+01  0.43821113934E+02  0.45045682302E+02  0.00000000000E+00 0.  1.
         11    1    3    3    0    0 -0.39487322309E+01  0.91537994833E+00 -0.89547027147E+01  0.98294001674E+01  0.51100000000E-03 0. -1.
        -11    1    3    3    0    0 -0.56370034884E+01  0.21430329378E+01 -0.18879906226E+02  0.19819668460E+02  0.51100000000E-03 0.  1.
        -12    1    3    3    0    0  0.16460413475E+01  0.37080278992E+01 -0.15986504993E+02  0.16493249071E+02  0.00000000000E+00 0.  1.
</event>
<event>
 7    1  0.3981356E-008  0.4614232E+02  0.7816164E-02  0.1320468E+00
        -11   -1    0    0    0    0  0.00000000000E+00  0.00000000000E+00  0.45593999997E+02  0.45594000000E+02  0.51100000000E-03 0.  1.
         11   -1    0    0    0    0 -0.00000000000E+00 -0.00000000000E+00 -0.45593999997E+02  0.45594000000E+02  0.51100000000E-03 0. -1.
    9900012    2    1    2    0    0  0.37447179294E+02  0.21512214985E+02 -0.12808076981E+02  0.46142318003E+02  0.10000002206E+02 0.  0.
        -12    1    1    2    0    0 -0.37447179294E+02 -0.21512214985E+02  0.12808076981E+02  0.45045681997E+02  0.00000000000E+00 0.  1.
         11    1    3    3    0    0  0.39671833026E+01  0.19316326267E+01 -0.25037480282E+01  0.50733127649E+01  0.51100000000E-03 0. -1.
        -11    1    3    3    0    0  0.53542771333E+01  0.56620877561E+01  0.67642302628E+00  0.78220885797E+01  0.51100000000E-03 0.  1.
        -12    1    3    3    0    0  0.28125718858E+02  0.13918494602E+02 -0.10980751979E+02  0.33246916658E+02  0.00000000000E+00 0.  1.
</event>
<event>
 7    1  0.3981356E-008  0.4614232E+02  0.7816164E-02  0.1320468E+00
        -11   -1    0    0    0    0  0.00000000000E+00  0.00000000000E+00  0.45593999997E+02  0.45594000000E+02  0.51100000000E-03 0.  1.
         11   -1    0    0    0    0 -0.00000000000E+00 -0.00000000000E+00 -0.45593999997E+02  0.45594000000E+02  0.51100000000E-03 0. -1.
    9900012    2    1    2    0    0 -0.98640791367E+01  0.42842816341E+02 -0.98135898173E+01  0.46142317473E+02  0.99999973700E+01 0.  0.
        -12    1    1    2    0    0  0.98640791367E+01 -0.42842816341E+02  0.98135898173E+01  0.45045682527E+02  0.00000000000E+00 0.  1.
         11    1    3    3    0    0 -0.26320111311E+01  0.26567167585E+02 -0.59145998240E+01  0.27344549136E+02  0.51100000000E-03 0. -1.
        -11    1    3    3    0    0 -0.17386328910E+01  0.34737868259E+01  0.10332543122E+01  0.40196584403E+01  0.51100000000E-03 0.  1.
        -12    1    3    3    0    0 -0.54934351146E+01  0.12801861930E+02 -0.49322443055E+01  0.14778109897E+02  0.00000000000E+00 0.  1.
</event>
<event>
 7    1  0.3981356E-008  0.4614232E+02  0.7816164E-02  0.1320468E+00
        -11   -1    0    0    0    0  0.00000000000E+00  0.00000000000E+00  0.45593999997E+02  0.45594000000E+02  0.51100000000E-03 0.  1.
         11   -1    0    0    0    0 -0.00000000000E+00 -0.00000000000E+00 -0.45593999997E+02  0.45594000000E+02  0.51100000000E-03 0. -1.
    9900012    2    1    2    0    0  0.31241084671E+02  0.25499555643E+02 -0.20071890054E+02  0.46142317857E+02  0.10000000875E+02 0.  0.
        -12    1    1    2    0    0 -0.31241084671E+02 -0.25499555643E+02  0.20071890054E+02  0.45045682143E+02  0.00000000000E+00 0.  1.
         11    1    3    3    0    0  0.64116530591E+01  0.34900338493E+01 -0.58345347659E+01  0.93451285393E+01  0.51100000000E-03 0.  1.
        -11    1    3    3    0    0  0.12590865298E+02  0.97122390999E+01 -0.10483271369E+02  0.19046166442E+02  0.51100000000E-03 0. -1.
        -12    1    3    3    0    0  0.12238566314E+02  0.12297282694E+02 -0.37540839189E+01  0.17751022876E+02  0.00000000000E+00 0.  1.
</event>
<event>
 7    1  0.3981356E-008  0.4614232E+02  0.7816164E-02  0.1320468E+00
        -11   -1    0    0    0    0  0.00000000000E+00  0.00000000000E+00  0.45593999997E+02  0.45594000000E+02  0.51100000000E-03 0. -1.
         11   -1    0    0    0    0 -0.00000000000E+00 -0.00000000000E+00 -0.45593999997E+02  0.45594000000E+02  0.51100000000E-03 0.  1.
    9900012    2    1    2    0    0  0.44577114634E+02 -0.15547064901E+01 -0.62910446338E+01  0.46142317588E+02  0.99999984250E+01 0.  0.
        -12    1    1    2    0    0 -0.44577114634E+02  0.15547064901E+01  0.62910446338E+01  0.45045682412E+02  0.00000000000E+00 0.  1.
         11    1    3    3    0    0  0.28033362050E+01 -0.15543490650E+01  0.21625635887E+00  0.32127032182E+01  0.51100000000E-03 0.  1.
        -11    1    3    3    0    0  0.12225843357E+02  0.33569954058E+01 -0.13875084158E+01  0.12754052055E+02  0.51100000000E-03 0. -1.
         12    1    3    3    0    0  0.29547935072E+02 -0.33573528309E+01 -0.51197925768E+01  0.30175562316E+02  0.00000000000E+00 0. -1.
</event>
<event>
 7    1  0.3981356E-008  0.4614232E+02  0.7816164E-02  0.1320468E+00
        -11   -1    0    0    0    0  0.00000000000E+00  0.00000000000E+00  0.45593999997E+02  0.45594000000E+02  0.51100000000E-03 0.  1.
         11   -1    0    0    0    0 -0.00000000000E+00 -0.00000000000E+00 -0.45593999997E+02  0.45594000000E+02  0.51100000000E-03 0. -1.
    9900012    2    1    2    0    0 -0.39402472245E+02  0.19587013594E+02 -0.96388582302E+01  0.46142317537E+02  0.99999979568E+01 0.  0.
        -12    1    1    2    0    0  0.39402472245E+02 -0.19587013594E+02  0.96388582302E+01  0.45045682463E+02  0.00000000000E+00 0.  1.
         11    1    3    3    0    0 -0.32944708372E+02  0.16098609696E+02 -0.11502099305E+02  0.38429381110E+02  0.51100000000E-03 0. -1.
        -11    1    3    3    0    0 -0.10498871065E+01  0.18795554325E-02  0.28332323991E+00  0.10874459933E+01  0.51100000000E-03 0.  1.
         12    1    3    3    0    0 -0.54078767669E+01  0.34865243430E+01  0.15799178345E+01  0.66254904335E+01  0.00000000000E+00 0. -1.
</event>
<event>
 7    1  0.3981356E-008  0.4614232E+02  0.7816164E-02  0.1320468E+00
        -11   -1    0    0    0    0  0.00000000000E+00  0.00000000000E+00  0.45593999997E+02  0.45594000000E+02  0.51100000000E-03 0.  1.
         11   -1    0    0    0    0 -0.00000000000E+00 -0.00000000000E+00 -0.45593999997E+02  0.45594000000E+02  0.51100000000E-03 0. -1.
    9900012    2    1    2    0    0  0.19283832580E+02 -0.44601358187E+01 -0.40464237318E+02  0.46142317497E+02  0.99999975874E+01 0.  0.
        -12    1    1    2    0    0 -0.19283832580E+02  0.44601358187E+01  0.40464237318E+02  0.45045682503E+02  0.00000000000E+00 0.  1.
         11    1    3    3    0    0  0.13363608861E+02 -0.50627138224E+01 -0.23336793610E+02  0.27364631357E+02  0.51100000000E-03 0. -1.
        -11    1    3    3    0    0  0.56642100764E+01 -0.11265216150E+01 -0.14636340786E+02  0.15734509799E+02  0.51100000000E-03 0.  1.
        -12    1    3    3    0    0  0.25601364285E+00  0.17290996187E+01 -0.24911029211E+01  0.30431763406E+01  0.00000000000E+00 0.  1.
</event>
<event>
 7    1  0.3981356E-008  0.4614232E+02  0.7816164E-02  0.1320468E+00
        -11   -1    0    0    0    0  0.00000000000E+00  0.00000000000E+00  0.45593999997E+02  0.45594000000E+02  0.51100000000E-03 0. -1.
         11   -1    0    0    0    0 -0.00000000000E+00 -0.00000000000E+00 -0.45593999997E+02  0.45594000000E+02  0.51100000000E-03 0.  1.
    9900012    2    1    2    0    0 -0.83962231478E+01 -0.22871604008E+02  0.37888078628E+02  0.46142319461E+02  0.10000015504E+02 0.  0.
        -12    1    1    2    0    0  0.83962231478E+01  0.22871604008E+02 -0.37888078628E+02  0.45045680539E+02  0.00000000000E+00 0.  1.
         11    1    3    3    0    0 -0.74204090655E+01 -0.21439186086E+02  0.30571554363E+02  0.38069950186E+02  0.51100000000E-03 0. -1.
        -11    1    3    3    0    0 -0.57789253956E+00 -0.74938910082E+00  0.27341433522E+00  0.98503780208E+00  0.51100000000E-03 0.  1.
        -12    1    3    3    0    0 -0.39792154271E+00 -0.68302882111E+00  0.70431099303E+01  0.70873314735E+01  0.00000000000E+00 0.  1.
</event>
<event>
 7    1  0.3981356E-008  0.4614232E+02  0.7816164E-02  0.1320468E+00
        -11   -1    0    0    0    0  0.00000000000E+00  0.00000000000E+00  0.45593999997E+02  0.45594000000E+02  0.51100000000E-03 0. -1.
         11   -1    0    0    0    0 -0.00000000000E+00 -0.00000000000E+00 -0.45593999997E+02  0.45594000000E+02  0.51100000000E-03 0.  1.
    9900012    2    1    2    0    0 -0.34386854403E+02 -0.14005563959E+02 -0.25504940828E+02  0.46142316697E+02  0.99999902986E+01 0.  0.
        -12    1    1    2    0    0  0.34386854403E+02  0.14005563959E+02  0.25504940828E+02  0.45045683303E+02  0.00000000000E+00 0.  1.
         11    1    3    3    0    0 -0.14445820099E+02 -0.67864092558E+01 -0.85887827630E+01  0.18124686439E+02  0.51100000000E-03 0. -1.
        -11    1    3    3    0    0  0.59728162568E+00 -0.20926284913E+00 -0.47418578110E+00  0.79081521009E+00  0.51100000000E-03 0.  1.
         12    1    3    3    0    0 -0.20538315930E+02 -0.70098918541E+01 -0.16441972284E+02  0.27226815048E+02  0.00000000000E+00 0. -1.
</event>
<event>
 7    1  0.3981356E-008  0.4614232E+02  0.7816164E-02  0.1320468E+00
        -11   -1    0    0    0    0  0.00000000000E+00  0.00000000000E+00  0.45593999997E+02  0.45594000000E+02  0.51100000000E-03 0. -1.
         11   -1    0    0    0    0 -0.00000000000E+00 -0.00000000000E+00 -0.45593999997E+02  0.45594000000E+02  0.51100000000E-03 0.  1.
    9900012    2    1    2    0    0 -0.34080474795E+02  0.16520791225E+02  0.24386432477E+02  0.46142318809E+02  0.10000009556E+02 0.  0.
        -12    1    1    2    0    0  0.34080474795E+02 -0.16520791225E+02 -0.24386432477E+02  0.45045681191E+02  0.00000000000E+00 0.  1.
         11    1    3    3    0    0 -0.87837987200E+01  0.72170156575E+01  0.62168298291E+01  0.12957214529E+02  0.51100000000E-03 0. -1.
        -11    1    3    3    0    0 -0.47395995255E+01  0.34537879676E+00  0.79666314368E+00  0.48184813584E+01  0.51100000000E-03 0.  1.
         12    1    3    3    0    0 -0.20557076550E+02  0.89583967711E+01  0.17372939505E+02  0.28366622922E+02  0.00000000000E+00 0. -1.
</event>
<event>
 7    1  0.3981356E-008  0.4614232E+02  0.7816164E-02  0.1320468E+00
        -11   -1    0    0    0    0  0.00000000000E+00  0.00000000000E+00  0.45593999997E+02  0.45594000000E+02  0.51100000000E-03 0. -1.
         11   -1    0    0    0    0 -0.00000000000E+00 -0.00000000000E+00 -0.45593999997E+02  0.45594000000E+02  0.51100000000E-03 0.  1.
    9900012    2    1    2    0    0 -0.89917798784E+01 -0.39504817541E+02  0.19688342266E+02  0.46142317238E+02  0.99999952260E+01 0.  0.
        -12    1    1    2    0    0  0.89917798784E+01  0.39504817541E+02 -0.19688342266E+02  0.45045682762E+02  0.00000000000E+00 0.  1.
         11    1    3    3    0    0 -0.61308355114E+01 -0.19044856167E+02  0.13556126927E+02  0.24167380247E+02  0.51100000000E-03 0. -1.
        -11    1    3    3    0    0  0.35903234937E+00 -0.27347449771E+00  0.68431830140E+00  0.81974650200E+00  0.51100000000E-03 0.  1.
        -12    1    3    3    0    0 -0.32199767164E+01 -0.20186486876E+02  0.54478970379E+01  0.21155190488E+02  0.00000000000E+00 0.  1.
</event>
<event>
 7    1  0.3981356E-008  0.4614232E+02  0.7816164E-02  0.1320468E+00
        -11   -1    0    0    0    0  0.00000000000E+00  0.00000000000E+00  0.45593999997E+02  0.45594000000E+02  0.51100000000E-03 0. -1.
         11   -1    0    0    0    0 -0.00000000000E+00 -0.00000000000E+00 -0.45593999997E+02  0.45594000000E+02  0.51100000000E-03 0.  1.
    9900012    2    1    2    0    0  0.40692415570E+02 -0.10992659575E+02  0.15887171636E+02  0.46142317943E+02  0.10000001655E+02 0.  0.
        -12    1    1    2    0    0 -0.40692415570E+02  0.10992659575E+02 -0.15887171636E+02  0.45045682057E+02  0.00000000000E+00 0.  1.
         11    1    3    3    0    0  0.29707633418E+02 -0.70630607132E+01  0.13321267207E+02  0.33314958656E+02  0.51100000000E-03 0. -1.
        -11    1    3    3    0    0  0.87071432638E+01 -0.35569020814E+01  0.39819486674E-01  0.94057153947E+01  0.51100000000E-03 0.  1.
         12    1    3    3    0    0  0.22776388875E+01 -0.37269678057E+00  0.25260849418E+01  0.34216438922E+01  0.00000000000E+00 0. -1.
</event>
<event>
 7    1  0.3981356E-008  0.4614232E+02  0.7816164E-02  0.1320468E+00
        -11   -1    0    0    0    0  0.00000000000E+00  0.00000000000E+00  0.45593999997E+02  0.45594000000E+02  0.51100000000E-03 0.  1.
         11   -1    0    0    0    0 -0.00000000000E+00 -0.00000000000E+00 -0.45593999997E+02  0.45594000000E+02  0.51100000000E-03 0. -1.
    9900012    2    1    2    0    0  0.29978254410E+02 -0.86165965769E+01 -0.32498801015E+02  0.46142317172E+02  0.99999946291E+01 0.  0.
        -12    1    1    2    0    0 -0.29978254410E+02  0.86165965769E+01  0.32498801015E+02  0.45045682828E+02  0.00000000000E+00 0.  1.
         11    1    3    3    0    0  0.16197229725E+02 -0.73203649691E+01 -0.18329745991E+02  0.25532676757E+02  0.51100000000E-03 0. -1.
        -11    1    3    3    0    0  0.58693067786E+01 -0.14543641259E+01 -0.99463030520E+01  0.11640140967E+02  0.51100000000E-03 0.  1.
        -12    1    3    3    0    0  0.79117179068E+01  0.15813251810E+00 -0.42227519719E+01  0.89694994479E+01  0.00000000000E+00 0.  1.
</event>
<event>
 7    1  0.3981356E-008  0.4614232E+02  0.7816164E-02  0.1320468E+00
        -11   -1    0    0    0    0  0.00000000000E+00  0.00000000000E+00  0.45593999997E+02  0.45594000000E+02  0.51100000000E-03 0. -1.
         11   -1    0    0    0    0 -0.00000000000E+00 -0.00000000000E+00 -0.45593999997E+02  0.45594000000E+02  0.51100000000E-03 0.  1.
    9900012    2    1    2    0    0 -0.25338994075E+02  0.30775691922E+02  0.20973925647E+02  0.46142318841E+02  0.10000009848E+02 0.  0.
        -12    1    1    2    0    0  0.25338994075E+02 -0.30775691922E+02 -0.20973925647E+02  0.45045681159E+02  0.00000000000E+00 0.  1.
         11    1    3    3    0    0 -0.24612469536E+01  0.74529799027E+00  0.19066453908E+01  0.32013282506E+01  0.51100000000E-03 0. -1.
        -11    1    3    3    0    0 -0.14154695077E+02  0.22959853738E+02  0.15742515623E+02  0.31230387042E+02  0.51100000000E-03 0.  1.
        -12    1    3    3    0    0 -0.87230520447E+01  0.70705401935E+01  0.33247646337E+01  0.11710603549E+02  0.00000000000E+00 0.  1.
</event>
<event>
 7    1  0.3981356E-008  0.4614232E+02  0.7816164E-02  0.1320468E+00
        -11   -1    0    0    0    0  0.00000000000E+00  0.00000000000E+00  0.45593999997E+02  0.45594000000E+02  0.51100000000E-03 0.  1.
         11   -1    0    0    0    0 -0.00000000000E+00 -0.00000000000E+00 -0.45593999997E+02  0.45594000000E+02  0.51100000000E-03 0. -1.
    9900012    2    1    2    0    0 -0.33756984428E+02 -0.23136018565E+02 -0.18822967936E+02  0.46142317913E+02  0.10000001388E+02 0.  0.
        -12    1    1    2    0    0  0.33756984428E+02  0.23136018565E+02  0.18822967936E+02  0.45045682087E+02  0.00000000000E+00 0.  1.
         11    1    3    3    0    0 -0.24444423062E+00 -0.10539328300E+00 -0.16063873766E+01  0.16282940124E+01  0.51100000000E-03 0. -1.
        -11    1    3    3    0    0 -0.72518504538E+01 -0.56295163335E+01 -0.14782082031E+01  0.92987036143E+01  0.51100000000E-03 0.  1.
         12    1    3    3    0    0 -0.26260689744E+02 -0.17401108948E+02 -0.15738372357E+02  0.35215320287E+02  0.00000000000E+00 0. -1.
</event>
<event>
 7    1  0.3981356E-008  0.4614232E+02  0.7816164E-02  0.1320468E+00
        -11   -1    0    0    0    0  0.00000000000E+00  0.00000000000E+00  0.45593999997E+02  0.45594000000E+02  0.51100000000E-03 0.  1.
         11   -1    0    0    0    0 -0.00000000000E+00 -0.00000000000E+00 -0.45593999997E+02  0.45594000000E+02  0.51100000000E-03 0. -1.
    9900012    2    1    2    0    0  0.30795072991E+02  0.22755151739E+02 -0.23727199536E+02  0.46142318198E+02  0.10000003986E+02 0.  0.
        -12    1    1    2    0    0 -0.30795072991E+02 -0.22755151739E+02  0.23727199536E+02  0.45045681802E+02  0.00000000000E+00 0.  1.
         11    1    3    3    0    0  0.99383133635E+01  0.30690841822E+01 -0.68938312605E+01  0.12478551997E+02  0.51100000000E-03 0. -1.
        -11    1    3    3    0    0  0.19342156938E+01  0.39470272684E+01 -0.38157247970E+01  0.58206503584E+01  0.51100000000E-03 0.  1.
         12    1    3    3    0    0  0.18922543933E+02  0.15739040288E+02 -0.13017643479E+02  0.27843115843E+02  0.00000000000E+00 0. -1.
</event>
<event>
 7    1  0.3981356E-008  0.4614232E+02  0.7816164E-02  0.1320468E+00
        -11   -1    0    0    0    0  0.00000000000E+00  0.00000000000E+00  0.45593999997E+02  0.45594000000E+02  0.51100000000E-03 0. -1.
         11   -1    0    0    0    0 -0.00000000000E+00 -0.00000000000E+00 -0.45593999997E+02  0.45594000000E+02  0.51100000000E-03 0.  1.
    9900012    2    1    2    0    0  0.22984943136E+02  0.38558552681E+02  0.37475056505E+01  0.46142318804E+02  0.10000009510E+02 0.  0.
        -12    1    1    2    0    0 -0.22984943136E+02 -0.38558552681E+02 -0.37475056505E+01  0.45045681196E+02  0.00000000000E+00 0.  1.
         11    1    3    3    0    0  0.84977824770E+01  0.10728080066E+02  0.34626292022E+01  0.14117145964E+02  0.51100000000E-03 0. -1.
        -11    1    3    3    0    0  0.39845953682E+01  0.41094773030E+01  0.19046335101E+01  0.60326141118E+01  0.51100000000E-03 0.  1.
         12    1    3    3    0    0  0.10502565291E+02  0.23720995312E+02 -0.16197570618E+01  0.25992558728E+02  0.00000000000E+00 0. -1.
</event>
<event>
 7    1  0.3981356E-008  0.4614232E+02  0.7816164E-02  0.1320468E+00
        -11   -1    0    0    0    0  0.00000000000E+00  0.00000000000E+00  0.45593999997E+02  0.45594000000E+02  0.51100000000E-03 0.  1.
         11   -1    0    0    0    0 -0.00000000000E+00 -0.00000000000E+00 -0.45593999997E+02  0.45594000000E+02  0.51100000000E-03 0. -1.
    9900012    2    1    2    0    0  0.36621144489E+02  0.57273816558E+01 -0.25596921149E+02  0.46142317670E+02  0.99999991667E+01 0.  0.
        -12    1    1    2    0    0 -0.36621144489E+02 -0.57273816558E+01  0.25596921149E+02  0.45045682330E+02  0.00000000000E+00 0.  1.
         11    1    3    3    0    0  0.16901345053E+02  0.62826132465E+01 -0.15641051271E+02  0.23869838268E+02  0.51100000000E-03 0. -1.
        -11    1    3    3    0    0  0.10629107075E+02 -0.16814664367E+01 -0.55343477813E+01  0.12101002116E+02  0.51100000000E-03 0.  1.
         12    1    3    3    0    0  0.90906923601E+01  0.11262348461E+01 -0.44215220967E+01  0.10171477285E+02  0.00000000000E+00 0. -1.
</event>
<event>
 7    1  0.3981356E-008  0.4614232E+02  0.7816164E-02  0.1320468E+00
        -11   -1    0    0    0    0  0.00000000000E+00  0.00000000000E+00  0.45593999997E+02  0.45594000000E+02  0.51100000000E-03 0. -1.
         11   -1    0    0    0    0 -0.00000000000E+00 -0.00000000000E+00 -0.45593999997E+02  0.45594000000E+02  0.51100000000E-03 0.  1.
    9900012    2    1    2    0    0 -0.37626135479E+02 -0.24758006868E+02  0.65463357941E+00  0.46142317407E+02  0.99999967722E+01 0.  0.
        -12    1    1    2    0    0  0.37626135479E+02  0.24758006868E+02 -0.65463357941E+00  0.45045682593E+02  0.00000000000E+00 0.  1.
         11    1    3    3    0    0 -0.46339841432E+01 -0.51321413201E+01 -0.12813390465E+01  0.70323903178E+01  0.51100000000E-03 0.  1.
        -11    1    3    3    0    0 -0.23164553403E+02 -0.98985298048E+01  0.36601013984E+00  0.25193479124E+02  0.51100000000E-03 0. -1.
        -12    1    3    3    0    0 -0.98275979324E+01 -0.97273357426E+01  0.15699624861E+01  0.13916447966E+02  0.00000000000E+00 0.  1.
</event>
<event>
 7    1  0.3981356E-008  0.4614232E+02  0.7816164E-02  0.1320468E+00
        -11   -1    0    0    0    0  0.00000000000E+00  0.00000000000E+00  0.45593999997E+02  0.45594000000E+02  0.51100000000E-03 0. -1.
         11   -1    0    0    0    0 -0.00000000000E+00 -0.00000000000E+00 -0.45593999997E+02  0.45594000000E+02  0.51100000000E-03 0.  1.
    9900012    2    1    2    0    0 -0.36330169925E-01  0.29866659792E+02  0.33720837512E+02  0.46142316861E+02  0.99999917887E+01 0.  0.
        -12    1    1    2    0    0  0.36330169925E-01 -0.29866659792E+02 -0.33720837512E+02  0.45045683139E+02  0.00000000000E+00 0.  1.
         11    1    3    3    0    0  0.28201805445E+00  0.45107188360E+01  0.17682956657E+01  0.48531421186E+01  0.51100000000E-03 0. -1.
        -11    1    3    3    0    0  0.12953611535E+01  0.13063358212E+02  0.11927526067E+02  0.17736830795E+02  0.51100000000E-03 0.  1.
         12    1    3    3    0    0 -0.16137093779E+01  0.12292582743E+02  0.20025015779E+02  0.23552343947E+02  0.00000000000E+00 0. -1.
</event>
<event>
 7    1  0.3981356E-008  0.4614232E+02  0.7816164E-02  0.1320468E+00
        -11   -1    0    0    0    0  0.00000000000E+00  0.00000000000E+00  0.45593999997E+02  0.45594000000E+02  0.51100000000E-03 0.  1.
         11   -1    0    0    0    0 -0.00000000000E+00 -0.00000000000E+00 -0.45593999997E+02  0.45594000000E+02  0.51100000000E-03 0. -1.
    9900012    2    1    2    0    0 -0.32368107861E+02 -0.12512396066E+01 -0.31302613207E+02  0.46142316515E+02  0.99999886359E+01 0.  0.
        -12    1    1    2    0    0  0.32368107861E+02  0.12512396066E+01  0.31302613207E+02  0.45045683485E+02  0.00000000000E+00 0.  1.
         11    1    3    3    0    0 -0.71397728110E+01  0.21577449806E+01 -0.43754838531E+01  0.86473740756E+01  0.51100000000E-03 0. -1.
        -11    1    3    3    0    0 -0.12741976544E+02 -0.32835130754E+01 -0.10350137281E+02  0.16741110070E+02  0.51100000000E-03 0.  1.
         12    1    3    3    0    0 -0.12486358505E+02 -0.12547151173E+00 -0.16576992073E+02  0.20753832369E+02  0.00000000000E+00 0. -1.
</event>
<event>
 7    1  0.3981356E-008  0.4614232E+02  0.7816164E-02  0.1320468E+00
        -11   -1    0    0    0    0  0.00000000000E+00  0.00000000000E+00  0.45593999997E+02  0.45594000000E+02  0.51100000000E-03 0.  1.
         11   -1    0    0    0    0 -0.00000000000E+00 -0.00000000000E+00 -0.45593999997E+02  0.45594000000E+02  0.51100000000E-03 0. -1.
    9900012    2    1    2    0    0  0.42433263478E+02 -0.94797609953E+01 -0.11775635682E+02  0.46142319701E+02  0.10000017688E+02 0.  0.
        -12    1    1    2    0    0 -0.42433263478E+02  0.94797609953E+01  0.11775635682E+02  0.45045680299E+02  0.00000000000E+00 0.  1.
         11    1    3    3    0    0  0.33929599664E+02 -0.99975421316E+01 -0.96752816072E+01  0.36671237455E+02  0.51100000000E-03 0. -1.
        -11    1    3    3    0    0  0.21252099969E+01 -0.12636220903E+01 -0.13197954749E+01  0.28026984630E+01  0.51100000000E-03 0.  1.
         12    1    3    3    0    0  0.63784538171E+01  0.17814032267E+01 -0.78055860021E+00  0.66683837833E+01  0.00000000000E+00 0. -1.
</event>
<event>
 7    1  0.3981356E-008  0.4614232E+02  0.7816164E-02  0.1320468E+00
        -11   -1    0    0    0    0  0.00000000000E+00  0.00000000000E+00  0.45593999997E+02  0.45594000000E+02  0.51100000000E-03 0. -1.
         11   -1    0    0    0    0 -0.00000000000E+00 -0.00000000000E+00 -0.45593999997E+02  0.45594000000E+02  0.51100000000E-03 0.  1.
    9900012    2    1    2    0    0 -0.27059807180E+02 -0.28107983732E+02  0.22512695287E+02  0.46142319151E+02  0.10000012674E+02 0.  0.
        -12    1    1    2    0    0  0.27059807180E+02  0.28107983732E+02 -0.22512695287E+02  0.45045680849E+02  0.00000000000E+00 0.  1.
         11    1    3    3    0    0 -0.41320724264E+01 -0.84468446352E+00  0.18067401979E+01  0.45882267581E+01  0.51100000000E-03 0. -1.
        -11    1    3    3    0    0 -0.66959043128E+01 -0.85843219330E+01  0.35831134831E+01  0.11461431853E+02  0.51100000000E-03 0.  1.
         12    1    3    3    0    0 -0.16231830440E+02 -0.18678977335E+02  0.17122841606E+02  0.30092660540E+02  0.00000000000E+00 0. -1.
</event>
<event>
 7    1  0.3981356E-008  0.4614232E+02  0.7816164E-02  0.1320468E+00
        -11   -1    0    0    0    0  0.00000000000E+00  0.00000000000E+00  0.45593999997E+02  0.45594000000E+02  0.51100000000E-03 0.  1.
         11   -1    0    0    0    0 -0.00000000000E+00 -0.00000000000E+00 -0.45593999997E+02  0.45594000000E+02  0.51100000000E-03 0. -1.
    9900012    2    1    2    0    0  0.62352406078E+01 -0.26270748108E+02 -0.36056665089E+02  0.46142317311E+02  0.99999958934E+01 0.  0.
        -12    1    1    2    0    0 -0.62352406078E+01  0.26270748108E+02  0.36056665089E+02  0.45045682689E+02  0.00000000000E+00 0.  1.
         11    1    3    3    0    0  0.32216895345E+01 -0.10416780945E+02 -0.11894020465E+02  0.16135561093E+02  0.51100000000E-03 0. -1.
        -11    1    3    3    0    0 -0.57625127493E+00 -0.82549951554E+01 -0.17222499427E+02  0.19107367618E+02  0.51100000000E-03 0.  1.
        -12    1    3    3    0    0  0.35898023481E+01 -0.75989720069E+01 -0.69401451980E+01  0.10899388599E+02  0.00000000000E+00 0.  1.
</event>
<event>
 7    1  0.3981356E-008  0.4614232E+02  0.7816164E-02  0.1320468E+00
        -11   -1    0    0    0    0  0.00000000000E+00  0.00000000000E+00  0.45593999997E+02  0.45594000000E+02  0.51100000000E-03 0. -1.
         11   -1    0    0    0    0 -0.00000000000E+00 -0.00000000000E+00 -0.45593999997E+02  0.45594000000E+02  0.51100000000E-03 0.  1.
    9900012    2    1    2    0    0  0.10968392051E+02 -0.91745732631E+01  0.42715746228E+02  0.46142318802E+02  0.10000009494E+02 0.  0.
        -12    1    1    2    0    0 -0.10968392051E+02  0.91745732631E+01 -0.42715746228E+02  0.45045681198E+02  0.00000000000E+00 0.  1.
         11    1    3    3    0    0  0.33303770372E+01 -0.62639107572E+01  0.19855999117E+02  0.21085271883E+02  0.51100000000E-03 0. -1.
        -11    1    3    3    0    0  0.50099489861E+00 -0.21717361117E+01  0.10771851517E+02  0.11000009954E+02  0.51100000000E-03 0.  1.
        -12    1    3    3    0    0  0.71370201156E+01 -0.73892639417E+00  0.12087895595E+02  0.14057036966E+02  0.00000000000E+00 0.  1.
</event>
<event>
 7    1  0.3981356E-008  0.4614232E+02  0.7816164E-02  0.1320468E+00
        -11   -1    0    0    0    0  0.00000000000E+00  0.00000000000E+00  0.45593999997E+02  0.45594000000E+02  0.51100000000E-03 0.  1.
         11   -1    0    0    0    0 -0.00000000000E+00 -0.00000000000E+00 -0.45593999997E+02  0.45594000000E+02  0.51100000000E-03 0. -1.
    9900012    2    1    2    0    0 -0.39384892668E+02 -0.21138755022E+02 -0.55764443045E+01  0.46142318015E+02  0.10000002318E+02 0.  0.
        -12    1    1    2    0    0  0.39384892668E+02  0.21138755022E+02  0.55764443045E+01  0.45045681985E+02  0.00000000000E+00 0.  1.
         11    1    3    3    0    0 -0.17481670257E+02 -0.60418166834E+01 -0.15875852942E+01  0.18564287521E+02  0.51100000000E-03 0. -1.
        -11    1    3    3    0    0 -0.28313754938E+01 -0.67447518770E+00 -0.21065128884E+01  0.35929097924E+01  0.51100000000E-03 0.  1.
        -12    1    3    3    0    0 -0.19071846917E+02 -0.14422463151E+02 -0.18823461218E+01  0.23985120702E+02  0.00000000000E+00 0.  1.
</event>
<event>
 7    1  0.3981356E-008  0.4614232E+02  0.7816164E-02  0.1320468E+00
        -11   -1    0    0    0    0  0.00000000000E+00  0.00000000000E+00  0.45593999997E+02  0.45594000000E+02  0.51100000000E-03 0.  1.
         11   -1    0    0    0    0 -0.00000000000E+00 -0.00000000000E+00 -0.45593999997E+02  0.45594000000E+02  0.51100000000E-03 0. -1.
    9900012    2    1    2    0    0 -0.12580437725E+02 -0.98273556771E+00 -0.43242112009E+02  0.46142318370E+02  0.10000005552E+02 0.  0.
        -12    1    1    2    0    0  0.12580437725E+02  0.98273556771E+00  0.43242112009E+02  0.45045681630E+02  0.00000000000E+00 0.  1.
         11    1    3    3    0    0 -0.22549117977E+00 -0.92561663243E-01 -0.16282588761E+02  0.16284413129E+02  0.51100000000E-03 0. -1.
        -11    1    3    3    0    0 -0.24961165775E+00  0.34868221800E+00 -0.22491460457E+00  0.48422320195E+00  0.51100000000E-03 0.  1.
         12    1    3    3    0    0 -0.12105334887E+02 -0.12388561225E+01 -0.26734608643E+02  0.29373682039E+02  0.00000000000E+00 0. -1.
</event>
<event>
 7    1  0.3981356E-008  0.4614232E+02  0.7816164E-02  0.1320468E+00
        -11   -1    0    0    0    0  0.00000000000E+00  0.00000000000E+00  0.45593999997E+02  0.45594000000E+02  0.51100000000E-03 0.  1.
         11   -1    0    0    0    0 -0.00000000000E+00 -0.00000000000E+00 -0.45593999997E+02  0.45594000000E+02  0.51100000000E-03 0. -1.
    9900012    2    1    2    0    0  0.22356431765E+02  0.38277883000E+02 -0.80066912994E+01  0.46142317923E+02  0.10000001478E+02 0.  0.
        -12    1    1    2    0    0 -0.22356431765E+02 -0.38277883000E+02  0.80066912994E+01  0.45045682077E+02  0.00000000000E+00 0.  1.
         11    1    3    3    0    0  0.16647413533E+02  0.25186115555E+02 -0.42654234140E+01  0.30490500672E+02  0.51100000000E-03 0. -1.
        -11    1    3    3    0    0  0.34210914673E+01  0.52331704611E+01 -0.40702179823E+01  0.74603360908E+01  0.51100000000E-03 0.  1.
         12    1    3    3    0    0  0.22879267648E+01  0.78585969835E+01  0.32895009689E+00  0.81914811601E+01  0.00000000000E+00 0. -1.
</event>
<event>
 7    1  0.3981356E-008  0.4614232E+02  0.7816164E-02  0.1320468E+00
        -11   -1    0    0    0    0  0.00000000000E+00  0.00000000000E+00  0.45593999997E+02  0.45594000000E+02  0.51100000000E-03 0.  1.
         11   -1    0    0    0    0 -0.00000000000E+00 -0.00000000000E+00 -0.45593999997E+02  0.45594000000E+02  0.51100000000E-03 0. -1.
    9900012    2    1    2    0    0  0.33482405804E+02 -0.21806305145E+02 -0.20797283925E+02  0.46142318063E+02  0.10000002750E+02 0.  0.
        -12    1    1    2    0    0 -0.33482405804E+02  0.21806305145E+02  0.20797283925E+02  0.45045681937E+02  0.00000000000E+00 0.  1.
         11    1    3    3    0    0  0.34143872582E+01  0.20323380677E+00 -0.28025912966E+01  0.44219749622E+01  0.51100000000E-03 0. -1.
        -11    1    3    3    0    0  0.14017210237E+02 -0.13429001266E+02 -0.84845817425E+01  0.21185098193E+02  0.51100000000E-03 0.  1.
         12    1    3    3    0    0  0.16050808309E+02 -0.85805376857E+01 -0.95101108861E+01  0.20535244907E+02  0.00000000000E+00 0. -1.
</event>
<event>
 7    1  0.3981356E-008  0.4614232E+02  0.7816164E-02  0.1320468E+00
        -11   -1    0    0    0    0  0.00000000000E+00  0.00000000000E+00  0.45593999997E+02  0.45594000000E+02  0.51100000000E-03 0. -1.
         11   -1    0    0    0    0 -0.00000000000E+00 -0.00000000000E+00 -0.45593999997E+02  0.45594000000E+02  0.51100000000E-03 0.  1.
    9900012    2    1    2    0    0  0.38400011270E+02  0.12898558058E+02  0.19702279522E+02  0.46142317811E+02  0.10000000457E+02 0.  0.
        -12    1    1    2    0    0 -0.38400011270E+02 -0.12898558058E+02 -0.19702279522E+02  0.45045682189E+02  0.00000000000E+00 0.  1.
         11    1    3    3    0    0  0.13375878256E+02  0.13890763866E+01  0.96543480630E+01  0.16554458285E+02  0.51100000000E-03 0. -1.
        -11    1    3    3    0    0  0.14309748932E+02  0.53091865126E+01  0.72462368957E+01  0.16895689549E+02  0.51100000000E-03 0.  1.
        -12    1    3    3    0    0  0.10714384082E+02  0.62002951589E+01  0.28016945628E+01  0.12692169978E+02  0.00000000000E+00 0.  1.
</event>
<event>
 7    1  0.3981356E-008  0.4614232E+02  0.7816164E-02  0.1320468E+00
        -11   -1    0    0    0    0  0.00000000000E+00  0.00000000000E+00  0.45593999997E+02  0.45594000000E+02  0.51100000000E-03 0.  1.
         11   -1    0    0    0    0 -0.00000000000E+00 -0.00000000000E+00 -0.45593999997E+02  0.45594000000E+02  0.51100000000E-03 0. -1.
    9900012    2    1    2    0    0 -0.28713038165E+02 -0.34390171109E+02 -0.46894859616E+01  0.46142315322E+02  0.99999777591E+01 0.  0.
        -12    1    1    2    0    0  0.28713038165E+02  0.34390171109E+02  0.46894859616E+01  0.45045684678E+02  0.00000000000E+00 0.  1.
         11    1    3    3    0    0 -0.85275420350E+01 -0.10132556339E+02 -0.34994302470E+01  0.13697944497E+02  0.51100000000E-03 0. -1.
        -11    1    3    3    0    0 -0.16778473379E+00 -0.34669069890E+01 -0.88355633898E+00  0.35816571378E+01  0.51100000000E-03 0.  1.
         12    1    3    3    0    0 -0.20017711396E+02 -0.20790707781E+02 -0.30649937560E+00  0.28862713688E+02  0.00000000000E+00 0. -1.
</event>
<event>
 7    1  0.3981356E-008  0.4614232E+02  0.7816164E-02  0.1320468E+00
        -11   -1    0    0    0    0  0.00000000000E+00  0.00000000000E+00  0.45593999997E+02  0.45594000000E+02  0.51100000000E-03 0.  1.
         11   -1    0    0    0    0 -0.00000000000E+00 -0.00000000000E+00 -0.45593999997E+02  0.45594000000E+02  0.51100000000E-03 0. -1.
    9900012    2    1    2    0    0 -0.27778835129E+02  0.80736740452E+01 -0.34529199623E+02  0.46142317406E+02  0.99999967622E+01 0.  0.
        -12    1    1    2    0    0  0.27778835129E+02 -0.80736740452E+01  0.34529199623E+02  0.45045682594E+02  0.00000000000E+00 0.  1.
         11    1    3    3    0    0  0.87744763251E-01 -0.49852122976E+00 -0.16095138535E+00  0.53115738681E+00  0.51100000000E-03 0. -1.
        -11    1    3    3    0    0 -0.37676151358E+01  0.34767264558E+00 -0.85434045972E+01  0.93437445627E+01  0.51100000000E-03 0.  1.
         12    1    3    3    0    0 -0.24098964757E+02  0.82245226294E+01 -0.25824843641E+02  0.36267415457E+02  0.00000000000E+00 0. -1.
</event>
<event>
 7    1  0.3981356E-008  0.4614232E+02  0.7816164E-02  0.1320468E+00
        -11   -1    0    0    0    0  0.00000000000E+00  0.00000000000E+00  0.45593999997E+02  0.45594000000E+02  0.51100000000E-03 0. -1.
         11   -1    0    0    0    0 -0.00000000000E+00 -0.00000000000E+00 -0.45593999997E+02  0.45594000000E+02  0.51100000000E-03 0.  1.
    9900012    2    1    2    0    0  0.87819881785E+01  0.44680473412E+01  0.43954825452E+02  0.46142318254E+02  0.10000004496E+02 0.  0.
        -12    1    1    2    0    0 -0.87819881785E+01 -0.44680473412E+01 -0.43954825452E+02  0.45045681746E+02  0.00000000000E+00 0.  1.
         11    1    3    3    0    0  0.26231235273E+01  0.58273076014E+00  0.49172286533E+01  0.56035247897E+01  0.51100000000E-03 0. -1.
        -11    1    3    3    0    0  0.15140470461E+01  0.38484747085E+01  0.30845156865E+02  0.31121163190E+02  0.51100000000E-03 0.  1.
        -12    1    3    3    0    0  0.46448176051E+01  0.36841872567E-01  0.81924399342E+01  0.94176302743E+01  0.00000000000E+00 0.  1.
</event>
<event>
 7    1  0.3981356E-008  0.4614232E+02  0.7816164E-02  0.1320468E+00
        -11   -1    0    0    0    0  0.00000000000E+00  0.00000000000E+00  0.45593999997E+02  0.45594000000E+02  0.51100000000E-03 0. -1.
         11   -1    0    0    0    0 -0.00000000000E+00 -0.00000000000E+00 -0.45593999997E+02  0.45594000000E+02  0.51100000000E-03 0.  1.
    9900012    2    1    2    0    0 -0.39018077004E+02  0.19597119404E+02  0.11075014871E+02  0.46142319003E+02  0.10000011327E+02 0.  0.
        -12    1    1    2    0    0  0.39018077004E+02 -0.19597119404E+02 -0.11075014871E+02  0.45045680997E+02  0.00000000000E+00 0.  1.
         11    1    3    3    0    0 -0.16253239011E+02  0.11334496492E+02  0.58570079356E+01  0.20662602239E+02  0.51100000000E-03 0. -1.
        -11    1    3    3    0    0 -0.38258319229E+01  0.27087721232E+01 -0.98755397102E+00  0.47905844554E+01  0.51100000000E-03 0.  1.
        -12    1    3    3    0    0 -0.18939006071E+02  0.55538507895E+01  0.62055609060E+01  0.20689132309E+02  0.00000000000E+00 0.  1.
</event>
<event>
 7    1  0.3981356E-008  0.4614232E+02  0.7816164E-02  0.1320468E+00
        -11   -1    0    0    0    0  0.00000000000E+00  0.00000000000E+00  0.45593999997E+02  0.45594000000E+02  0.51100000000E-03 0. -1.
         11   -1    0    0    0    0 -0.00000000000E+00 -0.00000000000E+00 -0.45593999997E+02  0.45594000000E+02  0.51100000000E-03 0.  1.
    9900012    2    1    2    0    0  0.42996392322E+01 -0.26202885077E+02  0.36387297119E+02  0.46142317904E+02  0.10000001305E+02 0.  0.
        -12    1    1    2    0    0 -0.42996392322E+01  0.26202885077E+02 -0.36387297119E+02  0.45045682096E+02  0.00000000000E+00 0.  1.
         11    1    3    3    0    0  0.30014450321E+01 -0.10510849465E+02  0.17748119424E+02  0.20844240742E+02  0.51100000000E-03 0. -1.
        -11    1    3    3    0    0  0.38891351348E+01 -0.11206578510E+02  0.11952193238E+02  0.16839468443E+02  0.51100000000E-03 0.  1.
        -12    1    3    3    0    0 -0.25909409347E+01 -0.44854571024E+01  0.66869844566E+01  0.84586087194E+01  0.00000000000E+00 0.  1.
</event>
<event>
 7    1  0.3981356E-008  0.4614232E+02  0.7816164E-02  0.1320468E+00
        -11   -1    0    0    0    0  0.00000000000E+00  0.00000000000E+00  0.45593999997E+02  0.45594000000E+02  0.51100000000E-03 0. -1.
         11   -1    0    0    0    0 -0.00000000000E+00 -0.00000000000E+00 -0.45593999997E+02  0.45594000000E+02  0.51100000000E-03 0.  1.
    9900012    2    1    2    0    0  0.17161650475E+02 -0.14677937995E+02  0.38976267296E+02  0.46142317375E+02  0.99999964823E+01 0.  0.
        -12    1    1    2    0    0 -0.17161650475E+02  0.14677937995E+02 -0.38976267296E+02  0.45045682625E+02  0.00000000000E+00 0.  1.
         11    1    3    3    0    0  0.18567975469E+01 -0.50453902382E+01  0.72235813129E+01  0.90046536320E+01  0.51100000000E-03 0.  1.
        -11    1    3    3    0    0 -0.13792117235E+00 -0.15863762804E+01  0.47259897237E+01  0.49870423181E+01  0.51100000000E-03 0. -1.
         12    1    3    3    0    0  0.15442774101E+02 -0.80461714760E+01  0.27026696259E+02  0.32150621425E+02  0.00000000000E+00 0. -1.
</event>
<event>
 7    1  0.3981356E-008  0.4614232E+02  0.7816164E-02  0.1320468E+00
        -11   -1    0    0    0    0  0.00000000000E+00  0.00000000000E+00  0.45593999997E+02  0.45594000000E+02  0.51100000000E-03 0.  1.
         11   -1    0    0    0    0 -0.00000000000E+00 -0.00000000000E+00 -0.45593999997E+02  0.45594000000E+02  0.51100000000E-03 0. -1.
    9900012    2    1    2    0    0 -0.21228062663E+02  0.34266275297E+02 -0.20107343381E+02  0.46142317355E+02  0.99999962950E+01 0.  0.
        -12    1    1    2    0    0  0.21228062663E+02 -0.34266275297E+02  0.20107343381E+02  0.45045682645E+02  0.00000000000E+00 0.  1.
         11    1    3    3    0    0 -0.38912532482E+01  0.89632587603E+01 -0.37394402945E+01  0.10462565337E+02  0.51100000000E-03 0. -1.
        -11    1    3    3    0    0 -0.16265706076E+02  0.21445104912E+02 -0.11226701302E+02  0.29163411001E+02  0.51100000000E-03 0.  1.
         12    1    3    3    0    0 -0.10711033393E+01  0.38579116241E+01 -0.51412017844E+01  0.65163410171E+01  0.00000000000E+00 0. -1.
</event>
<event>
 7    1  0.3981356E-008  0.4614232E+02  0.7816164E-02  0.1320468E+00
        -11   -1    0    0    0    0  0.00000000000E+00  0.00000000000E+00  0.45593999997E+02  0.45594000000E+02  0.51100000000E-03 0.  1.
         11   -1    0    0    0    0 -0.00000000000E+00 -0.00000000000E+00 -0.45593999997E+02  0.45594000000E+02  0.51100000000E-03 0. -1.
    9900012    2    1    2    0    0  0.41276191675E+02 -0.18015147618E+02  0.91868769454E+00  0.46142317299E+02  0.99999957905E+01 0.  0.
        -12    1    1    2    0    0 -0.41276191675E+02  0.18015147618E+02 -0.91868769454E+00  0.45045682701E+02  0.00000000000E+00 0.  1.
         11    1    3    3    0    0  0.68231014103E+01 -0.30753035177E+01  0.15211578051E+01  0.76371543071E+01  0.51100000000E-03 0. -1.
        -11    1    3    3    0    0  0.74127129296E+01 -0.65448983247E+01  0.19421473994E+01  0.10077496904E+02  0.51100000000E-03 0.  1.
         12    1    3    3    0    0  0.27040377335E+02 -0.83949457754E+01 -0.25446175099E+01  0.28427666089E+02  0.00000000000E+00 0. -1.
</event>
<event>
 7    1  0.3981356E-008  0.4614232E+02  0.7816164E-02  0.1320468E+00
        -11   -1    0    0    0    0  0.00000000000E+00  0.00000000000E+00  0.45593999997E+02  0.45594000000E+02  0.51100000000E-03 0. -1.
         11   -1    0    0    0    0 -0.00000000000E+00 -0.00000000000E+00 -0.45593999997E+02  0.45594000000E+02  0.51100000000E-03 0.  1.
    9900012    2    1    2    0    0 -0.33461272220E+02  0.27171283942E+02  0.13083508966E+02  0.46142316339E+02  0.99999870364E+01 0.  0.
        -12    1    1    2    0    0  0.33461272220E+02 -0.27171283942E+02 -0.13083508966E+02  0.45045683661E+02  0.00000000000E+00 0.  1.
         11    1    3    3    0    0 -0.16004292213E+02  0.14326063083E+02  0.71703337320E+01  0.22644803792E+02  0.51100000000E-03 0. -1.
        -11    1    3    3    0    0 -0.17443253150E+02  0.10894424718E+02  0.44066864643E+01  0.21032699690E+02  0.51100000000E-03 0.  1.
         12    1    3    3    0    0 -0.13726856540E-01  0.19507961410E+01  0.15064887695E+01  0.24648128576E+01  0.00000000000E+00 0. -1.
</event>
<event>
 7    1  0.3981356E-008  0.4614232E+02  0.7816164E-02  0.1320468E+00
        -11   -1    0    0    0    0  0.00000000000E+00  0.00000000000E+00  0.45593999997E+02  0.45594000000E+02  0.51100000000E-03 0.  1.
         11   -1    0    0    0    0 -0.00000000000E+00 -0.00000000000E+00 -0.45593999997E+02  0.45594000000E+02  0.51100000000E-03 0. -1.
    9900012    2    1    2    0    0 -0.16537433430E+02  0.15569747541E+02 -0.38899996861E+02  0.46142317646E+02  0.99999989519E+01 0.  0.
        -12    1    1    2    0    0  0.16537433430E+02 -0.15569747541E+02  0.38899996861E+02  0.45045682354E+02  0.00000000000E+00 0.  1.
         11    1    3    3    0    0 -0.78683560936E+01  0.98454445010E+01 -0.24638104447E+02  0.27674536961E+02  0.51100000000E-03 0. -1.
        -11    1    3    3    0    0 -0.46134159892E+01 -0.89869190792E-01 -0.62705904511E+01  0.77853701535E+01  0.51100000000E-03 0.  1.
        -12    1    3    3    0    0 -0.40556613473E+01  0.58141722308E+01 -0.79913019630E+01  0.10682410531E+02  0.00000000000E+00 0.  1.
</event>
<event>
 7    1  0.3981356E-008  0.4614232E+02  0.7816164E-02  0.1320468E+00
        -11   -1    0    0    0    0  0.00000000000E+00  0.00000000000E+00  0.45593999997E+02  0.45594000000E+02  0.51100000000E-03 0.  1.
         11   -1    0    0    0    0 -0.00000000000E+00 -0.00000000000E+00 -0.45593999997E+02  0.45594000000E+02  0.51100000000E-03 0. -1.
    9900012    2    1    2    0    0  0.35357197173E+02  0.48771242926E+01 -0.27480823503E+02  0.46142318812E+02  0.10000009583E+02 0.  0.
        -12    1    1    2    0    0 -0.35357197173E+02 -0.48771242926E+01  0.27480823503E+02  0.45045681188E+02  0.00000000000E+00 0.  1.
         11    1    3    3    0    0  0.44204473828E+01  0.96010374132E+00 -0.28900226193E+01  0.53679032461E+01  0.51100000000E-03 0. -1.
        -11    1    3    3    0    0  0.20295402389E+02  0.57723180191E+00 -0.20612786592E+02  0.28933087046E+02  0.51100000000E-03 0.  1.
        -12    1    3    3    0    0  0.10641347401E+02  0.33397887494E+01 -0.39780142919E+01  0.11841328520E+02  0.00000000000E+00 0.  1.
</event>
<event>
 7    1  0.3981356E-008  0.4614231E+02  0.7816164E-02  0.1320468E+00
        -11   -1    0    0    0    0  0.00000000000E+00  0.00000000000E+00  0.45593999997E+02  0.45594000000E+02  0.51100000000E-03 0.  1.
         11   -1    0    0    0    0 -0.00000000000E+00 -0.00000000000E+00 -0.45593999997E+02  0.45594000000E+02  0.51100000000E-03 0. -1.
    9900012    2    1    2    0    0  0.17136394207E+01 -0.19210977528E+02 -0.40707685924E+02  0.46142313071E+02  0.99999572306E+01 0.  0.
        -12    1    1    2    0    0 -0.17136394207E+01  0.19210977528E+02  0.40707685924E+02  0.45045686929E+02  0.00000000000E+00 0.  1.
         11    1    3    3    0    0  0.85773424824E+00 -0.67128176314E+01 -0.96856654789E+01  0.11815656758E+02  0.51100000000E-03 0. -1.
        -11    1    3    3    0    0 -0.45944545494E+00  0.10051991358E+01 -0.18705231305E+01  0.21726418185E+01  0.51100000000E-03 0.  1.
         12    1    3    3    0    0  0.13153506274E+01 -0.13503359032E+02 -0.29151497315E+02  0.32154014494E+02  0.00000000000E+00 0. -1.
</event>
<event>
 7    1  0.3981356E-008  0.4614232E+02  0.7816164E-02  0.1320468E+00
        -11   -1    0    0    0    0  0.00000000000E+00  0.00000000000E+00  0.45593999997E+02  0.45594000000E+02  0.51100000000E-03 0. -1.
         11   -1    0    0    0    0 -0.00000000000E+00 -0.00000000000E+00 -0.45593999997E+02  0.45594000000E+02  0.51100000000E-03 0.  1.
    9900012    2    1    2    0    0  0.10301481299E+02 -0.42826325712E+02  0.94286136509E+01  0.46142318228E+02  0.10000004254E+02 0.  0.
        -12    1    1    2    0    0 -0.10301481299E+02  0.42826325712E+02 -0.94286136509E+01  0.45045681772E+02  0.00000000000E+00 0.  1.
         11    1    3    3    0    0  0.47256349525E+01 -0.24186625198E+02  0.70887014690E+01  0.25643208710E+02  0.51100000000E-03 0. -1.
        -11    1    3    3    0    0  0.53104793821E+01 -0.18582810985E+02  0.12402730910E+01  0.19366474459E+02  0.51100000000E-03 0.  1.
         12    1    3    3    0    0  0.26536696464E+00 -0.56889528705E-01  0.10996390909E+01  0.11326350580E+01  0.00000000000E+00 0. -1.
</event>
<event>
 7    1  0.3981356E-008  0.4614232E+02  0.7816164E-02  0.1320468E+00
        -11   -1    0    0    0    0  0.00000000000E+00  0.00000000000E+00  0.45593999997E+02  0.45594000000E+02  0.51100000000E-03 0.  1.
         11   -1    0    0    0    0 -0.00000000000E+00 -0.00000000000E+00 -0.45593999997E+02  0.45594000000E+02  0.51100000000E-03 0. -1.
    9900012    2    1    2    0    0 -0.15822096812E+02  0.60055240417E+01 -0.41745758655E+02  0.46142318384E+02  0.10000005680E+02 0.  0.
        -12    1    1    2    0    0  0.15822096812E+02 -0.60055240417E+01  0.41745758655E+02  0.45045681616E+02  0.00000000000E+00 0.  1.
         11    1    3    3    0    0 -0.53299968300E-01  0.25616120365E+00 -0.56628300839E+01  0.56688715164E+01  0.51100000000E-03 0. -1.
        -11    1    3    3    0    0  0.51569159897E+00  0.56436799389E+00 -0.44874270141E+01  0.45520819990E+01  0.51100000000E-03 0.  1.
        -12    1    3    3    0    0 -0.16284488443E+02  0.51849948441E+01 -0.31595501557E+02  0.35921364869E+02  0.00000000000E+00 0.  1.
</event>
<event>
 7    1  0.3981356E-008  0.4614232E+02  0.7816164E-02  0.1320468E+00
        -11   -1    0    0    0    0  0.00000000000E+00  0.00000000000E+00  0.45593999997E+02  0.45594000000E+02  0.51100000000E-03 0.  1.
         11   -1    0    0    0    0 -0.00000000000E+00 -0.00000000000E+00 -0.45593999997E+02  0.45594000000E+02  0.51100000000E-03 0. -1.
    9900012    2    1    2    0    0  0.32185972112E+01 -0.15883097140E+02 -0.42029529015E+02  0.46142318165E+02  0.10000003680E+02 0.  0.
        -12    1    1    2    0    0 -0.32185972112E+01  0.15883097140E+02  0.42029529015E+02  0.45045681835E+02  0.00000000000E+00 0.  1.
         11    1    3    3    0    0  0.49118837152E+01 -0.96036635880E+01 -0.20755902540E+02  0.23391546474E+02  0.51100000000E-03 0. -1.
        -11    1    3    3    0    0  0.11645593252E+01 -0.23038578032E+01 -0.11885382487E+02  0.12162494659E+02  0.51100000000E-03 0.  1.
        -12    1    3    3    0    0 -0.28578458292E+01 -0.39755757484E+01 -0.93882439884E+01  0.10588277032E+02  0.00000000000E+00 0.  1.
</event>
<event>
 7    1  0.3981356E-008  0.4614232E+02  0.7816164E-02  0.1320468E+00
        -11   -1    0    0    0    0  0.00000000000E+00  0.00000000000E+00  0.45593999997E+02  0.45594000000E+02  0.51100000000E-03 0.  1.
         11   -1    0    0    0    0 -0.00000000000E+00 -0.00000000000E+00 -0.45593999997E+02  0.45594000000E+02  0.51100000000E-03 0. -1.
    9900012    2    1    2    0    0  0.31185075089E+01  0.13006646381E+02 -0.43014130759E+02  0.46142318918E+02  0.10000010553E+02 0.  0.
        -12    1    1    2    0    0 -0.31185075089E+01 -0.13006646381E+02  0.43014130759E+02  0.45045681082E+02  0.00000000000E+00 0.  1.
         11    1    3    3    0    0 -0.10904295505E+01  0.66834641516E+00 -0.13999617558E+01  0.18962111471E+01  0.51100000000E-03 0. -1.
        -11    1    3    3    0    0 -0.95329211042E+00  0.10359183378E+01 -0.12664746400E+02  0.12742750656E+02  0.51100000000E-03 0.  1.
        -12    1    3    3    0    0  0.51622291698E+01  0.11302381628E+02 -0.28949422603E+02  0.31503357115E+02  0.00000000000E+00 0.  1.
</event>
<event>
 7    1  0.3981356E-008  0.4614232E+02  0.7816164E-02  0.1320468E+00
        -11   -1    0    0    0    0  0.00000000000E+00  0.00000000000E+00  0.45593999997E+02  0.45594000000E+02  0.51100000000E-03 0.  1.
         11   -1    0    0    0    0 -0.00000000000E+00 -0.00000000000E+00 -0.45593999997E+02  0.45594000000E+02  0.51100000000E-03 0. -1.
    9900012    2    1    2    0    0 -0.27645802800E+02 -0.27292765440E+01 -0.35459471330E+02  0.46142317966E+02  0.10000001870E+02 0.  0.
        -12    1    1    2    0    0  0.27645802800E+02  0.27292765440E+01  0.35459471330E+02  0.45045682034E+02  0.00000000000E+00 0.  1.
         11    1    3    3    0    0 -0.30248646218E+01  0.15778164566E+01 -0.61985445223E+01  0.70753985900E+01  0.51100000000E-03 0. -1.
        -11    1    3    3    0    0 -0.81860084844E+01 -0.22753551330E+01 -0.55603688367E+01  0.10154096599E+02  0.51100000000E-03 0.  1.
         12    1    3    3    0    0 -0.16434929694E+02 -0.20317378676E+01 -0.23700557970E+02  0.28912822777E+02  0.00000000000E+00 0. -1.
</event>
<event>
 7    1  0.3981356E-008  0.4614232E+02  0.7816164E-02  0.1320468E+00
        -11   -1    0    0    0    0  0.00000000000E+00  0.00000000000E+00  0.45593999997E+02  0.45594000000E+02  0.51100000000E-03 0. -1.
         11   -1    0    0    0    0 -0.00000000000E+00 -0.00000000000E+00 -0.45593999997E+02  0.45594000000E+02  0.51100000000E-03 0.  1.
    9900012    2    1    2    0    0 -0.38250598666E+02 -0.23336866791E+02  0.46255587021E+01  0.46142318262E+02  0.10000004567E+02 0.  0.
        -12    1    1    2    0    0  0.38250598666E+02  0.23336866791E+02 -0.46255587021E+01  0.45045681738E+02  0.00000000000E+00 0.  1.
         11    1    3    3    0    0 -0.12602285233E+01 -0.93188244432E+00 -0.22222609478E+00  0.15830241689E+01  0.51100000000E-03 0.  1.
        -11    1    3    3    0    0 -0.31729559848E+02 -0.22640584741E+02  0.35819991009E+01  0.39143221167E+02  0.51100000000E-03 0. -1.
         12    1    3    3    0    0 -0.52608102952E+01  0.23560039434E+00  0.12657856960E+01  0.54160729257E+01  0.00000000000E+00 0. -1.
</event>
<event>
 7    1  0.3981356E-008  0.4614232E+02  0.7816164E-02  0.1320468E+00
        -11   -1    0    0    0    0  0.00000000000E+00  0.00000000000E+00  0.45593999997E+02  0.45594000000E+02  0.51100000000E-03 0.  1.
         11   -1    0    0    0    0 -0.00000000000E+00 -0.00000000000E+00 -0.45593999997E+02  0.45594000000E+02  0.51100000000E-03 0. -1.
    9900012    2    1    2    0    0  0.20264178499E+02  0.58751746037E+01 -0.39798982564E+02  0.46142316300E+02  0.99999866801E+01 0.  0.
        -12    1    1    2    0    0 -0.20264178499E+02 -0.58751746037E+01  0.39798982564E+02  0.45045683700E+02  0.00000000000E+00 0.  1.
         11    1    3    3    0    0  0.26223719454E+01 -0.13649154133E+00 -0.12676568006E+02  0.12945688133E+02  0.51100000000E-03 0. -1.
        -11    1    3    3    0    0  0.63748189687E+01  0.33857019114E+00 -0.72656302382E+01  0.96717283707E+01  0.51100000000E-03 0.  1.
         12    1    3    3    0    0  0.11266987585E+02  0.56730959539E+01 -0.19856784319E+02  0.23524899797E+02  0.00000000000E+00 0. -1.
</event>
<event>
 7    1  0.3981356E-008  0.4614232E+02  0.7816164E-02  0.1320468E+00
        -11   -1    0    0    0    0  0.00000000000E+00  0.00000000000E+00  0.45593999997E+02  0.45594000000E+02  0.51100000000E-03 0.  1.
         11   -1    0    0    0    0 -0.00000000000E+00 -0.00000000000E+00 -0.45593999997E+02  0.45594000000E+02  0.51100000000E-03 0. -1.
    9900012    2    1    2    0    0 -0.20390816081E+02  0.91423912449E+00 -0.40155849788E+02  0.46142317789E+02  0.10000000254E+02 0.  0.
        -12    1    1    2    0    0  0.20390816081E+02 -0.91423912449E+00  0.40155849788E+02  0.45045682211E+02  0.00000000000E+00 0.  1.
         11    1    3    3    0    0 -0.29770834675E+01  0.19441034280E+00 -0.30021126605E+01  0.42324345289E+01  0.51100000000E-03 0. -1.
        -11    1    3    3    0    0 -0.17821067926E+02  0.20510519529E+01 -0.33513480543E+02  0.38012506554E+02  0.51100000000E-03 0.  1.
        -12    1    3    3    0    0  0.40733531213E+00 -0.13312231712E+01 -0.36402565847E+01  0.38973767063E+01  0.00000000000E+00 0.  1.
</event>
<event>
 7    1  0.3981356E-008  0.4614232E+02  0.7816164E-02  0.1320468E+00
        -11   -1    0    0    0    0  0.00000000000E+00  0.00000000000E+00  0.45593999997E+02  0.45594000000E+02  0.51100000000E-03 0.  1.
         11   -1    0    0    0    0 -0.00000000000E+00 -0.00000000000E+00 -0.45593999997E+02  0.45594000000E+02  0.51100000000E-03 0. -1.
    9900012    2    1    2    0    0  0.99233099634E+01 -0.70193366133E+01 -0.43374766335E+02  0.46142317391E+02  0.99999966228E+01 0.  0.
        -12    1    1    2    0    0 -0.99233099634E+01  0.70193366133E+01  0.43374766335E+02  0.45045682609E+02  0.00000000000E+00 0.  1.
         11    1    3    3    0    0  0.67225207275E+01 -0.19997829410E+01 -0.27923083597E+02  0.28790450058E+02  0.51100000000E-03 0. -1.
        -11    1    3    3    0    0  0.41542310668E+01 -0.31332981964E+01 -0.13527104051E+02  0.14493368746E+02  0.51100000000E-03 0.  1.
        -12    1    3    3    0    0 -0.95344183099E+00 -0.18862554759E+01 -0.19245786876E+01  0.28584985867E+01  0.00000000000E+00 0.  1.
</event>
<event>
 7    1  0.4407843E-008  0.4614232E+02  0.7816164E-02  0.1320468E+00
        -11   -1    0    0    0    0  0.00000000000E+00  0.00000000000E+00  0.45593999997E+02  0.45594000000E+02  0.51100000000E-03 0. -1.
         11   -1    0    0    0    0 -0.00000000000E+00 -0.00000000000E+00 -0.45593999997E+02  0.45594000000E+02  0.51100000000E-03 0.  1.
    9900012    2    1    2    0    0 -0.25288221718E+01 -0.59110216347E+01  0.44584508432E+02  0.46142317516E+02  0.99999977642E+01 0.  0.
        -12    1    1    2    0    0  0.25288221718E+01  0.59110216347E+01 -0.44584508432E+02  0.45045682484E+02  0.00000000000E+00 0.  1.
         11    1    3    3    0    0 -0.16988816066E+01 -0.37772622479E+01  0.25381447521E+02  0.25717149673E+02  0.51100000000E-03 0. -1.
        -11    1    3    3    0    0  0.88804401545E+00 -0.41012928115E+01  0.96810252662E+01  0.10551373151E+02  0.51100000000E-03 0.  1.
        -12    1    3    3    0    0 -0.17179845807E+01  0.19675334248E+01  0.95220356450E+01  0.98737946921E+01  0.00000000000E+00 0.  1.
</event>
<event>
 7    1  0.3981356E-008  0.4614231E+02  0.7816164E-02  0.1320468E+00
        -11   -1    0    0    0    0  0.00000000000E+00  0.00000000000E+00  0.45593999997E+02  0.45594000000E+02  0.51100000000E-03 0. -1.
         11   -1    0    0    0    0 -0.00000000000E+00 -0.00000000000E+00 -0.45593999997E+02  0.45594000000E+02  0.51100000000E-03 0.  1.
    9900012    2    1    2    0    0 -0.16109353872E+02  0.27253733528E+01  0.41978266487E+02  0.46142314310E+02  0.99999685254E+01 0.  0.
        -12    1    1    2    0    0  0.16109353872E+02 -0.27253733528E+01 -0.41978266487E+02  0.45045685690E+02  0.00000000000E+00 0.  1.
         11    1    3    3    0    0 -0.13824741052E+02 -0.17009131140E+01  0.30354670777E+02  0.33397943182E+02  0.51100000000E-03 0. -1.
        -11    1    3    3    0    0  0.64294804713E-01  0.85584775312E+00  0.11713659379E+01  0.14521389810E+01  0.51100000000E-03 0.  1.
         12    1    3    3    0    0 -0.23489076250E+01  0.35704387136E+01  0.10452229772E+02  0.11292232146E+02  0.00000000000E+00 0. -1.
</event>
<event>
 7    1  0.3981356E-008  0.4614231E+02  0.7816164E-02  0.1320468E+00
        -11   -1    0    0    0    0  0.00000000000E+00  0.00000000000E+00  0.45593999997E+02  0.45594000000E+02  0.51100000000E-03 0. -1.
         11   -1    0    0    0    0 -0.00000000000E+00 -0.00000000000E+00 -0.45593999997E+02  0.45594000000E+02  0.51100000000E-03 0.  1.
    9900012    2    1    2    0    0  0.43001392700E+01  0.42905057330E+02 -0.13029917156E+02  0.46142313378E+02  0.99999600284E+01 0.  0.
        -12    1    1    2    0    0 -0.43001392700E+01 -0.42905057330E+02  0.13029917156E+02  0.45045686622E+02  0.00000000000E+00 0.  1.
         11    1    3    3    0    0  0.45035419535E+01  0.16775262640E+02 -0.43082102329E+01  0.17895586116E+02  0.51100000000E-03 0. -1.
        -11    1    3    3    0    0 -0.46469431786E+00  0.22209599936E+02 -0.48643897150E+01  0.22740812600E+02  0.51100000000E-03 0.  1.
         12    1    3    3    0    0  0.26129163431E+00  0.39201947534E+01 -0.38573172078E+01  0.55059146619E+01  0.00000000000E+00 0. -1.
</event>
<event>
 7    1  0.3981356E-008  0.4614232E+02  0.7816164E-02  0.1320468E+00
        -11   -1    0    0    0    0  0.00000000000E+00  0.00000000000E+00  0.45593999997E+02  0.45594000000E+02  0.51100000000E-03 0. -1.
         11   -1    0    0    0    0 -0.00000000000E+00 -0.00000000000E+00 -0.45593999997E+02  0.45594000000E+02  0.51100000000E-03 0.  1.
    9900012    2    1    2    0    0 -0.18930252891E+02  0.10189766797E+02  0.39584437862E+02  0.46142317158E+02  0.99999944989E+01 0.  0.
        -12    1    1    2    0    0  0.18930252891E+02 -0.10189766797E+02 -0.39584437862E+02  0.45045682842E+02  0.00000000000E+00 0.  1.
         11    1    3    3    0    0 -0.16639810425E+02  0.90350022138E+01  0.36077783784E+02  0.40744582940E+02  0.51100000000E-03 0. -1.
        -11    1    3    3    0    0 -0.22072982504E+01 -0.60899082290E+00  0.15662194661E+01  0.27741807918E+01  0.51100000000E-03 0.  1.
        -12    1    3    3    0    0 -0.83144215321E-01  0.17637554064E+01  0.19404346120E+01  0.26235534257E+01  0.00000000000E+00 0.  1.
</event>
<event>
 7    1  0.3981356E-008  0.4614232E+02  0.7816164E-02  0.1320468E+00
        -11   -1    0    0    0    0  0.00000000000E+00  0.00000000000E+00  0.45593999997E+02  0.45594000000E+02  0.51100000000E-03 0.  1.
         11   -1    0    0    0    0 -0.00000000000E+00 -0.00000000000E+00 -0.45593999997E+02  0.45594000000E+02  0.51100000000E-03 0. -1.
    9900012    2    1    2    0    0  0.19203931195E+02  0.38164950404E+02 -0.14274425401E+02  0.46142316153E+02  0.99999853401E+01 0.  0.
        -12    1    1    2    0    0 -0.19203931195E+02 -0.38164950404E+02  0.14274425401E+02  0.45045683847E+02  0.00000000000E+00 0.  1.
         11    1    3    3    0    0  0.29369469011E+01  0.12708760739E+02 -0.74805423368E+01  0.15036514574E+02  0.51100000000E-03 0. -1.
        -11    1    3    3    0    0  0.27795846156E+01  0.56198716115E+01 -0.40749823442E+00  0.62829215049E+01  0.51100000000E-03 0.  1.
         12    1    3    3    0    0  0.13487399678E+02  0.19836318053E+02 -0.63863848298E+01  0.24822880074E+02  0.00000000000E+00 0. -1.
</event>
<event>
 7    1  0.3981356E-008  0.4614232E+02  0.7816164E-02  0.1320468E+00
        -11   -1    0    0    0    0  0.00000000000E+00  0.00000000000E+00  0.45593999997E+02  0.45594000000E+02  0.51100000000E-03 0. -1.
         11   -1    0    0    0    0 -0.00000000000E+00 -0.00000000000E+00 -0.45593999997E+02  0.45594000000E+02  0.51100000000E-03 0.  1.
    9900012    2    1    2    0    0  0.47023650234E+01  0.40648901763E+02  0.18832631685E+02  0.46142317992E+02  0.10000002109E+02 0.  0.
        -12    1    1    2    0    0 -0.47023650234E+01 -0.40648901763E+02 -0.18832631685E+02  0.45045682008E+02  0.00000000000E+00 0.  1.
         11    1    3    3    0    0  0.33274235491E+00  0.21812355945E+02  0.12623340340E+02  0.25203934434E+02  0.51100000000E-03 0. -1.
        -11    1    3    3    0    0 -0.10220251240E+01  0.54244336151E+01  0.12858661898E+01  0.56676686140E+01  0.51100000000E-03 0.  1.
         12    1    3    3    0    0  0.53916477925E+01  0.13412112202E+02  0.49234251560E+01  0.15270714944E+02  0.00000000000E+00 0. -1.
</event>
<event>
 7    1  0.3981356E-008  0.4614232E+02  0.7816164E-02  0.1320468E+00
        -11   -1    0    0    0    0  0.00000000000E+00  0.00000000000E+00  0.45593999997E+02  0.45594000000E+02  0.51100000000E-03 0.  1.
         11   -1    0    0    0    0 -0.00000000000E+00 -0.00000000000E+00 -0.45593999997E+02  0.45594000000E+02  0.51100000000E-03 0. -1.
    9900012    2    1    2    0    0  0.34827777958E+02  0.25095878588E+02  0.13650507144E+02  0.46142316690E+02  0.99999902314E+01 0.  0.
        -12    1    1    2    0    0 -0.34827777958E+02 -0.25095878588E+02 -0.13650507144E+02  0.45045683310E+02  0.00000000000E+00 0.  1.
         11    1    3    3    0    0  0.94910343350E+01  0.30425216755E+01  0.14016802152E+01  0.10064858597E+02  0.51100000000E-03 0. -1.
        -11    1    3    3    0    0  0.20621344487E+02  0.15306085798E+02  0.98254755917E+01  0.27496473988E+02  0.51100000000E-03 0.  1.
        -12    1    3    3    0    0  0.47153991363E+01  0.67472711145E+01  0.24233513367E+01  0.85809841049E+01  0.00000000000E+00 0.  1.
</event>
<event>
 7    1  0.3981356E-008  0.4614232E+02  0.7816164E-02  0.1320468E+00
        -11   -1    0    0    0    0  0.00000000000E+00  0.00000000000E+00  0.45593999997E+02  0.45594000000E+02  0.51100000000E-03 0.  1.
         11   -1    0    0    0    0 -0.00000000000E+00 -0.00000000000E+00 -0.45593999997E+02  0.45594000000E+02  0.51100000000E-03 0. -1.
    9900012    2    1    2    0    0 -0.96168867867E+01  0.22030030092E+01 -0.43951970253E+02  0.46142318488E+02  0.10000006629E+02 0.  0.
        -12    1    1    2    0    0  0.96168867867E+01 -0.22030030092E+01  0.43951970253E+02  0.45045681512E+02  0.00000000000E+00 0.  1.
         11    1    3    3    0    0 -0.50914585053E+01 -0.22555564692E+01 -0.30227661429E+02  0.30736330302E+02  0.51100000000E-03 0. -1.
        -11    1    3    3    0    0 -0.43102308897E+01  0.34842032537E+01 -0.13112030863E+02  0.14235277175E+02  0.51100000000E-03 0.  1.
         12    1    3    3    0    0 -0.21519739170E+00  0.97435622472E+00 -0.61227796133E+00  0.11707110113E+01  0.00000000000E+00 0. -1.
</event>
<event>
 7    1  0.3981356E-008  0.4614232E+02  0.7816164E-02  0.1320468E+00
        -11   -1    0    0    0    0  0.00000000000E+00  0.00000000000E+00  0.45593999997E+02  0.45594000000E+02  0.51100000000E-03 0. -1.
         11   -1    0    0    0    0 -0.00000000000E+00 -0.00000000000E+00 -0.45593999997E+02  0.45594000000E+02  0.51100000000E-03 0.  1.
    9900012    2    1    2    0    0  0.43329498367E+02 -0.59528502329E+01  0.10781078686E+02  0.46142317496E+02  0.99999975819E+01 0.  0.
        -12    1    1    2    0    0 -0.43329498367E+02  0.59528502329E+01 -0.10781078686E+02  0.45045682504E+02  0.00000000000E+00 0.  1.
         11    1    3    3    0    0  0.17144715256E+02 -0.15155924909E+01  0.51328700959E+01  0.17960641344E+02  0.51100000000E-03 0. -1.
        -11    1    3    3    0    0  0.20069826266E+01  0.75917349021E+00 -0.12813501059E+01  0.24992362847E+01  0.51100000000E-03 0.  1.
        -12    1    3    3    0    0  0.24177800484E+02 -0.51964312322E+01  0.69295586958E+01  0.25682439867E+02  0.00000000000E+00 0.  1.
</event>
<event>
 7    1  0.3981356E-008  0.4614233E+02  0.7816164E-02  0.1320468E+00
        -11   -1    0    0    0    0  0.00000000000E+00  0.00000000000E+00  0.45593999997E+02  0.45594000000E+02  0.51100000000E-03 0.  1.
         11   -1    0    0    0    0 -0.00000000000E+00 -0.00000000000E+00 -0.45593999997E+02  0.45594000000E+02  0.51100000000E-03 0. -1.
    9900012    2    1    2    0    0 -0.13556137772E+02  0.11745320094E+02 -0.41320588687E+02  0.46142329122E+02  0.10000103600E+02 0.  0.
        -12    1    1    2    0    0  0.13556137772E+02 -0.11745320094E+02  0.41320588687E+02  0.45045670878E+02  0.00000000000E+00 0.  1.
         11    1    3    3    0    0  0.66072447429E+00  0.20682526130E+00 -0.32696931116E+01  0.33421889272E+01  0.51100000000E-03 0. -1.
        -11    1    3    3    0    0 -0.58916679268E+01  0.15022602456E+01 -0.80519457185E+01  0.10089715899E+02  0.51100000000E-03 0.  1.
         12    1    3    3    0    0 -0.83251943197E+01  0.10036234587E+02 -0.29998949857E+02  0.32710424296E+02  0.00000000000E+00 0. -1.
</event>
<event>
 7    1  0.3981356E-008  0.4614232E+02  0.7816164E-02  0.1320468E+00
        -11   -1    0    0    0    0  0.00000000000E+00  0.00000000000E+00  0.45593999997E+02  0.45594000000E+02  0.51100000000E-03 0.  1.
         11   -1    0    0    0    0 -0.00000000000E+00 -0.00000000000E+00 -0.45593999997E+02  0.45594000000E+02  0.51100000000E-03 0. -1.
    9900012    2    1    2    0    0  0.23534160633E+02  0.64827293276E+01 -0.37858037481E+02  0.46142317653E+02  0.99999990136E+01 0.  0.
        -12    1    1    2    0    0 -0.23534160633E+02 -0.64827293276E+01  0.37858037481E+02  0.45045682347E+02  0.00000000000E+00 0.  1.
         11    1    3    3    0    0  0.10160126381E+02  0.44558703661E+01 -0.11176297627E+02  0.15747780088E+02  0.51100000000E-03 0.  1.
        -11    1    3    3    0    0  0.75722101051E+01 -0.51720892807E+00 -0.18854571108E+02  0.20324879406E+02  0.51100000000E-03 0. -1.
         12    1    3    3    0    0  0.58018241467E+01  0.25440678895E+01 -0.78271687457E+01  0.10069658159E+02  0.00000000000E+00 0. -1.
</event>
<event>
 7    1  0.3981356E-008  0.4614232E+02  0.7816164E-02  0.1320468E+00
        -11   -1    0    0    0    0  0.00000000000E+00  0.00000000000E+00  0.45593999997E+02  0.45594000000E+02  0.51100000000E-03 0. -1.
         11   -1    0    0    0    0 -0.00000000000E+00 -0.00000000000E+00 -0.45593999997E+02  0.45594000000E+02  0.51100000000E-03 0.  1.
    9900012    2    1    2    0    0 -0.15014497584E+02  0.10154197248E+02  0.41237975293E+02  0.46142318013E+02  0.10000002294E+02 0.  0.
        -12    1    1    2    0    0  0.15014497584E+02 -0.10154197248E+02 -0.41237975293E+02  0.45045681987E+02  0.00000000000E+00 0.  1.
         11    1    3    3    0    0 -0.63481583483E+01  0.16156068166E+01  0.16150460916E+02  0.17428330037E+02  0.51100000000E-03 0. -1.
        -11    1    3    3    0    0 -0.51945474480E+01  0.79422805385E+01  0.22254435577E+02  0.24193450487E+02  0.51100000000E-03 0.  1.
        -12    1    3    3    0    0 -0.34717917880E+01  0.59630989275E+00  0.28330787993E+01  0.45205374892E+01  0.00000000000E+00 0.  1.
</event>
<event>
 7    1  0.3981356E-008  0.4614232E+02  0.7816164E-02  0.1320468E+00
        -11   -1    0    0    0    0  0.00000000000E+00  0.00000000000E+00  0.45593999997E+02  0.45594000000E+02  0.51100000000E-03 0. -1.
         11   -1    0    0    0    0 -0.00000000000E+00 -0.00000000000E+00 -0.45593999997E+02  0.45594000000E+02  0.51100000000E-03 0.  1.
    9900012    2    1    2    0    0 -0.19444217773E+02 -0.14251174952E+02  0.38051805405E+02  0.46142317777E+02  0.10000000149E+02 0.  0.
        -12    1    1    2    0    0  0.19444217773E+02  0.14251174952E+02 -0.38051805405E+02  0.45045682223E+02  0.00000000000E+00 0.  1.
         11    1    3    3    0    0 -0.11844702022E+02 -0.68716977166E+01  0.16730306432E+02  0.21619906315E+02  0.51100000000E-03 0. -1.
        -11    1    3    3    0    0 -0.76242747879E+01 -0.82286546805E+01  0.20304549923E+02  0.23197307424E+02  0.51100000000E-03 0.  1.
        -12    1    3    3    0    0  0.24759036625E-01  0.84917744481E+00  0.10169490498E+01  0.13251040384E+01  0.00000000000E+00 0.  1.
</event>
<event>
 7    1  0.3981356E-008  0.4614232E+02  0.7816164E-02  0.1320468E+00
        -11   -1    0    0    0    0  0.00000000000E+00  0.00000000000E+00  0.45593999997E+02  0.45594000000E+02  0.51100000000E-03 0.  1.
         11   -1    0    0    0    0 -0.00000000000E+00 -0.00000000000E+00 -0.45593999997E+02  0.45594000000E+02  0.51100000000E-03 0. -1.
    9900012    2    1    2    0    0 -0.11336566636E+02  0.27884470094E+02 -0.33511969634E+02  0.46142317362E+02  0.99999963651E+01 0.  0.
        -12    1    1    2    0    0  0.11336566636E+02 -0.27884470094E+02  0.33511969634E+02  0.45045682638E+02  0.00000000000E+00 0.  1.
         11    1    3    3    0    0 -0.37794741060E+01  0.89979020163E+01 -0.11732356532E+02  0.15260893003E+02  0.51100000000E-03 0. -1.
        -11    1    3    3    0    0 -0.91544852662E+01  0.16953730645E+02 -0.18150122202E+02  0.26469992813E+02  0.51100000000E-03 0.  1.
        -12    1    3    3    0    0  0.15973927363E+01  0.19328374326E+01 -0.36294909004E+01  0.44114315467E+01  0.00000000000E+00 0.  1.
</event>
<event>
 7    1  0.3981356E-008  0.4614232E+02  0.7816164E-02  0.1320468E+00
        -11   -1    0    0    0    0  0.00000000000E+00  0.00000000000E+00  0.45593999997E+02  0.45594000000E+02  0.51100000000E-03 0. -1.
         11   -1    0    0    0    0 -0.00000000000E+00 -0.00000000000E+00 -0.45593999997E+02  0.45594000000E+02  0.51100000000E-03 0.  1.
    9900012    2    1    2    0    0  0.13958798278E+02  0.30530066615E+02  0.30036319490E+02  0.46142317572E+02  0.99999982757E+01 0.  0.
        -12    1    1    2    0    0 -0.13958798278E+02 -0.30530066615E+02 -0.30036319490E+02  0.45045682428E+02  0.00000000000E+00 0.  1.
         11    1    3    3    0    0  0.70304430812E+01  0.99117402877E+01  0.11383258621E+02  0.16650774833E+02  0.51100000000E-03 0. -1.
        -11    1    3    3    0    0  0.16697902878E+01  0.35505326109E+01  0.38267656890E+00  0.39421977429E+01  0.51100000000E-03 0.  1.
         12    1    3    3    0    0  0.52585649094E+01  0.17067793716E+02  0.18270384300E+02  0.25549344996E+02  0.00000000000E+00 0. -1.
</event>
<event>
 7    1  0.3981356E-008  0.4614232E+02  0.7816164E-02  0.1320468E+00
        -11   -1    0    0    0    0  0.00000000000E+00  0.00000000000E+00  0.45593999997E+02  0.45594000000E+02  0.51100000000E-03 0.  1.
         11   -1    0    0    0    0 -0.00000000000E+00 -0.00000000000E+00 -0.45593999997E+02  0.45594000000E+02  0.51100000000E-03 0. -1.
    9900012    2    1    2    0    0 -0.29272289120E+02 -0.28412923463E+02 -0.19103729642E+02  0.46142316341E+02  0.99999870530E+01 0.  0.
        -12    1    1    2    0    0  0.29272289120E+02  0.28412923463E+02  0.19103729642E+02  0.45045683659E+02  0.00000000000E+00 0.  1.
         11    1    3    3    0    0 -0.79583878364E+01 -0.70533207409E+01 -0.47858583582E+01  0.11661462640E+02  0.51100000000E-03 0. -1.
        -11    1    3    3    0    0 -0.17895649328E+02 -0.12610327555E+02 -0.11146523596E+02  0.24566636205E+02  0.51100000000E-03 0.  1.
         12    1    3    3    0    0 -0.34182519555E+01 -0.87492751678E+01 -0.31713476878E+01  0.99142174956E+01  0.00000000000E+00 0. -1.
</event>
<event>
 7    1  0.3981356E-008  0.4614232E+02  0.7816164E-02  0.1320468E+00
        -11   -1    0    0    0    0  0.00000000000E+00  0.00000000000E+00  0.45593999997E+02  0.45594000000E+02  0.51100000000E-03 0.  1.
         11   -1    0    0    0    0 -0.00000000000E+00 -0.00000000000E+00 -0.45593999997E+02  0.45594000000E+02  0.51100000000E-03 0. -1.
    9900012    2    1    2    0    0 -0.32718313316E+02 -0.14861177556E+02 -0.27161940929E+02  0.46142315860E+02  0.99999826664E+01 0.  0.
        -12    1    1    2    0    0  0.32718313316E+02  0.14861177556E+02  0.27161940929E+02  0.45045684140E+02  0.00000000000E+00 0.  1.
         11    1    3    3    0    0 -0.13131229251E+01 -0.18085674682E+01 -0.34329928310E+01  0.40964189412E+01  0.51100000000E-03 0.  1.
        -11    1    3    3    0    0 -0.60904104330E+01 -0.14777403228E+01 -0.15528348418E+01  0.64566331793E+01  0.51100000000E-03 0. -1.
         12    1    3    3    0    0 -0.25314779958E+02 -0.11574869765E+02 -0.22176113256E+02  0.35589263740E+02  0.00000000000E+00 0. -1.
</event>
<event>
 7    1  0.3981356E-008  0.4614232E+02  0.7816164E-02  0.1320468E+00
        -11   -1    0    0    0    0  0.00000000000E+00  0.00000000000E+00  0.45593999997E+02  0.45594000000E+02  0.51100000000E-03 0.  1.
         11   -1    0    0    0    0 -0.00000000000E+00 -0.00000000000E+00 -0.45593999997E+02  0.45594000000E+02  0.51100000000E-03 0. -1.
    9900012    2    1    2    0    0 -0.19428684933E+02  0.29299916585E+02 -0.28162999876E+02  0.46142317941E+02  0.10000001641E+02 0.  0.
        -12    1    1    2    0    0  0.19428684933E+02 -0.29299916585E+02  0.28162999876E+02  0.45045682059E+02  0.00000000000E+00 0.  1.
         11    1    3    3    0    0 -0.11961566367E+01  0.39164820523E+01 -0.30932552597E+01  0.51320415751E+01  0.51100000000E-03 0. -1.
        -11    1    3    3    0    0 -0.85740576410E+01  0.71662880113E+01 -0.12902580468E+02  0.17068881958E+02  0.51100000000E-03 0.  1.
         12    1    3    3    0    0 -0.96584706550E+01  0.18217146522E+02 -0.12167164148E+02  0.23941394408E+02  0.00000000000E+00 0. -1.
</event>
<event>
 7    1  0.3981356E-008  0.4614232E+02  0.7816164E-02  0.1320468E+00
        -11   -1    0    0    0    0  0.00000000000E+00  0.00000000000E+00  0.45593999997E+02  0.45594000000E+02  0.51100000000E-03 0.  1.
         11   -1    0    0    0    0 -0.00000000000E+00 -0.00000000000E+00 -0.45593999997E+02  0.45594000000E+02  0.51100000000E-03 0. -1.
    9900012    2    1    2    0    0  0.12487028906E+02  0.37893089126E+02  0.20911751853E+02  0.46142318076E+02  0.10000002874E+02 0.  0.
        -12    1    1    2    0    0 -0.12487028906E+02 -0.37893089126E+02 -0.20911751853E+02  0.45045681924E+02  0.00000000000E+00 0.  1.
         11    1    3    3    0    0  0.87239486210E+01  0.20821022817E+02  0.10994382904E+02  0.25109733698E+02  0.51100000000E-03 0.  1.
        -11    1    3    3    0    0  0.37983759477E+01  0.17302944476E+02  0.10367328129E+02  0.20525619118E+02  0.51100000000E-03 0. -1.
        -12    1    3    3    0    0 -0.35295662964E-01 -0.23087816619E+00 -0.44995918036E+00  0.50696526058E+00  0.00000000000E+00 0.  1.
</event>
<event>
 7    1  0.3981356E-008  0.4614232E+02  0.7816164E-02  0.1320468E+00
        -11   -1    0    0    0    0  0.00000000000E+00  0.00000000000E+00  0.45593999997E+02  0.45594000000E+02  0.51100000000E-03 0. -1.
         11   -1    0    0    0    0 -0.00000000000E+00 -0.00000000000E+00 -0.45593999997E+02  0.45594000000E+02  0.51100000000E-03 0.  1.
    9900012    2    1    2    0    0 -0.23791709060E+01  0.31977510399E+02  0.31636874005E+02  0.46142318494E+02  0.10000006684E+02 0.  0.
        -12    1    1    2    0    0  0.23791709060E+01 -0.31977510399E+02 -0.31636874005E+02  0.45045681506E+02  0.00000000000E+00 0.  1.
         11    1    3    3    0    0 -0.24772984540E+00  0.36216153076E+01  0.51067742742E+01  0.62655096570E+01  0.51100000000E-03 0. -1.
        -11    1    3    3    0    0 -0.20155305121E+01  0.19515770557E+02  0.12402549412E+02  0.23211008075E+02  0.51100000000E-03 0.  1.
        -12    1    3    3    0    0 -0.11591054844E+00  0.88401245348E+01  0.14127550318E+02  0.16665800762E+02  0.00000000000E+00 0.  1.
</event>
<event>
 7    1  0.3981356E-008  0.4614232E+02  0.7816164E-02  0.1320468E+00
        -11   -1    0    0    0    0  0.00000000000E+00  0.00000000000E+00  0.45593999997E+02  0.45594000000E+02  0.51100000000E-03 0. -1.
         11   -1    0    0    0    0 -0.00000000000E+00 -0.00000000000E+00 -0.45593999997E+02  0.45594000000E+02  0.51100000000E-03 0.  1.
    9900012    2    1    2    0    0 -0.26725970967E+02 -0.87604642711E+00  0.36250083861E+02  0.46142316950E+02  0.99999926056E+01 0.  0.
        -12    1    1    2    0    0  0.26725970967E+02  0.87604642711E+00 -0.36250083861E+02  0.45045683050E+02  0.00000000000E+00 0.  1.
         11    1    3    3    0    0 -0.10588660650E+02  0.39364108894E+01  0.11291274379E+02  0.15972098873E+02  0.51100000000E-03 0. -1.
        -11    1    3    3    0    0 -0.10717844500E+02 -0.26324442316E+01  0.17610324981E+02  0.20782817412E+02  0.51100000000E-03 0.  1.
         12    1    3    3    0    0 -0.54194658170E+01 -0.21800130848E+01  0.73484845008E+01  0.93874006653E+01  0.00000000000E+00 0. -1.
</event>
<event>
 7    1  0.3981356E-008  0.4614232E+02  0.7816164E-02  0.1320468E+00
        -11   -1    0    0    0    0  0.00000000000E+00  0.00000000000E+00  0.45593999997E+02  0.45594000000E+02  0.51100000000E-03 0.  1.
         11   -1    0    0    0    0 -0.00000000000E+00 -0.00000000000E+00 -0.45593999997E+02  0.45594000000E+02  0.51100000000E-03 0. -1.
    9900012    2    1    2    0    0  0.17290646484E+02 -0.39504273918E+02 -0.13021496205E+02  0.46142317887E+02  0.10000001148E+02 0.  0.
        -12    1    1    2    0    0 -0.17290646484E+02  0.39504273918E+02  0.13021496205E+02  0.45045682113E+02  0.00000000000E+00 0.  1.
         11    1    3    3    0    0  0.10251807390E+02 -0.21478114465E+02 -0.78093699489E+01  0.25047858492E+02  0.51100000000E-03 0. -1.
        -11    1    3    3    0    0  0.72878552109E+00 -0.53281445006E+01 -0.43003704995E+01  0.68857417066E+01  0.51100000000E-03 0.  1.
        -12    1    3    3    0    0  0.63100535720E+01 -0.12698014952E+02 -0.91175575673E+00  0.14208717689E+02  0.00000000000E+00 0.  1.
</event>
<event>
 7    1  0.3981356E-008  0.4614232E+02  0.7816164E-02  0.1320468E+00
        -11   -1    0    0    0    0  0.00000000000E+00  0.00000000000E+00  0.45593999997E+02  0.45594000000E+02  0.51100000000E-03 0. -1.
         11   -1    0    0    0    0 -0.00000000000E+00 -0.00000000000E+00 -0.45593999997E+02  0.45594000000E+02  0.51100000000E-03 0.  1.
    9900012    2    1    2    0    0  0.33068163156E+02 -0.27568550379E+02  0.13250850524E+02  0.46142318475E+02  0.10000006506E+02 0.  0.
        -12    1    1    2    0    0 -0.33068163156E+02  0.27568550379E+02 -0.13250850524E+02  0.45045681525E+02  0.00000000000E+00 0.  1.
         11    1    3    3    0    0  0.14479600397E+02 -0.11417938359E+02  0.84959469672E+01  0.20302937206E+02  0.51100000000E-03 0. -1.
        -11    1    3    3    0    0  0.50822142945E+01 -0.12245181343E+01  0.15763833379E+01  0.54601585586E+01  0.51100000000E-03 0.  1.
         12    1    3    3    0    0  0.13506348464E+02 -0.14926093885E+02  0.31785202185E+01  0.20379222710E+02  0.00000000000E+00 0. -1.
</event>
<event>
 7    1  0.3981356E-008  0.4614232E+02  0.7816164E-02  0.1320468E+00
        -11   -1    0    0    0    0  0.00000000000E+00  0.00000000000E+00  0.45593999997E+02  0.45594000000E+02  0.51100000000E-03 0.  1.
         11   -1    0    0    0    0 -0.00000000000E+00 -0.00000000000E+00 -0.45593999997E+02  0.45594000000E+02  0.51100000000E-03 0. -1.
    9900012    2    1    2    0    0 -0.98306294310E+01 -0.10526579131E+02 -0.42680950240E+02  0.46142315894E+02  0.99999829714E+01 0.  0.
        -12    1    1    2    0    0  0.98306294310E+01  0.10526579131E+02  0.42680950240E+02  0.45045684106E+02  0.00000000000E+00 0.  1.
         11    1    3    3    0    0 -0.61286549880E+01 -0.10187409603E+02 -0.25488017190E+02  0.28124415494E+02  0.51100000000E-03 0. -1.
        -11    1    3    3    0    0 -0.44108702363E+01 -0.46068556819E+00 -0.12355986892E+02  0.13127772841E+02  0.51100000000E-03 0.  1.
        -12    1    3    3    0    0  0.70889579328E+00  0.12151604064E+00 -0.48369461584E+01  0.48901275580E+01  0.00000000000E+00 0.  1.
</event>
<event>
 7    1  0.3981356E-008  0.4614232E+02  0.7816164E-02  0.1320468E+00
        -11   -1    0    0    0    0  0.00000000000E+00  0.00000000000E+00  0.45593999997E+02  0.45594000000E+02  0.51100000000E-03 0.  1.
         11   -1    0    0    0    0 -0.00000000000E+00 -0.00000000000E+00 -0.45593999997E+02  0.45594000000E+02  0.51100000000E-03 0. -1.
    9900012    2    1    2    0    0 -0.22968808362E+02  0.22266678322E+02 -0.31713442885E+02  0.46142316737E+02  0.99999906582E+01 0.  0.
        -12    1    1    2    0    0  0.22968808362E+02 -0.22266678322E+02  0.31713442885E+02  0.45045683263E+02  0.00000000000E+00 0.  1.
         11    1    3    3    0    0 -0.94801635904E+00  0.36676202956E+01 -0.39016283901E+01  0.54380950714E+01  0.51100000000E-03 0. -1.
        -11    1    3    3    0    0 -0.29780650821E+00  0.26391730419E+01 -0.35830408478E+01  0.44600566184E+01  0.51100000000E-03 0.  1.
        -12    1    3    3    0    0 -0.21722985494E+02  0.15959884985E+02 -0.24228773647E+02  0.36244165047E+02  0.00000000000E+00 0.  1.
</event>
<event>
 7    1  0.3981356E-008  0.4614232E+02  0.7816164E-02  0.1320468E+00
        -11   -1    0    0    0    0  0.00000000000E+00  0.00000000000E+00  0.45593999997E+02  0.45594000000E+02  0.51100000000E-03 0.  1.
         11   -1    0    0    0    0 -0.00000000000E+00 -0.00000000000E+00 -0.45593999997E+02  0.45594000000E+02  0.51100000000E-03 0. -1.
    9900012    2    1    2    0    0 -0.31611780048E+02  0.20283156392E+02 -0.24867698826E+02  0.46142317456E+02  0.99999972147E+01 0.  0.
        -12    1    1    2    0    0  0.31611780048E+02 -0.20283156392E+02  0.24867698826E+02  0.45045682544E+02  0.00000000000E+00 0.  1.
         11    1    3    3    0    0 -0.21796541670E+02  0.12746358539E+02 -0.21099318669E+02  0.32905016841E+02  0.51100000000E-03 0. -1.
        -11    1    3    3    0    0 -0.59000134500E+01  0.49178576426E+01 -0.37019767153E+01  0.85264362054E+01  0.51100000000E-03 0.  1.
        -12    1    3    3    0    0 -0.39152249281E+01  0.26189402106E+01 -0.66403441242E-01  0.47108644092E+01  0.00000000000E+00 0.  1.
</event>
<event>
 7    1  0.3981356E-008  0.4614232E+02  0.7816164E-02  0.1320468E+00
        -11   -1    0    0    0    0  0.00000000000E+00  0.00000000000E+00  0.45593999997E+02  0.45594000000E+02  0.51100000000E-03 0. -1.
         11   -1    0    0    0    0 -0.00000000000E+00 -0.00000000000E+00 -0.45593999997E+02  0.45594000000E+02  0.51100000000E-03 0.  1.
    9900012    2    1    2    0    0  0.40830054003E+02 -0.15207200384E+01  0.18965961063E+02  0.46142316762E+02  0.99999908910E+01 0.  0.
        -12    1    1    2    0    0 -0.40830054003E+02  0.15207200384E+01 -0.18965961063E+02  0.45045683238E+02  0.00000000000E+00 0.  1.
         11    1    3    3    0    0  0.15971136165E+02  0.74029665101E+00  0.96959823552E+01  0.18698590953E+02  0.51100000000E-03 0. -1.
        -11    1    3    3    0    0  0.93498495373E+01  0.45914944736E+00  0.66468820176E+01  0.11480920930E+02  0.51100000000E-03 0.  1.
         12    1    3    3    0    0  0.15509068301E+02 -0.27201661367E+01  0.26230966905E+01  0.15962804880E+02  0.00000000000E+00 0. -1.
</event>
<event>
 7    1  0.3981356E-008  0.4614231E+02  0.7816164E-02  0.1320468E+00
        -11   -1    0    0    0    0  0.00000000000E+00  0.00000000000E+00  0.45593999997E+02  0.45594000000E+02  0.51100000000E-03 0.  1.
         11   -1    0    0    0    0 -0.00000000000E+00 -0.00000000000E+00 -0.45593999997E+02  0.45594000000E+02  0.51100000000E-03 0. -1.
    9900012    2    1    2    0    0  0.31843033941E+02 -0.31499022018E+02 -0.47902635910E+01  0.46142314037E+02  0.99999660366E+01 0.  0.
        -12    1    1    2    0    0 -0.31843033941E+02  0.31499022018E+02  0.47902635910E+01  0.45045685963E+02  0.00000000000E+00 0.  1.
         11    1    3    3    0    0  0.11427113317E+02 -0.15368081432E+02 -0.48060731851E+01  0.19744750831E+02  0.51100000000E-03 0. -1.
        -11    1    3    3    0    0  0.90786139069E+00  0.23035213833E+00 -0.91054872259E-02  0.93667368030E+00  0.51100000000E-03 0.  1.
         12    1    3    3    0    0  0.19508059233E+02 -0.16361292725E+02  0.24915081267E-01  0.25460889526E+02  0.00000000000E+00 0. -1.
</event>
<event>
 7    1  0.3981356E-008  0.4614231E+02  0.7816164E-02  0.1320468E+00
        -11   -1    0    0    0    0  0.00000000000E+00  0.00000000000E+00  0.45593999997E+02  0.45594000000E+02  0.51100000000E-03 0.  1.
         11   -1    0    0    0    0 -0.00000000000E+00 -0.00000000000E+00 -0.45593999997E+02  0.45594000000E+02  0.51100000000E-03 0. -1.
    9900012    2    1    2    0    0 -0.40620517528E+01  0.25536301211E+02 -0.36885105099E+02  0.46142312946E+02  0.99999560898E+01 0.  0.
        -12    1    1    2    0    0  0.40620517528E+01 -0.25536301211E+02  0.36885105099E+02  0.45045687054E+02  0.00000000000E+00 0.  1.
         11    1    3    3    0    0 -0.18799013087E+01  0.33110676806E+01 -0.32586762474E+01  0.50116034622E+01  0.51100000000E-03 0. -1.
        -11    1    3    3    0    0  0.16125836706E+00 -0.56103440603E+00 -0.19787589870E+01  0.20630684078E+01  0.51100000000E-03 0.  1.
         12    1    3    3    0    0 -0.23434088112E+01  0.22786267937E+02 -0.31647669865E+02  0.39067641076E+02  0.00000000000E+00 0. -1.
</event>
<event>
 7    1  0.3981356E-008  0.4614232E+02  0.7816164E-02  0.1320468E+00
        -11   -1    0    0    0    0  0.00000000000E+00  0.00000000000E+00  0.45593999997E+02  0.45594000000E+02  0.51100000000E-03 0.  1.
         11   -1    0    0    0    0 -0.00000000000E+00 -0.00000000000E+00 -0.45593999997E+02  0.45594000000E+02  0.51100000000E-03 0. -1.
    9900012    2    1    2    0    0 -0.27939880627E+02  0.12756649747E+02 -0.32950636181E+02  0.46142317998E+02  0.10000002164E+02 0.  0.
        -12    1    1    2    0    0  0.27939880627E+02 -0.12756649747E+02  0.32950636181E+02  0.45045682002E+02  0.00000000000E+00 0.  1.
         11    1    3    3    0    0 -0.17387200886E+02  0.44518253408E+01 -0.16179715788E+02  0.24164368536E+02  0.51100000000E-03 0. -1.
        -11    1    3    3    0    0 -0.29417865958E+01  0.59173688568E+00 -0.18074293352E+01  0.35030075621E+01  0.51100000000E-03 0.  1.
        -12    1    3    3    0    0 -0.76108931458E+01  0.77130875202E+01 -0.14963491058E+02  0.18474941900E+02  0.00000000000E+00 0.  1.
</event>
<event>
 7    1  0.3981356E-008  0.4614232E+02  0.7816164E-02  0.1320468E+00
        -11   -1    0    0    0    0  0.00000000000E+00  0.00000000000E+00  0.45593999997E+02  0.45594000000E+02  0.51100000000E-03 0. -1.
         11   -1    0    0    0    0 -0.00000000000E+00 -0.00000000000E+00 -0.45593999997E+02  0.45594000000E+02  0.51100000000E-03 0.  1.
    9900012    2    1    2    0    0 -0.18724742284E+02 -0.39358111058E+02 -0.11377021725E+02  0.46142317599E+02  0.99999985245E+01 0.  0.
        -12    1    1    2    0    0  0.18724742284E+02  0.39358111058E+02  0.11377021725E+02  0.45045682401E+02  0.00000000000E+00 0.  1.
         11    1    3    3    0    0 -0.76090901866E+01 -0.14563196943E+02 -0.59280604334E+01  0.17467880794E+02  0.51100000000E-03 0. -1.
        -11    1    3    3    0    0 -0.11150050253E+02 -0.21858168418E+02 -0.27601209384E+01  0.24692537640E+02  0.51100000000E-03 0.  1.
        -12    1    3    3    0    0  0.34398156515E-01 -0.29367456973E+01 -0.26888403529E+01  0.39818991659E+01  0.00000000000E+00 0.  1.
</event>
<event>
 7    1  0.3981356E-008  0.4614232E+02  0.7816164E-02  0.1320468E+00
        -11   -1    0    0    0    0  0.00000000000E+00  0.00000000000E+00  0.45593999997E+02  0.45594000000E+02  0.51100000000E-03 0.  1.
         11   -1    0    0    0    0 -0.00000000000E+00 -0.00000000000E+00 -0.45593999997E+02  0.45594000000E+02  0.51100000000E-03 0. -1.
    9900012    2    1    2    0    0  0.10729265061E+02  0.15022814071E+02 -0.41089067718E+02  0.46142316996E+02  0.99999930220E+01 0.  0.
        -12    1    1    2    0    0 -0.10729265061E+02 -0.15022814071E+02  0.41089067718E+02  0.45045683004E+02  0.00000000000E+00 0.  1.
         11    1    3    3    0    0  0.24170244155E+01  0.68701157769E+01 -0.11203644828E+02  0.13362715125E+02  0.51100000000E-03 0. -1.
        -11    1    3    3    0    0  0.75253059071E+01  0.27866415980E+01 -0.18678783338E+02  0.20329597823E+02  0.51100000000E-03 0.  1.
        -12    1    3    3    0    0  0.78693473807E+00  0.53660566959E+01 -0.11206639552E+02  0.12450004048E+02  0.00000000000E+00 0.  1.
</event>
<event>
 7    1  0.3981356E-008  0.4614232E+02  0.7816164E-02  0.1320468E+00
        -11   -1    0    0    0    0  0.00000000000E+00  0.00000000000E+00  0.45593999997E+02  0.45594000000E+02  0.51100000000E-03 0.  1.
         11   -1    0    0    0    0 -0.00000000000E+00 -0.00000000000E+00 -0.45593999997E+02  0.45594000000E+02  0.51100000000E-03 0. -1.
    9900012    2    1    2    0    0  0.35839875025E+01  0.52544693466E+01 -0.44594383352E+02  0.46142318286E+02  0.10000004791E+02 0.  0.
        -12    1    1    2    0    0 -0.35839875025E+01 -0.52544693466E+01  0.44594383352E+02  0.45045681714E+02  0.00000000000E+00 0.  1.
         11    1    3    3    0    0 -0.25664127741E+01  0.25675998165E+01 -0.24666952762E+02  0.24932661354E+02  0.51100000000E-03 0. -1.
        -11    1    3    3    0    0  0.14253659698E+01 -0.29323057812E+00 -0.66050174026E+01  0.67634242415E+01  0.51100000000E-03 0.  1.
         12    1    3    3    0    0  0.47250343068E+01  0.29801001083E+01 -0.13322413187E+02  0.14446232691E+02  0.00000000000E+00 0. -1.
</event>
<event>
 7    1  0.3981356E-008  0.4614232E+02  0.7816164E-02  0.1320468E+00
        -11   -1    0    0    0    0  0.00000000000E+00  0.00000000000E+00  0.45593999997E+02  0.45594000000E+02  0.51100000000E-03 0.  1.
         11   -1    0    0    0    0 -0.00000000000E+00 -0.00000000000E+00 -0.45593999997E+02  0.45594000000E+02  0.51100000000E-03 0. -1.
    9900012    2    1    2    0    0  0.44089074917E+02 -0.49295751216E+01  0.78080859063E+01  0.46142318259E+02  0.10000004545E+02 0.  0.
        -12    1    1    2    0    0 -0.44089074917E+02  0.49295751216E+01 -0.78080859063E+01  0.45045681741E+02  0.00000000000E+00 0.  1.
         11    1    3    3    0    0  0.15143753477E+02 -0.31239299313E+01  0.11776447514E+01  0.15507387111E+02  0.51100000000E-03 0. -1.
        -11    1    3    3    0    0 -0.36207126866E+00 -0.32079791209E+00 -0.16916719125E+00  0.51246922221E+00  0.51100000000E-03 0.  1.
         12    1    3    3    0    0  0.29307392709E+02 -0.14848472783E+01  0.67996083462E+01  0.30122461926E+02  0.00000000000E+00 0. -1.
</event>
<event>
 7    1  0.3981356E-008  0.4614232E+02  0.7816164E-02  0.1320468E+00
        -11   -1    0    0    0    0  0.00000000000E+00  0.00000000000E+00  0.45593999997E+02  0.45594000000E+02  0.51100000000E-03 0.  1.
         11   -1    0    0    0    0 -0.00000000000E+00 -0.00000000000E+00 -0.45593999997E+02  0.45594000000E+02  0.51100000000E-03 0. -1.
    9900012    2    1    2    0    0  0.43559141212E+02  0.21191832554E+01  0.11279352192E+02  0.46142317558E+02  0.99999981442E+01 0.  0.
        -12    1    1    2    0    0 -0.43559141212E+02 -0.21191832554E+01 -0.11279352192E+02  0.45045682442E+02  0.00000000000E+00 0.  1.
         11    1    3    3    0    0  0.13972359356E+02  0.36447016506E+01  0.33153437244E+01  0.14815605973E+02  0.51100000000E-03 0. -1.
        -11    1    3    3    0    0  0.26272193726E+02 -0.58278883920E+00  0.49336462322E+01  0.26737776112E+02  0.51100000000E-03 0.  1.
        -12    1    3    3    0    0  0.33145881307E+01 -0.94272955602E+00  0.30303622351E+01  0.45889354722E+01  0.00000000000E+00 0.  1.
</event>
<event>
 7    1  0.3981356E-008  0.4614232E+02  0.7816164E-02  0.1320468E+00
        -11   -1    0    0    0    0  0.00000000000E+00  0.00000000000E+00  0.45593999997E+02  0.45594000000E+02  0.51100000000E-03 0.  1.
         11   -1    0    0    0    0 -0.00000000000E+00 -0.00000000000E+00 -0.45593999997E+02  0.45594000000E+02  0.51100000000E-03 0. -1.
    9900012    2    1    2    0    0 -0.21520426549E+02  0.54466992274E+01 -0.39195898278E+02  0.46142315044E+02  0.99999752207E+01 0.  0.
        -12    1    1    2    0    0  0.21520426549E+02 -0.54466992274E+01  0.39195898278E+02  0.45045684956E+02  0.00000000000E+00 0.  1.
         11    1    3    3    0    0 -0.13852490116E+01 -0.84809814420E+00 -0.51243794404E+01  0.53756348645E+01  0.51100000000E-03 0. -1.
        -11    1    3    3    0    0 -0.35546256454E+01  0.43253516809E+01 -0.10195464402E+02  0.11631488523E+02  0.51100000000E-03 0.  1.
         12    1    3    3    0    0 -0.16580551892E+02  0.19694456907E+01 -0.23876054436E+02  0.29135191656E+02  0.00000000000E+00 0. -1.
</event>
<event>
 7    1  0.3981356E-008  0.4614232E+02  0.7816164E-02  0.1320468E+00
        -11   -1    0    0    0    0  0.00000000000E+00  0.00000000000E+00  0.45593999997E+02  0.45594000000E+02  0.51100000000E-03 0.  1.
         11   -1    0    0    0    0 -0.00000000000E+00 -0.00000000000E+00 -0.45593999997E+02  0.45594000000E+02  0.51100000000E-03 0. -1.
    9900012    2    1    2    0    0 -0.40893397093E+02  0.18047997409E+02 -0.55779320511E+01  0.46142318051E+02  0.10000002645E+02 0.  0.
        -12    1    1    2    0    0  0.40893397093E+02 -0.18047997409E+02  0.55779320511E+01  0.45045681949E+02  0.00000000000E+00 0.  1.
         11    1    3    3    0    0 -0.11422495790E+02  0.83063806936E+01 -0.29055215306E+01  0.14419134021E+02  0.51100000000E-03 0. -1.
        -11    1    3    3    0    0 -0.11073709400E+02  0.12966322273E+01 -0.27361729214E+01  0.11480197625E+02  0.51100000000E-03 0.  1.
         12    1    3    3    0    0 -0.18397191903E+02  0.84449844879E+01  0.63762400880E-01  0.20242986404E+02  0.00000000000E+00 0. -1.
</event>
<event>
 7    1  0.3981356E-008  0.4614232E+02  0.7816164E-02  0.1320468E+00
        -11   -1    0    0    0    0  0.00000000000E+00  0.00000000000E+00  0.45593999997E+02  0.45594000000E+02  0.51100000000E-03 0.  1.
         11   -1    0    0    0    0 -0.00000000000E+00 -0.00000000000E+00 -0.45593999997E+02  0.45594000000E+02  0.51100000000E-03 0. -1.
    9900012    2    1    2    0    0 -0.41401459144E+02  0.87612531455E+01 -0.15436097933E+02  0.46142317684E+02  0.99999992969E+01 0.  0.
        -12    1    1    2    0    0  0.41401459144E+02 -0.87612531455E+01  0.15436097933E+02  0.45045682316E+02  0.00000000000E+00 0.  1.
         11    1    3    3    0    0 -0.21749504153E+02  0.35120405554E+01 -0.46019008820E+01  0.22506729032E+02  0.51100000000E-03 0.  1.
        -11    1    3    3    0    0 -0.15553631026E+02  0.28620832265E+01 -0.61469306355E+01  0.16967372071E+02  0.51100000000E-03 0. -1.
         12    1    3    3    0    0 -0.40983239654E+01  0.23871293636E+01 -0.46872664151E+01  0.66682165809E+01  0.00000000000E+00 0. -1.
</event>
<event>
 7    1  0.3981356E-008  0.4614232E+02  0.7816164E-02  0.1320468E+00
        -11   -1    0    0    0    0  0.00000000000E+00  0.00000000000E+00  0.45593999997E+02  0.45594000000E+02  0.51100000000E-03 0.  1.
         11   -1    0    0    0    0 -0.00000000000E+00 -0.00000000000E+00 -0.45593999997E+02  0.45594000000E+02  0.51100000000E-03 0. -1.
    9900012    2    1    2    0    0 -0.35504219999E+02  0.11583548677E+02 -0.25187006109E+02  0.46142317472E+02  0.99999973671E+01 0.  0.
        -12    1    1    2    0    0  0.35504219999E+02 -0.11583548677E+02  0.25187006109E+02  0.45045682528E+02  0.00000000000E+00 0.  1.
         11    1    3    3    0    0 -0.74804618218E+01  0.39042966078E+01 -0.47837527128E+01  0.96997490353E+01  0.51100000000E-03 0.  1.
        -11    1    3    3    0    0 -0.24458957306E+02  0.87525894834E+01 -0.19817538008E+02  0.32673892148E+02  0.51100000000E-03 0. -1.
        -12    1    3    3    0    0 -0.35648008713E+01 -0.10733374146E+01 -0.58571538839E+00  0.37686762893E+01  0.00000000000E+00 0.  1.
</event>
<event>
 7    1  0.3981356E-008  0.4614232E+02  0.7816164E-02  0.1320468E+00
        -11   -1    0    0    0    0  0.00000000000E+00  0.00000000000E+00  0.45593999997E+02  0.45594000000E+02  0.51100000000E-03 0.  1.
         11   -1    0    0    0    0 -0.00000000000E+00 -0.00000000000E+00 -0.45593999997E+02  0.45594000000E+02  0.51100000000E-03 0. -1.
    9900012    2    1    2    0    0  0.16710936440E+02  0.17946960137E+02 -0.37785772041E+02  0.46142319368E+02  0.10000014654E+02 0.  0.
        -12    1    1    2    0    0 -0.16710936440E+02 -0.17946960137E+02  0.37785772041E+02  0.45045680632E+02  0.00000000000E+00 0.  1.
         11    1    3    3    0    0 -0.30603978856E+00  0.71929647295E+00 -0.48536085510E+01  0.49161533739E+01  0.51100000000E-03 0.  1.
        -11    1    3    3    0    0  0.24914661000E+01  0.50618431242E+01 -0.99748417551E+01  0.11459804861E+02  0.51100000000E-03 0. -1.
        -12    1    3    3    0    0  0.14525510128E+02  0.12165820540E+02 -0.22957321735E+02  0.29766361134E+02  0.00000000000E+00 0.  1.
</event>
<event>
 7    1  0.3981356E-008  0.4614232E+02  0.7816164E-02  0.1320468E+00
        -11   -1    0    0    0    0  0.00000000000E+00  0.00000000000E+00  0.45593999997E+02  0.45594000000E+02  0.51100000000E-03 0. -1.
         11   -1    0    0    0    0 -0.00000000000E+00 -0.00000000000E+00 -0.45593999997E+02  0.45594000000E+02  0.51100000000E-03 0.  1.
    9900012    2    1    2    0    0 -0.40513525446E+02 -0.35964314997E+01  0.19360615164E+02  0.46142317819E+02  0.10000000529E+02 0.  0.
        -12    1    1    2    0    0  0.40513525446E+02  0.35964314997E+01 -0.19360615164E+02  0.45045682181E+02  0.00000000000E+00 0.  1.
         11    1    3    3    0    0  0.29548998814E+00  0.19090887314E+00  0.37622289564E-01  0.35380252787E+00  0.51100000000E-03 0. -1.
        -11    1    3    3    0    0 -0.40522766104E+01 -0.13726670973E+01  0.41164515233E+01  0.59371991790E+01  0.51100000000E-03 0.  1.
         12    1    3    3    0    0 -0.36756738824E+02 -0.24146732755E+01  0.15206541351E+02  0.39851316112E+02  0.00000000000E+00 0. -1.
</event>
<event>
 7    1  0.3981356E-008  0.4614232E+02  0.7816164E-02  0.1320468E+00
        -11   -1    0    0    0    0  0.00000000000E+00  0.00000000000E+00  0.45593999997E+02  0.45594000000E+02  0.51100000000E-03 0.  1.
         11   -1    0    0    0    0 -0.00000000000E+00 -0.00000000000E+00 -0.45593999997E+02  0.45594000000E+02  0.51100000000E-03 0. -1.
    9900012    2    1    2    0    0 -0.10713080988E+02  0.16576284095E+02 -0.40491606308E+02  0.46142317853E+02  0.10000000841E+02 0.  0.
        -12    1    1    2    0    0  0.10713080988E+02 -0.16576284095E+02  0.40491606308E+02  0.45045682147E+02  0.00000000000E+00 0.  1.
         11    1    3    3    0    0 -0.43282157827E+01  0.17638267957E+01 -0.85611667114E+01  0.97538767959E+01  0.51100000000E-03 0. -1.
        -11    1    3    3    0    0 -0.46130720722E+01  0.95996513701E+01 -0.13748755773E+02  0.17391435419E+02  0.51100000000E-03 0.  1.
        -12    1    3    3    0    0 -0.17717931328E+01  0.52128059295E+01 -0.18181683823E+02  0.18997005638E+02  0.00000000000E+00 0.  1.
</event>
<event>
 7    1  0.3981356E-008  0.4614232E+02  0.7816164E-02  0.1320468E+00
        -11   -1    0    0    0    0  0.00000000000E+00  0.00000000000E+00  0.45593999997E+02  0.45594000000E+02  0.51100000000E-03 0.  1.
         11   -1    0    0    0    0 -0.00000000000E+00 -0.00000000000E+00 -0.45593999997E+02  0.45594000000E+02  0.51100000000E-03 0. -1.
    9900012    2    1    2    0    0  0.23945088649E+02  0.13302611227E+02 -0.35760127772E+02  0.46142317919E+02  0.10000001443E+02 0.  0.
        -12    1    1    2    0    0 -0.23945088649E+02 -0.13302611227E+02  0.35760127772E+02  0.45045682081E+02  0.00000000000E+00 0.  1.
         11    1    3    3    0    0  0.58922706938E+01  0.35847804044E+01 -0.13552119171E+02  0.15206230261E+02  0.51100000000E-03 0. -1.
        -11    1    3    3    0    0  0.40396052750E+01  0.41261142814E+00 -0.77749797933E+01  0.87714861920E+01  0.51100000000E-03 0.  1.
         12    1    3    3    0    0  0.14013212680E+02  0.93052193942E+01 -0.14433028808E+02  0.22164601466E+02  0.00000000000E+00 0. -1.
</event>
<event>
 7    1  0.3981356E-008  0.4614232E+02  0.7816164E-02  0.1320468E+00
        -11   -1    0    0    0    0  0.00000000000E+00  0.00000000000E+00  0.45593999997E+02  0.45594000000E+02  0.51100000000E-03 0.  1.
         11   -1    0    0    0    0 -0.00000000000E+00 -0.00000000000E+00 -0.45593999997E+02  0.45594000000E+02  0.51100000000E-03 0. -1.
    9900012    2    1    2    0    0 -0.40873147941E+02  0.14898254097E+02 -0.11685087138E+02  0.46142318085E+02  0.10000002958E+02 0.  0.
        -12    1    1    2    0    0  0.40873147941E+02 -0.14898254097E+02  0.11685087138E+02  0.45045681915E+02  0.00000000000E+00 0.  1.
         11    1    3    3    0    0 -0.25959194551E+02  0.60517723706E+01 -0.58211534138E+01  0.27283503402E+02  0.51100000000E-03 0. -1.
        -11    1    3    3    0    0 -0.69599270273E+01  0.28601776447E+01 -0.47716615130E+00  0.75398201690E+01  0.51100000000E-03 0.  1.
        -12    1    3    3    0    0 -0.79540263625E+01  0.59863040816E+01 -0.53867675728E+01  0.11318994514E+02  0.00000000000E+00 0.  1.
</event>
<event>
 7    1  0.3981356E-008  0.4614232E+02  0.7816164E-02  0.1320468E+00
        -11   -1    0    0    0    0  0.00000000000E+00  0.00000000000E+00  0.45593999997E+02  0.45594000000E+02  0.51100000000E-03 0.  1.
         11   -1    0    0    0    0 -0.00000000000E+00 -0.00000000000E+00 -0.45593999997E+02  0.45594000000E+02  0.51100000000E-03 0. -1.
    9900012    2    1    2    0    0 -0.30445354778E+02 -0.33198406744E+02  0.24404432079E+00  0.46142318791E+02  0.10000009392E+02 0.  0.
        -12    1    1    2    0    0  0.30445354778E+02  0.33198406744E+02 -0.24404432079E+00  0.45045681209E+02  0.00000000000E+00 0.  1.
         11    1    3    3    0    0 -0.42725385771E+01 -0.31825264158E+01  0.23566507016E+01  0.58255354321E+01  0.51100000000E-03 0. -1.
        -11    1    3    3    0    0 -0.82860080201E+01 -0.56489518540E+01 -0.82194051124E+00  0.10062016320E+02  0.51100000000E-03 0.  1.
        -12    1    3    3    0    0 -0.17886808181E+02 -0.24366928475E+02 -0.12906658695E+01  0.30254767039E+02  0.00000000000E+00 0.  1.
</event>
<event>
 7    1  0.3981356E-008  0.4614232E+02  0.7816164E-02  0.1320468E+00
        -11   -1    0    0    0    0  0.00000000000E+00  0.00000000000E+00  0.45593999997E+02  0.45594000000E+02  0.51100000000E-03 0.  1.
         11   -1    0    0    0    0 -0.00000000000E+00 -0.00000000000E+00 -0.45593999997E+02  0.45594000000E+02  0.51100000000E-03 0. -1.
    9900012    2    1    2    0    0  0.25029070522E+02  0.12952169483E+02 -0.35141150051E+02  0.46142317716E+02  0.99999995882E+01 0.  0.
        -12    1    1    2    0    0 -0.25029070522E+02 -0.12952169483E+02  0.35141150051E+02  0.45045682284E+02  0.00000000000E+00 0.  1.
         11    1    3    3    0    0  0.44100752434E+01 -0.94445273447E+00 -0.44554581829E+01  0.63397052377E+01  0.51100000000E-03 0. -1.
        -11    1    3    3    0    0  0.19824435568E+02  0.14019095254E+02 -0.28318118742E+02  0.37302267044E+02  0.51100000000E-03 0.  1.
         12    1    3    3    0    0  0.79455971113E+00 -0.12247303673E+00 -0.23675731267E+01  0.25003454340E+01  0.00000000000E+00 0. -1.
</event>
<event>
 7    1  0.3981356E-008  0.4614232E+02  0.7816164E-02  0.1320468E+00
        -11   -1    0    0    0    0  0.00000000000E+00  0.00000000000E+00  0.45593999997E+02  0.45594000000E+02  0.51100000000E-03 0.  1.
         11   -1    0    0    0    0 -0.00000000000E+00 -0.00000000000E+00 -0.45593999997E+02  0.45594000000E+02  0.51100000000E-03 0. -1.
    9900012    2    1    2    0    0 -0.43758865113E+02 -0.67749290502E+01  0.82689541759E+01  0.46142317157E+02  0.99999944922E+01 0.  0.
        -12    1    1    2    0    0  0.43758865113E+02  0.67749290502E+01 -0.82689541759E+01  0.45045682843E+02  0.00000000000E+00 0.  1.
         11    1    3    3    0    0 -0.30973740219E+02 -0.60177919704E+01  0.25477683956E+01  0.31655608151E+02  0.51100000000E-03 0. -1.
        -11    1    3    3    0    0 -0.94584304480E+01 -0.21387151631E+01  0.39234507605E+01  0.10460854421E+02  0.51100000000E-03 0.  1.
        -12    1    3    3    0    0 -0.33266944463E+01  0.13815780834E+01  0.17977350198E+01  0.40258545851E+01  0.00000000000E+00 0.  1.
</event>
<event>
 7    1  0.3981356E-008  0.4614232E+02  0.7816164E-02  0.1320468E+00
        -11   -1    0    0    0    0  0.00000000000E+00  0.00000000000E+00  0.45593999997E+02  0.45594000000E+02  0.51100000000E-03 0.  1.
         11   -1    0    0    0    0 -0.00000000000E+00 -0.00000000000E+00 -0.45593999997E+02  0.45594000000E+02  0.51100000000E-03 0. -1.
    9900012    2    1    2    0    0 -0.90344936456E+01  0.21394073177E+02 -0.38597732259E+02  0.46142318985E+02  0.10000011162E+02 0.  0.
        -12    1    1    2    0    0  0.90344936456E+01 -0.21394073177E+02  0.38597732259E+02  0.45045681015E+02  0.00000000000E+00 0.  1.
         11    1    3    3    0    0 -0.85295585908E+01  0.20017027320E+02 -0.30807417958E+02  0.37716465290E+02  0.51100000000E-03 0. -1.
        -11    1    3    3    0    0  0.48960877403E+00  0.12630440971E+01 -0.70547074937E+01  0.71835851235E+01  0.51100000000E-03 0.  1.
         12    1    3    3    0    0 -0.99454382888E+00  0.11400176002E+00 -0.73560680702E+00  0.12422685714E+01  0.00000000000E+00 0. -1.
</event>
<event>
 7    1  0.3981356E-008  0.4614232E+02  0.7816164E-02  0.1320468E+00
        -11   -1    0    0    0    0  0.00000000000E+00  0.00000000000E+00  0.45593999997E+02  0.45594000000E+02  0.51100000000E-03 0.  1.
         11   -1    0    0    0    0 -0.00000000000E+00 -0.00000000000E+00 -0.45593999997E+02  0.45594000000E+02  0.51100000000E-03 0. -1.
    9900012    2    1    2    0    0  0.18163650372E+02  0.23016325350E+02 -0.34197135161E+02  0.46142317847E+02  0.10000000781E+02 0.  0.
        -12    1    1    2    0    0 -0.18163650372E+02 -0.23016325350E+02  0.34197135161E+02  0.45045682153E+02  0.00000000000E+00 0.  1.
         11    1    3    3    0    0  0.10526095871E+02  0.14010535426E+02 -0.18306921935E+02  0.25342399022E+02  0.51100000000E-03 0. -1.
        -11    1    3    3    0    0  0.80378113300E+01  0.51693666798E+01 -0.10998405550E+02  0.14570301567E+02  0.51100000000E-03 0.  1.
        -12    1    3    3    0    0 -0.40025682952E+00  0.38364232444E+01 -0.48918076758E+01  0.62296172576E+01  0.00000000000E+00 0.  1.
</event>
<event>
 7    1  0.3981356E-008  0.4614232E+02  0.7816164E-02  0.1320468E+00
        -11   -1    0    0    0    0  0.00000000000E+00  0.00000000000E+00  0.45593999997E+02  0.45594000000E+02  0.51100000000E-03 0. -1.
         11   -1    0    0    0    0 -0.00000000000E+00 -0.00000000000E+00 -0.45593999997E+02  0.45594000000E+02  0.51100000000E-03 0.  1.
    9900012    2    1    2    0    0 -0.27387104780E+02  0.30517041943E+02  0.18648595964E+02  0.46142317759E+02  0.99999999802E+01 0.  0.
        -12    1    1    2    0    0  0.27387104780E+02 -0.30517041943E+02 -0.18648595964E+02  0.45045682241E+02  0.00000000000E+00 0.  1.
         11    1    3    3    0    0 -0.11914576217E+02  0.13050602983E+02  0.62675523056E+01  0.18749868715E+02  0.51100000000E-03 0. -1.
        -11    1    3    3    0    0 -0.15341467811E+01  0.58806333446E+01  0.15276768513E+01  0.62665183079E+01  0.51100000000E-03 0.  1.
         12    1    3    3    0    0 -0.13938381782E+02  0.11585805615E+02  0.10853366807E+02  0.21125930737E+02  0.00000000000E+00 0. -1.
</event>
<event>
 7    1  0.3981356E-008  0.4614232E+02  0.7816164E-02  0.1320468E+00
        -11   -1    0    0    0    0  0.00000000000E+00  0.00000000000E+00  0.45593999997E+02  0.45594000000E+02  0.51100000000E-03 0.  1.
         11   -1    0    0    0    0 -0.00000000000E+00 -0.00000000000E+00 -0.45593999997E+02  0.45594000000E+02  0.51100000000E-03 0. -1.
    9900012    2    1    2    0    0  0.30374521228E+02 -0.53297327432E+01 -0.32834369996E+02  0.46142318253E+02  0.10000004490E+02 0.  0.
        -12    1    1    2    0    0 -0.30374521228E+02  0.53297327432E+01  0.32834369996E+02  0.45045681747E+02  0.00000000000E+00 0.  1.
         11    1    3    3    0    0  0.15805383061E+00  0.19870621352E-01 -0.46023927457E+00  0.48702803404E+00  0.51100000000E-03 0. -1.
        -11    1    3    3    0    0  0.12244346001E+02 -0.62650202052E+01 -0.10344873979E+02  0.17210197706E+02  0.51100000000E-03 0.  1.
         12    1    3    3    0    0  0.17972121397E+02  0.91541684072E+00 -0.22029256742E+02  0.28445092514E+02  0.00000000000E+00 0. -1.
</event>
<event>
 7    1  0.3981356E-008  0.4614232E+02  0.7816164E-02  0.1320468E+00
        -11   -1    0    0    0    0  0.00000000000E+00  0.00000000000E+00  0.45593999997E+02  0.45594000000E+02  0.51100000000E-03 0.  1.
         11   -1    0    0    0    0 -0.00000000000E+00 -0.00000000000E+00 -0.45593999997E+02  0.45594000000E+02  0.51100000000E-03 0. -1.
    9900012    2    1    2    0    0 -0.27879268100E+02 -0.19359161113E+02 -0.29615579966E+02  0.46142320013E+02  0.10000020530E+02 0.  0.
        -12    1    1    2    0    0  0.27879268100E+02  0.19359161113E+02  0.29615579966E+02  0.45045679987E+02  0.00000000000E+00 0.  1.
         11    1    3    3    0    0 -0.62554520790E+01 -0.65197919277E+01 -0.38979418848E+01  0.98403413910E+01  0.51100000000E-03 0. -1.
        -11    1    3    3    0    0 -0.87837626347E+01 -0.73465773310E+01 -0.13883865543E+02  0.17996899932E+02  0.51100000000E-03 0.  1.
        -12    1    3    3    0    0 -0.12840053387E+02 -0.54927918544E+01 -0.11833772539E+02  0.18305078689E+02  0.00000000000E+00 0.  1.
</event>
<event>
 7    1  0.3981356E-008  0.4614232E+02  0.7816164E-02  0.1320468E+00
        -11   -1    0    0    0    0  0.00000000000E+00  0.00000000000E+00  0.45593999997E+02  0.45594000000E+02  0.51100000000E-03 0.  1.
         11   -1    0    0    0    0 -0.00000000000E+00 -0.00000000000E+00 -0.45593999997E+02  0.45594000000E+02  0.51100000000E-03 0. -1.
    9900012    2    1    2    0    0  0.40388956845E+02  0.29318545648E+01 -0.19729416983E+02  0.46142317624E+02  0.99999987522E+01 0.  0.
        -12    1    1    2    0    0 -0.40388956845E+02 -0.29318545648E+01  0.19729416983E+02  0.45045682376E+02  0.00000000000E+00 0.  1.
         11    1    3    3    0    0  0.78958662430E+01  0.13439435100E+01 -0.21358498364E+01  0.82893149699E+01  0.51100000000E-03 0. -1.
        -11    1    3    3    0    0  0.61330263008E+01 -0.13347452530E+01 -0.49213978188E+00  0.62958524699E+01  0.51100000000E-03 0.  1.
         12    1    3    3    0    0  0.26360064301E+02  0.29226563079E+01 -0.17101427365E+02  0.31557150184E+02  0.00000000000E+00 0. -1.
</event>
<event>
 7    1  0.3981356E-008  0.4614232E+02  0.7816164E-02  0.1320468E+00
        -11   -1    0    0    0    0  0.00000000000E+00  0.00000000000E+00  0.45593999997E+02  0.45594000000E+02  0.51100000000E-03 0.  1.
         11   -1    0    0    0    0 -0.00000000000E+00 -0.00000000000E+00 -0.45593999997E+02  0.45594000000E+02  0.51100000000E-03 0. -1.
    9900012    2    1    2    0    0 -0.24344248106E+02 -0.48875456579E+01 -0.37584344799E+02  0.46142317717E+02  0.99999995936E+01 0.  0.
        -12    1    1    2    0    0  0.24344248106E+02  0.48875456579E+01  0.37584344799E+02  0.45045682283E+02  0.00000000000E+00 0.  1.
         11    1    3    3    0    0 -0.25194585630E+01 -0.15222173973E+01 -0.94195057738E+01  0.98687337860E+01  0.51100000000E-03 0. -1.
        -11    1    3    3    0    0 -0.20195105931E+02 -0.45797309502E+01 -0.26590873181E+02  0.33702978739E+02  0.51100000000E-03 0.  1.
        -12    1    3    3    0    0 -0.16296836128E+01  0.12144026896E+01 -0.15739658443E+01  0.25706051912E+01  0.00000000000E+00 0.  1.
</event>
<event>
 7    1  0.3981356E-008  0.4614232E+02  0.7816164E-02  0.1320468E+00
        -11   -1    0    0    0    0  0.00000000000E+00  0.00000000000E+00  0.45593999997E+02  0.45594000000E+02  0.51100000000E-03 0.  1.
         11   -1    0    0    0    0 -0.00000000000E+00 -0.00000000000E+00 -0.45593999997E+02  0.45594000000E+02  0.51100000000E-03 0. -1.
    9900012    2    1    2    0    0  0.32759230623E+02 -0.21174419033E+01 -0.30845788919E+02  0.46142318239E+02  0.10000004362E+02 0.  0.
        -12    1    1    2    0    0 -0.32759230623E+02  0.21174419033E+01  0.30845788919E+02  0.45045681761E+02  0.00000000000E+00 0.  1.
         11    1    3    3    0    0  0.10185121445E+02  0.24100304765E+00 -0.76704343319E+01  0.12752660288E+02  0.51100000000E-03 0.  1.
        -11    1    3    3    0    0  0.19913541224E+02 -0.46983132201E+01 -0.19105783844E+02  0.27993825172E+02  0.51100000000E-03 0. -1.
         12    1    3    3    0    0  0.26605679547E+01  0.23398682692E+01 -0.40695707427E+01  0.53958327799E+01  0.00000000000E+00 0. -1.
</event>
<event>
 7    1  0.3981356E-008  0.4614232E+02  0.7816164E-02  0.1320468E+00
        -11   -1    0    0    0    0  0.00000000000E+00  0.00000000000E+00  0.45593999997E+02  0.45594000000E+02  0.51100000000E-03 0.  1.
         11   -1    0    0    0    0 -0.00000000000E+00 -0.00000000000E+00 -0.45593999997E+02  0.45594000000E+02  0.51100000000E-03 0. -1.
    9900012    2    1    2    0    0 -0.24691331649E+01  0.36153057658E+02 -0.26757677243E+02  0.46142317765E+02  0.10000000031E+02 0.  0.
        -12    1    1    2    0    0  0.24691331649E+01 -0.36153057658E+02  0.26757677243E+02  0.45045682235E+02  0.00000000000E+00 0.  1.
         11    1    3    3    0    0 -0.13356661151E+01  0.22754536658E+01 -0.18020990621E-01  0.26385636952E+01  0.51100000000E-03 0. -1.
        -11    1    3    3    0    0  0.19523418804E+01  0.85492518464E+01 -0.60478510855E+01  0.10652598226E+02  0.51100000000E-03 0.  1.
         12    1    3    3    0    0 -0.30858089302E+01  0.25328352146E+02 -0.20691805167E+02  0.32851155843E+02  0.00000000000E+00 0. -1.
</event>
<event>
 7    1  0.3981356E-008  0.4614232E+02  0.7816164E-02  0.1320468E+00
        -11   -1    0    0    0    0  0.00000000000E+00  0.00000000000E+00  0.45593999997E+02  0.45594000000E+02  0.51100000000E-03 0.  1.
         11   -1    0    0    0    0 -0.00000000000E+00 -0.00000000000E+00 -0.45593999997E+02  0.45594000000E+02  0.51100000000E-03 0. -1.
    9900012    2    1    2    0    0  0.13299205568E+02 -0.10427528651E+02 -0.41755373651E+02  0.46142318173E+02  0.10000003760E+02 0.  0.
        -12    1    1    2    0    0 -0.13299205568E+02  0.10427528651E+02  0.41755373651E+02  0.45045681827E+02  0.00000000000E+00 0.  1.
         11    1    3    3    0    0  0.22685484512E+01 -0.33819789103E+01 -0.57301073212E+01  0.70298096418E+01  0.51100000000E-03 0.  1.
        -11    1    3    3    0    0  0.90543076297E+01 -0.24224794718E+01 -0.28974170344E+02  0.30452445564E+02  0.51100000000E-03 0. -1.
        -12    1    3    3    0    0  0.19763494872E+01 -0.46230702690E+01 -0.70510959855E+01  0.86600629677E+01  0.00000000000E+00 0.  1.
</event>
<event>
 7    1  0.3981356E-008  0.4614232E+02  0.7816164E-02  0.1320468E+00
        -11   -1    0    0    0    0  0.00000000000E+00  0.00000000000E+00  0.45593999997E+02  0.45594000000E+02  0.51100000000E-03 0.  1.
         11   -1    0    0    0    0 -0.00000000000E+00 -0.00000000000E+00 -0.45593999997E+02  0.45594000000E+02  0.51100000000E-03 0. -1.
    9900012    2    1    2    0    0  0.27186544736E+02  0.54452506786E+00 -0.35912518194E+02  0.46142315576E+02  0.99999800724E+01 0.  0.
        -12    1    1    2    0    0 -0.27186544736E+02 -0.54452506786E+00  0.35912518194E+02  0.45045684424E+02  0.00000000000E+00 0.  1.
         11    1    3    3    0    0  0.21829153005E+02 -0.45129283468E+00 -0.28722907986E+02  0.36079371247E+02  0.51100000000E-03 0. -1.
        -11    1    3    3    0    0  0.29345001433E+01 -0.55656483469E+00 -0.64253500670E+01  0.70856318879E+01  0.51100000000E-03 0.  1.
        -12    1    3    3    0    0  0.24228915875E+01  0.15523827372E+01 -0.76426014071E+00  0.29773124409E+01  0.00000000000E+00 0.  1.
</event>
<event>
 7    1  0.3981356E-008  0.4614232E+02  0.7816164E-02  0.1320468E+00
        -11   -1    0    0    0    0  0.00000000000E+00  0.00000000000E+00  0.45593999997E+02  0.45594000000E+02  0.51100000000E-03 0.  1.
         11   -1    0    0    0    0 -0.00000000000E+00 -0.00000000000E+00 -0.45593999997E+02  0.45594000000E+02  0.51100000000E-03 0. -1.
    9900012    2    1    2    0    0 -0.26223555371E+02  0.15474365950E+02 -0.33196124416E+02  0.46142317254E+02  0.99999953728E+01 0.  0.
        -12    1    1    2    0    0  0.26223555371E+02 -0.15474365950E+02  0.33196124416E+02  0.45045682746E+02  0.00000000000E+00 0.  1.
         11    1    3    3    0    0 -0.40869479257E+01  0.14280856847E+01 -0.60156355338E+01  0.74115074854E+01  0.51100000000E-03 0. -1.
        -11    1    3    3    0    0 -0.95555309466E+01  0.36855342081E+01 -0.15887710933E+02  0.18902663648E+02  0.51100000000E-03 0.  1.
         12    1    3    3    0    0 -0.12581076499E+02  0.10360746057E+02 -0.11292777949E+02  0.19828146120E+02  0.00000000000E+00 0. -1.
</event>
<event>
 7    1  0.3981356E-008  0.4614232E+02  0.7816164E-02  0.1320468E+00
        -11   -1    0    0    0    0  0.00000000000E+00  0.00000000000E+00  0.45593999997E+02  0.45594000000E+02  0.51100000000E-03 0.  1.
         11   -1    0    0    0    0 -0.00000000000E+00 -0.00000000000E+00 -0.45593999997E+02  0.45594000000E+02  0.51100000000E-03 0. -1.
    9900012    2    1    2    0    0 -0.36667455832E+02 -0.16844080140E+02 -0.20022191602E+02  0.46142317527E+02  0.99999978626E+01 0.  0.
        -12    1    1    2    0    0  0.36667455832E+02  0.16844080140E+02  0.20022191602E+02  0.45045682473E+02  0.00000000000E+00 0.  1.
         11    1    3    3    0    0 -0.78093844807E+01 -0.82775770591E+00 -0.49670220029E+01  0.92920921554E+01  0.51100000000E-03 0. -1.
        -11    1    3    3    0    0 -0.75668594942E+01 -0.24150336598E+01 -0.62081141442E+01  0.10081191977E+02  0.51100000000E-03 0.  1.
         12    1    3    3    0    0 -0.21291211857E+02 -0.13601288774E+02 -0.88470554547E+01  0.26769033395E+02  0.00000000000E+00 0. -1.
</event>
<event>
 7    1  0.3981356E-008  0.4614232E+02  0.7816164E-02  0.1320468E+00
        -11   -1    0    0    0    0  0.00000000000E+00  0.00000000000E+00  0.45593999997E+02  0.45594000000E+02  0.51100000000E-03 0. -1.
         11   -1    0    0    0    0 -0.00000000000E+00 -0.00000000000E+00 -0.45593999997E+02  0.45594000000E+02  0.51100000000E-03 0.  1.
    9900012    2    1    2    0    0 -0.44753951861E+02  0.11641254939E+00 -0.51170036282E+01  0.46142317796E+02  0.10000000320E+02 0.  0.
        -12    1    1    2    0    0  0.44753951861E+02 -0.11641254939E+00  0.51170036282E+01  0.45045682204E+02  0.00000000000E+00 0.  1.
         11    1    3    3    0    0 -0.27561386718E+02  0.55617684032E+00 -0.21606470072E+00  0.27567844579E+02  0.51100000000E-03 0. -1.
        -11    1    3    3    0    0 -0.29368940108E+01  0.19327363647E+00  0.10342234264E+01  0.31196665665E+01  0.51100000000E-03 0.  1.
         12    1    3    3    0    0 -0.14255671132E+02 -0.63303792741E+00 -0.59351623538E+01  0.15454806651E+02  0.00000000000E+00 0. -1.
</event>
<event>
 7    1  0.3981356E-008  0.4614232E+02  0.7816164E-02  0.1320468E+00
        -11   -1    0    0    0    0  0.00000000000E+00  0.00000000000E+00  0.45593999997E+02  0.45594000000E+02  0.51100000000E-03 0.  1.
         11   -1    0    0    0    0 -0.00000000000E+00 -0.00000000000E+00 -0.45593999997E+02  0.45594000000E+02  0.51100000000E-03 0. -1.
    9900012    2    1    2    0    0 -0.77160369583E+01  0.30309277332E+02 -0.32417957119E+02  0.46142318048E+02  0.10000002618E+02 0.  0.
        -12    1    1    2    0    0  0.77160369583E+01 -0.30309277332E+02  0.32417957119E+02  0.45045681952E+02  0.00000000000E+00 0.  1.
         11    1    3    3    0    0 -0.73295907532E+01  0.22566370589E+02 -0.25247651546E+02  0.34646903051E+02  0.51100000000E-03 0. -1.
        -11    1    3    3    0    0 -0.99475793060E+00  0.74473453628E+01 -0.45379244223E+01  0.87775426297E+01  0.51100000000E-03 0.  1.
        -12    1    3    3    0    0  0.60831172558E+00  0.29556138031E+00 -0.26323811503E+01  0.27178723674E+01  0.00000000000E+00 0.  1.
</event>
<event>
 7    1  0.3981356E-008  0.4614232E+02  0.7816164E-02  0.1320468E+00
        -11   -1    0    0    0    0  0.00000000000E+00  0.00000000000E+00  0.45593999997E+02  0.45594000000E+02  0.51100000000E-03 0.  1.
         11   -1    0    0    0    0 -0.00000000000E+00 -0.00000000000E+00 -0.45593999997E+02  0.45594000000E+02  0.51100000000E-03 0. -1.
    9900012    2    1    2    0    0  0.37939283624E+02  0.37626667492E+01 -0.23990970154E+02  0.46142317056E+02  0.99999935690E+01 0.  0.
        -12    1    1    2    0    0 -0.37939283624E+02 -0.37626667492E+01  0.23990970154E+02  0.45045682944E+02  0.00000000000E+00 0.  1.
         11    1    3    3    0    0  0.15783992873E+02 -0.17832954045E+01 -0.12947872716E+02  0.20492973958E+02  0.51100000000E-03 0. -1.
        -11    1    3    3    0    0  0.65897260640E+01  0.15663833544E-01 -0.38535372704E+01  0.76337726394E+01  0.51100000000E-03 0.  1.
        -12    1    3    3    0    0  0.15565564687E+02  0.55302983202E+01 -0.71895601675E+01  0.18015570458E+02  0.00000000000E+00 0.  1.
</event>
<event>
 7    1  0.3981356E-008  0.4614232E+02  0.7816164E-02  0.1320468E+00
        -11   -1    0    0    0    0  0.00000000000E+00  0.00000000000E+00  0.45593999997E+02  0.45594000000E+02  0.51100000000E-03 0.  1.
         11   -1    0    0    0    0 -0.00000000000E+00 -0.00000000000E+00 -0.45593999997E+02  0.45594000000E+02  0.51100000000E-03 0. -1.
    9900012    2    1    2    0    0 -0.57722074207E+01 -0.43702986701E+02 -0.92652049025E+01  0.46142318220E+02  0.10000004187E+02 0.  0.
        -12    1    1    2    0    0  0.57722074207E+01  0.43702986701E+02  0.92652049025E+01  0.45045681780E+02  0.00000000000E+00 0.  1.
         11    1    3    3    0    0 -0.43272949933E+01 -0.38257444792E+02 -0.92860970330E+01  0.39605418346E+02  0.51100000000E-03 0. -1.
        -11    1    3    3    0    0  0.10347773926E+01 -0.14821476826E+01  0.38283494293E+00  0.18477253204E+01  0.51100000000E-03 0.  1.
        -12    1    3    3    0    0 -0.24796898200E+01 -0.39633942262E+01 -0.36194281244E+00  0.46891745537E+01  0.00000000000E+00 0.  1.
</event>
<event>
 7    1  0.3981356E-008  0.4614232E+02  0.7816164E-02  0.1320468E+00
        -11   -1    0    0    0    0  0.00000000000E+00  0.00000000000E+00  0.45593999997E+02  0.45594000000E+02  0.51100000000E-03 0.  1.
         11   -1    0    0    0    0 -0.00000000000E+00 -0.00000000000E+00 -0.45593999997E+02  0.45594000000E+02  0.51100000000E-03 0. -1.
    9900012    2    1    2    0    0  0.26273375503E+02  0.83855132597E+01 -0.35616097676E+02  0.46142317558E+02  0.99999981496E+01 0.  0.
        -12    1    1    2    0    0 -0.26273375503E+02 -0.83855132597E+01  0.35616097676E+02  0.45045682442E+02  0.00000000000E+00 0.  1.
         11    1    3    3    0    0  0.26886508029E+01 -0.99654085975E+00 -0.37766321353E+01  0.47418232117E+01  0.51100000000E-03 0. -1.
        -11    1    3    3    0    0  0.15456201139E+02  0.22836094215E+01 -0.17615274157E+02  0.23545846970E+02  0.51100000000E-03 0.  1.
        -12    1    3    3    0    0  0.81285235616E+01  0.70984446980E+01 -0.14224191384E+02  0.17854647377E+02  0.00000000000E+00 0.  1.
</event>
<event>
 7    1  0.3981356E-008  0.4614232E+02  0.7816164E-02  0.1320468E+00
        -11   -1    0    0    0    0  0.00000000000E+00  0.00000000000E+00  0.45593999997E+02  0.45594000000E+02  0.51100000000E-03 0.  1.
         11   -1    0    0    0    0 -0.00000000000E+00 -0.00000000000E+00 -0.45593999997E+02  0.45594000000E+02  0.51100000000E-03 0. -1.
    9900012    2    1    2    0    0 -0.27870959407E+02 -0.11599450943E+02 -0.33433151994E+02  0.46142319933E+02  0.10000019807E+02 0.  0.
        -12    1    1    2    0    0  0.27870959407E+02  0.11599450943E+02  0.33433151994E+02  0.45045680067E+02  0.00000000000E+00 0.  1.
         11    1    3    3    0    0 -0.21396041913E+01 -0.19641967805E+01 -0.11059254569E+01  0.31079006525E+01  0.51100000000E-03 0. -1.
        -11    1    3    3    0    0 -0.80655549332E+01 -0.64507110166E+01 -0.98818033090E+01  0.14293875818E+02  0.51100000000E-03 0.  1.
         12    1    3    3    0    0 -0.17665800282E+02 -0.31845431458E+01 -0.22445423228E+02  0.28740543463E+02  0.00000000000E+00 0. -1.
</event>
<event>
 7    1  0.3981356E-008  0.4614231E+02  0.7816164E-02  0.1320468E+00
        -11   -1    0    0    0    0  0.00000000000E+00  0.00000000000E+00  0.45593999997E+02  0.45594000000E+02  0.51100000000E-03 0. -1.
         11   -1    0    0    0    0 -0.00000000000E+00 -0.00000000000E+00 -0.45593999997E+02  0.45594000000E+02  0.51100000000E-03 0.  1.
    9900012    2    1    2    0    0  0.11893137207E+02 -0.31199018947E+02  0.30237204229E+02  0.46142311911E+02  0.99999466506E+01 0.  0.
        -12    1    1    2    0    0 -0.11893137207E+02  0.31199018947E+02 -0.30237204229E+02  0.45045688089E+02  0.00000000000E+00 0.  1.
         11    1    3    3    0    0  0.46282472603E+01 -0.12676900896E+02  0.15355603416E+02  0.20443068399E+02  0.51100000000E-03 0. -1.
        -11    1    3    3    0    0 -0.77006041048E+00 -0.15545331895E+01  0.30477987973E+01  0.35069422926E+01  0.51100000000E-03 0.  1.
         12    1    3    3    0    0  0.80349503571E+01 -0.16967584861E+02  0.11833802016E+02  0.22192301219E+02  0.00000000000E+00 0. -1.
</event>
<event>
 7    1  0.3981356E-008  0.4614232E+02  0.7816164E-02  0.1320468E+00
        -11   -1    0    0    0    0  0.00000000000E+00  0.00000000000E+00  0.45593999997E+02  0.45594000000E+02  0.51100000000E-03 0.  1.
         11   -1    0    0    0    0 -0.00000000000E+00 -0.00000000000E+00 -0.45593999997E+02  0.45594000000E+02  0.51100000000E-03 0. -1.
    9900012    2    1    2    0    0  0.62485007716E+01 -0.96584866727E+01 -0.43552077804E+02  0.46142316436E+02  0.99999879129E+01 0.  0.
        -12    1    1    2    0    0 -0.62485007716E+01  0.96584866727E+01  0.43552077804E+02  0.45045683564E+02  0.00000000000E+00 0.  1.
         11    1    3    3    0    0  0.18472331059E+01 -0.40201259583E+01 -0.11316202553E+02  0.12150313714E+02  0.51100000000E-03 0. -1.
        -11    1    3    3    0    0  0.35690306533E+01 -0.34612218008E+01 -0.66646938745E+01  0.83148169469E+01  0.51100000000E-03 0.  1.
         12    1    3    3    0    0  0.83223701241E+00 -0.21771389136E+01 -0.25571181377E+02  0.25677185774E+02  0.00000000000E+00 0. -1.
</event>
<event>
 7    1  0.3981356E-008  0.4614232E+02  0.7816164E-02  0.1320468E+00
        -11   -1    0    0    0    0  0.00000000000E+00  0.00000000000E+00  0.45593999997E+02  0.45594000000E+02  0.51100000000E-03 0. -1.
         11   -1    0    0    0    0 -0.00000000000E+00 -0.00000000000E+00 -0.45593999997E+02  0.45594000000E+02  0.51100000000E-03 0.  1.
    9900012    2    1    2    0    0  0.41609440202E+02  0.13135241844E+02  0.11190776888E+02  0.46142316748E+02  0.99999907651E+01 0.  0.
        -12    1    1    2    0    0 -0.41609440202E+02 -0.13135241844E+02 -0.11190776888E+02  0.45045683252E+02  0.00000000000E+00 0.  1.
         11    1    3    3    0    0  0.16452095760E+02  0.79760343080E+01  0.59241897257E+01  0.19219380904E+02  0.51100000000E-03 0. -1.
        -11    1    3    3    0    0  0.14580480577E+02  0.56261839877E+01  0.15613342990E+01  0.15706117445E+02  0.51100000000E-03 0.  1.
        -12    1    3    3    0    0  0.10576863865E+02 -0.46697645166E+00  0.37052528638E+01  0.11216818399E+02  0.00000000000E+00 0.  1.
</event>
<event>
 7    1  0.3981356E-008  0.4614232E+02  0.7816164E-02  0.1320468E+00
        -11   -1    0    0    0    0  0.00000000000E+00  0.00000000000E+00  0.45593999997E+02  0.45594000000E+02  0.51100000000E-03 0.  1.
         11   -1    0    0    0    0 -0.00000000000E+00 -0.00000000000E+00 -0.45593999997E+02  0.45594000000E+02  0.51100000000E-03 0. -1.
    9900012    2    1    2    0    0  0.25824554889E+02 -0.25093070908E+02 -0.27065544161E+02  0.46142317370E+02  0.99999964379E+01 0.  0.
        -12    1    1    2    0    0 -0.25824554889E+02  0.25093070908E+02  0.27065544161E+02  0.45045682630E+02  0.00000000000E+00 0.  1.
         11    1    3    3    0    0  0.59223526292E+00 -0.23576054317E+00  0.20930442187E-01  0.63778051467E+00  0.51100000000E-03 0.  1.
        -11    1    3    3    0    0  0.19049202639E+02 -0.19723151331E+02 -0.15792670709E+02  0.31643060345E+02  0.51100000000E-03 0. -1.
         12    1    3    3    0    0  0.61831169873E+01 -0.51341590344E+01 -0.11293803894E+02  0.13861476511E+02  0.00000000000E+00 0. -1.
</event>
<event>
 7    1  0.3981356E-008  0.4614232E+02  0.7816164E-02  0.1320468E+00
        -11   -1    0    0    0    0  0.00000000000E+00  0.00000000000E+00  0.45593999997E+02  0.45594000000E+02  0.51100000000E-03 0.  1.
         11   -1    0    0    0    0 -0.00000000000E+00 -0.00000000000E+00 -0.45593999997E+02  0.45594000000E+02  0.51100000000E-03 0. -1.
    9900012    2    1    2    0    0 -0.44506085262E+02 -0.61969798583E+01 -0.31494874668E+01  0.46142318120E+02  0.10000003274E+02 0.  0.
        -12    1    1    2    0    0  0.44506085262E+02  0.61969798583E+01  0.31494874668E+01  0.45045681880E+02  0.00000000000E+00 0.  1.
         11    1    3    3    0    0 -0.21082110265E+02 -0.64456451146E+01 -0.44621622282E+01  0.22492501110E+02  0.51100000000E-03 0. -1.
        -11    1    3    3    0    0 -0.95093005704E+01  0.15125463951E+01  0.91475263086E+00  0.96721955404E+01  0.51100000000E-03 0.  1.
         12    1    3    3    0    0 -0.13914674427E+02 -0.12638811388E+01  0.39792213054E+00  0.13977621470E+02  0.00000000000E+00 0. -1.
</event>
<event>
 7    1  0.3981356E-008  0.4614232E+02  0.7816164E-02  0.1320468E+00
        -11   -1    0    0    0    0  0.00000000000E+00  0.00000000000E+00  0.45593999997E+02  0.45594000000E+02  0.51100000000E-03 0.  1.
         11   -1    0    0    0    0 -0.00000000000E+00 -0.00000000000E+00 -0.45593999997E+02  0.45594000000E+02  0.51100000000E-03 0. -1.
    9900012    2    1    2    0    0 -0.39426915472E+02 -0.17443402864E+02 -0.13052182675E+02  0.46142318301E+02  0.10000004923E+02 0.  0.
        -12    1    1    2    0    0  0.39426915472E+02  0.17443402864E+02  0.13052182675E+02  0.45045681699E+02  0.00000000000E+00 0.  1.
         11    1    3    3    0    0 -0.33057162760E+02 -0.13760455746E+02 -0.10850214464E+02  0.37414613539E+02  0.51100000000E-03 0. -1.
        -11    1    3    3    0    0 -0.67651264466E+01 -0.39342912161E+01 -0.16397991091E+01  0.79959067398E+01  0.51100000000E-03 0.  1.
         12    1    3    3    0    0  0.39537373451E+00  0.25134409807E+00 -0.56216910269E+00  0.73179802241E+00  0.00000000000E+00 0. -1.
</event>
<event>
 7    1  0.3981356E-008  0.4614232E+02  0.7816164E-02  0.1320468E+00
        -11   -1    0    0    0    0  0.00000000000E+00  0.00000000000E+00  0.45593999997E+02  0.45594000000E+02  0.51100000000E-03 0.  1.
         11   -1    0    0    0    0 -0.00000000000E+00 -0.00000000000E+00 -0.45593999997E+02  0.45594000000E+02  0.51100000000E-03 0. -1.
    9900012    2    1    2    0    0  0.24116964177E+02  0.27400914401E+01 -0.37947034927E+02  0.46142317388E+02  0.99999966012E+01 0.  0.
        -12    1    1    2    0    0 -0.24116964177E+02 -0.27400914401E+01  0.37947034927E+02  0.45045682612E+02  0.00000000000E+00 0.  1.
         11    1    3    3    0    0  0.11305890463E+02 -0.15022667349E+01 -0.17275908686E+02  0.20701134889E+02  0.51100000000E-03 0. -1.
        -11    1    3    3    0    0  0.29525169352E+01  0.36989622372E+01 -0.47384480201E+01  0.66972059685E+01  0.51100000000E-03 0.  1.
        -12    1    3    3    0    0  0.98585567796E+01  0.54339593778E+00 -0.15932678220E+02  0.18743976531E+02  0.00000000000E+00 0.  1.
</event>
<event>
 7    1  0.3981356E-008  0.4614232E+02  0.7816164E-02  0.1320468E+00
        -11   -1    0    0    0    0  0.00000000000E+00  0.00000000000E+00  0.45593999997E+02  0.45594000000E+02  0.51100000000E-03 0.  1.
         11   -1    0    0    0    0 -0.00000000000E+00 -0.00000000000E+00 -0.45593999997E+02  0.45594000000E+02  0.51100000000E-03 0. -1.
    9900012    2    1    2    0    0 -0.22862683548E+02 -0.35015601712E+02 -0.16742723661E+02  0.46142318100E+02  0.10000003088E+02 0.  0.
        -12    1    1    2    0    0  0.22862683548E+02  0.35015601712E+02  0.16742723661E+02  0.45045681900E+02  0.00000000000E+00 0.  1.
         11    1    3    3    0    0 -0.16959615112E+02 -0.25701332468E+02 -0.15563185767E+02  0.34502170756E+02  0.51100000000E-03 0. -1.
        -11    1    3    3    0    0  0.48868505476E+00 -0.64946943360E+00 -0.10075069949E+00  0.81900829818E+00  0.51100000000E-03 0.  1.
         12    1    3    3    0    0 -0.63917534901E+01 -0.86647998099E+01 -0.10787871946E+01  0.10821139045E+02  0.00000000000E+00 0. -1.
</event>
<event>
 7    1  0.3981356E-008  0.4614232E+02  0.7816164E-02  0.1320468E+00
        -11   -1    0    0    0    0  0.00000000000E+00  0.00000000000E+00  0.45593999997E+02  0.45594000000E+02  0.51100000000E-03 0.  1.
         11   -1    0    0    0    0 -0.00000000000E+00 -0.00000000000E+00 -0.45593999997E+02  0.45594000000E+02  0.51100000000E-03 0. -1.
    9900012    2    1    2    0    0  0.64848072981E+01  0.11867993727E+02 -0.42967562001E+02  0.46142318908E+02  0.10000010456E+02 0.  0.
        -12    1    1    2    0    0 -0.64848072981E+01 -0.11867993727E+02  0.42967562001E+02  0.45045681092E+02  0.00000000000E+00 0.  1.
         11    1    3    3    0    0  0.36141722217E+01  0.93006793625E+00 -0.13577166851E+02  0.14080721827E+02  0.51100000000E-03 0. -1.
        -11    1    3    3    0    0  0.22862670184E+01  0.11534069677E+02 -0.28552125779E+02  0.30878563227E+02  0.51100000000E-03 0.  1.
         12    1    3    3    0    0  0.58436805794E+00 -0.59614388696E+00 -0.83826937063E+00  0.11830338536E+01  0.00000000000E+00 0. -1.
</event>
<event>
 7    1  0.3981356E-008  0.4614232E+02  0.7816164E-02  0.1320468E+00
        -11   -1    0    0    0    0  0.00000000000E+00  0.00000000000E+00  0.45593999997E+02  0.45594000000E+02  0.51100000000E-03 0.  1.
         11   -1    0    0    0    0 -0.00000000000E+00 -0.00000000000E+00 -0.45593999997E+02  0.45594000000E+02  0.51100000000E-03 0. -1.
    9900012    2    1    2    0    0 -0.88417820709E+01 -0.42935329600E+02 -0.10367932160E+02  0.46142315908E+02  0.99999831011E+01 0.  0.
        -12    1    1    2    0    0  0.88417820709E+01  0.42935329600E+02  0.10367932160E+02  0.45045684092E+02  0.00000000000E+00 0.  1.
         11    1    3    3    0    0 -0.33911769801E+01 -0.13236036200E+02 -0.58329212927E+01  0.14856503851E+02  0.51100000000E-03 0. -1.
        -11    1    3    3    0    0  0.12183690937E+01 -0.48439279901E+01  0.64155194003E+00  0.50358366509E+01  0.51100000000E-03 0.  1.
         12    1    3    3    0    0 -0.66689741845E+01 -0.24855365410E+02 -0.51765628073E+01  0.26249975406E+02  0.00000000000E+00 0. -1.
</event>
<event>
 7    1  0.3981356E-008  0.4614232E+02  0.7816164E-02  0.1320468E+00
        -11   -1    0    0    0    0  0.00000000000E+00  0.00000000000E+00  0.45593999997E+02  0.45594000000E+02  0.51100000000E-03 0.  1.
         11   -1    0    0    0    0 -0.00000000000E+00 -0.00000000000E+00 -0.45593999997E+02  0.45594000000E+02  0.51100000000E-03 0. -1.
    9900012    2    1    2    0    0  0.34275026085E+02  0.25525698333E+02 -0.14239900402E+02  0.46142318165E+02  0.10000003681E+02 0.  0.
        -12    1    1    2    0    0 -0.34275026085E+02 -0.25525698333E+02  0.14239900402E+02  0.45045681835E+02  0.00000000000E+00 0.  1.
         11    1    3    3    0    0  0.89401629506E+01  0.10607423428E+02 -0.53028758400E+01  0.14851411980E+02  0.51100000000E-03 0. -1.
        -11    1    3    3    0    0  0.14685019845E+00  0.40878698135E+00  0.56172107219E+00  0.71007225052E+00  0.51100000000E-03 0.  1.
        -12    1    3    3    0    0  0.25188012936E+02  0.14509487924E+02 -0.94987456343E+01  0.30580833934E+02  0.00000000000E+00 0.  1.
</event>
<event>
 7    1  0.3981356E-008  0.4614232E+02  0.7816164E-02  0.1320468E+00
        -11   -1    0    0    0    0  0.00000000000E+00  0.00000000000E+00  0.45593999997E+02  0.45594000000E+02  0.51100000000E-03 0. -1.
         11   -1    0    0    0    0 -0.00000000000E+00 -0.00000000000E+00 -0.45593999997E+02  0.45594000000E+02  0.51100000000E-03 0.  1.
    9900012    2    1    2    0    0 -0.26225142148E+01 -0.25720467425E+02  0.36887578047E+02  0.46142318303E+02  0.10000004945E+02 0.  0.
        -12    1    1    2    0    0  0.26225142148E+01  0.25720467425E+02 -0.36887578047E+02  0.45045681697E+02  0.00000000000E+00 0.  1.
         11    1    3    3    0    0 -0.54364043223E+00 -0.24798515145E+02  0.32792079296E+02  0.41116692026E+02  0.51100000000E-03 0. -1.
        -11    1    3    3    0    0 -0.91822725904E+00 -0.11786581103E+01  0.12724588466E+01  0.19625310233E+01  0.51100000000E-03 0.  1.
         12    1    3    3    0    0 -0.11606465236E+01  0.25670583066E+00  0.28230399040E+01  0.30630952541E+01  0.00000000000E+00 0. -1.
</event>
<event>
 7    1  0.3981356E-008  0.4614232E+02  0.7816164E-02  0.1320468E+00
        -11   -1    0    0    0    0  0.00000000000E+00  0.00000000000E+00  0.45593999997E+02  0.45594000000E+02  0.51100000000E-03 0.  1.
         11   -1    0    0    0    0 -0.00000000000E+00 -0.00000000000E+00 -0.45593999997E+02  0.45594000000E+02  0.51100000000E-03 0. -1.
    9900012    2    1    2    0    0  0.32271295097E+02  0.16531835117E+02 -0.26727806813E+02  0.46142315228E+02  0.99999769005E+01 0.  0.
        -12    1    1    2    0    0 -0.32271295097E+02 -0.16531835117E+02  0.26727806813E+02  0.45045684772E+02  0.00000000000E+00 0.  1.
         11    1    3    3    0    0  0.15748692186E+02  0.78357975262E+01 -0.18278977817E+02  0.25368130769E+02  0.51100000000E-03 0. -1.
        -11    1    3    3    0    0  0.42070692261E+01  0.39390001641E+01 -0.22171907681E+01  0.61750375650E+01  0.51100000000E-03 0.  1.
        -12    1    3    3    0    0  0.12315533685E+02  0.47570374268E+01 -0.62316382279E+01  0.14599146894E+02  0.00000000000E+00 0.  1.
</event>
<event>
 7    1  0.3981356E-008  0.4614232E+02  0.7816164E-02  0.1320468E+00
        -11   -1    0    0    0    0  0.00000000000E+00  0.00000000000E+00  0.45593999997E+02  0.45594000000E+02  0.51100000000E-03 0. -1.
         11   -1    0    0    0    0 -0.00000000000E+00 -0.00000000000E+00 -0.45593999997E+02  0.45594000000E+02  0.51100000000E-03 0.  1.
    9900012    2    1    2    0    0 -0.61077765974E+01  0.12863604233E+02  0.42735655388E+02  0.46142317740E+02  0.99999998097E+01 0.  0.
        -12    1    1    2    0    0  0.61077765974E+01 -0.12863604233E+02 -0.42735655388E+02  0.45045682260E+02  0.00000000000E+00 0.  1.
         11    1    3    3    0    0 -0.57543226485E+01  0.52327369921E+01  0.13002055166E+02  0.15150815304E+02  0.51100000000E-03 0. -1.
        -11    1    3    3    0    0  0.13557988013E+00 -0.49735540024E+00  0.30441536553E+01  0.30874934877E+01  0.51100000000E-03 0.  1.
        -12    1    3    3    0    0 -0.48903382907E+00  0.81282226410E+01  0.26689446566E+02  0.27904008948E+02  0.00000000000E+00 0.  1.
</event>
<event>
 7    1  0.3981356E-008  0.4614232E+02  0.7816164E-02  0.1320468E+00
        -11   -1    0    0    0    0  0.00000000000E+00  0.00000000000E+00  0.45593999997E+02  0.45594000000E+02  0.51100000000E-03 0.  1.
         11   -1    0    0    0    0 -0.00000000000E+00 -0.00000000000E+00 -0.45593999997E+02  0.45594000000E+02  0.51100000000E-03 0. -1.
    9900012    2    1    2    0    0  0.65562727696E+01 -0.44214475601E+02  0.55864931759E+01  0.46142317951E+02  0.10000001729E+02 0.  0.
        -12    1    1    2    0    0 -0.65562727696E+01  0.44214475601E+02 -0.55864931759E+01  0.45045682049E+02  0.00000000000E+00 0.  1.
         11    1    3    3    0    0  0.36212433662E+01 -0.12338062267E+02  0.44640515585E+01  0.13611353371E+02  0.51100000000E-03 0. -1.
        -11    1    3    3    0    0 -0.97652510223E+00 -0.26938863047E+01  0.11496467944E+01  0.30874443656E+01  0.51100000000E-03 0.  1.
         12    1    3    3    0    0  0.39115545057E+01 -0.29182527029E+02 -0.27205176950E-01  0.29443520214E+02  0.00000000000E+00 0. -1.
</event>
<event>
 7    1  0.3981356E-008  0.4614231E+02  0.7816164E-02  0.1320468E+00
        -11   -1    0    0    0    0  0.00000000000E+00  0.00000000000E+00  0.45593999997E+02  0.45594000000E+02  0.51100000000E-03 0.  1.
         11   -1    0    0    0    0 -0.00000000000E+00 -0.00000000000E+00 -0.45593999997E+02  0.45594000000E+02  0.51100000000E-03 0. -1.
    9900012    2    1    2    0    0 -0.31623308681E+02 -0.29958114264E+02 -0.11471340484E+02  0.46142313029E+02  0.99999568509E+01 0.  0.
        -12    1    1    2    0    0  0.31623308681E+02  0.29958114264E+02  0.11471340484E+02  0.45045686971E+02  0.00000000000E+00 0.  1.
         11    1    3    3    0    0 -0.24197115780E+02 -0.24477923367E+02 -0.48596046720E+01  0.34760392723E+02  0.51100000000E-03 0. -1.
        -11    1    3    3    0    0 -0.35868364296E+01 -0.28131274380E+01 -0.27964236170E+01  0.53478095387E+01  0.51100000000E-03 0.  1.
         12    1    3    3    0    0 -0.38393564712E+01 -0.26670634586E+01 -0.38153121953E+01  0.60341107674E+01  0.00000000000E+00 0. -1.
</event>
<event>
 7    1  0.3981356E-008  0.4614232E+02  0.7816164E-02  0.1320468E+00
        -11   -1    0    0    0    0  0.00000000000E+00  0.00000000000E+00  0.45593999997E+02  0.45594000000E+02  0.51100000000E-03 0.  1.
         11   -1    0    0    0    0 -0.00000000000E+00 -0.00000000000E+00 -0.45593999997E+02  0.45594000000E+02  0.51100000000E-03 0. -1.
    9900012    2    1    2    0    0  0.71481003234E+01 -0.94940665875E+01 -0.43449750659E+02  0.46142317954E+02  0.10000001761E+02 0.  0.
        -12    1    1    2    0    0 -0.71481003234E+01  0.94940665875E+01  0.43449750659E+02  0.45045682046E+02  0.00000000000E+00 0.  1.
         11    1    3    3    0    0  0.50677288541E-01 -0.22478800439E+01 -0.14494410067E+01  0.26751471684E+01  0.51100000000E-03 0. -1.
        -11    1    3    3    0    0  0.50403648197E+01 -0.42926865733E+01 -0.17623005395E+02  0.18825587772E+02  0.51100000000E-03 0.  1.
         12    1    3    3    0    0  0.20570582152E+01 -0.29534999703E+01 -0.24377304257E+02  0.24641583014E+02  0.00000000000E+00 0. -1.
</event>
<event>
 7    1  0.3981356E-008  0.4614232E+02  0.7816164E-02  0.1320468E+00
        -11   -1    0    0    0    0  0.00000000000E+00  0.00000000000E+00  0.45593999997E+02  0.45594000000E+02  0.51100000000E-03 0. -1.
         11   -1    0    0    0    0 -0.00000000000E+00 -0.00000000000E+00 -0.45593999997E+02  0.45594000000E+02  0.51100000000E-03 0.  1.
    9900012    2    1    2    0    0 -0.26013549917E+02 -0.55841322138E+01 -0.36348676034E+02  0.46142316952E+02  0.99999926241E+01 0.  0.
        -12    1    1    2    0    0  0.26013549917E+02  0.55841322138E+01  0.36348676034E+02  0.45045683048E+02  0.00000000000E+00 0.  1.
         11    1    3    3    0    0 -0.20625796287E+01 -0.28108125274E+01 -0.34139161160E+01  0.48795210110E+01  0.51100000000E-03 0.  1.
        -11    1    3    3    0    0 -0.18513391853E+02 -0.38717987208E+01 -0.28275876323E+02  0.34018549136E+02  0.51100000000E-03 0. -1.
         12    1    3    3    0    0 -0.54375784348E+01  0.10984790344E+01 -0.46588835948E+01  0.72442468052E+01  0.00000000000E+00 0. -1.
</event>
<event>
 7    1  0.3981356E-008  0.4614232E+02  0.7816164E-02  0.1320468E+00
        -11   -1    0    0    0    0  0.00000000000E+00  0.00000000000E+00  0.45593999997E+02  0.45594000000E+02  0.51100000000E-03 0.  1.
         11   -1    0    0    0    0 -0.00000000000E+00 -0.00000000000E+00 -0.45593999997E+02  0.45594000000E+02  0.51100000000E-03 0. -1.
    9900012    2    1    2    0    0 -0.22615765998E+02 -0.38901207325E+02  0.20824783985E+01  0.46142317417E+02  0.99999968656E+01 0.  0.
        -12    1    1    2    0    0  0.22615765998E+02  0.38901207325E+02 -0.20824783985E+01  0.45045682583E+02  0.00000000000E+00 0.  1.
         11    1    3    3    0    0 -0.95024578776E+01 -0.14115278178E+02 -0.58340180665E+00  0.17025808107E+02  0.51100000000E-03 0. -1.
        -11    1    3    3    0    0 -0.12208698722E+02 -0.20711517091E+02 -0.21874762343E+00  0.24043026337E+02  0.51100000000E-03 0.  1.
        -12    1    3    3    0    0 -0.90460939923E+00 -0.40744120565E+01  0.28846278286E+01  0.50734829733E+01  0.00000000000E+00 0.  1.
</event>
<event>
 7    1  0.3981356E-008  0.4614232E+02  0.7816164E-02  0.1320468E+00
        -11   -1    0    0    0    0  0.00000000000E+00  0.00000000000E+00  0.45593999997E+02  0.45594000000E+02  0.51100000000E-03 0.  1.
         11   -1    0    0    0    0 -0.00000000000E+00 -0.00000000000E+00 -0.45593999997E+02  0.45594000000E+02  0.51100000000E-03 0. -1.
    9900012    2    1    2    0    0  0.90976305970E+01  0.10595698704E+02 -0.42826135779E+02  0.46142316308E+02  0.99999867461E+01 0.  0.
        -12    1    1    2    0    0 -0.90976305970E+01 -0.10595698704E+02  0.42826135779E+02  0.45045683692E+02  0.00000000000E+00 0.  1.
         11    1    3    3    0    0  0.17829241861E+01  0.36858103839E+01 -0.48084282032E+01  0.63154571399E+01  0.51100000000E-03 0. -1.
        -11    1    3    3    0    0  0.39941513946E+01  0.65793651644E+01 -0.32320434116E+02  0.33224264522E+02  0.51100000000E-03 0.  1.
        -12    1    3    3    0    0  0.33205550163E+01  0.33052315605E+00 -0.56972734599E+01  0.66025946452E+01  0.00000000000E+00 0.  1.
</event>
<event>
 7    1  0.3981356E-008  0.4614232E+02  0.7816164E-02  0.1320468E+00
        -11   -1    0    0    0    0  0.00000000000E+00  0.00000000000E+00  0.45593999997E+02  0.45594000000E+02  0.51100000000E-03 0.  1.
         11   -1    0    0    0    0 -0.00000000000E+00 -0.00000000000E+00 -0.45593999997E+02  0.45594000000E+02  0.51100000000E-03 0. -1.
    9900012    2    1    2    0    0 -0.32578684020E+02  0.77017458165E+01 -0.30140104431E+02  0.46142318340E+02  0.10000005279E+02 0.  0.
        -12    1    1    2    0    0  0.32578684020E+02 -0.77017458165E+01  0.30140104431E+02  0.45045681660E+02  0.00000000000E+00 0.  1.
         11    1    3    3    0    0 -0.33108276914E+01 -0.14020939739E+01 -0.46094587378E+01  0.58459009255E+01  0.51100000000E-03 0. -1.
        -11    1    3    3    0    0 -0.14769530822E+02  0.35755941592E+01 -0.16099064558E+02  0.22138287969E+02  0.51100000000E-03 0.  1.
         12    1    3    3    0    0 -0.14498325506E+02  0.55282456312E+01 -0.94315811355E+01  0.18158129445E+02  0.00000000000E+00 0. -1.
</event>
<event>
 7    1  0.3981356E-008  0.4614232E+02  0.7816164E-02  0.1320468E+00
        -11   -1    0    0    0    0  0.00000000000E+00  0.00000000000E+00  0.45593999997E+02  0.45594000000E+02  0.51100000000E-03 0.  1.
         11   -1    0    0    0    0 -0.00000000000E+00 -0.00000000000E+00 -0.45593999997E+02  0.45594000000E+02  0.51100000000E-03 0. -1.
    9900012    2    1    2    0    0  0.14634313438E+02  0.96499662644E+01 -0.41494921466E+02  0.46142317785E+02  0.10000000221E+02 0.  0.
        -12    1    1    2    0    0 -0.14634313438E+02 -0.96499662644E+01  0.41494921466E+02  0.45045682215E+02  0.00000000000E+00 0.  1.
         11    1    3    3    0    0  0.60309609754E+01  0.24654209829E+01 -0.19660686013E+02  0.20712155023E+02  0.51100000000E-03 0. -1.
        -11    1    3    3    0    0  0.65500123192E+01  0.37389693286E+01 -0.19208570303E+02  0.20636175188E+02  0.51100000000E-03 0.  1.
        -12    1    3    3    0    0  0.20533401429E+01  0.34455759529E+01 -0.26256651498E+01  0.47939875749E+01  0.00000000000E+00 0.  1.
</event>
<event>
 7    1  0.3981356E-008  0.4614232E+02  0.7816164E-02  0.1320468E+00
        -11   -1    0    0    0    0  0.00000000000E+00  0.00000000000E+00  0.45593999997E+02  0.45594000000E+02  0.51100000000E-03 0. -1.
         11   -1    0    0    0    0 -0.00000000000E+00 -0.00000000000E+00 -0.45593999997E+02  0.45594000000E+02  0.51100000000E-03 0.  1.
    9900012    2    1    2    0    0  0.56580411838E+01  0.44198064951E+02  0.66053821754E+01  0.46142318197E+02  0.10000003971E+02 0.  0.
        -12    1    1    2    0    0 -0.56580411838E+01 -0.44198064951E+02 -0.66053821754E+01  0.45045681803E+02  0.00000000000E+00 0.  1.
         11    1    3    3    0    0  0.13263589620E+01  0.30124268798E+02  0.55498173560E+01  0.30659929414E+02  0.51100000000E-03 0. -1.
        -11    1    3    3    0    0 -0.92473783777E+00  0.32813658398E+01 -0.18388941235E+00  0.34141349446E+01  0.51100000000E-03 0.  1.
        -12    1    3    3    0    0  0.52564200595E+01  0.10792430313E+02  0.12394542318E+01  0.12068253838E+02  0.00000000000E+00 0.  1.
</event>
<event>
 7    1  0.3981356E-008  0.4614232E+02  0.7816164E-02  0.1320468E+00
        -11   -1    0    0    0    0  0.00000000000E+00  0.00000000000E+00  0.45593999997E+02  0.45594000000E+02  0.51100000000E-03 0.  1.
         11   -1    0    0    0    0 -0.00000000000E+00 -0.00000000000E+00 -0.45593999997E+02  0.45594000000E+02  0.51100000000E-03 0. -1.
    9900012    2    1    2    0    0 -0.81716127944E+01  0.12151111064E+02 -0.42599162534E+02  0.46142318694E+02  0.10000008503E+02 0.  0.
        -12    1    1    2    0    0  0.81716127944E+01 -0.12151111064E+02  0.42599162534E+02  0.45045681306E+02  0.00000000000E+00 0.  1.
         11    1    3    3    0    0 -0.63393142703E+01  0.64622010678E+01 -0.28651438552E+02  0.30047493729E+02  0.51100000000E-03 0. -1.
        -11    1    3    3    0    0  0.18651970206E+01  0.26649803125E+01 -0.58289735090E+01  0.66751788307E+01  0.51100000000E-03 0.  1.
         12    1    3    3    0    0 -0.36974955447E+01  0.30239296837E+01 -0.81187504732E+01  0.94196461335E+01  0.00000000000E+00 0. -1.
</event>
<event>
 7    1  0.3981356E-008  0.4614232E+02  0.7816164E-02  0.1320468E+00
        -11   -1    0    0    0    0  0.00000000000E+00  0.00000000000E+00  0.45593999997E+02  0.45594000000E+02  0.51100000000E-03 0.  1.
         11   -1    0    0    0    0 -0.00000000000E+00 -0.00000000000E+00 -0.45593999997E+02  0.45594000000E+02  0.51100000000E-03 0. -1.
    9900012    2    1    2    0    0 -0.25183742609E+02  0.32376835826E+02 -0.18618086069E+02  0.46142317423E+02  0.99999969191E+01 0.  0.
        -12    1    1    2    0    0  0.25183742609E+02 -0.32376835826E+02  0.18618086069E+02  0.45045682577E+02  0.00000000000E+00 0.  1.
         11    1    3    3    0    0 -0.15640840297E+02  0.17737315439E+02 -0.10837045103E+02  0.26013261830E+02  0.51100000000E-03 0. -1.
        -11    1    3    3    0    0 -0.38929053226E+01  0.63739238249E+01 -0.67447255459E+01  0.10063445718E+02  0.51100000000E-03 0.  1.
        -12    1    3    3    0    0 -0.56499969887E+01  0.82655965621E+01 -0.10363154201E+01  0.10065609875E+02  0.00000000000E+00 0.  1.
</event>
<event>
 7    1  0.3981356E-008  0.4614232E+02  0.7816164E-02  0.1320468E+00
        -11   -1    0    0    0    0  0.00000000000E+00  0.00000000000E+00  0.45593999997E+02  0.45594000000E+02  0.51100000000E-03 0.  1.
         11   -1    0    0    0    0 -0.00000000000E+00 -0.00000000000E+00 -0.45593999997E+02  0.45594000000E+02  0.51100000000E-03 0. -1.
    9900012    2    1    2    0    0  0.15511770277E+02  0.51951264460E+01 -0.41970335279E+02  0.46142318749E+02  0.10000009006E+02 0.  0.
        -12    1    1    2    0    0 -0.15511770277E+02 -0.51951264460E+01  0.41970335279E+02  0.45045681251E+02  0.00000000000E+00 0.  1.
         11    1    3    3    0    0  0.48242579457E+01 -0.23226612733E+01 -0.96651885145E+01  0.11049166910E+02  0.51100000000E-03 0. -1.
        -11    1    3    3    0    0  0.61820889706E+01  0.60235422336E+01 -0.16951254908E+02  0.19022258759E+02  0.51100000000E-03 0.  1.
         12    1    3    3    0    0  0.45054233610E+01  0.14942454857E+01 -0.15353891857E+02  0.16070893080E+02  0.00000000000E+00 0. -1.
</event>
<event>
 7    1  0.3981356E-008  0.4614232E+02  0.7816164E-02  0.1320468E+00
        -11   -1    0    0    0    0  0.00000000000E+00  0.00000000000E+00  0.45593999997E+02  0.45594000000E+02  0.51100000000E-03 0.  1.
         11   -1    0    0    0    0 -0.00000000000E+00 -0.00000000000E+00 -0.45593999997E+02  0.45594000000E+02  0.51100000000E-03 0. -1.
    9900012    2    1    2    0    0  0.27695412983E+02 -0.30366885275E+02 -0.18437189266E+02  0.46142316859E+02  0.99999917713E+01 0.  0.
        -12    1    1    2    0    0 -0.27695412983E+02  0.30366885275E+02  0.18437189266E+02  0.45045683141E+02  0.00000000000E+00 0.  1.
         11    1    3    3    0    0  0.16511276046E+02 -0.22575094078E+02 -0.10546788615E+02  0.29891334190E+02  0.51100000000E-03 0. -1.
        -11    1    3    3    0    0  0.61624391890E+01 -0.53758158221E+01 -0.66540429754E+01  0.10542833618E+02  0.51100000000E-03 0.  1.
        -12    1    3    3    0    0  0.50216977484E+01 -0.24159753756E+01 -0.12363576751E+01  0.57081490514E+01  0.00000000000E+00 0.  1.
</event>
<event>
 7    1  0.3981356E-008  0.4614232E+02  0.7816164E-02  0.1320468E+00
        -11   -1    0    0    0    0  0.00000000000E+00  0.00000000000E+00  0.45593999997E+02  0.45594000000E+02  0.51100000000E-03 0.  1.
         11   -1    0    0    0    0 -0.00000000000E+00 -0.00000000000E+00 -0.45593999997E+02  0.45594000000E+02  0.51100000000E-03 0. -1.
    9900012    2    1    2    0    0  0.76916037645E+00  0.44998230588E+02  0.19186317807E+01  0.46142317502E+02  0.99999976418E+01 0.  0.
        -12    1    1    2    0    0 -0.76916037645E+00 -0.44998230588E+02 -0.19186317807E+01  0.45045682498E+02  0.00000000000E+00 0.  1.
         11    1    3    3    0    0  0.98349140831E+00  0.27359715727E+02 -0.60528060629E+00  0.27384076850E+02  0.51100000000E-03 0. -1.
        -11    1    3    3    0    0  0.14691983915E+01  0.16418849417E+02  0.25417422766E+01  0.16679257002E+02  0.51100000000E-03 0.  1.
         12    1    3    3    0    0 -0.16835294234E+01  0.12196654442E+01 -0.17829889546E-01  0.20789836508E+01  0.00000000000E+00 0. -1.
</event>
<event>
 7    1  0.3981356E-008  0.4614232E+02  0.7816164E-02  0.1320468E+00
        -11   -1    0    0    0    0  0.00000000000E+00  0.00000000000E+00  0.45593999997E+02  0.45594000000E+02  0.51100000000E-03 0. -1.
         11   -1    0    0    0    0 -0.00000000000E+00 -0.00000000000E+00 -0.45593999997E+02  0.45594000000E+02  0.51100000000E-03 0.  1.
    9900012    2    1    2    0    0  0.42036963490E+02  0.33475189275E+01  0.15836704445E+02  0.46142318852E+02  0.10000009948E+02 0.  0.
        -12    1    1    2    0    0 -0.42036963490E+02 -0.33475189275E+01 -0.15836704445E+02  0.45045681148E+02  0.00000000000E+00 0.  1.
         11    1    3    3    0    0  0.10234277216E+02 -0.13316217195E+01  0.19120988156E+01  0.10496178766E+02  0.51100000000E-03 0. -1.
        -11    1    3    3    0    0  0.15993174857E+01 -0.84610477330E+00  0.20269677369E+01  0.27170403337E+01  0.51100000000E-03 0.  1.
        -12    1    3    3    0    0  0.30203368788E+02  0.55252454203E+01  0.11897637892E+02  0.32929099752E+02  0.00000000000E+00 0.  1.
</event>
<event>
 7    1  0.3981356E-008  0.4614232E+02  0.7816164E-02  0.1320468E+00
        -11   -1    0    0    0    0  0.00000000000E+00  0.00000000000E+00  0.45593999997E+02  0.45594000000E+02  0.51100000000E-03 0. -1.
         11   -1    0    0    0    0 -0.00000000000E+00 -0.00000000000E+00 -0.45593999997E+02  0.45594000000E+02  0.51100000000E-03 0.  1.
    9900012    2    1    2    0    0  0.82955227099E+01  0.44270960651E+02  0.61632280654E+00  0.46142317545E+02  0.99999980331E+01 0.  0.
        -12    1    1    2    0    0 -0.82955227099E+01 -0.44270960651E+02 -0.61632280654E+00  0.45045682455E+02  0.00000000000E+00 0.  1.
         11    1    3    3    0    0  0.95626346777E+00  0.23371464184E+02 -0.28843463531E+01  0.23568182621E+02  0.51100000000E-03 0. -1.
        -11    1    3    3    0    0  0.26726267640E+01  0.61814926856E+01  0.21758205977E+01  0.70772862862E+01  0.51100000000E-03 0.  1.
         12    1    3    3    0    0  0.46666324781E+01  0.14718003782E+02  0.13248485619E+01  0.15496848638E+02  0.00000000000E+00 0. -1.
</event>
<event>
 7    1  0.3981356E-008  0.4614232E+02  0.7816164E-02  0.1320468E+00
        -11   -1    0    0    0    0  0.00000000000E+00  0.00000000000E+00  0.45593999997E+02  0.45594000000E+02  0.51100000000E-03 0. -1.
         11   -1    0    0    0    0 -0.00000000000E+00 -0.00000000000E+00 -0.45593999997E+02  0.45594000000E+02  0.51100000000E-03 0.  1.
    9900012    2    1    2    0    0  0.13460456003E+02  0.38690211712E+02  0.18734918701E+02  0.46142317223E+02  0.99999950907E+01 0.  0.
        -12    1    1    2    0    0 -0.13460456003E+02 -0.38690211712E+02 -0.18734918701E+02  0.45045682777E+02  0.00000000000E+00 0.  1.
         11    1    3    3    0    0  0.13994237609E+02  0.35599628220E+02  0.14614051078E+02  0.40948048853E+02  0.51100000000E-03 0.  1.
        -11    1    3    3    0    0 -0.19111801573E-01  0.82669761971E+00  0.87914030979E+00  0.12069308849E+01  0.51100000000E-03 0. -1.
        -12    1    3    3    0    0 -0.51466980443E+00  0.22638858722E+01  0.32417273124E+01  0.39873374848E+01  0.00000000000E+00 0.  1.
</event>
<event>
 7    1  0.3981356E-008  0.4614232E+02  0.7816164E-02  0.1320468E+00
        -11   -1    0    0    0    0  0.00000000000E+00  0.00000000000E+00  0.45593999997E+02  0.45594000000E+02  0.51100000000E-03 0.  1.
         11   -1    0    0    0    0 -0.00000000000E+00 -0.00000000000E+00 -0.45593999997E+02  0.45594000000E+02  0.51100000000E-03 0. -1.
    9900012    2    1    2    0    0 -0.26915679547E+02  0.34719080743E+02  0.99621856394E+01  0.46142317456E+02  0.99999972152E+01 0.  0.
        -12    1    1    2    0    0  0.26915679547E+02 -0.34719080743E+02 -0.99621856394E+01  0.45045682544E+02  0.00000000000E+00 0.  1.
         11    1    3    3    0    0 -0.12138898979E+02  0.15365825845E+02  0.19125981058E+01  0.19675352705E+02  0.51100000000E-03 0. -1.
        -11    1    3    3    0    0 -0.78388858066E+01  0.60721531544E+01  0.11878233018E+01  0.99864958357E+01  0.51100000000E-03 0.  1.
         12    1    3    3    0    0 -0.69378947621E+01  0.13281101744E+02  0.68617642318E+01  0.16480468915E+02  0.00000000000E+00 0. -1.
</event>
<event>
 7    1  0.3981356E-008  0.4614232E+02  0.7816164E-02  0.1320468E+00
        -11   -1    0    0    0    0  0.00000000000E+00  0.00000000000E+00  0.45593999997E+02  0.45594000000E+02  0.51100000000E-03 0.  1.
         11   -1    0    0    0    0 -0.00000000000E+00 -0.00000000000E+00 -0.45593999997E+02  0.45594000000E+02  0.51100000000E-03 0. -1.
    9900012    2    1    2    0    0  0.33008515862E+02  0.71063933770E+01 -0.29816951161E+02  0.46142317379E+02  0.99999965146E+01 0.  0.
        -12    1    1    2    0    0 -0.33008515862E+02 -0.71063933770E+01  0.29816951161E+02  0.45045682621E+02  0.00000000000E+00 0.  1.
         11    1    3    3    0    0  0.11538257532E+02  0.68423437356E+01 -0.10220551673E+02  0.16864422060E+02  0.51100000000E-03 0. -1.
        -11    1    3    3    0    0  0.55450197817E+01 -0.14445955136E+01 -0.48662997550E+01  0.75176441884E+01  0.51100000000E-03 0.  1.
         12    1    3    3    0    0  0.15925238548E+02  0.17086451551E+01 -0.14730099733E+02  0.21760251130E+02  0.00000000000E+00 0. -1.
</event>
<event>
 7    1  0.3981356E-008  0.4614232E+02  0.7816164E-02  0.1320468E+00
        -11   -1    0    0    0    0  0.00000000000E+00  0.00000000000E+00  0.45593999997E+02  0.45594000000E+02  0.51100000000E-03 0.  1.
         11   -1    0    0    0    0 -0.00000000000E+00 -0.00000000000E+00 -0.45593999997E+02  0.45594000000E+02  0.51100000000E-03 0. -1.
    9900012    2    1    2    0    0 -0.57264347745E+01 -0.44213515904E+02  0.64409997806E+01  0.46142317388E+02  0.99999965986E+01 0.  0.
        -12    1    1    2    0    0  0.57264347745E+01  0.44213515904E+02 -0.64409997806E+01  0.45045682612E+02  0.00000000000E+00 0.  1.
         11    1    3    3    0    0 -0.29717306525E+01 -0.97835218047E+01  0.37965470121E+01  0.10906981775E+02  0.51100000000E-03 0. -1.
        -11    1    3    3    0    0 -0.17637435235E+01 -0.29610415127E+02  0.44485531489E+01  0.29994617860E+02  0.51100000000E-03 0.  1.
        -12    1    3    3    0    0 -0.99096059846E+00 -0.48195789720E+01 -0.18041003805E+01  0.52407177521E+01  0.00000000000E+00 0.  1.
</event>
<event>
 7    1  0.3981356E-008  0.4614232E+02  0.7816164E-02  0.1320468E+00
        -11   -1    0    0    0    0  0.00000000000E+00  0.00000000000E+00  0.45593999997E+02  0.45594000000E+02  0.51100000000E-03 0. -1.
         11   -1    0    0    0    0 -0.00000000000E+00 -0.00000000000E+00 -0.45593999997E+02  0.45594000000E+02  0.51100000000E-03 0.  1.
    9900012    2    1    2    0    0  0.81692784094E+01  0.31398742028E+02  0.31248924121E+02  0.46142319081E+02  0.10000012040E+02 0.  0.
        -12    1    1    2    0    0 -0.81692784094E+01 -0.31398742028E+02 -0.31248924121E+02  0.45045680919E+02  0.00000000000E+00 0.  1.
         11    1    3    3    0    0  0.82630846611E+01  0.20114700148E+02  0.21301989602E+02  0.30441000171E+02  0.51100000000E-03 0.  1.
        -11    1    3    3    0    0  0.17750446604E+01  0.45589333178E+01  0.57786112479E+01  0.75714598829E+01  0.51100000000E-03 0. -1.
        -12    1    3    3    0    0 -0.18688509121E+01  0.67251085631E+01  0.41683232712E+01  0.81298590277E+01  0.00000000000E+00 0.  1.
</event>
<event>
 7    1  0.3981356E-008  0.4614232E+02  0.7816164E-02  0.1320468E+00
        -11   -1    0    0    0    0  0.00000000000E+00  0.00000000000E+00  0.45593999997E+02  0.45594000000E+02  0.51100000000E-03 0.  1.
         11   -1    0    0    0    0 -0.00000000000E+00 -0.00000000000E+00 -0.45593999997E+02  0.45594000000E+02  0.51100000000E-03 0. -1.
    9900012    2    1    2    0    0 -0.72247237717E+01  0.12125749456E+02 -0.42777132097E+02  0.46142318033E+02  0.10000002475E+02 0.  0.
        -12    1    1    2    0    0  0.72247237717E+01 -0.12125749456E+02  0.42777132097E+02  0.45045681967E+02  0.00000000000E+00 0.  1.
         11    1    3    3    0    0 -0.39915542168E+01  0.24062156184E+01 -0.20427366853E+02  0.20952319573E+02  0.51100000000E-03 0.  1.
        -11    1    3    3    0    0 -0.44876300415E+01  0.51440848590E+01 -0.14308199272E+02  0.15853233080E+02  0.51100000000E-03 0. -1.
        -12    1    3    3    0    0  0.12544604866E+01  0.45754489788E+01 -0.80415659723E+01  0.93367653798E+01  0.00000000000E+00 0.  1.
</event>
<event>
 7    1  0.3981356E-008  0.4614232E+02  0.7816164E-02  0.1320468E+00
        -11   -1    0    0    0    0  0.00000000000E+00  0.00000000000E+00  0.45593999997E+02  0.45594000000E+02  0.51100000000E-03 0. -1.
         11   -1    0    0    0    0 -0.00000000000E+00 -0.00000000000E+00 -0.45593999997E+02  0.45594000000E+02  0.51100000000E-03 0.  1.
    9900012    2    1    2    0    0 -0.37306047052E+02 -0.25213981924E+02 -0.12757141314E+01  0.46142317880E+02  0.10000001083E+02 0.  0.
        -12    1    1    2    0    0  0.37306047052E+02  0.25213981924E+02  0.12757141314E+01  0.45045682120E+02  0.00000000000E+00 0.  1.
         11    1    3    3    0    0 -0.62129792312E+01 -0.66247629123E+01  0.11025515365E+01  0.91490007500E+01  0.51100000000E-03 0. -1.
        -11    1    3    3    0    0 -0.17039252005E+01  0.53621663104E+00  0.36020161416E+00  0.18222609111E+01  0.51100000000E-03 0.  1.
        -12    1    3    3    0    0 -0.29389142621E+02 -0.19125435642E+02 -0.27384672821E+01  0.35171056219E+02  0.00000000000E+00 0.  1.
</event>
<event>
 7    1  0.3981356E-008  0.4614232E+02  0.7816164E-02  0.1320468E+00
        -11   -1    0    0    0    0  0.00000000000E+00  0.00000000000E+00  0.45593999997E+02  0.45594000000E+02  0.51100000000E-03 0. -1.
         11   -1    0    0    0    0 -0.00000000000E+00 -0.00000000000E+00 -0.45593999997E+02  0.45594000000E+02  0.51100000000E-03 0.  1.
    9900012    2    1    2    0    0 -0.29170724048E+02  0.28612324656E+02  0.18960943374E+02  0.46142316107E+02  0.99999849171E+01 0.  0.
        -12    1    1    2    0    0  0.29170724048E+02 -0.28612324656E+02 -0.18960943374E+02  0.45045683893E+02  0.00000000000E+00 0.  1.
         11    1    3    3    0    0 -0.29095920771E+02  0.26461187103E+02  0.16318512727E+02  0.42580052681E+02  0.51100000000E-03 0. -1.
        -11    1    3    3    0    0  0.13899704110E+00  0.18113384231E+00  0.88390336636E+00  0.91291569624E+00  0.51100000000E-03 0.  1.
         12    1    3    3    0    0 -0.21380031814E+00  0.19700037107E+01  0.17585272802E+01  0.26493477294E+01  0.00000000000E+00 0. -1.
</event>
<event>
 7    1  0.3981356E-008  0.4614231E+02  0.7816164E-02  0.1320468E+00
        -11   -1    0    0    0    0  0.00000000000E+00  0.00000000000E+00  0.45593999997E+02  0.45594000000E+02  0.51100000000E-03 0.  1.
         11   -1    0    0    0    0 -0.00000000000E+00 -0.00000000000E+00 -0.45593999997E+02  0.45594000000E+02  0.51100000000E-03 0. -1.
    9900012    2    1    2    0    0  0.12337222879E+01  0.32208780384E+01 -0.44913447123E+02  0.46142313653E+02  0.99999625379E+01 0.  0.
        -12    1    1    2    0    0 -0.12337222879E+01 -0.32208780384E+01  0.44913447123E+02  0.45045686347E+02  0.00000000000E+00 0.  1.
         11    1    3    3    0    0  0.71012131501E+00 -0.28185419107E+01 -0.10919052956E+02  0.11299299470E+02  0.51100000000E-03 0. -1.
        -11    1    3    3    0    0  0.89545556161E+00 -0.32529198848E+00 -0.19470442084E+01  0.21676339523E+01  0.51100000000E-03 0.  1.
        -12    1    3    3    0    0 -0.37185458875E+00  0.63647119376E+01 -0.32047349958E+02  0.32675380231E+02  0.00000000000E+00 0.  1.
</event>
<event>
 7    1  0.3981356E-008  0.4614232E+02  0.7816164E-02  0.1320468E+00
        -11   -1    0    0    0    0  0.00000000000E+00  0.00000000000E+00  0.45593999997E+02  0.45594000000E+02  0.51100000000E-03 0.  1.
         11   -1    0    0    0    0 -0.00000000000E+00 -0.00000000000E+00 -0.45593999997E+02  0.45594000000E+02  0.51100000000E-03 0. -1.
    9900012    2    1    2    0    0 -0.36743679755E+02 -0.22341076535E+02 -0.13412376083E+02  0.46142317244E+02  0.99999952888E+01 0.  0.
        -12    1    1    2    0    0  0.36743679755E+02  0.22341076535E+02  0.13412376083E+02  0.45045682756E+02  0.00000000000E+00 0.  1.
         11    1    3    3    0    0 -0.20599920351E+01 -0.16540405559E+01 -0.16418631804E+00  0.26469557521E+01  0.51100000000E-03 0. -1.
        -11    1    3    3    0    0 -0.10595754749E+02 -0.11515115359E+02 -0.53437557709E+01  0.16535526191E+02  0.51100000000E-03 0.  1.
        -12    1    3    3    0    0 -0.24087932971E+02 -0.91719206209E+01 -0.79044339943E+01  0.26959835301E+02  0.00000000000E+00 0.  1.
</event>
<event>
 7    1  0.3981356E-008  0.4614232E+02  0.7816164E-02  0.1320468E+00
        -11   -1    0    0    0    0  0.00000000000E+00  0.00000000000E+00  0.45593999997E+02  0.45594000000E+02  0.51100000000E-03 0. -1.
         11   -1    0    0    0    0 -0.00000000000E+00 -0.00000000000E+00 -0.45593999997E+02  0.45594000000E+02  0.51100000000E-03 0.  1.
    9900012    2    1    2    0    0  0.25064043027E+01 -0.43596309098E+02  0.11054114089E+02  0.46142315770E+02  0.99999818395E+01 0.  0.
        -12    1    1    2    0    0 -0.25064043027E+01  0.43596309098E+02 -0.11054114089E+02  0.45045684230E+02  0.00000000000E+00 0.  1.
         11    1    3    3    0    0 -0.11417660050E+01 -0.15272061519E+02  0.11571395266E+01  0.15358335352E+02  0.51100000000E-03 0. -1.
        -11    1    3    3    0    0  0.48775356914E+01 -0.25543277733E+02  0.96342186514E+01  0.27732067378E+02  0.51100000000E-03 0.  1.
        -12    1    3    3    0    0 -0.12293653836E+01 -0.27809698458E+01  0.26275591072E+00  0.30519130391E+01  0.00000000000E+00 0.  1.
</event>
<event>
 7    1  0.3981356E-008  0.4614232E+02  0.7816164E-02  0.1320468E+00
        -11   -1    0    0    0    0  0.00000000000E+00  0.00000000000E+00  0.45593999997E+02  0.45594000000E+02  0.51100000000E-03 0. -1.
         11   -1    0    0    0    0 -0.00000000000E+00 -0.00000000000E+00 -0.45593999997E+02  0.45594000000E+02  0.51100000000E-03 0.  1.
    9900012    2    1    2    0    0  0.43125078997E+02  0.63638296020E+01  0.11350884827E+02  0.46142319275E+02  0.10000013801E+02 0.  0.
        -12    1    1    2    0    0 -0.43125078997E+02 -0.63638296020E+01 -0.11350884827E+02  0.45045680725E+02  0.00000000000E+00 0.  1.
         11    1    3    3    0    0  0.17376285588E+00 -0.54544254707E+00  0.41444531524E+00  0.70672928529E+00  0.51100000000E-03 0. -1.
        -11    1    3    3    0    0  0.70079283916E+01  0.38940219116E+01  0.24158573114E+01  0.83732212319E+01  0.51100000000E-03 0.  1.
         12    1    3    3    0    0  0.35943387749E+02  0.30152502375E+01  0.85205821999E+01  0.37062368757E+02  0.00000000000E+00 0. -1.
</event>
<event>
 7    1  0.3981356E-008  0.4614232E+02  0.7816164E-02  0.1320468E+00
        -11   -1    0    0    0    0  0.00000000000E+00  0.00000000000E+00  0.45593999997E+02  0.45594000000E+02  0.51100000000E-03 0.  1.
         11   -1    0    0    0    0 -0.00000000000E+00 -0.00000000000E+00 -0.45593999997E+02  0.45594000000E+02  0.51100000000E-03 0. -1.
    9900012    2    1    2    0    0  0.91644035275E+01 -0.22014732219E+02 -0.38216210720E+02  0.46142317760E+02  0.99999999884E+01 0.  0.
        -12    1    1    2    0    0 -0.91644035275E+01  0.22014732219E+02  0.38216210720E+02  0.45045682240E+02  0.00000000000E+00 0.  1.
         11    1    3    3    0    0  0.29994088782E+01 -0.17009036766E+02 -0.27813807641E+02  0.32740062326E+02  0.51100000000E-03 0. -1.
        -11    1    3    3    0    0  0.42887379713E+01 -0.35183953623E+01 -0.91500179655E+01  0.10700243378E+02  0.51100000000E-03 0.  1.
        -12    1    3    3    0    0  0.18762566780E+01 -0.14873000903E+01 -0.12523851132E+01  0.27020120562E+01  0.00000000000E+00 0.  1.
</event>
<event>
 7    1  0.3981356E-008  0.4614232E+02  0.7816164E-02  0.1320468E+00
        -11   -1    0    0    0    0  0.00000000000E+00  0.00000000000E+00  0.45593999997E+02  0.45594000000E+02  0.51100000000E-03 0. -1.
         11   -1    0    0    0    0 -0.00000000000E+00 -0.00000000000E+00 -0.45593999997E+02  0.45594000000E+02  0.51100000000E-03 0.  1.
    9900012    2    1    2    0    0 -0.24270757737E+02 -0.27068537597E+01  0.37851246102E+02  0.46142316856E+02  0.99999917478E+01 0.  0.
        -12    1    1    2    0    0  0.24270757737E+02  0.27068537597E+01 -0.37851246102E+02  0.45045683144E+02  0.00000000000E+00 0.  1.
         11    1    3    3    0    0 -0.11267682527E+02  0.22387324629E+01  0.14867689489E+02  0.18788847319E+02  0.51100000000E-03 0.  1.
        -11    1    3    3    0    0 -0.54650584593E+01  0.20778938339E+00  0.11028985541E+02  0.12310506193E+02  0.51100000000E-03 0. -1.
         12    1    3    3    0    0 -0.75380167509E+01 -0.51533756060E+01  0.11954571072E+02  0.15042963345E+02  0.00000000000E+00 0. -1.
</event>
<event>
 7    1  0.3981356E-008  0.4614232E+02  0.7816164E-02  0.1320468E+00
        -11   -1    0    0    0    0  0.00000000000E+00  0.00000000000E+00  0.45593999997E+02  0.45594000000E+02  0.51100000000E-03 0. -1.
         11   -1    0    0    0    0 -0.00000000000E+00 -0.00000000000E+00 -0.45593999997E+02  0.45594000000E+02  0.51100000000E-03 0.  1.
    9900012    2    1    2    0    0  0.38342467608E+02 -0.22520691836E+02  0.71963274034E+01  0.46142317508E+02  0.99999976937E+01 0.  0.
        -12    1    1    2    0    0 -0.38342467608E+02  0.22520691836E+02 -0.71963274034E+01  0.45045682492E+02  0.00000000000E+00 0.  1.
         11    1    3    3    0    0  0.28855577019E+02 -0.17281770297E+02  0.56972755428E+01  0.34113968672E+02  0.51100000000E-03 0. -1.
        -11    1    3    3    0    0  0.42132091413E+01 -0.49352446599E+01 -0.16155696165E+00  0.64910609329E+01  0.51100000000E-03 0.  1.
        -12    1    3    3    0    0  0.52736814479E+01 -0.30367687901E+00  0.16606088223E+01  0.55372879030E+01  0.00000000000E+00 0.  1.
</event>
<event>
 7    1  0.3981356E-008  0.4614232E+02  0.7816164E-02  0.1320468E+00
        -11   -1    0    0    0    0  0.00000000000E+00  0.00000000000E+00  0.45593999997E+02  0.45594000000E+02  0.51100000000E-03 0.  1.
         11   -1    0    0    0    0 -0.00000000000E+00 -0.00000000000E+00 -0.45593999997E+02  0.45594000000E+02  0.51100000000E-03 0. -1.
    9900012    2    1    2    0    0 -0.11692927356E+02 -0.13852239366E+02 -0.41237172684E+02  0.46142317670E+02  0.99999991702E+01 0.  0.
        -12    1    1    2    0    0  0.11692927356E+02  0.13852239366E+02  0.41237172684E+02  0.45045682330E+02  0.00000000000E+00 0.  1.
         11    1    3    3    0    0 -0.41622569220E+01 -0.20716555140E+01 -0.55838981554E+01  0.72660896034E+01  0.51100000000E-03 0. -1.
        -11    1    3    3    0    0 -0.73330815524E+01 -0.12124382522E+02 -0.29670086561E+02  0.32879914438E+02  0.51100000000E-03 0.  1.
        -12    1    3    3    0    0 -0.19758888194E+00  0.34379867000E+00 -0.59831879668E+01  0.59963136291E+01  0.00000000000E+00 0.  1.
</event>
<event>
 7    1  0.3981356E-008  0.4614232E+02  0.7816164E-02  0.1320468E+00
        -11   -1    0    0    0    0  0.00000000000E+00  0.00000000000E+00  0.45593999997E+02  0.45594000000E+02  0.51100000000E-03 0.  1.
         11   -1    0    0    0    0 -0.00000000000E+00 -0.00000000000E+00 -0.45593999997E+02  0.45594000000E+02  0.51100000000E-03 0. -1.
    9900012    2    1    2    0    0 -0.42398047401E+02 -0.13073004097E+02 -0.77855969183E+01  0.46142318976E+02  0.10000011078E+02 0.  0.
        -12    1    1    2    0    0  0.42398047401E+02  0.13073004097E+02  0.77855969183E+01  0.45045681024E+02  0.00000000000E+00 0.  1.
         11    1    3    3    0    0 -0.15873181759E+02 -0.54483518457E+01 -0.21312265850E+01  0.16916990394E+02  0.51100000000E-03 0. -1.
        -11    1    3    3    0    0 -0.19623633320E+02 -0.43046987672E+01 -0.69649517426E+00  0.20102301409E+02  0.51100000000E-03 0.  1.
         12    1    3    3    0    0 -0.69012323230E+01 -0.33199534838E+01 -0.49578751591E+01  0.91230271732E+01  0.00000000000E+00 0. -1.
</event>
<event>
 7    1  0.3981356E-008  0.4614232E+02  0.7816164E-02  0.1320468E+00
        -11   -1    0    0    0    0  0.00000000000E+00  0.00000000000E+00  0.45593999997E+02  0.45594000000E+02  0.51100000000E-03 0. -1.
         11   -1    0    0    0    0 -0.00000000000E+00 -0.00000000000E+00 -0.45593999997E+02  0.45594000000E+02  0.51100000000E-03 0.  1.
    9900012    2    1    2    0    0 -0.91464968228E+01 -0.43349488413E+02  0.81410655432E+01  0.46142317654E+02  0.99999990245E+01 0.  0.
        -12    1    1    2    0    0  0.91464968228E+01  0.43349488413E+02 -0.81410655432E+01  0.45045682346E+02  0.00000000000E+00 0.  1.
         11    1    3    3    0    0 -0.29911024385E+01 -0.15478280882E+02  0.26071004604E+01  0.15978762340E+02  0.51100000000E-03 0. -1.
        -11    1    3    3    0    0 -0.52460872525E+01 -0.26686703007E+02  0.31893926135E+01  0.27383823224E+02  0.51100000000E-03 0.  1.
        -12    1    3    3    0    0 -0.90930713187E+00 -0.11845045244E+01  0.23445724694E+01  0.27797320900E+01  0.00000000000E+00 0.  1.
</event>
<event>
 7    1  0.3981356E-008  0.4614231E+02  0.7816164E-02  0.1320468E+00
        -11   -1    0    0    0    0  0.00000000000E+00  0.00000000000E+00  0.45593999997E+02  0.45594000000E+02  0.51100000000E-03 0.  1.
         11   -1    0    0    0    0 -0.00000000000E+00 -0.00000000000E+00 -0.45593999997E+02  0.45594000000E+02  0.51100000000E-03 0. -1.
    9900012    2    1    2    0    0 -0.17262363186E+02 -0.14177993589E+02 -0.39116611284E+02  0.46142312489E+02  0.99999519254E+01 0.  0.
        -12    1    1    2    0    0  0.17262363186E+02  0.14177993589E+02  0.39116611284E+02  0.45045687511E+02  0.00000000000E+00 0.  1.
         11    1    3    3    0    0 -0.10076410129E+02 -0.83590712324E+01 -0.29229877082E+02  0.32028016290E+02  0.51100000000E-03 0. -1.
        -11    1    3    3    0    0 -0.68896172846E+00  0.21543783549E+00  0.13350528529E+00  0.73410193200E+00  0.51100000000E-03 0.  1.
         12    1    3    3    0    0 -0.64969913285E+01 -0.60343601918E+01 -0.10020239487E+02  0.13380194267E+02  0.00000000000E+00 0. -1.
</event>
<event>
 7    1  0.3981356E-008  0.4614232E+02  0.7816164E-02  0.1320468E+00
        -11   -1    0    0    0    0  0.00000000000E+00  0.00000000000E+00  0.45593999997E+02  0.45594000000E+02  0.51100000000E-03 0. -1.
         11   -1    0    0    0    0 -0.00000000000E+00 -0.00000000000E+00 -0.45593999997E+02  0.45594000000E+02  0.51100000000E-03 0.  1.
    9900012    2    1    2    0    0 -0.18035116865E+02 -0.46048574195E+01  0.41020035936E+02  0.46142317628E+02  0.99999987845E+01 0.  0.
        -12    1    1    2    0    0  0.18035116865E+02  0.46048574195E+01 -0.41020035936E+02  0.45045682372E+02  0.00000000000E+00 0.  1.
         11    1    3    3    0    0 -0.88691317099E+01 -0.19204475648E+01  0.21500447040E+02  0.23337070067E+02  0.51100000000E-03 0. -1.
        -11    1    3    3    0    0 -0.11318893529E+01 -0.33219179423E+01  0.40260515023E+01  0.53409178315E+01  0.51100000000E-03 0.  1.
         12    1    3    3    0    0 -0.80340958026E+01  0.63750808762E+00  0.15493537394E+02  0.17464329729E+02  0.00000000000E+00 0. -1.
</event>
<event>
 7    1  0.4481092E-008  0.4614232E+02  0.7816164E-02  0.1320468E+00
        -11   -1    0    0    0    0  0.00000000000E+00  0.00000000000E+00  0.45593999997E+02  0.45594000000E+02  0.51100000000E-03 0. -1.
         11   -1    0    0    0    0 -0.00000000000E+00 -0.00000000000E+00 -0.45593999997E+02  0.45594000000E+02  0.51100000000E-03 0.  1.
    9900012    2    1    2    0    0  0.11461370050E+02 -0.88008921632E+01  0.42664910553E+02  0.46142319865E+02  0.10000019187E+02 0.  0.
        -12    1    1    2    0    0 -0.11461370050E+02  0.88008921632E+01 -0.42664910553E+02  0.45045680135E+02  0.00000000000E+00 0.  1.
         11    1    3    3    0    0  0.38326202172E+01 -0.38349681206E+01  0.18366915101E+02  0.19150444611E+02  0.51100000000E-03 0. -1.
        -11    1    3    3    0    0  0.86842069997E+01 -0.41379330380E+01  0.23587910248E+02  0.25474054470E+02  0.51100000000E-03 0.  1.
        -12    1    3    3    0    0 -0.10554571666E+01 -0.82799100461E+00  0.71008520454E+00  0.15178207839E+01  0.00000000000E+00 0.  1.
</event>
<event>
 7    1  0.3981356E-008  0.4614232E+02  0.7816164E-02  0.1320468E+00
        -11   -1    0    0    0    0  0.00000000000E+00  0.00000000000E+00  0.45593999997E+02  0.45594000000E+02  0.51100000000E-03 0. -1.
         11   -1    0    0    0    0 -0.00000000000E+00 -0.00000000000E+00 -0.45593999997E+02  0.45594000000E+02  0.51100000000E-03 0.  1.
    9900012    2    1    2    0    0 -0.84566226690E+01 -0.83067067945E+01  0.43457998686E+02  0.46142317693E+02  0.99999993793E+01 0.  0.
        -12    1    1    2    0    0  0.84566226690E+01  0.83067067945E+01 -0.43457998686E+02  0.45045682307E+02  0.00000000000E+00 0.  1.
         11    1    3    3    0    0 -0.99453827803E+00 -0.38660749765E+01  0.20671491515E+02  0.21053413116E+02  0.51100000000E-03 0. -1.
        -11    1    3    3    0    0 -0.68739366446E+01 -0.55512719619E+01  0.21691703210E+02  0.23422160742E+02  0.51100000000E-03 0.  1.
        -12    1    3    3    0    0 -0.58814774635E+00  0.11106401439E+01  0.10948039598E+01  0.16667438349E+01  0.00000000000E+00 0.  1.
</event>
<event>
 7    1  0.3981356E-008  0.4614232E+02  0.7816164E-02  0.1320468E+00
        -11   -1    0    0    0    0  0.00000000000E+00  0.00000000000E+00  0.45593999997E+02  0.45594000000E+02  0.51100000000E-03 0.  1.
         11   -1    0    0    0    0 -0.00000000000E+00 -0.00000000000E+00 -0.45593999997E+02  0.45594000000E+02  0.51100000000E-03 0. -1.
    9900012    2    1    2    0    0  0.29886640571E+02  0.11898492625E+02 -0.31532967913E+02  0.46142317890E+02  0.10000001173E+02 0.  0.
        -12    1    1    2    0    0 -0.29886640571E+02 -0.11898492625E+02  0.31532967913E+02  0.45045682110E+02  0.00000000000E+00 0.  1.
         11    1    3    3    0    0  0.14659925499E+02  0.78546265888E+01 -0.12733345945E+02  0.20946280665E+02  0.51100000000E-03 0. -1.
        -11    1    3    3    0    0  0.15221462940E+02  0.46028019690E+01 -0.18817358008E+02  0.24636795301E+02  0.51100000000E-03 0.  1.
        -12    1    3    3    0    0  0.52521312707E-02 -0.55893593296E+00  0.17736040235E-01  0.55924192364E+00  0.00000000000E+00 0.  1.
</event>
<event>
 7    1  0.3981356E-008  0.4614232E+02  0.7816164E-02  0.1320468E+00
        -11   -1    0    0    0    0  0.00000000000E+00  0.00000000000E+00  0.45593999997E+02  0.45594000000E+02  0.51100000000E-03 0. -1.
         11   -1    0    0    0    0 -0.00000000000E+00 -0.00000000000E+00 -0.45593999997E+02  0.45594000000E+02  0.51100000000E-03 0.  1.
    9900012    2    1    2    0    0  0.39392499181E+02 -0.50143943784E+01  0.21265000327E+02  0.46142318946E+02  0.10000010805E+02 0.  0.
        -12    1    1    2    0    0 -0.39392499181E+02  0.50143943784E+01 -0.21265000327E+02  0.45045681054E+02  0.00000000000E+00 0.  1.
         11    1    3    3    0    0  0.61526484292E+01  0.20154642652E+01  0.48394766758E+01  0.80831747262E+01  0.51100000000E-03 0. -1.
        -11    1    3    3    0    0  0.31975934988E+02 -0.61126590769E+01  0.16496229346E+02  0.36495898430E+02  0.51100000000E-03 0.  1.
        -12    1    3    3    0    0  0.12639157640E+01 -0.91719956676E+00 -0.70705694686E-01  0.15632457897E+01  0.00000000000E+00 0.  1.
</event>
<event>
 7    1  0.3981356E-008  0.4614232E+02  0.7816164E-02  0.1320468E+00
        -11   -1    0    0    0    0  0.00000000000E+00  0.00000000000E+00  0.45593999997E+02  0.45594000000E+02  0.51100000000E-03 0.  1.
         11   -1    0    0    0    0 -0.00000000000E+00 -0.00000000000E+00 -0.45593999997E+02  0.45594000000E+02  0.51100000000E-03 0. -1.
    9900012    2    1    2    0    0  0.15657992352E+02  0.37209303324E+02 -0.19985207428E+02  0.46142317695E+02  0.99999994002E+01 0.  0.
        -12    1    1    2    0    0 -0.15657992352E+02 -0.37209303324E+02  0.19985207428E+02  0.45045682305E+02  0.00000000000E+00 0.  1.
         11    1    3    3    0    0  0.48483229555E+01  0.16658849905E+02 -0.44662718518E+01  0.17915666333E+02  0.51100000000E-03 0. -1.
        -11    1    3    3    0    0  0.63674529359E+00  0.44772954389E+01 -0.35862363931E+01  0.57717164470E+01  0.51100000000E-03 0.  1.
         12    1    3    3    0    0  0.10172924103E+02  0.16073157980E+02 -0.11932699183E+02  0.22454934915E+02  0.00000000000E+00 0. -1.
</event>
<event>
 7    1  0.3981356E-008  0.4614232E+02  0.7816164E-02  0.1320468E+00
        -11   -1    0    0    0    0  0.00000000000E+00  0.00000000000E+00  0.45593999997E+02  0.45594000000E+02  0.51100000000E-03 0.  1.
         11   -1    0    0    0    0 -0.00000000000E+00 -0.00000000000E+00 -0.45593999997E+02  0.45594000000E+02  0.51100000000E-03 0. -1.
    9900012    2    1    2    0    0 -0.14511880663E+02  0.41879322157E+02  0.80399716821E+01  0.46142318194E+02  0.10000003948E+02 0.  0.
        -12    1    1    2    0    0  0.14511880663E+02 -0.41879322157E+02 -0.80399716821E+01  0.45045681806E+02  0.00000000000E+00 0.  1.
         11    1    3    3    0    0 -0.67873241849E+01  0.26208076032E+02  0.23450680680E+01  0.27174075208E+02  0.51100000000E-03 0. -1.
        -11    1    3    3    0    0 -0.49781028587E+01  0.58231400365E+01  0.10282953452E+01  0.77296739604E+01  0.51100000000E-03 0.  1.
         12    1    3    3    0    0 -0.27464536198E+01  0.98481060883E+01  0.46666082688E+01  0.11238569026E+02  0.00000000000E+00 0. -1.
</event>
<event>
 7    1  0.3981356E-008  0.4614233E+02  0.7816164E-02  0.1320468E+00
        -11   -1    0    0    0    0  0.00000000000E+00  0.00000000000E+00  0.45593999997E+02  0.45594000000E+02  0.51100000000E-03 0.  1.
         11   -1    0    0    0    0 -0.00000000000E+00 -0.00000000000E+00 -0.45593999997E+02  0.45594000000E+02  0.51100000000E-03 0. -1.
    9900012    2    1    2    0    0  0.19131370907E+02  0.24745223383E+02 -0.32415695061E+02  0.46142326297E+02  0.10000077840E+02 0.  0.
        -12    1    1    2    0    0 -0.19131370907E+02 -0.24745223383E+02  0.32415695061E+02  0.45045673703E+02  0.00000000000E+00 0.  1.
         11    1    3    3    0    0  0.13660544671E+02  0.17123308043E+02 -0.22674045089E+02  0.31526663001E+02  0.51100000000E-03 0. -1.
        -11    1    3    3    0    0  0.59761367370E+01  0.55533683359E+01 -0.54098795226E+01  0.97888153973E+01  0.51100000000E-03 0.  1.
        -12    1    3    3    0    0 -0.50531050122E+00  0.20685470041E+01 -0.43317704497E+01  0.48268478989E+01  0.00000000000E+00 0.  1.
</event>
<event>
 7    1  0.3981356E-008  0.4614232E+02  0.7816164E-02  0.1320468E+00
        -11   -1    0    0    0    0  0.00000000000E+00  0.00000000000E+00  0.45593999997E+02  0.45594000000E+02  0.51100000000E-03 0. -1.
         11   -1    0    0    0    0 -0.00000000000E+00 -0.00000000000E+00 -0.45593999997E+02  0.45594000000E+02  0.51100000000E-03 0.  1.
    9900012    2    1    2    0    0 -0.18664642276E+02 -0.87145853152E+01 -0.40059962150E+02  0.46142318343E+02  0.10000005309E+02 0.  0.
        -12    1    1    2    0    0  0.18664642276E+02  0.87145853152E+01  0.40059962150E+02  0.45045681657E+02  0.00000000000E+00 0.  1.
         11    1    3    3    0    0 -0.94673648168E-01  0.65386862147E+00  0.19332869788E+00  0.68839198161E+00  0.51100000000E-03 0.  1.
        -11    1    3    3    0    0 -0.17112404232E+01 -0.16926684273E+01 -0.68151938333E+01  0.72277477431E+01  0.51100000000E-03 0. -1.
        -12    1    3    3    0    0 -0.16858728204E+02 -0.76757855094E+01 -0.33438097014E+02  0.38226178619E+02  0.00000000000E+00 0.  1.
</event>
<event>
 7    1  0.3981356E-008  0.4614232E+02  0.7816164E-02  0.1320468E+00
        -11   -1    0    0    0    0  0.00000000000E+00  0.00000000000E+00  0.45593999997E+02  0.45594000000E+02  0.51100000000E-03 0.  1.
         11   -1    0    0    0    0 -0.00000000000E+00 -0.00000000000E+00 -0.45593999997E+02  0.45594000000E+02  0.51100000000E-03 0. -1.
    9900012    2    1    2    0    0  0.21031290656E+02 -0.29707894978E+02 -0.26537506926E+02  0.46142317803E+02  0.10000000386E+02 0.  0.
        -12    1    1    2    0    0 -0.21031290656E+02  0.29707894978E+02  0.26537506926E+02  0.45045682197E+02  0.00000000000E+00 0.  1.
         11    1    3    3    0    0  0.42373225295E+01 -0.11788367067E+02 -0.88464430770E+01  0.15335581362E+02  0.51100000000E-03 0. -1.
        -11    1    3    3    0    0  0.79167285009E+01 -0.12530173636E+02 -0.98965749585E+01  0.17821953812E+02  0.51100000000E-03 0.  1.
        -12    1    3    3    0    0  0.88772396259E+01 -0.53893542753E+01 -0.77944888907E+01  0.12984782630E+02  0.00000000000E+00 0.  1.
</event>
<event>
 7    1  0.3981356E-008  0.4614232E+02  0.7816164E-02  0.1320468E+00
        -11   -1    0    0    0    0  0.00000000000E+00  0.00000000000E+00  0.45593999997E+02  0.45594000000E+02  0.51100000000E-03 0. -1.
         11   -1    0    0    0    0 -0.00000000000E+00 -0.00000000000E+00 -0.45593999997E+02  0.45594000000E+02  0.51100000000E-03 0.  1.
    9900012    2    1    2    0    0  0.74515127679E+00 -0.37901618748E+02 -0.24331575093E+02  0.46142317625E+02  0.99999987563E+01 0.  0.
        -12    1    1    2    0    0 -0.74515127679E+00  0.37901618748E+02  0.24331575093E+02  0.45045682375E+02  0.00000000000E+00 0.  1.
         11    1    3    3    0    0 -0.17163232672E+01 -0.95609029509E+01 -0.40994837268E+01  0.10543357998E+02  0.51100000000E-03 0. -1.
        -11    1    3    3    0    0 -0.24197836666E+01 -0.72775809474E+01 -0.52582490571E+01  0.92988021189E+01  0.51100000000E-03 0.  1.
        -12    1    3    3    0    0  0.48812582107E+01 -0.21063134850E+02 -0.14973842309E+02  0.26300157507E+02  0.00000000000E+00 0.  1.
</event>
<event>
 7    1  0.3981356E-008  0.4614232E+02  0.7816164E-02  0.1320468E+00
        -11   -1    0    0    0    0  0.00000000000E+00  0.00000000000E+00  0.45593999997E+02  0.45594000000E+02  0.51100000000E-03 0. -1.
         11   -1    0    0    0    0 -0.00000000000E+00 -0.00000000000E+00 -0.45593999997E+02  0.45594000000E+02  0.51100000000E-03 0.  1.
    9900012    2    1    2    0    0  0.39590638048E+02 -0.17827987590E+02  0.11994079425E+02  0.46142315369E+02  0.99999781903E+01 0.  0.
        -12    1    1    2    0    0 -0.39590638048E+02  0.17827987590E+02 -0.11994079425E+02  0.45045684631E+02  0.00000000000E+00 0.  1.
         11    1    3    3    0    0  0.25615654705E+02 -0.13994629594E+02  0.99682666842E+01  0.30844412207E+02  0.51100000000E-03 0. -1.
        -11    1    3    3    0    0  0.66042498565E+01 -0.28164458604E+01  0.30242268486E+01  0.77906631133E+01  0.51100000000E-03 0.  1.
        -12    1    3    3    0    0  0.73707334864E+01 -0.10169121348E+01 -0.99841410742E+00  0.75072400486E+01  0.00000000000E+00 0.  1.
</event>
<event>
 7    1  0.3981356E-008  0.4614232E+02  0.7816164E-02  0.1320468E+00
        -11   -1    0    0    0    0  0.00000000000E+00  0.00000000000E+00  0.45593999997E+02  0.45594000000E+02  0.51100000000E-03 0.  1.
         11   -1    0    0    0    0 -0.00000000000E+00 -0.00000000000E+00 -0.45593999997E+02  0.45594000000E+02  0.51100000000E-03 0. -1.
    9900012    2    1    2    0    0 -0.39725686538E+02  0.13670514856E+01 -0.21192322689E+02  0.46142317169E+02  0.99999946050E+01 0.  0.
        -12    1    1    2    0    0  0.39725686538E+02 -0.13670514856E+01  0.21192322689E+02  0.45045682831E+02  0.00000000000E+00 0.  1.
         11    1    3    3    0    0 -0.12605983867E+02 -0.11896253034E+01 -0.62914921881E+01  0.14138914804E+02  0.51100000000E-03 0. -1.
        -11    1    3    3    0    0 -0.10541628750E+02 -0.19487067679E+01 -0.30933878107E+01  0.11157618168E+02  0.51100000000E-03 0.  1.
         12    1    3    3    0    0 -0.16578073922E+02  0.45053835569E+01 -0.11807442690E+02  0.20845784198E+02  0.00000000000E+00 0. -1.
</event>
<event>
 7    1  0.3981356E-008  0.4614232E+02  0.7816164E-02  0.1320468E+00
        -11   -1    0    0    0    0  0.00000000000E+00  0.00000000000E+00  0.45593999997E+02  0.45594000000E+02  0.51100000000E-03 0.  1.
         11   -1    0    0    0    0 -0.00000000000E+00 -0.00000000000E+00 -0.45593999997E+02  0.45594000000E+02  0.51100000000E-03 0. -1.
    9900012    2    1    2    0    0 -0.24112180130E+01 -0.35821396763E+02 -0.27205276704E+02  0.46142317422E+02  0.99999969090E+01 0.  0.
        -12    1    1    2    0    0  0.24112180130E+01  0.35821396763E+02  0.27205276704E+02  0.45045682578E+02  0.00000000000E+00 0.  1.
         11    1    3    3    0    0 -0.49263782633E+00 -0.18611647611E+02 -0.14968034879E+02  0.23888871619E+02  0.51100000000E-03 0. -1.
        -11    1    3    3    0    0 -0.21717225415E+01 -0.10956468603E+02 -0.11364245728E+02  0.15934448980E+02  0.51100000000E-03 0.  1.
        -12    1    3    3    0    0  0.25314235482E+00 -0.62532805489E+01 -0.87299609716E+00  0.63189968239E+01  0.00000000000E+00 0.  1.
</event>
<event>
 7    1  0.3981356E-008  0.4614232E+02  0.7816164E-02  0.1320468E+00
        -11   -1    0    0    0    0  0.00000000000E+00  0.00000000000E+00  0.45593999997E+02  0.45594000000E+02  0.51100000000E-03 0.  1.
         11   -1    0    0    0    0 -0.00000000000E+00 -0.00000000000E+00 -0.45593999997E+02  0.45594000000E+02  0.51100000000E-03 0. -1.
    9900012    2    1    2    0    0  0.83718890132E+01 -0.22518383210E+02 -0.38104428890E+02  0.46142316421E+02  0.99999877843E+01 0.  0.
        -12    1    1    2    0    0 -0.83718890132E+01  0.22518383210E+02  0.38104428890E+02  0.45045683579E+02  0.00000000000E+00 0.  1.
         11    1    3    3    0    0 -0.90569166736E+00 -0.37456256123E+00 -0.70019487061E+00  0.12045113642E+01  0.51100000000E-03 0. -1.
        -11    1    3    3    0    0 -0.73664740474E+00 -0.43609821197E+01 -0.80704401659E+01  0.92028701599E+01  0.51100000000E-03 0.  1.
         12    1    3    3    0    0  0.10014228085E+02 -0.17782838529E+02 -0.29333793853E+02  0.35734934897E+02  0.00000000000E+00 0. -1.
</event>
<event>
 7    1  0.3981356E-008  0.4614232E+02  0.7816164E-02  0.1320468E+00
        -11   -1    0    0    0    0  0.00000000000E+00  0.00000000000E+00  0.45593999997E+02  0.45594000000E+02  0.51100000000E-03 0.  1.
         11   -1    0    0    0    0 -0.00000000000E+00 -0.00000000000E+00 -0.45593999997E+02  0.45594000000E+02  0.51100000000E-03 0. -1.
    9900012    2    1    2    0    0  0.15571555361E+02  0.31913987143E+02 -0.27715289865E+02  0.46142320917E+02  0.10000028781E+02 0.  0.
        -12    1    1    2    0    0 -0.15571555361E+02 -0.31913987143E+02  0.27715289865E+02  0.45045679083E+02  0.00000000000E+00 0.  1.
         11    1    3    3    0    0  0.33484024330E+01  0.18987361995E+01 -0.42768512678E+01  0.57539947026E+01  0.51100000000E-03 0. -1.
        -11    1    3    3    0    0  0.42010778265E+01  0.84351021318E+01 -0.39240959584E+01  0.10207768230E+02  0.51100000000E-03 0.  1.
         12    1    3    3    0    0  0.80220751010E+01  0.21580148812E+02 -0.19514342638E+02  0.30180557985E+02  0.00000000000E+00 0. -1.
</event>
<event>
 7    1  0.3981356E-008  0.4614232E+02  0.7816164E-02  0.1320468E+00
        -11   -1    0    0    0    0  0.00000000000E+00  0.00000000000E+00  0.45593999997E+02  0.45594000000E+02  0.51100000000E-03 0.  1.
         11   -1    0    0    0    0 -0.00000000000E+00 -0.00000000000E+00 -0.45593999997E+02  0.45594000000E+02  0.51100000000E-03 0. -1.
    9900012    2    1    2    0    0  0.14682797772E+02 -0.32177259533E+02 -0.27895391916E+02  0.46142317947E+02  0.10000001696E+02 0.  0.
        -12    1    1    2    0    0 -0.14682797772E+02  0.32177259533E+02  0.27895391916E+02  0.45045682053E+02  0.00000000000E+00 0.  1.
         11    1    3    3    0    0  0.37463905091E+00 -0.57387044212E+01 -0.19649443270E+01  0.60773422910E+01  0.51100000000E-03 0. -1.
        -11    1    3    3    0    0  0.32991107631E+01 -0.67692102062E+01 -0.36395497741E+01  0.83637707682E+01  0.51100000000E-03 0.  1.
         12    1    3    3    0    0  0.11009047958E+02 -0.19669344905E+02 -0.22290897815E+02  0.31701204888E+02  0.00000000000E+00 0. -1.
</event>
<event>
 7    1  0.3981356E-008  0.4614232E+02  0.7816164E-02  0.1320468E+00
        -11   -1    0    0    0    0  0.00000000000E+00  0.00000000000E+00  0.45593999997E+02  0.45594000000E+02  0.51100000000E-03 0.  1.
         11   -1    0    0    0    0 -0.00000000000E+00 -0.00000000000E+00 -0.45593999997E+02  0.45594000000E+02  0.51100000000E-03 0. -1.
    9900012    2    1    2    0    0  0.18800802103E+02  0.23655043742E+02 -0.33407813930E+02  0.46142320010E+02  0.10000020510E+02 0.  0.
        -12    1    1    2    0    0 -0.18800802103E+02 -0.23655043742E+02  0.33407813930E+02  0.45045679990E+02  0.00000000000E+00 0.  1.
         11    1    3    3    0    0  0.64164539665E+01  0.92421893710E+01 -0.86362996611E+01  0.14183603843E+02  0.51100000000E-03 0. -1.
        -11    1    3    3    0    0  0.65296851293E+01  0.45634908845E+01 -0.60261331672E+01  0.99888196575E+01  0.51100000000E-03 0.  1.
         12    1    3    3    0    0  0.58546630074E+01  0.98493634869E+01 -0.18745381101E+02  0.21969896510E+02  0.00000000000E+00 0. -1.
</event>
<event>
 7    1  0.3981356E-008  0.4614232E+02  0.7816164E-02  0.1320468E+00
        -11   -1    0    0    0    0  0.00000000000E+00  0.00000000000E+00  0.45593999997E+02  0.45594000000E+02  0.51100000000E-03 0.  1.
         11   -1    0    0    0    0 -0.00000000000E+00 -0.00000000000E+00 -0.45593999997E+02  0.45594000000E+02  0.51100000000E-03 0. -1.
    9900012    2    1    2    0    0 -0.17009228518E+02  0.16430107536E+02 -0.38338637846E+02  0.46142318295E+02  0.10000004865E+02 0.  0.
        -12    1    1    2    0    0  0.17009228518E+02 -0.16430107536E+02  0.38338637846E+02  0.45045681705E+02  0.00000000000E+00 0.  1.
         11    1    3    3    0    0 -0.45559121699E+01  0.43305360683E+01 -0.12380509630E+02  0.13884772137E+02  0.51100000000E-03 0. -1.
        -11    1    3    3    0    0 -0.35773188191E+01 -0.62056254887E+00 -0.45537872697E+01  0.58240266628E+01  0.51100000000E-03 0.  1.
         12    1    3    3    0    0 -0.88759975289E+01  0.12720134017E+02 -0.21404340947E+02  0.26433519495E+02  0.00000000000E+00 0. -1.
</event>
<event>
 7    1  0.3981356E-008  0.4614232E+02  0.7816164E-02  0.1320468E+00
        -11   -1    0    0    0    0  0.00000000000E+00  0.00000000000E+00  0.45593999997E+02  0.45594000000E+02  0.51100000000E-03 0.  1.
         11   -1    0    0    0    0 -0.00000000000E+00 -0.00000000000E+00 -0.45593999997E+02  0.45594000000E+02  0.51100000000E-03 0. -1.
    9900012    2    1    2    0    0  0.22896851391E+02  0.28158980884E+02 -0.26681814046E+02  0.46142320864E+02  0.10000028295E+02 0.  0.
        -12    1    1    2    0    0 -0.22896851391E+02 -0.28158980884E+02  0.26681814046E+02  0.45045679136E+02  0.00000000000E+00 0.  1.
         11    1    3    3    0    0  0.11683395111E+01  0.70031754807E+01 -0.64784186661E+01  0.96114199108E+01  0.51100000000E-03 0. -1.
        -11    1    3    3    0    0  0.31324653795E+01  0.28478066970E+01 -0.39319121544E+01  0.57777396781E+01  0.51100000000E-03 0.  1.
         12    1    3    3    0    0  0.18596046500E+02  0.18307998707E+02 -0.16271483225E+02  0.30753161275E+02  0.00000000000E+00 0. -1.
</event>
<event>
 7    1  0.3981356E-008  0.4614232E+02  0.7816164E-02  0.1320468E+00
        -11   -1    0    0    0    0  0.00000000000E+00  0.00000000000E+00  0.45593999997E+02  0.45594000000E+02  0.51100000000E-03 0.  1.
         11   -1    0    0    0    0 -0.00000000000E+00 -0.00000000000E+00 -0.45593999997E+02  0.45594000000E+02  0.51100000000E-03 0. -1.
    9900012    2    1    2    0    0 -0.72496111060E+01  0.20159459941E+02 -0.39625149112E+02  0.46142321756E+02  0.10000036426E+02 0.  0.
        -12    1    1    2    0    0  0.72496111060E+01 -0.20159459941E+02  0.39625149112E+02  0.45045678244E+02  0.00000000000E+00 0.  1.
         11    1    3    3    0    0 -0.11017106159E+01  0.25036478163E+01 -0.42451662347E+01  0.50500945823E+01  0.51100000000E-03 0. -1.
        -11    1    3    3    0    0  0.17999129869E+01  0.31104747212E+01 -0.11310338761E+02  0.11867539884E+02  0.51100000000E-03 0.  1.
        -12    1    3    3    0    0 -0.79478134770E+01  0.14545337404E+02 -0.24069644117E+02  0.29224687289E+02  0.00000000000E+00 0.  1.
</event>
<event>
 7    1  0.3981356E-008  0.4614231E+02  0.7816164E-02  0.1320468E+00
        -11   -1    0    0    0    0  0.00000000000E+00  0.00000000000E+00  0.45593999997E+02  0.45594000000E+02  0.51100000000E-03 0. -1.
         11   -1    0    0    0    0 -0.00000000000E+00 -0.00000000000E+00 -0.45593999997E+02  0.45594000000E+02  0.51100000000E-03 0.  1.
    9900012    2    1    2    0    0  0.33871836608E+02  0.28742578028E+02  0.74616864305E+01  0.46142313511E+02  0.99999612418E+01 0.  0.
        -12    1    1    2    0    0 -0.33871836608E+02 -0.28742578028E+02 -0.74616864305E+01  0.45045686489E+02  0.00000000000E+00 0.  1.
         11    1    3    3    0    0  0.11747569938E+02  0.43939914858E+01  0.16774828434E+01  0.12654110383E+02  0.51100000000E-03 0.  1.
        -11    1    3    3    0    0  0.34628196027E+01  0.26477944891E+01  0.95351117558E+00  0.44621877012E+01  0.51100000000E-03 0. -1.
        -12    1    3    3    0    0  0.18661447067E+02  0.21700792053E+02  0.48306924115E+01  0.29026015427E+02  0.00000000000E+00 0.  1.
</event>
<event>
 7    1  0.3981356E-008  0.4614232E+02  0.7816164E-02  0.1320468E+00
        -11   -1    0    0    0    0  0.00000000000E+00  0.00000000000E+00  0.45593999997E+02  0.45594000000E+02  0.51100000000E-03 0. -1.
         11   -1    0    0    0    0 -0.00000000000E+00 -0.00000000000E+00 -0.45593999997E+02  0.45594000000E+02  0.51100000000E-03 0.  1.
    9900012    2    1    2    0    0  0.31170542704E+02 -0.14662727774E+02  0.29026113372E+02  0.46142316792E+02  0.99999911597E+01 0.  0.
        -12    1    1    2    0    0 -0.31170542704E+02  0.14662727774E+02 -0.29026113372E+02  0.45045683208E+02  0.00000000000E+00 0.  1.
         11    1    3    3    0    0  0.76474351939E+01 -0.77266297371E+00  0.75467659055E+01  0.10771905542E+02  0.51100000000E-03 0. -1.
        -11    1    3    3    0    0  0.70923280190E+01 -0.12269528000E+01  0.72416046689E+01  0.10210160055E+02  0.51100000000E-03 0.  1.
         12    1    3    3    0    0  0.16430779491E+02 -0.12663112000E+02  0.14237742797E+02  0.25160251195E+02  0.00000000000E+00 0. -1.
</event>
<event>
 7    1  0.3981356E-008  0.4614232E+02  0.7816164E-02  0.1320468E+00
        -11   -1    0    0    0    0  0.00000000000E+00  0.00000000000E+00  0.45593999997E+02  0.45594000000E+02  0.51100000000E-03 0.  1.
         11   -1    0    0    0    0 -0.00000000000E+00 -0.00000000000E+00 -0.45593999997E+02  0.45594000000E+02  0.51100000000E-03 0. -1.
    9900012    2    1    2    0    0 -0.19485134694E+02  0.39832013252E+02 -0.79280311708E+01  0.46142318387E+02  0.10000005706E+02 0.  0.
        -12    1    1    2    0    0  0.19485134694E+02 -0.39832013252E+02  0.79280311708E+01  0.45045681613E+02  0.00000000000E+00 0.  1.
         11    1    3    3    0    0 -0.50542282744E+01  0.11112449671E+02  0.60628625922E+00  0.12222902455E+02  0.51100000000E-03 0. -1.
        -11    1    3    3    0    0 -0.11616993213E+02  0.17537679860E+02 -0.75375520547E+01  0.22345904265E+02  0.51100000000E-03 0.  1.
        -12    1    3    3    0    0 -0.28139132067E+01  0.11181883721E+02 -0.99676537542E+00  0.11573511667E+02  0.00000000000E+00 0.  1.
</event>
<event>
 7    1  0.3981356E-008  0.4614232E+02  0.7816164E-02  0.1320468E+00
        -11   -1    0    0    0    0  0.00000000000E+00  0.00000000000E+00  0.45593999997E+02  0.45594000000E+02  0.51100000000E-03 0.  1.
         11   -1    0    0    0    0 -0.00000000000E+00 -0.00000000000E+00 -0.45593999997E+02  0.45594000000E+02  0.51100000000E-03 0. -1.
    9900012    2    1    2    0    0  0.32640745742E+02  0.20398283192E+02 -0.23400968672E+02  0.46142316804E+02  0.99999912739E+01 0.  0.
        -12    1    1    2    0    0 -0.32640745742E+02 -0.20398283192E+02  0.23400968672E+02  0.45045683196E+02  0.00000000000E+00 0.  1.
         11    1    3    3    0    0  0.15711218220E+02  0.10989798854E+02 -0.16128975694E+02  0.25055177389E+02  0.51100000000E-03 0. -1.
        -11    1    3    3    0    0  0.16614983717E+02  0.92099349419E+01 -0.77193523299E+01  0.20505340431E+02  0.51100000000E-03 0.  1.
         12    1    3    3    0    0  0.31454380551E+00  0.19854939617E+00  0.44735935161E+00  0.58179898399E+00  0.00000000000E+00 0. -1.
</event>
<event>
 7    1  0.3981356E-008  0.4614232E+02  0.7816164E-02  0.1320468E+00
        -11   -1    0    0    0    0  0.00000000000E+00  0.00000000000E+00  0.45593999997E+02  0.45594000000E+02  0.51100000000E-03 0.  1.
         11   -1    0    0    0    0 -0.00000000000E+00 -0.00000000000E+00 -0.45593999997E+02  0.45594000000E+02  0.51100000000E-03 0. -1.
    9900012    2    1    2    0    0 -0.27208666475E+02 -0.18145461504E+02 -0.30976513648E+02  0.46142315386E+02  0.99999783433E+01 0.  0.
        -12    1    1    2    0    0  0.27208666475E+02  0.18145461504E+02  0.30976513648E+02  0.45045684614E+02  0.00000000000E+00 0.  1.
         11    1    3    3    0    0 -0.17509960022E+02 -0.92210211774E+01 -0.19492208880E+02  0.27777187381E+02  0.51100000000E-03 0. -1.
        -11    1    3    3    0    0 -0.78568042117E+01 -0.70944055713E+01 -0.56956604291E+01  0.12020836527E+02  0.51100000000E-03 0.  1.
        -12    1    3    3    0    0 -0.18419022415E+01 -0.18300347554E+01 -0.57886443390E+01  0.63442914779E+01  0.00000000000E+00 0.  1.
</event>
<event>
 7    1  0.3981356E-008  0.4614232E+02  0.7816164E-02  0.1320468E+00
        -11   -1    0    0    0    0  0.00000000000E+00  0.00000000000E+00  0.45593999997E+02  0.45594000000E+02  0.51100000000E-03 0. -1.
         11   -1    0    0    0    0 -0.00000000000E+00 -0.00000000000E+00 -0.45593999997E+02  0.45594000000E+02  0.51100000000E-03 0.  1.
    9900012    2    1    2    0    0  0.94799128259E+01 -0.21954497751E+02  0.38173876798E+02  0.46142316650E+02  0.99999898698E+01 0.  0.
        -12    1    1    2    0    0 -0.94799128259E+01  0.21954497751E+02 -0.38173876798E+02  0.45045683350E+02  0.00000000000E+00 0.  1.
         11    1    3    3    0    0  0.39368867471E+01 -0.11613335492E+02  0.13111174426E+02  0.17951922839E+02  0.51100000000E-03 0. -1.
        -11    1    3    3    0    0  0.27917388332E+01 -0.73607942813E+00  0.48831179921E+01  0.56727824058E+01  0.51100000000E-03 0.  1.
         12    1    3    3    0    0  0.27512872456E+01 -0.96050828309E+01  0.20179584379E+02  0.22517611406E+02  0.00000000000E+00 0. -1.
</event>
<event>
 7    1  0.3981356E-008  0.4614232E+02  0.7816164E-02  0.1320468E+00
        -11   -1    0    0    0    0  0.00000000000E+00  0.00000000000E+00  0.45593999997E+02  0.45594000000E+02  0.51100000000E-03 0.  1.
         11   -1    0    0    0    0 -0.00000000000E+00 -0.00000000000E+00 -0.45593999997E+02  0.45594000000E+02  0.51100000000E-03 0. -1.
    9900012    2    1    2    0    0  0.73187725788E+01 -0.37786074412E+02 -0.23404310207E+02  0.46142316658E+02  0.99999899371E+01 0.  0.
        -12    1    1    2    0    0 -0.73187725788E+01  0.37786074412E+02  0.23404310207E+02  0.45045683342E+02  0.00000000000E+00 0.  1.
         11    1    3    3    0    0  0.51917231582E+01 -0.23287687388E+02 -0.12594619174E+02  0.26979525675E+02  0.51100000000E-03 0. -1.
        -11    1    3    3    0    0 -0.76854184811E+00 -0.71952506735E+01 -0.23274404360E+01  0.76012675305E+01  0.51100000000E-03 0.  1.
        -12    1    3    3    0    0  0.28955912687E+01 -0.73031363498E+01 -0.84822505967E+01  0.11561523452E+02  0.00000000000E+00 0.  1.
</event>
<event>
 7    1  0.3981356E-008  0.4614232E+02  0.7816164E-02  0.1320468E+00
        -11   -1    0    0    0    0  0.00000000000E+00  0.00000000000E+00  0.45593999997E+02  0.45594000000E+02  0.51100000000E-03 0.  1.
         11   -1    0    0    0    0 -0.00000000000E+00 -0.00000000000E+00 -0.45593999997E+02  0.45594000000E+02  0.51100000000E-03 0. -1.
    9900012    2    1    2    0    0  0.13689965564E+02 -0.11040114204E+02 -0.41470641639E+02  0.46142318778E+02  0.10000009273E+02 0.  0.
        -12    1    1    2    0    0 -0.13689965564E+02  0.11040114204E+02  0.41470641639E+02  0.45045681222E+02  0.00000000000E+00 0.  1.
         11    1    3    3    0    0  0.61359695292E+01 -0.40634704238E+01 -0.22266281888E+02  0.23450996212E+02  0.51100000000E-03 0. -1.
        -11    1    3    3    0    0 -0.96879360683E+00 -0.19587475148E+01 -0.38632574564E+01  0.44384694789E+01  0.51100000000E-03 0.  1.
        -12    1    3    3    0    0  0.85227896414E+01 -0.50178962652E+01 -0.15341102295E+02  0.18252853087E+02  0.00000000000E+00 0.  1.
</event>
<event>
 7    1  0.3981356E-008  0.4614232E+02  0.7816164E-02  0.1320468E+00
        -11   -1    0    0    0    0  0.00000000000E+00  0.00000000000E+00  0.45593999997E+02  0.45594000000E+02  0.51100000000E-03 0.  1.
         11   -1    0    0    0    0 -0.00000000000E+00 -0.00000000000E+00 -0.45593999997E+02  0.45594000000E+02  0.51100000000E-03 0. -1.
    9900012    2    1    2    0    0  0.22139645224E+01 -0.17427750423E+02 -0.41478733444E+02  0.46142318167E+02  0.10000003702E+02 0.  0.
        -12    1    1    2    0    0 -0.22139645224E+01  0.17427750423E+02  0.41478733444E+02  0.45045681833E+02  0.00000000000E+00 0.  1.
         11    1    3    3    0    0 -0.59315336579E+00 -0.32094475546E+01 -0.17208288146E+02  0.17515066819E+02  0.51100000000E-03 0. -1.
        -11    1    3    3    0    0 -0.58478029354E+00 -0.80009556731E+01 -0.11451520743E+02  0.13981937894E+02  0.51100000000E-03 0.  1.
        -12    1    3    3    0    0  0.33918981818E+01 -0.62173471951E+01 -0.12818924555E+02  0.14645313454E+02  0.00000000000E+00 0.  1.
</event>
<event>
 7    1  0.3981356E-008  0.4614232E+02  0.7816164E-02  0.1320468E+00
        -11   -1    0    0    0    0  0.00000000000E+00  0.00000000000E+00  0.45593999997E+02  0.45594000000E+02  0.51100000000E-03 0. -1.
         11   -1    0    0    0    0 -0.00000000000E+00 -0.00000000000E+00 -0.45593999997E+02  0.45594000000E+02  0.51100000000E-03 0.  1.
    9900012    2    1    2    0    0 -0.36793012920E+02  0.51394738427E+01  0.25474958219E+02  0.46142317772E+02  0.10000000100E+02 0.  0.
        -12    1    1    2    0    0  0.36793012920E+02 -0.51394738427E+01 -0.25474958219E+02  0.45045682228E+02  0.00000000000E+00 0.  1.
         11    1    3    3    0    0 -0.14467276752E+02  0.82786931488E+00  0.57486196773E+01  0.15589550753E+02  0.51100000000E-03 0. -1.
        -11    1    3    3    0    0 -0.21021551101E+02  0.27079809848E+01  0.17253957382E+02  0.27330163141E+02  0.51100000000E-03 0.  1.
        -12    1    3    3    0    0 -0.13041850670E+01  0.16036235430E+01  0.24723811597E+01  0.32226038782E+01  0.00000000000E+00 0.  1.
</event>
<event>
 7    1  0.3981356E-008  0.4614232E+02  0.7816164E-02  0.1320468E+00
        -11   -1    0    0    0    0  0.00000000000E+00  0.00000000000E+00  0.45593999997E+02  0.45594000000E+02  0.51100000000E-03 0.  1.
         11   -1    0    0    0    0 -0.00000000000E+00 -0.00000000000E+00 -0.45593999997E+02  0.45594000000E+02  0.51100000000E-03 0. -1.
    9900012    2    1    2    0    0 -0.33952308319E+01 -0.15377940089E+02 -0.42203137847E+02  0.46142317877E+02  0.10000001055E+02 0.  0.
        -12    1    1    2    0    0  0.33952308319E+01  0.15377940089E+02  0.42203137847E+02  0.45045682123E+02  0.00000000000E+00 0.  1.
         11    1    3    3    0    0  0.20135372073E+01 -0.25329672552E+01 -0.10790380901E+02  0.11265104325E+02  0.51100000000E-03 0. -1.
        -11    1    3    3    0    0 -0.51628740094E+00 -0.46997057548E+01 -0.53674109604E+01  0.71528237460E+01  0.51100000000E-03 0.  1.
         12    1    3    3    0    0 -0.48924806383E+01 -0.81452670791E+01 -0.26045345986E+02  0.27724389806E+02  0.00000000000E+00 0. -1.
</event>
<event>
 7    1  0.3981356E-008  0.4614232E+02  0.7816164E-02  0.1320468E+00
        -11   -1    0    0    0    0  0.00000000000E+00  0.00000000000E+00  0.45593999997E+02  0.45594000000E+02  0.51100000000E-03 0.  1.
         11   -1    0    0    0    0 -0.00000000000E+00 -0.00000000000E+00 -0.45593999997E+02  0.45594000000E+02  0.51100000000E-03 0. -1.
    9900012    2    1    2    0    0 -0.27004061069E+02  0.36048286927E+02  0.64429609038E+00  0.46142318497E+02  0.10000006714E+02 0.  0.
        -12    1    1    2    0    0  0.27004061069E+02 -0.36048286927E+02 -0.64429609038E+00  0.45045681503E+02  0.00000000000E+00 0.  1.
         11    1    3    3    0    0 -0.19859057594E+02  0.26274331313E+02 -0.39157039391E+00  0.32937455611E+02  0.51100000000E-03 0. -1.
        -11    1    3    3    0    0 -0.79122630672E+01  0.81887971662E+01  0.67254234146E+00  0.11406691866E+02  0.51100000000E-03 0.  1.
        -12    1    3    3    0    0  0.76725959212E+00  0.15851584477E+01  0.36332414283E+00  0.17981710205E+01  0.00000000000E+00 0.  1.
</event>
<event>
 7    1  0.3981356E-008  0.4614232E+02  0.7816164E-02  0.1320468E+00
        -11   -1    0    0    0    0  0.00000000000E+00  0.00000000000E+00  0.45593999997E+02  0.45594000000E+02  0.51100000000E-03 0.  1.
         11   -1    0    0    0    0 -0.00000000000E+00 -0.00000000000E+00 -0.45593999997E+02  0.45594000000E+02  0.51100000000E-03 0. -1.
    9900012    2    1    2    0    0 -0.25307706702E+02  0.94614518103E+01 -0.36043229465E+02  0.46142317864E+02  0.10000000936E+02 0.  0.
        -12    1    1    2    0    0  0.25307706702E+02 -0.94614518103E+01  0.36043229465E+02  0.45045682136E+02  0.00000000000E+00 0.  1.
         11    1    3    3    0    0 -0.15375541896E+02  0.55752449536E+01 -0.16203560985E+02  0.23022728633E+02  0.51100000000E-03 0. -1.
        -11    1    3    3    0    0 -0.27956641550E+00  0.16394830434E+01 -0.50462048825E+01  0.53132142821E+01  0.51100000000E-03 0.  1.
        -12    1    3    3    0    0 -0.96525983905E+01  0.22467238134E+01 -0.14793463597E+02  0.17806374948E+02  0.00000000000E+00 0.  1.
</event>
<event>
 7    1  0.3981356E-008  0.4614232E+02  0.7816164E-02  0.1320468E+00
        -11   -1    0    0    0    0  0.00000000000E+00  0.00000000000E+00  0.45593999997E+02  0.45594000000E+02  0.51100000000E-03 0. -1.
         11   -1    0    0    0    0 -0.00000000000E+00 -0.00000000000E+00 -0.45593999997E+02  0.45594000000E+02  0.51100000000E-03 0.  1.
    9900012    2    1    2    0    0 -0.23670535191E+02 -0.24019268884E+02  0.29864593536E+02  0.46142318065E+02  0.10000002770E+02 0.  0.
        -12    1    1    2    0    0  0.23670535191E+02  0.24019268884E+02 -0.29864593536E+02  0.45045681935E+02  0.00000000000E+00 0.  1.
         11    1    3    3    0    0 -0.17220840215E+02 -0.11862231012E+02  0.16263810440E+02  0.26491156875E+02  0.51100000000E-03 0.  1.
        -11    1    3    3    0    0 -0.54274338289E+01 -0.66551465514E+01  0.81707863434E+01  0.11853681425E+02  0.51100000000E-03 0. -1.
        -12    1    3    3    0    0 -0.10222611470E+01 -0.55018913203E+01  0.54299967521E+01  0.77974797647E+01  0.00000000000E+00 0.  1.
</event>
<event>
 7    1  0.3981356E-008  0.4614232E+02  0.7816164E-02  0.1320468E+00
        -11   -1    0    0    0    0  0.00000000000E+00  0.00000000000E+00  0.45593999997E+02  0.45594000000E+02  0.51100000000E-03 0. -1.
         11   -1    0    0    0    0 -0.00000000000E+00 -0.00000000000E+00 -0.45593999997E+02  0.45594000000E+02  0.51100000000E-03 0.  1.
    9900012    2    1    2    0    0 -0.26177950679E+02 -0.16530462822E+02  0.32719601726E+02  0.46142316078E+02  0.99999846521E+01 0.  0.
        -12    1    1    2    0    0  0.26177950679E+02  0.16530462822E+02 -0.32719601726E+02  0.45045683922E+02  0.00000000000E+00 0.  1.
         11    1    3    3    0    0  0.48418740373E+00 -0.21089413502E+00  0.74509198865E+00  0.91327767453E+00  0.51100000000E-03 0. -1.
        -11    1    3    3    0    0 -0.30538166443E+01 -0.27572880012E+01  0.78013573442E+01  0.88198418291E+01  0.51100000000E-03 0.  1.
         12    1    3    3    0    0 -0.23608321439E+02 -0.13562280685E+02  0.24173152394E+02  0.36409196574E+02  0.00000000000E+00 0. -1.
</event>
<event>
 7    1  0.3981356E-008  0.4614232E+02  0.7816164E-02  0.1320468E+00
        -11   -1    0    0    0    0  0.00000000000E+00  0.00000000000E+00  0.45593999997E+02  0.45594000000E+02  0.51100000000E-03 0. -1.
         11   -1    0    0    0    0 -0.00000000000E+00 -0.00000000000E+00 -0.45593999997E+02  0.45594000000E+02  0.51100000000E-03 0.  1.
    9900012    2    1    2    0    0  0.21771522097E+02 -0.37752190074E+02  0.11396773666E+02  0.46142317856E+02  0.10000000863E+02 0.  0.
        -12    1    1    2    0    0 -0.21771522097E+02  0.37752190074E+02 -0.11396773666E+02  0.45045682144E+02  0.00000000000E+00 0.  1.
         11    1    3    3    0    0  0.14545905370E+02 -0.18537921271E+02  0.37926567556E+01  0.23866757920E+02  0.51100000000E-03 0. -1.
        -11    1    3    3    0    0 -0.80864215969E-01 -0.34879512769E+01  0.21462046550E+01  0.40961613510E+01  0.51100000000E-03 0.  1.
        -12    1    3    3    0    0  0.73064809437E+01 -0.15726317526E+02  0.54579122554E+01  0.18179398585E+02  0.00000000000E+00 0.  1.
</event>
<event>
 7    1  0.3981356E-008  0.4614231E+02  0.7816164E-02  0.1320468E+00
        -11   -1    0    0    0    0  0.00000000000E+00  0.00000000000E+00  0.45593999997E+02  0.45594000000E+02  0.51100000000E-03 0.  1.
         11   -1    0    0    0    0 -0.00000000000E+00 -0.00000000000E+00 -0.45593999997E+02  0.45594000000E+02  0.51100000000E-03 0. -1.
    9900012    2    1    2    0    0 -0.18762015471E+02  0.73500562470E+01 -0.40287435838E+02  0.46142311663E+02  0.99999443919E+01 0.  0.
        -12    1    1    2    0    0  0.18762015471E+02 -0.73500562470E+01  0.40287435838E+02  0.45045688337E+02  0.00000000000E+00 0.  1.
         11    1    3    3    0    0 -0.11948950044E+02  0.18213756632E+01 -0.17594440530E+02  0.21346174231E+02  0.51100000000E-03 0. -1.
        -11    1    3    3    0    0  0.13627487269E+00 -0.56336671173E+00 -0.53756669551E+00  0.79052584148E+00  0.51100000000E-03 0.  1.
        -12    1    3    3    0    0 -0.69493402998E+01  0.60920472955E+01 -0.22155428612E+02  0.24005611591E+02  0.00000000000E+00 0.  1.
</event>
<event>
 7    1  0.3981356E-008  0.4614232E+02  0.7816164E-02  0.1320468E+00
        -11   -1    0    0    0    0  0.00000000000E+00  0.00000000000E+00  0.45593999997E+02  0.45594000000E+02  0.51100000000E-03 0. -1.
         11   -1    0    0    0    0 -0.00000000000E+00 -0.00000000000E+00 -0.45593999997E+02  0.45594000000E+02  0.51100000000E-03 0.  1.
    9900012    2    1    2    0    0 -0.24009899369E+02 -0.11716698398E+02  0.36267853205E+02  0.46142318019E+02  0.10000002350E+02 0.  0.
        -12    1    1    2    0    0  0.24009899369E+02  0.11716698398E+02 -0.36267853205E+02  0.45045681981E+02  0.00000000000E+00 0.  1.
         11    1    3    3    0    0 -0.97448136960E+01 -0.64634316658E+00  0.13893403256E+02  0.16982514765E+02  0.51100000000E-03 0. -1.
        -11    1    3    3    0    0 -0.14743779555E+01 -0.35110848660E+01  0.38787130835E+01  0.54356161322E+01  0.51100000000E-03 0.  1.
        -12    1    3    3    0    0 -0.12790707718E+02 -0.75592703656E+01  0.18495736866E+02  0.23724187122E+02  0.00000000000E+00 0.  1.
</event>
<event>
 7    1  0.3981356E-008  0.4614232E+02  0.7816164E-02  0.1320468E+00
        -11   -1    0    0    0    0  0.00000000000E+00  0.00000000000E+00  0.45593999997E+02  0.45594000000E+02  0.51100000000E-03 0.  1.
         11   -1    0    0    0    0 -0.00000000000E+00 -0.00000000000E+00 -0.45593999997E+02  0.45594000000E+02  0.51100000000E-03 0. -1.
    9900012    2    1    2    0    0  0.29880733217E+02 -0.23541488389E+02 -0.24125790814E+02  0.46142315683E+02  0.99999810484E+01 0.  0.
        -12    1    1    2    0    0 -0.29880733217E+02  0.23541488389E+02  0.24125790814E+02  0.45045684317E+02  0.00000000000E+00 0.  1.
         11    1    3    3    0    0  0.66508306147E+01 -0.16630743498E+01 -0.46710296650E+01  0.82956544378E+01  0.51100000000E-03 0.  1.
        -11    1    3    3    0    0  0.76187513659E+01 -0.10860178233E+02 -0.65995135726E+01  0.14816964037E+02  0.51100000000E-03 0. -1.
         12    1    3    3    0    0  0.15611151237E+02 -0.11018235807E+02 -0.12855247577E+02  0.23029697208E+02  0.00000000000E+00 0. -1.
</event>
<event>
 7    1  0.3981356E-008  0.4614232E+02  0.7816164E-02  0.1320468E+00
        -11   -1    0    0    0    0  0.00000000000E+00  0.00000000000E+00  0.45593999997E+02  0.45594000000E+02  0.51100000000E-03 0. -1.
         11   -1    0    0    0    0 -0.00000000000E+00 -0.00000000000E+00 -0.45593999997E+02  0.45594000000E+02  0.51100000000E-03 0.  1.
    9900012    2    1    2    0    0  0.36908257714E+02 -0.25473094591E+02  0.42444529728E+01  0.46142318558E+02  0.10000007267E+02 0.  0.
        -12    1    1    2    0    0 -0.36908257714E+02  0.25473094591E+02 -0.42444529728E+01  0.45045681442E+02  0.00000000000E+00 0.  1.
         11    1    3    3    0    0  0.95963879619E+01 -0.76950550238E+01 -0.15815274094E+01  0.12401845143E+02  0.51100000000E-03 0. -1.
        -11    1    3    3    0    0  0.35954253397E+01 -0.19893339214E+01 -0.14107369528E+01  0.43445036351E+01  0.51100000000E-03 0.  1.
         12    1    3    3    0    0  0.23716444412E+02 -0.15788705646E+02  0.72367173350E+01  0.29395969780E+02  0.00000000000E+00 0. -1.
</event>
<event>
 7    1  0.3981356E-008  0.4614232E+02  0.7816164E-02  0.1320468E+00
        -11   -1    0    0    0    0  0.00000000000E+00  0.00000000000E+00  0.45593999997E+02  0.45594000000E+02  0.51100000000E-03 0.  1.
         11   -1    0    0    0    0 -0.00000000000E+00 -0.00000000000E+00 -0.45593999997E+02  0.45594000000E+02  0.51100000000E-03 0. -1.
    9900012    2    1    2    0    0  0.21619643689E+02 -0.15491675333E+02 -0.36355363752E+02  0.46142317949E+02  0.10000001717E+02 0.  0.
        -12    1    1    2    0    0 -0.21619643689E+02  0.15491675333E+02  0.36355363752E+02  0.45045682051E+02  0.00000000000E+00 0.  1.
         11    1    3    3    0    0  0.15932702205E+02 -0.12435828849E+02 -0.22357204872E+02  0.30138769860E+02  0.51100000000E-03 0.  1.
        -11    1    3    3    0    0  0.63165131339E+01 -0.27399158119E+01 -0.13454078308E+02  0.15113493978E+02  0.51100000000E-03 0. -1.
        -12    1    3    3    0    0 -0.62957165060E+00 -0.31593067186E+00 -0.54408057178E+00  0.89005411142E+00  0.00000000000E+00 0.  1.
</event>
<event>
 7    1  0.3981356E-008  0.4614232E+02  0.7816164E-02  0.1320468E+00
        -11   -1    0    0    0    0  0.00000000000E+00  0.00000000000E+00  0.45593999997E+02  0.45594000000E+02  0.51100000000E-03 0.  1.
         11   -1    0    0    0    0 -0.00000000000E+00 -0.00000000000E+00 -0.45593999997E+02  0.45594000000E+02  0.51100000000E-03 0. -1.
    9900012    2    1    2    0    0 -0.16100870880E+02 -0.39028812566E+02 -0.15704371804E+02  0.46142317108E+02  0.99999940464E+01 0.  0.
        -12    1    1    2    0    0  0.16100870880E+02  0.39028812566E+02  0.15704371804E+02  0.45045682892E+02  0.00000000000E+00 0.  1.
         11    1    3    3    0    0 -0.92051170332E+01 -0.16820772105E+02 -0.73731061698E+01  0.20543496505E+02  0.51100000000E-03 0. -1.
        -11    1    3    3    0    0 -0.75964090162E+01 -0.18967169433E+02 -0.53040858221E+01  0.21109056656E+02  0.51100000000E-03 0.  1.
        -12    1    3    3    0    0  0.70065516896E+00 -0.32408710285E+01 -0.30271798117E+01  0.44897639472E+01  0.00000000000E+00 0.  1.
</event>
<event>
 7    1  0.3981356E-008  0.4614232E+02  0.7816164E-02  0.1320468E+00
        -11   -1    0    0    0    0  0.00000000000E+00  0.00000000000E+00  0.45593999997E+02  0.45594000000E+02  0.51100000000E-03 0. -1.
         11   -1    0    0    0    0 -0.00000000000E+00 -0.00000000000E+00 -0.45593999997E+02  0.45594000000E+02  0.51100000000E-03 0.  1.
    9900012    2    1    2    0    0  0.36824034285E+02 -0.24169707238E+02 -0.94302255004E+01  0.46142318720E+02  0.10000008748E+02 0.  0.
        -12    1    1    2    0    0 -0.36824034285E+02  0.24169707238E+02  0.94302255004E+01  0.45045681280E+02  0.00000000000E+00 0.  1.
         11    1    3    3    0    0  0.60440808836E+00 -0.15073615056E+01 -0.15606673396E+01  0.22523611282E+01  0.51100000000E-03 0. -1.
        -11    1    3    3    0    0  0.22797872904E+01 -0.25005576743E+01 -0.21294941718E+01  0.39981201159E+01  0.51100000000E-03 0.  1.
         12    1    3    3    0    0  0.33939838906E+02 -0.20161788058E+02 -0.57400639891E+01  0.39891837476E+02  0.00000000000E+00 0. -1.
</event>
<event>
 7    1  0.3981356E-008  0.4614232E+02  0.7816164E-02  0.1320468E+00
        -11   -1    0    0    0    0  0.00000000000E+00  0.00000000000E+00  0.45593999997E+02  0.45594000000E+02  0.51100000000E-03 0. -1.
         11   -1    0    0    0    0 -0.00000000000E+00 -0.00000000000E+00 -0.45593999997E+02  0.45594000000E+02  0.51100000000E-03 0.  1.
    9900012    2    1    2    0    0  0.31123650348E+02  0.22280027908E+02  0.23749362404E+02  0.46142317974E+02  0.10000001943E+02 0.  0.
        -12    1    1    2    0    0 -0.31123650348E+02 -0.22280027908E+02 -0.23749362404E+02  0.45045682026E+02  0.00000000000E+00 0.  1.
         11    1    3    3    0    0  0.18367475204E+02  0.11631469677E+02  0.12189820381E+02  0.24924826046E+02  0.51100000000E-03 0. -1.
        -11    1    3    3    0    0  0.33769431056E+01  0.28075754067E+01  0.68079851864E+01  0.81015360866E+01  0.51100000000E-03 0.  1.
        -12    1    3    3    0    0  0.93792320384E+01  0.78409828236E+01  0.47515568369E+01  0.13115955842E+02  0.00000000000E+00 0.  1.
</event>
<event>
 7    1  0.3981356E-008  0.4614232E+02  0.7816164E-02  0.1320468E+00
        -11   -1    0    0    0    0  0.00000000000E+00  0.00000000000E+00  0.45593999997E+02  0.45594000000E+02  0.51100000000E-03 0.  1.
         11   -1    0    0    0    0 -0.00000000000E+00 -0.00000000000E+00 -0.45593999997E+02  0.45594000000E+02  0.51100000000E-03 0. -1.
    9900012    2    1    2    0    0  0.24892418842E+02  0.11567077804E+02 -0.35716713562E+02  0.46142318382E+02  0.10000005663E+02 0.  0.
        -12    1    1    2    0    0 -0.24892418842E+02 -0.11567077804E+02  0.35716713562E+02  0.45045681618E+02  0.00000000000E+00 0.  1.
         11    1    3    3    0    0  0.18213287347E+01  0.23500504094E+01 -0.41019250869E+01  0.50661390591E+01  0.51100000000E-03 0. -1.
        -11    1    3    3    0    0  0.22579398399E+02  0.68634564106E+01 -0.30042931300E+02  0.38203586053E+02  0.51100000000E-03 0.  1.
        -12    1    3    3    0    0  0.49169170844E+00  0.23535709844E+01 -0.15718571748E+01  0.28725932697E+01  0.00000000000E+00 0.  1.
</event>
<event>
 7    1  0.3981356E-008  0.4614232E+02  0.7816164E-02  0.1320468E+00
        -11   -1    0    0    0    0  0.00000000000E+00  0.00000000000E+00  0.45593999997E+02  0.45594000000E+02  0.51100000000E-03 0.  1.
         11   -1    0    0    0    0 -0.00000000000E+00 -0.00000000000E+00 -0.45593999997E+02  0.45594000000E+02  0.51100000000E-03 0. -1.
    9900012    2    1    2    0    0 -0.22616909512E+02 -0.12642655017E+02 -0.36847687911E+02  0.46142318452E+02  0.10000006300E+02 0.  0.
        -12    1    1    2    0    0  0.22616909512E+02  0.12642655017E+02  0.36847687911E+02  0.45045681548E+02  0.00000000000E+00 0.  1.
         11    1    3    3    0    0 -0.21491123724E+01 -0.38971325215E+01 -0.38492257727E+01  0.58841197464E+01  0.51100000000E-03 0. -1.
        -11    1    3    3    0    0  0.24130523438E+00 -0.82409609448E+00 -0.87704705476E+00  0.12274259189E+01  0.51100000000E-03 0.  1.
         12    1    3    3    0    0 -0.20709102374E+02 -0.79214264009E+01 -0.32121415083E+02  0.39030772787E+02  0.00000000000E+00 0. -1.
</event>
<event>
 7    1  0.3981356E-008  0.4614232E+02  0.7816164E-02  0.1320468E+00
        -11   -1    0    0    0    0  0.00000000000E+00  0.00000000000E+00  0.45593999997E+02  0.45594000000E+02  0.51100000000E-03 0.  1.
         11   -1    0    0    0    0 -0.00000000000E+00 -0.00000000000E+00 -0.45593999997E+02  0.45594000000E+02  0.51100000000E-03 0. -1.
    9900012    2    1    2    0    0 -0.15187195159E+02  0.13699048279E+02 -0.40134757214E+02  0.46142316997E+02  0.99999930330E+01 0.  0.
        -12    1    1    2    0    0  0.15187195159E+02 -0.13699048279E+02  0.40134757214E+02  0.45045683003E+02  0.00000000000E+00 0.  1.
         11    1    3    3    0    0 -0.13096942480E+02  0.10449420777E+02 -0.37335960284E+02  0.40923028083E+02  0.51100000000E-03 0. -1.
        -11    1    3    3    0    0 -0.19571701449E+01  0.11066187753E+01 -0.12564773692E+01  0.25756272499E+01  0.51100000000E-03 0.  1.
        -12    1    3    3    0    0 -0.13308253420E+00  0.21430087274E+01 -0.15423195610E+01  0.26436616642E+01  0.00000000000E+00 0.  1.
</event>
<event>
 7    1  0.3981356E-008  0.4614232E+02  0.7816164E-02  0.1320468E+00
        -11   -1    0    0    0    0  0.00000000000E+00  0.00000000000E+00  0.45593999997E+02  0.45594000000E+02  0.51100000000E-03 0.  1.
         11   -1    0    0    0    0 -0.00000000000E+00 -0.00000000000E+00 -0.45593999997E+02  0.45594000000E+02  0.51100000000E-03 0. -1.
    9900012    2    1    2    0    0  0.40508953963E+00  0.21288360169E+02 -0.39695780535E+02  0.46142319092E+02  0.10000012133E+02 0.  0.
        -12    1    1    2    0    0 -0.40508953963E+00 -0.21288360169E+02  0.39695780535E+02  0.45045680908E+02  0.00000000000E+00 0.  1.
         11    1    3    3    0    0  0.19907207222E+01  0.38367813503E+01 -0.12500533019E+02  0.13226760229E+02  0.51100000000E-03 0. -1.
        -11    1    3    3    0    0  0.99526656591E+00  0.10182744683E+01 -0.59716576878E+00  0.15440355069E+01  0.51100000000E-03 0.  1.
         12    1    3    3    0    0 -0.25808977485E+01  0.16433304351E+02 -0.26598081747E+02  0.31371523356E+02  0.00000000000E+00 0. -1.
</event>
<event>
 7    1  0.3981356E-008  0.4614231E+02  0.7816164E-02  0.1320468E+00
        -11   -1    0    0    0    0  0.00000000000E+00  0.00000000000E+00  0.45593999997E+02  0.45594000000E+02  0.51100000000E-03 0. -1.
         11   -1    0    0    0    0 -0.00000000000E+00 -0.00000000000E+00 -0.45593999997E+02  0.45594000000E+02  0.51100000000E-03 0.  1.
    9900012    2    1    2    0    0  0.44193877121E+02 -0.79898517743E+01  0.34896310039E+01  0.46142311739E+02  0.99999450881E+01 0.  0.
        -12    1    1    2    0    0 -0.44193877121E+02  0.79898517743E+01 -0.34896310039E+01  0.45045688261E+02  0.00000000000E+00 0.  1.
         11    1    3    3    0    0  0.88281439244E+01  0.23213278103E+01  0.13379100645E+01  0.92257623834E+01  0.51100000000E-03 0.  1.
        -11    1    3    3    0    0  0.15837739207E+02 -0.44607278395E+01  0.44977090741E+00  0.16460084148E+02  0.51100000000E-03 0. -1.
        -12    1    3    3    0    0  0.19527993989E+02 -0.58504517450E+01  0.17019500320E+01  0.20456465207E+02  0.00000000000E+00 0.  1.
</event>
<event>
 7    1  0.3981356E-008  0.4614232E+02  0.7816164E-02  0.1320468E+00
        -11   -1    0    0    0    0  0.00000000000E+00  0.00000000000E+00  0.45593999997E+02  0.45594000000E+02  0.51100000000E-03 0. -1.
         11   -1    0    0    0    0 -0.00000000000E+00 -0.00000000000E+00 -0.45593999997E+02  0.45594000000E+02  0.51100000000E-03 0.  1.
    9900012    2    1    2    0    0  0.23662483845E+02 -0.24737127508E+02  0.29279255918E+02  0.46142318230E+02  0.10000004274E+02 0.  0.
        -12    1    1    2    0    0 -0.23662483845E+02  0.24737127508E+02 -0.29279255918E+02  0.45045681770E+02  0.00000000000E+00 0.  1.
         11    1    3    3    0    0  0.20392791167E+02 -0.19253779544E+02  0.23600562925E+02  0.36654611292E+02  0.51100000000E-03 0. -1.
        -11    1    3    3    0    0  0.18961068531E+00 -0.67260982776E+00 -0.65555609112E+00  0.95818069387E+00  0.51100000000E-03 0.  1.
        -12    1    3    3    0    0  0.30800819923E+01 -0.48107381356E+01  0.63342490842E+01  0.85295262442E+01  0.00000000000E+00 0.  1.
</event>
<event>
 7    1  0.3981356E-008  0.4614232E+02  0.7816164E-02  0.1320468E+00
        -11   -1    0    0    0    0  0.00000000000E+00  0.00000000000E+00  0.45593999997E+02  0.45594000000E+02  0.51100000000E-03 0.  1.
         11   -1    0    0    0    0 -0.00000000000E+00 -0.00000000000E+00 -0.45593999997E+02  0.45594000000E+02  0.51100000000E-03 0. -1.
    9900012    2    1    2    0    0 -0.37633120128E+00 -0.11271047754E+02 -0.43611183078E+02  0.46142318386E+02  0.10000005695E+02 0.  0.
        -12    1    1    2    0    0  0.37633120128E+00  0.11271047754E+02  0.43611183078E+02  0.45045681614E+02  0.00000000000E+00 0.  1.
         11    1    3    3    0    0 -0.36798203236E+01 -0.58082500243E+01 -0.23454984021E+02  0.24442035955E+02  0.51100000000E-03 0. -1.
        -11    1    3    3    0    0 -0.58360208673E+00  0.39648389397E+00 -0.42651339135E+01  0.43230959318E+01  0.51100000000E-03 0.  1.
        -12    1    3    3    0    0  0.38870912090E+01 -0.58592816238E+01 -0.15891065143E+02  0.17377186499E+02  0.00000000000E+00 0.  1.
</event>
<event>
 7    1  0.3981356E-008  0.4614232E+02  0.7816164E-02  0.1320468E+00
        -11   -1    0    0    0    0  0.00000000000E+00  0.00000000000E+00  0.45593999997E+02  0.45594000000E+02  0.51100000000E-03 0. -1.
         11   -1    0    0    0    0 -0.00000000000E+00 -0.00000000000E+00 -0.45593999997E+02  0.45594000000E+02  0.51100000000E-03 0.  1.
    9900012    2    1    2    0    0  0.42925846440E+02 -0.10870343999E+02 -0.82656136997E+01  0.46142322726E+02  0.10000045272E+02 0.  0.
        -12    1    1    2    0    0 -0.42925846440E+02  0.10870343999E+02  0.82656136997E+01  0.45045677274E+02  0.00000000000E+00 0.  1.
         11    1    3    3    0    0  0.14496911931E+01 -0.33086402656E+00 -0.15789493385E+01  0.21689068293E+01  0.51100000000E-03 0. -1.
        -11    1    3    3    0    0  0.82024588273E+00 -0.15043863409E+01  0.31218270826E+00  0.17416773167E+01  0.51100000000E-03 0.  1.
        -12    1    3    3    0    0  0.40655909364E+02 -0.90350936310E+01 -0.69988470695E+01  0.42231738580E+02  0.00000000000E+00 0.  1.
</event>
<event>
 7    1  0.3981356E-008  0.4614232E+02  0.7816164E-02  0.1320468E+00
        -11   -1    0    0    0    0  0.00000000000E+00  0.00000000000E+00  0.45593999997E+02  0.45594000000E+02  0.51100000000E-03 0.  1.
         11   -1    0    0    0    0 -0.00000000000E+00 -0.00000000000E+00 -0.45593999997E+02  0.45594000000E+02  0.51100000000E-03 0. -1.
    9900012    2    1    2    0    0  0.30734818398E+02  0.16574647092E+02 -0.28456376040E+02  0.46142319569E+02  0.10000016485E+02 0.  0.
        -12    1    1    2    0    0 -0.30734818398E+02 -0.16574647092E+02  0.28456376040E+02  0.45045680431E+02  0.00000000000E+00 0.  1.
         11    1    3    3    0    0  0.10328269496E+02  0.58904031245E+01 -0.91473957339E+01  0.15001494883E+02  0.51100000000E-03 0. -1.
        -11    1    3    3    0    0  0.41963662517E+01  0.33395778308E+00 -0.49936219228E+00  0.42391485441E+01  0.51100000000E-03 0.  1.
         12    1    3    3    0    0  0.16210182650E+02  0.10350286185E+02 -0.18809618113E+02  0.26901676142E+02  0.00000000000E+00 0. -1.
</event>
<event>
 7    1  0.3981356E-008  0.4614232E+02  0.7816164E-02  0.1320468E+00
        -11   -1    0    0    0    0  0.00000000000E+00  0.00000000000E+00  0.45593999997E+02  0.45594000000E+02  0.51100000000E-03 0.  1.
         11   -1    0    0    0    0 -0.00000000000E+00 -0.00000000000E+00 -0.45593999997E+02  0.45594000000E+02  0.51100000000E-03 0. -1.
    9900012    2    1    2    0    0 -0.33770282573E+01 -0.25770307494E+02 -0.36791309355E+02  0.46142317496E+02  0.99999975808E+01 0.  0.
        -12    1    1    2    0    0  0.33770282573E+01  0.25770307494E+02  0.36791309355E+02  0.45045682504E+02  0.00000000000E+00 0.  1.
         11    1    3    3    0    0 -0.23982617450E+01 -0.77359762190E+01 -0.68481249045E+01  0.10606309557E+02  0.51100000000E-03 0. -1.
        -11    1    3    3    0    0  0.43694829297E-01 -0.10127672161E+02 -0.22297831486E+02  0.24490098854E+02  0.51100000000E-03 0.  1.
        -12    1    3    3    0    0 -0.10224613416E+01 -0.79066591147E+01 -0.76453529643E+01  0.11045909084E+02  0.00000000000E+00 0.  1.
</event>
<event>
 7    1  0.3981356E-008  0.4614232E+02  0.7816164E-02  0.1320468E+00
        -11   -1    0    0    0    0  0.00000000000E+00  0.00000000000E+00  0.45593999997E+02  0.45594000000E+02  0.51100000000E-03 0.  1.
         11   -1    0    0    0    0 -0.00000000000E+00 -0.00000000000E+00 -0.45593999997E+02  0.45594000000E+02  0.51100000000E-03 0. -1.
    9900012    2    1    2    0    0  0.40526970006E+02 -0.23164781149E+01  0.19527213013E+02  0.46142318556E+02  0.10000007249E+02 0.  0.
        -12    1    1    2    0    0 -0.40526970006E+02  0.23164781149E+01 -0.19527213013E+02  0.45045681444E+02  0.00000000000E+00 0.  1.
         11    1    3    3    0    0  0.55762618910E+01 -0.40240824400E+00  0.29208279364E+01  0.63077622948E+01  0.51100000000E-03 0. -1.
        -11    1    3    3    0    0  0.23128834260E+02  0.20251801332E+01  0.74923942955E+01  0.24396317372E+02  0.51100000000E-03 0.  1.
        -12    1    3    3    0    0  0.11821873855E+02 -0.39392500041E+01  0.91139907813E+01  0.15438238889E+02  0.00000000000E+00 0.  1.
</event>
<event>
 7    1  0.3981356E-008  0.4614232E+02  0.7816164E-02  0.1320468E+00
        -11   -1    0    0    0    0  0.00000000000E+00  0.00000000000E+00  0.45593999997E+02  0.45594000000E+02  0.51100000000E-03 0.  1.
         11   -1    0    0    0    0 -0.00000000000E+00 -0.00000000000E+00 -0.45593999997E+02  0.45594000000E+02  0.51100000000E-03 0. -1.
    9900012    2    1    2    0    0 -0.24553862152E+02 -0.26001436453E+02 -0.27388804818E+02  0.46142317926E+02  0.10000001501E+02 0.  0.
        -12    1    1    2    0    0  0.24553862152E+02  0.26001436453E+02  0.27388804818E+02  0.45045682074E+02  0.00000000000E+00 0.  1.
         11    1    3    3    0    0 -0.15403982211E+02 -0.16211394490E+02 -0.12226198041E+02  0.25486700415E+02  0.51100000000E-03 0. -1.
        -11    1    3    3    0    0 -0.62090944769E+01 -0.90123421416E+01 -0.12489503772E+02  0.16606109413E+02  0.51100000000E-03 0.  1.
         12    1    3    3    0    0 -0.29407854641E+01 -0.77769982176E+00 -0.26731030044E+01  0.40495080974E+01  0.00000000000E+00 0. -1.
</event>
<event>
 7    1  0.3981356E-008  0.4614232E+02  0.7816164E-02  0.1320468E+00
        -11   -1    0    0    0    0  0.00000000000E+00  0.00000000000E+00  0.45593999997E+02  0.45594000000E+02  0.51100000000E-03 0.  1.
         11   -1    0    0    0    0 -0.00000000000E+00 -0.00000000000E+00 -0.45593999997E+02  0.45594000000E+02  0.51100000000E-03 0. -1.
    9900012    2    1    2    0    0 -0.32128652314E+02 -0.18549729037E+02 -0.25549381445E+02  0.46142316088E+02  0.99999847457E+01 0.  0.
        -12    1    1    2    0    0  0.32128652314E+02  0.18549729037E+02  0.25549381445E+02  0.45045683912E+02  0.00000000000E+00 0.  1.
         11    1    3    3    0    0 -0.12960503543E+02 -0.41148007411E+01 -0.10360531427E+02  0.17095228835E+02  0.51100000000E-03 0. -1.
        -11    1    3    3    0    0 -0.17611285348E+01 -0.16884308609E+01  0.34191713797E+00  0.24635908911E+01  0.51100000000E-03 0.  1.
         12    1    3    3    0    0 -0.17407020236E+02 -0.12746497435E+02 -0.15530767156E+02  0.26583496362E+02  0.00000000000E+00 0. -1.
</event>
<event>
 7    1  0.3981356E-008  0.4614232E+02  0.7816164E-02  0.1320468E+00
        -11   -1    0    0    0    0  0.00000000000E+00  0.00000000000E+00  0.45593999997E+02  0.45594000000E+02  0.51100000000E-03 0.  1.
         11   -1    0    0    0    0 -0.00000000000E+00 -0.00000000000E+00 -0.45593999997E+02  0.45594000000E+02  0.51100000000E-03 0. -1.
    9900012    2    1    2    0    0 -0.74091405753E+01 -0.22926480816E+01 -0.44372985886E+02  0.46142317902E+02  0.10000001283E+02 0.  0.
        -12    1    1    2    0    0  0.74091405753E+01  0.22926480816E+01  0.44372985886E+02  0.45045682098E+02  0.00000000000E+00 0.  1.
         11    1    3    3    0    0 -0.42874190720E+00  0.52976145066E+00 -0.42728488585E-01  0.68285635565E+00  0.51100000000E-03 0. -1.
        -11    1    3    3    0    0 -0.58577393017E+01  0.31661704323E+00 -0.18317032169E+02  0.19233487043E+02  0.51100000000E-03 0.  1.
         12    1    3    3    0    0 -0.11226593663E+01 -0.31390265754E+01 -0.26013225228E+02  0.26225974503E+02  0.00000000000E+00 0. -1.
</event>
<event>
 7    1  0.3981356E-008  0.4614232E+02  0.7816164E-02  0.1320468E+00
        -11   -1    0    0    0    0  0.00000000000E+00  0.00000000000E+00  0.45593999997E+02  0.45594000000E+02  0.51100000000E-03 0.  1.
         11   -1    0    0    0    0 -0.00000000000E+00 -0.00000000000E+00 -0.45593999997E+02  0.45594000000E+02  0.51100000000E-03 0. -1.
    9900012    2    1    2    0    0 -0.11761080285E+02  0.16964478763E+02 -0.40037444779E+02  0.46142317259E+02  0.99999954244E+01 0.  0.
        -12    1    1    2    0    0  0.11761080285E+02 -0.16964478763E+02  0.40037444779E+02  0.45045682741E+02  0.00000000000E+00 0.  1.
         11    1    3    3    0    0 -0.80848085192E+01  0.13215313965E+02 -0.22312131435E+02  0.27163207863E+02  0.51100000000E-03 0. -1.
        -11    1    3    3    0    0 -0.12802681087E+01  0.41316047483E+01 -0.10447585709E+02  0.11307576735E+02  0.51100000000E-03 0.  1.
        -12    1    3    3    0    0 -0.23960036569E+01 -0.38243994956E+00 -0.72777276354E+01  0.76715326613E+01  0.00000000000E+00 0.  1.
</event>
<event>
 7    1  0.3981356E-008  0.4614232E+02  0.7816164E-02  0.1320468E+00
        -11   -1    0    0    0    0  0.00000000000E+00  0.00000000000E+00  0.45593999997E+02  0.45594000000E+02  0.51100000000E-03 0. -1.
         11   -1    0    0    0    0 -0.00000000000E+00 -0.00000000000E+00 -0.45593999997E+02  0.45594000000E+02  0.51100000000E-03 0.  1.
    9900012    2    1    2    0    0 -0.63749160019E+01 -0.44165877128E+02 -0.61521736903E+01  0.46142317658E+02  0.99999990627E+01 0.  0.
        -12    1    1    2    0    0  0.63749160019E+01  0.44165877128E+02  0.61521736903E+01  0.45045682342E+02  0.00000000000E+00 0.  1.
         11    1    3    3    0    0  0.45031435105E-01 -0.14143036860E+02 -0.21448982674E+01  0.14304828146E+02  0.51100000000E-03 0. -1.
        -11    1    3    3    0    0  0.58085757702E+00 -0.36743602227E+00  0.72800052228E+00  0.10011941754E+01  0.51100000000E-03 0.  1.
         12    1    3    3    0    0 -0.70008050141E+01 -0.29655404246E+02 -0.47352759451E+01  0.30836295337E+02  0.00000000000E+00 0. -1.
</event>
<event>
 7    1  0.3981356E-008  0.4614232E+02  0.7816164E-02  0.1320468E+00
        -11   -1    0    0    0    0  0.00000000000E+00  0.00000000000E+00  0.45593999997E+02  0.45594000000E+02  0.51100000000E-03 0.  1.
         11   -1    0    0    0    0 -0.00000000000E+00 -0.00000000000E+00 -0.45593999997E+02  0.45594000000E+02  0.51100000000E-03 0. -1.
    9900012    2    1    2    0    0 -0.10390911577E+02  0.32734246035E+02 -0.29148097239E+02  0.46142317859E+02  0.10000000894E+02 0.  0.
        -12    1    1    2    0    0  0.10390911577E+02 -0.32734246035E+02  0.29148097239E+02  0.45045682141E+02  0.00000000000E+00 0.  1.
         11    1    3    3    0    0 -0.46314523207E+01  0.12900237749E+02 -0.89418817221E+01  0.16365321066E+02  0.51100000000E-03 0.  1.
        -11    1    3    3    0    0 -0.69671730341E+01  0.16465355009E+02 -0.14400619178E+02  0.22957074043E+02  0.51100000000E-03 0. -1.
        -12    1    3    3    0    0  0.12077137779E+01  0.33686532768E+01 -0.58055963395E+01  0.68199227507E+01  0.00000000000E+00 0.  1.
</event>
<event>
 7    1  0.3981356E-008  0.4614232E+02  0.7816164E-02  0.1320468E+00
        -11   -1    0    0    0    0  0.00000000000E+00  0.00000000000E+00  0.45593999997E+02  0.45594000000E+02  0.51100000000E-03 0.  1.
         11   -1    0    0    0    0 -0.00000000000E+00 -0.00000000000E+00 -0.45593999997E+02  0.45594000000E+02  0.51100000000E-03 0. -1.
    9900012    2    1    2    0    0  0.72893793299E+01 -0.43849019395E+02 -0.72967079338E+01  0.46142317637E+02  0.99999988638E+01 0.  0.
        -12    1    1    2    0    0 -0.72893793299E+01  0.43849019395E+02  0.72967079338E+01  0.45045682363E+02  0.00000000000E+00 0.  1.
         11    1    3    3    0    0  0.15268083273E+01 -0.43179110912E+01 -0.22725953891E+01  0.51127477860E+01  0.51100000000E-03 0. -1.
        -11    1    3    3    0    0  0.31705389475E+01 -0.18132083720E+02 -0.62499434961E+01  0.19439304803E+02  0.51100000000E-03 0.  1.
        -12    1    3    3    0    0  0.25920320550E+01 -0.21399024583E+02  0.12258309514E+01  0.21590265047E+02  0.00000000000E+00 0.  1.
</event>
<event>
 7    1  0.3981356E-008  0.4614232E+02  0.7816164E-02  0.1320468E+00
        -11   -1    0    0    0    0  0.00000000000E+00  0.00000000000E+00  0.45593999997E+02  0.45594000000E+02  0.51100000000E-03 0.  1.
         11   -1    0    0    0    0 -0.00000000000E+00 -0.00000000000E+00 -0.45593999997E+02  0.45594000000E+02  0.51100000000E-03 0. -1.
    9900012    2    1    2    0    0  0.66402265477E+01  0.44551893130E+02 -0.38689872823E+00  0.46142317846E+02  0.10000000777E+02 0.  0.
        -12    1    1    2    0    0 -0.66402265477E+01 -0.44551893130E+02  0.38689872823E+00  0.45045682154E+02  0.00000000000E+00 0.  1.
         11    1    3    3    0    0  0.81877139209E+00  0.14850080104E+02 -0.18718327611E+01  0.14989964104E+02  0.51100000000E-03 0.  1.
        -11    1    3    3    0    0  0.18408975043E+01  0.20131641816E+02  0.37048126841E+01  0.20552312354E+02  0.51100000000E-03 0. -1.
         12    1    3    3    0    0  0.39805576513E+01  0.95701712103E+01 -0.22198786512E+01  0.10600041388E+02  0.00000000000E+00 0. -1.
</event>
<event>
 7    1  0.3981356E-008  0.4614232E+02  0.7816164E-02  0.1320468E+00
        -11   -1    0    0    0    0  0.00000000000E+00  0.00000000000E+00  0.45593999997E+02  0.45594000000E+02  0.51100000000E-03 0. -1.
         11   -1    0    0    0    0 -0.00000000000E+00 -0.00000000000E+00 -0.45593999997E+02  0.45594000000E+02  0.51100000000E-03 0.  1.
    9900012    2    1    2    0    0  0.30645429970E+02  0.45291521450E+01  0.32702568706E+02  0.46142316553E+02  0.99999889817E+01 0.  0.
        -12    1    1    2    0    0 -0.30645429970E+02 -0.45291521450E+01 -0.32702568706E+02  0.45045683447E+02  0.00000000000E+00 0.  1.
         11    1    3    3    0    0  0.16550109011E+02 -0.15438281731E+00  0.19739763290E+02  0.25760205693E+02  0.51100000000E-03 0. -1.
        -11    1    3    3    0    0  0.65542731825E+00  0.18002298945E+01  0.22481527524E+01  0.29537440142E+01  0.51100000000E-03 0.  1.
        -12    1    3    3    0    0  0.13439893641E+02  0.28833050678E+01  0.10714652664E+02  0.17428366846E+02  0.00000000000E+00 0.  1.
</event>
<event>
 7    1  0.3981356E-008  0.4614232E+02  0.7816164E-02  0.1320468E+00
        -11   -1    0    0    0    0  0.00000000000E+00  0.00000000000E+00  0.45593999997E+02  0.45594000000E+02  0.51100000000E-03 0. -1.
         11   -1    0    0    0    0 -0.00000000000E+00 -0.00000000000E+00 -0.45593999997E+02  0.45594000000E+02  0.51100000000E-03 0.  1.
    9900012    2    1    2    0    0  0.28359448569E+01  0.37592705922E+02  0.24654806793E+02  0.46142316302E+02  0.99999866983E+01 0.  0.
        -12    1    1    2    0    0 -0.28359448569E+01 -0.37592705922E+02 -0.24654806793E+02  0.45045683698E+02  0.00000000000E+00 0.  1.
         11    1    3    3    0    0 -0.12196442003E+01  0.14226373573E+01  0.74800489689E+00  0.20176572089E+01  0.51100000000E-03 0. -1.
        -11    1    3    3    0    0  0.63004691498E+00  0.23951806228E+01 -0.20488999658E+00  0.24851216274E+01  0.51100000000E-03 0.  1.
         12    1    3    3    0    0  0.34255421421E+01  0.33774887942E+02  0.24111691893E+02  0.41639537466E+02  0.00000000000E+00 0. -1.
</event>
<event>
 7    1  0.3981356E-008  0.4614232E+02  0.7816164E-02  0.1320468E+00
        -11   -1    0    0    0    0  0.00000000000E+00  0.00000000000E+00  0.45593999997E+02  0.45594000000E+02  0.51100000000E-03 0.  1.
         11   -1    0    0    0    0 -0.00000000000E+00 -0.00000000000E+00 -0.45593999997E+02  0.45594000000E+02  0.51100000000E-03 0. -1.
    9900012    2    1    2    0    0 -0.42423422809E+02  0.12574464072E+02  0.84409406982E+01  0.46142318416E+02  0.10000005970E+02 0.  0.
        -12    1    1    2    0    0  0.42423422809E+02 -0.12574464072E+02 -0.84409406982E+01  0.45045681584E+02  0.00000000000E+00 0.  1.
         11    1    3    3    0    0 -0.17584466483E+02  0.20623788389E+01  0.33588301090E+01  0.18020782667E+02  0.51100000000E-03 0. -1.
        -11    1    3    3    0    0 -0.10003762075E+02  0.51797350633E+01  0.50787185812E+01  0.12357115103E+02  0.51100000000E-03 0.  1.
        -12    1    3    3    0    0 -0.14835194250E+02  0.53323501702E+01  0.33920079922E-02  0.15764420646E+02  0.00000000000E+00 0.  1.
</event>
<event>
 7    1  0.3981356E-008  0.4614232E+02  0.7816164E-02  0.1320468E+00
        -11   -1    0    0    0    0  0.00000000000E+00  0.00000000000E+00  0.45593999997E+02  0.45594000000E+02  0.51100000000E-03 0.  1.
         11   -1    0    0    0    0 -0.00000000000E+00 -0.00000000000E+00 -0.45593999997E+02  0.45594000000E+02  0.51100000000E-03 0. -1.
    9900012    2    1    2    0    0  0.15381086787E+02 -0.27280697907E+02 -0.32377448887E+02  0.46142317572E+02  0.99999982730E+01 0.  0.
        -12    1    1    2    0    0 -0.15381086787E+02  0.27280697907E+02  0.32377448887E+02  0.45045682428E+02  0.00000000000E+00 0.  1.
         11    1    3    3    0    0  0.11533586673E+00 -0.25517485646E+01 -0.20546176110E+01  0.32781361911E+01  0.51100000000E-03 0. -1.
        -11    1    3    3    0    0  0.14290685161E+01 -0.86490851720E+00 -0.55227403102E+01  0.57698322647E+01  0.51100000000E-03 0.  1.
         12    1    3    3    0    0  0.13836682404E+02 -0.23864040825E+02 -0.24800090966E+02  0.37094349116E+02  0.00000000000E+00 0. -1.
</event>
<event>
 7    1  0.3981356E-008  0.4614232E+02  0.7816164E-02  0.1320468E+00
        -11   -1    0    0    0    0  0.00000000000E+00  0.00000000000E+00  0.45593999997E+02  0.45594000000E+02  0.51100000000E-03 0.  1.
         11   -1    0    0    0    0 -0.00000000000E+00 -0.00000000000E+00 -0.45593999997E+02  0.45594000000E+02  0.51100000000E-03 0. -1.
    9900012    2    1    2    0    0 -0.25635574662E+02  0.22780154503E+02 -0.29206084057E+02  0.46142317927E+02  0.10000001517E+02 0.  0.
        -12    1    1    2    0    0  0.25635574662E+02 -0.22780154503E+02  0.29206084057E+02  0.45045682073E+02  0.00000000000E+00 0.  1.
         11    1    3    3    0    0 -0.10301182129E+01  0.11409956407E+01 -0.64303304638E+00  0.16662851931E+01  0.51100000000E-03 0. -1.
        -11    1    3    3    0    0 -0.72019368069E+01  0.11545969063E+02 -0.14771542806E+02  0.20084217000E+02  0.51100000000E-03 0.  1.
         12    1    3    3    0    0 -0.17403519642E+02  0.10093189799E+02 -0.13791508205E+02  0.24391815734E+02  0.00000000000E+00 0. -1.
</event>
<event>
 7    1  0.3981356E-008  0.4614232E+02  0.7816164E-02  0.1320468E+00
        -11   -1    0    0    0    0  0.00000000000E+00  0.00000000000E+00  0.45593999997E+02  0.45594000000E+02  0.51100000000E-03 0.  1.
         11   -1    0    0    0    0 -0.00000000000E+00 -0.00000000000E+00 -0.45593999997E+02  0.45594000000E+02  0.51100000000E-03 0. -1.
    9900012    2    1    2    0    0  0.14514030409E+02 -0.33830983069E+02 -0.25959987115E+02  0.46142318463E+02  0.10000006400E+02 0.  0.
        -12    1    1    2    0    0 -0.14514030409E+02  0.33830983069E+02  0.25959987115E+02  0.45045681537E+02  0.00000000000E+00 0.  1.
         11    1    3    3    0    0  0.69827062223E+00 -0.69540694522E+01 -0.66976818630E+01  0.96801656188E+01  0.51100000000E-03 0. -1.
        -11    1    3    3    0    0  0.23240043340E+01 -0.10247780541E+02 -0.44955317750E+01  0.11429252310E+02  0.51100000000E-03 0.  1.
         12    1    3    3    0    0  0.11491755453E+02 -0.16629133076E+02 -0.14766773477E+02  0.25032900534E+02  0.00000000000E+00 0. -1.
</event>
<event>
 7    1  0.3981356E-008  0.4614232E+02  0.7816164E-02  0.1320468E+00
        -11   -1    0    0    0    0  0.00000000000E+00  0.00000000000E+00  0.45593999997E+02  0.45594000000E+02  0.51100000000E-03 0.  1.
         11   -1    0    0    0    0 -0.00000000000E+00 -0.00000000000E+00 -0.45593999997E+02  0.45594000000E+02  0.51100000000E-03 0. -1.
    9900012    2    1    2    0    0  0.38699845972E+02 -0.10260874497E+02 -0.20643396156E+02  0.46142318425E+02  0.10000006058E+02 0.  0.
        -12    1    1    2    0    0 -0.38699845972E+02  0.10260874497E+02  0.20643396156E+02  0.45045681575E+02  0.00000000000E+00 0.  1.
         11    1    3    3    0    0  0.24556387196E+02 -0.61342606810E+01 -0.11505340660E+02  0.27803204315E+02  0.51100000000E-03 0. -1.
        -11    1    3    3    0    0  0.87345290560E+01 -0.48425006247E+01 -0.37412509052E+01  0.10664837961E+02  0.51100000000E-03 0.  1.
         12    1    3    3    0    0  0.54089297201E+01  0.71588680879E+00 -0.53968045904E+01  0.76742761500E+01  0.00000000000E+00 0. -1.
</event>
<event>
 7    1  0.3981356E-008  0.4614232E+02  0.7816164E-02  0.1320468E+00
        -11   -1    0    0    0    0  0.00000000000E+00  0.00000000000E+00  0.45593999997E+02  0.45594000000E+02  0.51100000000E-03 0. -1.
         11   -1    0    0    0    0 -0.00000000000E+00 -0.00000000000E+00 -0.45593999997E+02  0.45594000000E+02  0.51100000000E-03 0.  1.
    9900012    2    1    2    0    0 -0.14636686681E+02  0.41035159340E+02 -0.11445371706E+02  0.46142318380E+02  0.10000005647E+02 0.  0.
        -12    1    1    2    0    0  0.14636686681E+02 -0.41035159340E+02  0.11445371706E+02  0.45045681620E+02  0.00000000000E+00 0.  1.
         11    1    3    3    0    0 -0.11825347871E+01  0.42437904059E+01 -0.51187508237E+00  0.44351056236E+01  0.51100000000E-03 0. -1.
        -11    1    3    3    0    0 -0.12295450276E+02  0.21652157842E+02 -0.86139845073E+01  0.26347576095E+02  0.51100000000E-03 0.  1.
        -12    1    3    3    0    0 -0.11587016180E+01  0.15139211092E+02 -0.23195121166E+01  0.15359636662E+02  0.00000000000E+00 0.  1.
</event>
<event>
 7    1  0.3981356E-008  0.4614232E+02  0.7816164E-02  0.1320468E+00
        -11   -1    0    0    0    0  0.00000000000E+00  0.00000000000E+00  0.45593999997E+02  0.45594000000E+02  0.51100000000E-03 0. -1.
         11   -1    0    0    0    0 -0.00000000000E+00 -0.00000000000E+00 -0.45593999997E+02  0.45594000000E+02  0.51100000000E-03 0.  1.
    9900012    2    1    2    0    0  0.43970074915E+02 -0.93016343268E+01  0.30373656168E+01  0.46142317864E+02  0.10000000938E+02 0.  0.
        -12    1    1    2    0    0 -0.43970074915E+02  0.93016343268E+01 -0.30373656168E+01  0.45045682136E+02  0.00000000000E+00 0.  1.
         11    1    3    3    0    0  0.42071391012E+01 -0.32010946773E+01 -0.11072502315E+00  0.52876541908E+01  0.51100000000E-03 0.  1.
        -11    1    3    3    0    0  0.24435191440E+02 -0.67888440381E+01  0.12104508794E+01  0.25389607631E+02  0.51100000000E-03 0. -1.
        -12    1    3    3    0    0  0.15327744375E+02  0.68830438861E+00  0.19376397606E+01  0.15465056042E+02  0.00000000000E+00 0.  1.
</event>
<event>
 7    1  0.3981356E-008  0.4614232E+02  0.7816164E-02  0.1320468E+00
        -11   -1    0    0    0    0  0.00000000000E+00  0.00000000000E+00  0.45593999997E+02  0.45594000000E+02  0.51100000000E-03 0.  1.
         11   -1    0    0    0    0 -0.00000000000E+00 -0.00000000000E+00 -0.45593999997E+02  0.45594000000E+02  0.51100000000E-03 0. -1.
    9900012    2    1    2    0    0 -0.44494149398E+02  0.64546948348E+01 -0.27786773634E+01  0.46142318032E+02  0.10000002475E+02 0.  0.
        -12    1    1    2    0    0  0.44494149398E+02 -0.64546948348E+01  0.27786773634E+01  0.45045681968E+02  0.00000000000E+00 0.  1.
         11    1    3    3    0    0 -0.13053754109E+02  0.98892915889E+00  0.25785384923E+01  0.13342688568E+02  0.51100000000E-03 0.  1.
        -11    1    3    3    0    0 -0.13461068646E+02  0.10435210172E+01  0.83115303892E-01  0.13501711508E+02  0.51100000000E-03 0. -1.
        -12    1    3    3    0    0 -0.17979326642E+02  0.44222446587E+01 -0.54403311595E+01  0.19297917957E+02  0.00000000000E+00 0.  1.
</event>
<event>
 7    1  0.3981356E-008  0.4614232E+02  0.7816164E-02  0.1320468E+00
        -11   -1    0    0    0    0  0.00000000000E+00  0.00000000000E+00  0.45593999997E+02  0.45594000000E+02  0.51100000000E-03 0. -1.
         11   -1    0    0    0    0 -0.00000000000E+00 -0.00000000000E+00 -0.45593999997E+02  0.45594000000E+02  0.51100000000E-03 0.  1.
    9900012    2    1    2    0    0  0.63995322997E+01 -0.89111273690E+01  0.43689258229E+02  0.46142317751E+02  0.99999999114E+01 0.  0.
        -12    1    1    2    0    0 -0.63995322997E+01  0.89111273690E+01 -0.43689258229E+02  0.45045682249E+02  0.00000000000E+00 0.  1.
         11    1    3    3    0    0  0.14346915720E+01 -0.34280303801E+01  0.39267817387E+01  0.54064172312E+01  0.51100000000E-03 0.  1.
        -11    1    3    3    0    0  0.39087058052E+01 -0.46659470469E+01  0.19463737973E+02  0.20393286618E+02  0.51100000000E-03 0. -1.
        -12    1    3    3    0    0  0.10561349226E+01 -0.81714994190E+00  0.20298738517E+02  0.20342613902E+02  0.00000000000E+00 0.  1.
</event>
<event>
 7    1  0.3981356E-008  0.4614232E+02  0.7816164E-02  0.1320468E+00
        -11   -1    0    0    0    0  0.00000000000E+00  0.00000000000E+00  0.45593999997E+02  0.45594000000E+02  0.51100000000E-03 0.  1.
         11   -1    0    0    0    0 -0.00000000000E+00 -0.00000000000E+00 -0.45593999997E+02  0.45594000000E+02  0.51100000000E-03 0. -1.
    9900012    2    1    2    0    0 -0.17805263725E+02 -0.28314068901E+02 -0.30172828178E+02  0.46142317917E+02  0.10000001423E+02 0.  0.
        -12    1    1    2    0    0  0.17805263725E+02  0.28314068901E+02  0.30172828178E+02  0.45045682083E+02  0.00000000000E+00 0.  1.
         11    1    3    3    0    0 -0.43181636528E+01 -0.55332175040E+01 -0.11678938221E+02  0.13625734164E+02  0.51100000000E-03 0. -1.
        -11    1    3    3    0    0 -0.14819170582E+01 -0.49524651605E+01 -0.26118488917E+01  0.57917824742E+01  0.51100000000E-03 0.  1.
         12    1    3    3    0    0 -0.12005183014E+02 -0.17828386236E+02 -0.15882041065E+02  0.26724801279E+02  0.00000000000E+00 0. -1.
</event>
<event>
 7    1  0.3981356E-008  0.4614232E+02  0.7816164E-02  0.1320468E+00
        -11   -1    0    0    0    0  0.00000000000E+00  0.00000000000E+00  0.45593999997E+02  0.45594000000E+02  0.51100000000E-03 0.  1.
         11   -1    0    0    0    0 -0.00000000000E+00 -0.00000000000E+00 -0.45593999997E+02  0.45594000000E+02  0.51100000000E-03 0. -1.
    9900012    2    1    2    0    0 -0.16760657031E+02 -0.40474485695E+02 -0.10488549791E+02  0.46142319928E+02  0.10000019761E+02 0.  0.
        -12    1    1    2    0    0  0.16760657031E+02  0.40474485695E+02  0.10488549791E+02  0.45045680072E+02  0.00000000000E+00 0.  1.
         11    1    3    3    0    0 -0.21107719320E+01 -0.98410901054E+01  0.96700795309E+00  0.10111256957E+02  0.51100000000E-03 0. -1.
        -11    1    3    3    0    0 -0.32097252322E+00 -0.20779291361E+01 -0.14424672527E+01  0.25498087951E+01  0.51100000000E-03 0.  1.
        -12    1    3    3    0    0 -0.14328912576E+02 -0.28555466454E+02 -0.10013090492E+02  0.33481254176E+02  0.00000000000E+00 0.  1.
</event>
<event>
 7    1  0.3981356E-008  0.4614232E+02  0.7816164E-02  0.1320468E+00
        -11   -1    0    0    0    0  0.00000000000E+00  0.00000000000E+00  0.45593999997E+02  0.45594000000E+02  0.51100000000E-03 0.  1.
         11   -1    0    0    0    0 -0.00000000000E+00 -0.00000000000E+00 -0.45593999997E+02  0.45594000000E+02  0.51100000000E-03 0. -1.
    9900012    2    1    2    0    0 -0.10718649008E+02 -0.33215190204E+02 -0.28477626546E+02  0.46142317515E+02  0.99999977595E+01 0.  0.
        -12    1    1    2    0    0  0.10718649008E+02  0.33215190204E+02  0.28477626546E+02  0.45045682485E+02  0.00000000000E+00 0.  1.
         11    1    3    3    0    0 -0.18711616123E+01 -0.85459210168E+01 -0.49585998303E+01  0.10055929810E+02  0.51100000000E-03 0. -1.
        -11    1    3    3    0    0 -0.83818914183E+01 -0.23916777406E+02 -0.19515663711E+02  0.31986395164E+02  0.51100000000E-03 0.  1.
        -12    1    3    3    0    0 -0.46559597713E+00 -0.75249178064E+00 -0.40033630044E+01  0.40999925413E+01  0.00000000000E+00 0.  1.
</event>
<event>
 7    1  0.3981356E-008  0.4614232E+02  0.7816164E-02  0.1320468E+00
        -11   -1    0    0    0    0  0.00000000000E+00  0.00000000000E+00  0.45593999997E+02  0.45594000000E+02  0.51100000000E-03 0.  1.
         11   -1    0    0    0    0 -0.00000000000E+00 -0.00000000000E+00 -0.45593999997E+02  0.45594000000E+02  0.51100000000E-03 0. -1.
    9900012    2    1    2    0    0 -0.21024441702E+02  0.38599559510E+02 -0.98569922257E+01  0.46142318309E+02  0.10000004998E+02 0.  0.
        -12    1    1    2    0    0  0.21024441702E+02 -0.38599559510E+02  0.98569922257E+01  0.45045681691E+02  0.00000000000E+00 0.  1.
         11    1    3    3    0    0  0.32436467576E-01  0.96834307868E+00 -0.50739942936E+00  0.10937069463E+01  0.51100000000E-03 0. -1.
        -11    1    3    3    0    0 -0.11070672600E+02  0.12617292223E+02 -0.63578746917E+01  0.17949329395E+02  0.51100000000E-03 0.  1.
        -12    1    3    3    0    0 -0.99862055693E+01  0.25013924208E+02 -0.29917181047E+01  0.27099281968E+02  0.00000000000E+00 0.  1.
</event>
<event>
 7    1  0.3981356E-008  0.4614232E+02  0.7816164E-02  0.1320468E+00
        -11   -1    0    0    0    0  0.00000000000E+00  0.00000000000E+00  0.45593999997E+02  0.45594000000E+02  0.51100000000E-03 0. -1.
         11   -1    0    0    0    0 -0.00000000000E+00 -0.00000000000E+00 -0.45593999997E+02  0.45594000000E+02  0.51100000000E-03 0.  1.
    9900012    2    1    2    0    0  0.32021748726E+02 -0.31525743904E+02 -0.31382556246E+01  0.46142316871E+02  0.99999918876E+01 0.  0.
        -12    1    1    2    0    0 -0.32021748726E+02  0.31525743904E+02  0.31382556246E+01  0.45045683129E+02  0.00000000000E+00 0.  1.
         11    1    3    3    0    0  0.22681312191E+02 -0.25671849600E+02  0.91240330615E+00  0.34268327427E+02  0.51100000000E-03 0. -1.
        -11    1    3    3    0    0  0.25337275845E+01 -0.16472820580E+01 -0.19655673250E+01  0.36051031637E+01  0.51100000000E-03 0.  1.
         12    1    3    3    0    0  0.68067089497E+01 -0.42066122461E+01 -0.20850916058E+01  0.82688862805E+01  0.00000000000E+00 0. -1.
</event>
<event>
 7    1  0.3981356E-008  0.4614232E+02  0.7816164E-02  0.1320468E+00
        -11   -1    0    0    0    0  0.00000000000E+00  0.00000000000E+00  0.45593999997E+02  0.45594000000E+02  0.51100000000E-03 0.  1.
         11   -1    0    0    0    0 -0.00000000000E+00 -0.00000000000E+00 -0.45593999997E+02  0.45594000000E+02  0.51100000000E-03 0. -1.
    9900012    2    1    2    0    0 -0.36693164639E+02  0.22302004246E+02 -0.13614176905E+02  0.46142317217E+02  0.99999950340E+01 0.  0.
        -12    1    1    2    0    0  0.36693164639E+02 -0.22302004246E+02  0.13614176905E+02  0.45045682783E+02  0.00000000000E+00 0.  1.
         11    1    3    3    0    0 -0.15173796263E+02  0.10382677752E+02 -0.42683567825E+01  0.18874929410E+02  0.51100000000E-03 0. -1.
        -11    1    3    3    0    0 -0.63862148618E+01  0.21977318156E+01  0.48178691014E+00  0.67709588894E+01  0.51100000000E-03 0.  1.
         12    1    3    3    0    0 -0.15133153514E+02  0.97215946785E+01 -0.98276070327E+01  0.20496428917E+02  0.00000000000E+00 0. -1.
</event>
<event>
 7    1  0.3981356E-008  0.4614232E+02  0.7816164E-02  0.1320468E+00
        -11   -1    0    0    0    0  0.00000000000E+00  0.00000000000E+00  0.45593999997E+02  0.45594000000E+02  0.51100000000E-03 0.  1.
         11   -1    0    0    0    0 -0.00000000000E+00 -0.00000000000E+00 -0.45593999997E+02  0.45594000000E+02  0.51100000000E-03 0. -1.
    9900012    2    1    2    0    0  0.30003913956E+02 -0.24920345071E+02 -0.22535639909E+02  0.46142317441E+02  0.99999970791E+01 0.  0.
        -12    1    1    2    0    0 -0.30003913956E+02  0.24920345071E+02  0.22535639909E+02  0.45045682559E+02  0.00000000000E+00 0.  1.
         11    1    3    3    0    0  0.75998642783E+01 -0.30921450637E+01 -0.40275668191E+01  0.91400543153E+01  0.51100000000E-03 0. -1.
        -11    1    3    3    0    0  0.13189162561E+02 -0.16206174191E+02 -0.14732991496E+02  0.25566680067E+02  0.51100000000E-03 0.  1.
        -12    1    3    3    0    0  0.92148871163E+01 -0.56220258163E+01 -0.37750815938E+01  0.11435583058E+02  0.00000000000E+00 0.  1.
</event>
<event>
 7    1  0.3981356E-008  0.4614232E+02  0.7816164E-02  0.1320468E+00
        -11   -1    0    0    0    0  0.00000000000E+00  0.00000000000E+00  0.45593999997E+02  0.45594000000E+02  0.51100000000E-03 0.  1.
         11   -1    0    0    0    0 -0.00000000000E+00 -0.00000000000E+00 -0.45593999997E+02  0.45594000000E+02  0.51100000000E-03 0. -1.
    9900012    2    1    2    0    0  0.14621375729E+02  0.39386092977E+01 -0.42424240762E+02  0.46142317903E+02  0.10000001292E+02 0.  0.
        -12    1    1    2    0    0 -0.14621375729E+02 -0.39386092977E+01  0.42424240762E+02  0.45045682097E+02  0.00000000000E+00 0.  1.
         11    1    3    3    0    0  0.23358131480E+01 -0.15562821476E+01 -0.93797882970E+01  0.97907336774E+01  0.51100000000E-03 0.  1.
        -11    1    3    3    0    0  0.35975756323E+01  0.36490369010E+01 -0.60232633427E+01  0.79080795577E+01  0.51100000000E-03 0. -1.
         12    1    3    3    0    0  0.86879869485E+01  0.18458545443E+01 -0.27021189122E+02  0.28443504668E+02  0.00000000000E+00 0. -1.
</event>
<event>
 7    1  0.3981356E-008  0.4614232E+02  0.7816164E-02  0.1320468E+00
        -11   -1    0    0    0    0  0.00000000000E+00  0.00000000000E+00  0.45593999997E+02  0.45594000000E+02  0.51100000000E-03 0.  1.
         11   -1    0    0    0    0 -0.00000000000E+00 -0.00000000000E+00 -0.45593999997E+02  0.45594000000E+02  0.51100000000E-03 0. -1.
    9900012    2    1    2    0    0  0.83815484593E+01  0.13585491072E+02 -0.42122414514E+02  0.46142315115E+02  0.99999758687E+01 0.  0.
        -12    1    1    2    0    0 -0.83815484593E+01 -0.13585491072E+02  0.42122414514E+02  0.45045684885E+02  0.00000000000E+00 0.  1.
         11    1    3    3    0    0  0.37225440583E+01  0.17459009025E+01 -0.65095840341E+01  0.76993628817E+01  0.51100000000E-03 0.  1.
        -11    1    3    3    0    0  0.35478698684E+01  0.53268185553E+01 -0.91394452953E+01  0.11157591007E+02  0.51100000000E-03 0. -1.
        -12    1    3    3    0    0  0.11111345327E+01  0.65127716148E+01 -0.26473385185E+02  0.27285361226E+02  0.00000000000E+00 0.  1.
</event>
<event>
 7    1  0.3981356E-008  0.4614232E+02  0.7816164E-02  0.1320468E+00
        -11   -1    0    0    0    0  0.00000000000E+00  0.00000000000E+00  0.45593999997E+02  0.45594000000E+02  0.51100000000E-03 0.  1.
         11   -1    0    0    0    0 -0.00000000000E+00 -0.00000000000E+00 -0.45593999997E+02  0.45594000000E+02  0.51100000000E-03 0. -1.
    9900012    2    1    2    0    0 -0.56170907166E+01 -0.34660487548E+02 -0.28217236471E+02  0.46142317196E+02  0.99999948476E+01 0.  0.
        -12    1    1    2    0    0  0.56170907166E+01  0.34660487548E+02  0.28217236471E+02  0.45045682804E+02  0.00000000000E+00 0.  1.
         11    1    3    3    0    0 -0.37498460739E+01 -0.63762608304E+01 -0.70068779111E+01  0.10188934492E+02  0.51100000000E-03 0. -1.
        -11    1    3    3    0    0  0.16985896789E+01 -0.27827827576E+01 -0.19664971685E+01  0.38073873126E+01  0.51100000000E-03 0.  1.
         12    1    3    3    0    0 -0.35658343217E+01 -0.25501443960E+02 -0.19243861392E+02  0.32145995392E+02  0.00000000000E+00 0. -1.
</event>
<event>
 7    1  0.3981356E-008  0.4614232E+02  0.7816164E-02  0.1320468E+00
        -11   -1    0    0    0    0  0.00000000000E+00  0.00000000000E+00  0.45593999997E+02  0.45594000000E+02  0.51100000000E-03 0. -1.
         11   -1    0    0    0    0 -0.00000000000E+00 -0.00000000000E+00 -0.45593999997E+02  0.45594000000E+02  0.51100000000E-03 0.  1.
    9900012    2    1    2    0    0 -0.44314762605E+02  0.76885288848E+01 -0.24903464901E+01  0.46142317778E+02  0.10000000155E+02 0.  0.
        -12    1    1    2    0    0  0.44314762605E+02 -0.76885288848E+01  0.24903464901E+01  0.45045682222E+02  0.00000000000E+00 0.  1.
         11    1    3    3    0    0 -0.23994038986E+02  0.36618331397E+00  0.72189511520E+00  0.24007688975E+02  0.51100000000E-03 0. -1.
        -11    1    3    3    0    0 -0.37556676662E+01  0.26463550411E+01  0.15053054182E+00  0.45968352513E+01  0.51100000000E-03 0.  1.
         12    1    3    3    0    0 -0.16565055953E+02  0.46759905298E+01 -0.33627721472E+01  0.17537793552E+02  0.00000000000E+00 0. -1.
</event>
<event>
 7    1  0.3981356E-008  0.4614232E+02  0.7816164E-02  0.1320468E+00
        -11   -1    0    0    0    0  0.00000000000E+00  0.00000000000E+00  0.45593999997E+02  0.45594000000E+02  0.51100000000E-03 0.  1.
         11   -1    0    0    0    0 -0.00000000000E+00 -0.00000000000E+00 -0.45593999997E+02  0.45594000000E+02  0.51100000000E-03 0. -1.
    9900012    2    1    2    0    0 -0.41078733487E+02 -0.17775398555E+02 -0.50681708688E+01  0.46142317691E+02  0.99999993629E+01 0.  0.
        -12    1    1    2    0    0  0.41078733487E+02  0.17775398555E+02  0.50681708688E+01  0.45045682309E+02  0.00000000000E+00 0.  1.
         11    1    3    3    0    0 -0.88059492612E+01 -0.23223370091E+00 -0.13329122188E+01  0.89092833677E+01  0.51100000000E-03 0. -1.
        -11    1    3    3    0    0 -0.68461868677E+01 -0.58633102896E+01 -0.17473374236E+01  0.91816050074E+01  0.51100000000E-03 0.  1.
         12    1    3    3    0    0 -0.25426597358E+02 -0.11679854565E+02 -0.19879212264E+01  0.28051429316E+02  0.00000000000E+00 0. -1.
</event>
<event>
 7    1  0.3981356E-008  0.4614232E+02  0.7816164E-02  0.1320468E+00
        -11   -1    0    0    0    0  0.00000000000E+00  0.00000000000E+00  0.45593999997E+02  0.45594000000E+02  0.51100000000E-03 0.  1.
         11   -1    0    0    0    0 -0.00000000000E+00 -0.00000000000E+00 -0.45593999997E+02  0.45594000000E+02  0.51100000000E-03 0. -1.
    9900012    2    1    2    0    0 -0.37699725762E+02  0.14551871489E+02 -0.19901939194E+02  0.46142317964E+02  0.10000001852E+02 0.  0.
        -12    1    1    2    0    0  0.37699725762E+02 -0.14551871489E+02  0.19901939194E+02  0.45045682036E+02  0.00000000000E+00 0.  1.
         11    1    3    3    0    0 -0.68538751298E+01  0.32350506617E+01 -0.61611940252E+01  0.97673675653E+01  0.51100000000E-03 0. -1.
        -11    1    3    3    0    0 -0.42762439298E+01 -0.52305705958E+00 -0.34526002216E+01  0.55208966107E+01  0.51100000000E-03 0.  1.
         12    1    3    3    0    0 -0.26569606703E+02  0.11839877887E+02 -0.10288144948E+02  0.30854053788E+02  0.00000000000E+00 0. -1.
</event>
<event>
 7    1  0.3981356E-008  0.4614232E+02  0.7816164E-02  0.1320468E+00
        -11   -1    0    0    0    0  0.00000000000E+00  0.00000000000E+00  0.45593999997E+02  0.45594000000E+02  0.51100000000E-03 0.  1.
         11   -1    0    0    0    0 -0.00000000000E+00 -0.00000000000E+00 -0.45593999997E+02  0.45594000000E+02  0.51100000000E-03 0. -1.
    9900012    2    1    2    0    0  0.23310916886E+02 -0.53012479875E+01 -0.38178676459E+02  0.46142318604E+02  0.10000007685E+02 0.  0.
        -12    1    1    2    0    0 -0.23310916886E+02  0.53012479875E+01  0.38178676459E+02  0.45045681396E+02  0.00000000000E+00 0.  1.
         11    1    3    3    0    0  0.12560815044E+02 -0.47846409822E+01 -0.20471369466E+02  0.24489667862E+02  0.51100000000E-03 0. -1.
        -11    1    3    3    0    0  0.47969974303E+01 -0.43974398685E+00 -0.27334327075E+01  0.55386111750E+01  0.51100000000E-03 0.  1.
         12    1    3    3    0    0  0.59531044120E+01 -0.76863018441E-01 -0.14973874285E+02  0.16114039567E+02  0.00000000000E+00 0. -1.
</event>
<event>
 7    1  0.3981356E-008  0.4614231E+02  0.7816164E-02  0.1320468E+00
        -11   -1    0    0    0    0  0.00000000000E+00  0.00000000000E+00  0.45593999997E+02  0.45594000000E+02  0.51100000000E-03 0. -1.
         11   -1    0    0    0    0 -0.00000000000E+00 -0.00000000000E+00 -0.45593999997E+02  0.45594000000E+02  0.51100000000E-03 0.  1.
    9900012    2    1    2    0    0  0.36514965821E+02 -0.24980129091E+02  0.84713898191E+01  0.46142311819E+02  0.99999458125E+01 0.  0.
        -12    1    1    2    0    0 -0.36514965821E+02  0.24980129091E+02 -0.84713898191E+01  0.45045688181E+02  0.00000000000E+00 0.  1.
         11    1    3    3    0    0  0.29773530222E+02 -0.19399415386E+02  0.70596299746E+01  0.36230357365E+02  0.51100000000E-03 0. -1.
        -11    1    3    3    0    0  0.49638087354E+01 -0.33398710334E+01 -0.11263323944E+01  0.60879192345E+01  0.51100000000E-03 0.  1.
         12    1    3    3    0    0  0.17776268636E+01 -0.22408426715E+01  0.25380922389E+01  0.38240352192E+01  0.00000000000E+00 0. -1.
</event>
<event>
 7    1  0.3981356E-008  0.4614232E+02  0.7816164E-02  0.1320468E+00
        -11   -1    0    0    0    0  0.00000000000E+00  0.00000000000E+00  0.45593999997E+02  0.45594000000E+02  0.51100000000E-03 0. -1.
         11   -1    0    0    0    0 -0.00000000000E+00 -0.00000000000E+00 -0.45593999997E+02  0.45594000000E+02  0.51100000000E-03 0.  1.
    9900012    2    1    2    0    0  0.18791177393E+02  0.10122765749E+02  0.39667806187E+02  0.46142316722E+02  0.99999905269E+01 0.  0.
        -12    1    1    2    0    0 -0.18791177393E+02 -0.10122765749E+02 -0.39667806187E+02  0.45045683278E+02  0.00000000000E+00 0.  1.
         11    1    3    3    0    0  0.77847846694E+01  0.22854499172E+01  0.19679935895E+02  0.21286757169E+02  0.51100000000E-03 0. -1.
        -11    1    3    3    0    0  0.20626456834E+01  0.11236564966E+01  0.85189033706E+01  0.88367882195E+01  0.51100000000E-03 0.  1.
        -12    1    3    3    0    0  0.89437470407E+01  0.67136593354E+01  0.11468966922E+02  0.16018771334E+02  0.00000000000E+00 0.  1.
</event>
<event>
 7    1  0.3981356E-008  0.4614232E+02  0.7816164E-02  0.1320468E+00
        -11   -1    0    0    0    0  0.00000000000E+00  0.00000000000E+00  0.45593999997E+02  0.45594000000E+02  0.51100000000E-03 0.  1.
         11   -1    0    0    0    0 -0.00000000000E+00 -0.00000000000E+00 -0.45593999997E+02  0.45594000000E+02  0.51100000000E-03 0. -1.
    9900012    2    1    2    0    0  0.13548082107E+02 -0.23553043461E+02 -0.35927945191E+02  0.46142316182E+02  0.99999855964E+01 0.  0.
        -12    1    1    2    0    0 -0.13548082107E+02  0.23553043461E+02  0.35927945191E+02  0.45045683818E+02  0.00000000000E+00 0.  1.
         11    1    3    3    0    0  0.18575998755E+01 -0.13990448686E+01 -0.59311332275E+00  0.23999557322E+01  0.51100000000E-03 0. -1.
        -11    1    3    3    0    0  0.45366531514E+01 -0.13861236092E+02 -0.23127159110E+02  0.27341919768E+02  0.51100000000E-03 0.  1.
         12    1    3    3    0    0  0.71538290799E+01 -0.82927625006E+01 -0.12207672758E+02  0.16400440682E+02  0.00000000000E+00 0. -1.
</event>
<event>
 7    1  0.3981356E-008  0.4614232E+02  0.7816164E-02  0.1320468E+00
        -11   -1    0    0    0    0  0.00000000000E+00  0.00000000000E+00  0.45593999997E+02  0.45594000000E+02  0.51100000000E-03 0.  1.
         11   -1    0    0    0    0 -0.00000000000E+00 -0.00000000000E+00 -0.45593999997E+02  0.45594000000E+02  0.51100000000E-03 0. -1.
    9900012    2    1    2    0    0  0.13654406257E+02  0.21804514660E+02 -0.36976125098E+02  0.46142317665E+02  0.99999991198E+01 0.  0.
        -12    1    1    2    0    0 -0.13654406257E+02 -0.21804514660E+02  0.36976125098E+02  0.45045682335E+02  0.00000000000E+00 0.  1.
         11    1    3    3    0    0  0.37510061723E+01  0.48049925526E+01 -0.66186847120E+01  0.89980546960E+01  0.51100000000E-03 0. -1.
        -11    1    3    3    0    0 -0.12178819963E+01  0.21701997163E+00 -0.22895545404E+01  0.26023824623E+01  0.51100000000E-03 0.  1.
        -12    1    3    3    0    0  0.11121282081E+02  0.16782502136E+02 -0.28067885846E+02  0.34541880506E+02  0.00000000000E+00 0.  1.
</event>
<event>
 7    1  0.3981356E-008  0.4614230E+02  0.7816164E-02  0.1320468E+00
        -11   -1    0    0    0    0  0.00000000000E+00  0.00000000000E+00  0.45593999997E+02  0.45594000000E+02  0.51100000000E-03 0.  1.
         11   -1    0    0    0    0 -0.00000000000E+00 -0.00000000000E+00 -0.45593999997E+02  0.45594000000E+02  0.51100000000E-03 0. -1.
    9900012    2    1    2    0    0  0.28909728488E+02 -0.23715384426E+02 -0.25118177730E+02  0.46142304176E+02  0.99998761238E+01 0.  0.
        -12    1    1    2    0    0 -0.28909728488E+02  0.23715384426E+02  0.25118177730E+02  0.45045695824E+02  0.00000000000E+00 0.  1.
         11    1    3    3    0    0  0.76233369310E+01 -0.26353544582E+01 -0.38185840398E+01  0.89242334917E+01  0.51100000000E-03 0.  1.
        -11    1    3    3    0    0  0.67601764470E+01 -0.62606405665E+01 -0.99685256851E+01  0.13574502219E+02  0.51100000000E-03 0. -1.
        -12    1    3    3    0    0  0.14526215110E+02 -0.14819389402E+02 -0.11331068005E+02  0.23643568466E+02  0.00000000000E+00 0.  1.
</event>
<event>
 7    1  0.3981356E-008  0.4614232E+02  0.7816164E-02  0.1320468E+00
        -11   -1    0    0    0    0  0.00000000000E+00  0.00000000000E+00  0.45593999997E+02  0.45594000000E+02  0.51100000000E-03 0.  1.
         11   -1    0    0    0    0 -0.00000000000E+00 -0.00000000000E+00 -0.45593999997E+02  0.45594000000E+02  0.51100000000E-03 0. -1.
    9900012    2    1    2    0    0  0.63351354192E+01  0.20149923895E+02 -0.39786430254E+02  0.46142318674E+02  0.10000008329E+02 0.  0.
        -12    1    1    2    0    0 -0.63351354192E+01 -0.20149923895E+02  0.39786430254E+02  0.45045681326E+02  0.00000000000E+00 0.  1.
         11    1    3    3    0    0 -0.22489287320E-01  0.70090801326E+01 -0.11312848684E+02  0.13308202572E+02  0.51100000000E-03 0. -1.
        -11    1    3    3    0    0  0.75982475837E+00  0.90353785465E+01 -0.12740855489E+02  0.15637928187E+02  0.51100000000E-03 0.  1.
        -12    1    3    3    0    0  0.55977999482E+01  0.41054652155E+01 -0.15732726081E+02  0.17196187916E+02  0.00000000000E+00 0.  1.
</event>
<event>
 7    1  0.3981356E-008  0.4614232E+02  0.7816164E-02  0.1320468E+00
        -11   -1    0    0    0    0  0.00000000000E+00  0.00000000000E+00  0.45593999997E+02  0.45594000000E+02  0.51100000000E-03 0. -1.
         11   -1    0    0    0    0 -0.00000000000E+00 -0.00000000000E+00 -0.45593999997E+02  0.45594000000E+02  0.51100000000E-03 0.  1.
    9900012    2    1    2    0    0 -0.16152784997E+02 -0.28487933956E+02  0.30929565902E+02  0.46142324390E+02  0.10000060450E+02 0.  0.
        -12    1    1    2    0    0  0.16152784997E+02  0.28487933956E+02 -0.30929565902E+02  0.45045675610E+02  0.00000000000E+00 0.  1.
         11    1    3    3    0    0 -0.12060325993E+01 -0.28954526041E+01  0.66941894278E+01  0.73925863383E+01  0.51100000000E-03 0. -1.
        -11    1    3    3    0    0 -0.40243668169E+01 -0.26390623350E+01  0.36467021683E+01  0.60380969892E+01  0.51100000000E-03 0.  1.
         12    1    3    3    0    0 -0.10922385581E+02 -0.22953419017E+02  0.20588674306E+02  0.32711641063E+02  0.00000000000E+00 0. -1.
</event>
<event>
 7    1  0.3981356E-008  0.4614232E+02  0.7816164E-02  0.1320468E+00
        -11   -1    0    0    0    0  0.00000000000E+00  0.00000000000E+00  0.45593999997E+02  0.45594000000E+02  0.51100000000E-03 0.  1.
         11   -1    0    0    0    0 -0.00000000000E+00 -0.00000000000E+00 -0.45593999997E+02  0.45594000000E+02  0.51100000000E-03 0. -1.
    9900012    2    1    2    0    0  0.13514100874E+02 -0.59033737045E+01 -0.42563279120E+02  0.46142317932E+02  0.10000001561E+02 0.  0.
        -12    1    1    2    0    0 -0.13514100874E+02  0.59033737045E+01  0.42563279120E+02  0.45045682068E+02  0.00000000000E+00 0.  1.
         11    1    3    3    0    0 -0.14439688248E+00 -0.20584462689E-01  0.26076765073E+00  0.29878789895E+00  0.51100000000E-03 0. -1.
        -11    1    3    3    0    0  0.11061946510E+02 -0.40248970387E+01 -0.23783695693E+02  0.26537344212E+02  0.51100000000E-03 0.  1.
         12    1    3    3    0    0  0.25965512467E+01 -0.18578922031E+01 -0.19040351077E+02  0.19306185821E+02  0.00000000000E+00 0. -1.
</event>
<event>
 7    1  0.3981356E-008  0.4614232E+02  0.7816164E-02  0.1320468E+00
        -11   -1    0    0    0    0  0.00000000000E+00  0.00000000000E+00  0.45593999997E+02  0.45594000000E+02  0.51100000000E-03 0. -1.
         11   -1    0    0    0    0 -0.00000000000E+00 -0.00000000000E+00 -0.45593999997E+02  0.45594000000E+02  0.51100000000E-03 0.  1.
    9900012    2    1    2    0    0 -0.35215422633E+02 -0.85937030623E+01  0.26742024323E+02  0.46142316650E+02  0.99999898722E+01 0.  0.
        -12    1    1    2    0    0  0.35215422633E+02  0.85937030623E+01 -0.26742024323E+02  0.45045683350E+02  0.00000000000E+00 0.  1.
         11    1    3    3    0    0 -0.45897866381E+01 -0.33726489826E+01  0.66638212631E+01  0.87662658316E+01  0.51100000000E-03 0. -1.
        -11    1    3    3    0    0 -0.10016330512E+02  0.35639155667E+00  0.47396914357E+01  0.11086864617E+02  0.51100000000E-03 0.  1.
         12    1    3    3    0    0 -0.20609305483E+02 -0.55774456363E+01  0.15338511624E+02  0.26289186202E+02  0.00000000000E+00 0. -1.
</event>
<event>
 7    1  0.3981356E-008  0.4614232E+02  0.7816164E-02  0.1320468E+00
        -11   -1    0    0    0    0  0.00000000000E+00  0.00000000000E+00  0.45593999997E+02  0.45594000000E+02  0.51100000000E-03 0. -1.
         11   -1    0    0    0    0 -0.00000000000E+00 -0.00000000000E+00 -0.45593999997E+02  0.45594000000E+02  0.51100000000E-03 0.  1.
    9900012    2    1    2    0    0 -0.11807041977E+02 -0.81397399059E+01  0.42701895703E+02  0.46142317603E+02  0.99999985574E+01 0.  0.
        -12    1    1    2    0    0  0.11807041977E+02  0.81397399059E+01 -0.42701895703E+02  0.45045682397E+02  0.00000000000E+00 0.  1.
         11    1    3    3    0    0 -0.71729415549E+01 -0.69092208750E+01  0.22930252073E+02  0.24999697679E+02  0.51100000000E-03 0. -1.
        -11    1    3    3    0    0 -0.41067213871E+01 -0.20978973783E+01  0.73323043908E+01  0.86619294560E+01  0.51100000000E-03 0.  1.
         12    1    3    3    0    0 -0.52737903474E+00  0.86737834734E+00  0.12439339239E+02  0.12480690468E+02  0.00000000000E+00 0. -1.
</event>
<event>
 7    1  0.3981356E-008  0.4614232E+02  0.7816164E-02  0.1320468E+00
        -11   -1    0    0    0    0  0.00000000000E+00  0.00000000000E+00  0.45593999997E+02  0.45594000000E+02  0.51100000000E-03 0. -1.
         11   -1    0    0    0    0 -0.00000000000E+00 -0.00000000000E+00 -0.45593999997E+02  0.45594000000E+02  0.51100000000E-03 0.  1.
    9900012    2    1    2    0    0 -0.10028265472E+02 -0.16816034515E+00  0.43914906927E+02  0.46142318335E+02  0.10000005232E+02 0.  0.
        -12    1    1    2    0    0  0.10028265472E+02  0.16816034515E+00 -0.43914906927E+02  0.45045681665E+02  0.00000000000E+00 0.  1.
         11    1    3    3    0    0 -0.49980809752E+01  0.27471255829E+01  0.27293851324E+02  0.27883361217E+02  0.51100000000E-03 0. -1.
        -11    1    3    3    0    0 -0.96745116938E+00 -0.53419869901E+00  0.13478044767E+00  0.11133265673E+01  0.51100000000E-03 0.  1.
        -12    1    3    3    0    0 -0.40627333278E+01 -0.23810872290E+01  0.16486275156E+02  0.17145630551E+02  0.00000000000E+00 0.  1.
</event>
<event>
 7    1  0.3981356E-008  0.4614232E+02  0.7816164E-02  0.1320468E+00
        -11   -1    0    0    0    0  0.00000000000E+00  0.00000000000E+00  0.45593999997E+02  0.45594000000E+02  0.51100000000E-03 0. -1.
         11   -1    0    0    0    0 -0.00000000000E+00 -0.00000000000E+00 -0.45593999997E+02  0.45594000000E+02  0.51100000000E-03 0.  1.
    9900012    2    1    2    0    0  0.21348805600E+02  0.51352861577E+01  0.39331550902E+02  0.46142316957E+02  0.99999926668E+01 0.  0.
        -12    1    1    2    0    0 -0.21348805600E+02 -0.51352861577E+01 -0.39331550902E+02  0.45045683043E+02  0.00000000000E+00 0.  1.
         11    1    3    3    0    0  0.17805287572E+01  0.22375406127E+01  0.20536778852E+01  0.35205771922E+01  0.51100000000E-03 0. -1.
        -11    1    3    3    0    0  0.64747339672E+00  0.14722509845E+01  0.20164790478E+01  0.25793279690E+01  0.51100000000E-03 0.  1.
         12    1    3    3    0    0  0.18920803446E+02  0.14254945606E+01  0.35261393969E+02  0.40042411796E+02  0.00000000000E+00 0. -1.
</event>
<event>
 7    1  0.3981356E-008  0.4614231E+02  0.7816164E-02  0.1320468E+00
        -11   -1    0    0    0    0  0.00000000000E+00  0.00000000000E+00  0.45593999997E+02  0.45594000000E+02  0.51100000000E-03 0. -1.
         11   -1    0    0    0    0 -0.00000000000E+00 -0.00000000000E+00 -0.45593999997E+02  0.45594000000E+02  0.51100000000E-03 0.  1.
    9900012    2    1    2    0    0  0.39483071019E+02 -0.13688982321E+02  0.16817045672E+02  0.46142310315E+02  0.99999320995E+01 0.  0.
        -12    1    1    2    0    0 -0.39483071019E+02  0.13688982321E+02 -0.16817045672E+02  0.45045689685E+02  0.00000000000E+00 0.  1.
         11    1    3    3    0    0  0.18684121990E+02 -0.41733332273E+01  0.93334179663E+01  0.21298493279E+02  0.51100000000E-03 0. -1.
        -11    1    3    3    0    0  0.74212526129E+01 -0.58046841803E+01  0.52398763570E+01  0.10780800215E+02  0.51100000000E-03 0.  1.
         12    1    3    3    0    0  0.13377696416E+02 -0.37109649134E+01  0.22437513485E+01  0.14063016821E+02  0.00000000000E+00 0. -1.
</event>
<event>
 7    1  0.3981356E-008  0.4614232E+02  0.7816164E-02  0.1320468E+00
        -11   -1    0    0    0    0  0.00000000000E+00  0.00000000000E+00  0.45593999997E+02  0.45594000000E+02  0.51100000000E-03 0.  1.
         11   -1    0    0    0    0 -0.00000000000E+00 -0.00000000000E+00 -0.45593999997E+02  0.45594000000E+02  0.51100000000E-03 0. -1.
    9900012    2    1    2    0    0  0.60598815221E+01 -0.35125771302E+02 -0.27542177261E+02  0.46142317611E+02  0.99999986308E+01 0.  0.
        -12    1    1    2    0    0 -0.60598815221E+01  0.35125771302E+02  0.27542177261E+02  0.45045682389E+02  0.00000000000E+00 0.  1.
         11    1    3    3    0    0  0.60941349457E+00 -0.32458948779E+01 -0.17035946772E+01  0.37161072981E+01  0.51100000000E-03 0. -1.
        -11    1    3    3    0    0  0.71959637316E+01 -0.22650861281E+02 -0.15091411481E+02  0.28153047998E+02  0.51100000000E-03 0.  1.
        -12    1    3    3    0    0 -0.17454957041E+01 -0.92290151426E+01 -0.10747171103E+02  0.14273162315E+02  0.00000000000E+00 0.  1.
</event>
<event>
 7    1  0.3981356E-008  0.4614232E+02  0.7816164E-02  0.1320468E+00
        -11   -1    0    0    0    0  0.00000000000E+00  0.00000000000E+00  0.45593999997E+02  0.45594000000E+02  0.51100000000E-03 0. -1.
         11   -1    0    0    0    0 -0.00000000000E+00 -0.00000000000E+00 -0.45593999997E+02  0.45594000000E+02  0.51100000000E-03 0.  1.
    9900012    2    1    2    0    0 -0.28576962692E+02 -0.34231322137E+02  0.63786589183E+01  0.46142317615E+02  0.99999986667E+01 0.  0.
        -12    1    1    2    0    0  0.28576962692E+02  0.34231322137E+02 -0.63786589183E+01  0.45045682385E+02  0.00000000000E+00 0.  1.
         11    1    3    3    0    0 -0.19271326600E+02 -0.26920321535E+02  0.38591435058E+01  0.33331377549E+02  0.51100000000E-03 0. -1.
        -11    1    3    3    0    0 -0.61580555802E+01 -0.71079856191E+01  0.19879935705E+01  0.96123476210E+01  0.51100000000E-03 0.  1.
        -12    1    3    3    0    0 -0.31475805114E+01 -0.20301498338E+00  0.53152184201E+00  0.31985924447E+01  0.00000000000E+00 0.  1.
</event>
<event>
 7    1  0.3981356E-008  0.4614231E+02  0.7816164E-02  0.1320468E+00
        -11   -1    0    0    0    0  0.00000000000E+00  0.00000000000E+00  0.45593999997E+02  0.45594000000E+02  0.51100000000E-03 0. -1.
         11   -1    0    0    0    0 -0.00000000000E+00 -0.00000000000E+00 -0.45593999997E+02  0.45594000000E+02  0.51100000000E-03 0.  1.
    9900012    2    1    2    0    0 -0.32655054380E+02 -0.16442881524E+02  0.26313371083E+02  0.46142307341E+02  0.99999049845E+01 0.  0.
        -12    1    1    2    0    0  0.32655054380E+02  0.16442881524E+02 -0.26313371083E+02  0.45045692659E+02  0.00000000000E+00 0.  1.
         11    1    3    3    0    0 -0.24565029183E+02 -0.10584514640E+02  0.20720369405E+02  0.33834986589E+02  0.51100000000E-03 0. -1.
        -11    1    3    3    0    0 -0.67004722834E+01 -0.65660984395E+01  0.45129369106E+01  0.10410407166E+02  0.51100000000E-03 0.  1.
         12    1    3    3    0    0 -0.13895529129E+01  0.70773155581E+00  0.10800647670E+01  0.18969135863E+01  0.00000000000E+00 0. -1.
</event>
<event>
 7    1  0.3981356E-008  0.4614232E+02  0.7816164E-02  0.1320468E+00
        -11   -1    0    0    0    0  0.00000000000E+00  0.00000000000E+00  0.45593999997E+02  0.45594000000E+02  0.51100000000E-03 0.  1.
         11   -1    0    0    0    0 -0.00000000000E+00 -0.00000000000E+00 -0.45593999997E+02  0.45594000000E+02  0.51100000000E-03 0. -1.
    9900012    2    1    2    0    0  0.12637396367E+02  0.22538718785E+02 -0.36897369699E+02  0.46142317386E+02  0.99999965838E+01 0.  0.
        -12    1    1    2    0    0 -0.12637396367E+02 -0.22538718785E+02  0.36897369699E+02  0.45045682614E+02  0.00000000000E+00 0.  1.
         11    1    3    3    0    0 -0.49854859424E+00  0.12334175073E+01  0.11750277320E+00  0.13355435638E+01  0.51100000000E-03 0. -1.
        -11    1    3    3    0    0  0.26188556813E+00  0.11717718972E+01 -0.30436486944E+01  0.32719155041E+01  0.51100000000E-03 0.  1.
         12    1    3    3    0    0  0.12874059393E+02  0.20133529380E+02 -0.33971223778E+02  0.41534858319E+02  0.00000000000E+00 0. -1.
</event>
<event>
 7    1  0.3981356E-008  0.4614232E+02  0.7816164E-02  0.1320468E+00
        -11   -1    0    0    0    0  0.00000000000E+00  0.00000000000E+00  0.45593999997E+02  0.45594000000E+02  0.51100000000E-03 0.  1.
         11   -1    0    0    0    0 -0.00000000000E+00 -0.00000000000E+00 -0.45593999997E+02  0.45594000000E+02  0.51100000000E-03 0. -1.
    9900012    2    1    2    0    0  0.28816599718E+02  0.19607477002E+02 -0.28535302593E+02  0.46142322430E+02  0.10000042577E+02 0.  0.
        -12    1    1    2    0    0 -0.28816599718E+02 -0.19607477002E+02  0.28535302593E+02  0.45045677570E+02  0.00000000000E+00 0.  1.
         11    1    3    3    0    0  0.19305405912E+02  0.16798919202E+02 -0.22557413343E+02  0.34113623096E+02  0.51100000000E-03 0.  1.
        -11    1    3    3    0    0  0.49314553667E+01  0.27185984609E+01 -0.45225886647E+01  0.72224537463E+01  0.51100000000E-03 0. -1.
        -12    1    3    3    0    0  0.45797384394E+01  0.89959338431E-01 -0.14553005851E+01  0.48062455877E+01  0.00000000000E+00 0.  1.
</event>
<event>
 7    1  0.3981356E-008  0.4614232E+02  0.7816164E-02  0.1320468E+00
        -11   -1    0    0    0    0  0.00000000000E+00  0.00000000000E+00  0.45593999997E+02  0.45594000000E+02  0.51100000000E-03 0.  1.
         11   -1    0    0    0    0 -0.00000000000E+00 -0.00000000000E+00 -0.45593999997E+02  0.45594000000E+02  0.51100000000E-03 0. -1.
    9900012    2    1    2    0    0 -0.18807842063E+02 -0.33229217213E+02 -0.23899741336E+02  0.46142318347E+02  0.10000005345E+02 0.  0.
        -12    1    1    2    0    0  0.18807842063E+02  0.33229217213E+02  0.23899741336E+02  0.45045681653E+02  0.00000000000E+00 0.  1.
         11    1    3    3    0    0 -0.28060197640E+01 -0.73655811202E+00 -0.29202115398E+01  0.41162969362E+01  0.51100000000E-03 0.  1.
        -11    1    3    3    0    0 -0.54166138594E+01 -0.90978885326E+01 -0.44347517746E+01  0.11479473203E+02  0.51100000000E-03 0. -1.
         12    1    3    3    0    0 -0.10585208439E+02 -0.23394770568E+02 -0.16544778022E+02  0.30546548208E+02  0.00000000000E+00 0. -1.
</event>
<event>
 7    1  0.3981356E-008  0.4614232E+02  0.7816164E-02  0.1320468E+00
        -11   -1    0    0    0    0  0.00000000000E+00  0.00000000000E+00  0.45593999997E+02  0.45594000000E+02  0.51100000000E-03 0.  1.
         11   -1    0    0    0    0 -0.00000000000E+00 -0.00000000000E+00 -0.45593999997E+02  0.45594000000E+02  0.51100000000E-03 0. -1.
    9900012    2    1    2    0    0 -0.38551450579E+02  0.19477841308E+02 -0.12787215942E+02  0.46142317240E+02  0.99999952497E+01 0.  0.
        -12    1    1    2    0    0  0.38551450579E+02 -0.19477841308E+02  0.12787215942E+02  0.45045682760E+02  0.00000000000E+00 0.  1.
         11    1    3    3    0    0 -0.79339078579E+01  0.43373952777E+01 -0.82377913319E+00  0.90795651886E+01  0.51100000000E-03 0. -1.
        -11    1    3    3    0    0 -0.71231380550E+01  0.17194381737E+01  0.34795387107E+00  0.73359822479E+01  0.51100000000E-03 0.  1.
         12    1    3    3    0    0 -0.23494404666E+02  0.13421007856E+02 -0.12311390679E+02  0.29726769804E+02  0.00000000000E+00 0. -1.
</event>
<event>
 7    1  0.3981356E-008  0.4614232E+02  0.7816164E-02  0.1320468E+00
        -11   -1    0    0    0    0  0.00000000000E+00  0.00000000000E+00  0.45593999997E+02  0.45594000000E+02  0.51100000000E-03 0.  1.
         11   -1    0    0    0    0 -0.00000000000E+00 -0.00000000000E+00 -0.45593999997E+02  0.45594000000E+02  0.51100000000E-03 0. -1.
    9900012    2    1    2    0    0 -0.22663101138E+02  0.24542461446E+02  0.30218620138E+02  0.46142316854E+02  0.99999917316E+01 0.  0.
        -12    1    1    2    0    0  0.22663101138E+02 -0.24542461446E+02 -0.30218620138E+02  0.45045683146E+02  0.00000000000E+00 0.  1.
         11    1    3    3    0    0 -0.76992340042E+01  0.74603978990E+01  0.93614407571E+01  0.14232790112E+02  0.51100000000E-03 0. -1.
        -11    1    3    3    0    0 -0.27389206341E+01  0.74382736188E+01  0.37234506685E+01  0.87574931236E+01  0.51100000000E-03 0.  1.
        -12    1    3    3    0    0 -0.12224946500E+02  0.96437899283E+01  0.17133728712E+02  0.23152033619E+02  0.00000000000E+00 0.  1.
</event>
<event>
 7    1  0.3981356E-008  0.4614232E+02  0.7816164E-02  0.1320468E+00
        -11   -1    0    0    0    0  0.00000000000E+00  0.00000000000E+00  0.45593999997E+02  0.45594000000E+02  0.51100000000E-03 0.  1.
         11   -1    0    0    0    0 -0.00000000000E+00 -0.00000000000E+00 -0.45593999997E+02  0.45594000000E+02  0.51100000000E-03 0. -1.
    9900012    2    1    2    0    0 -0.28650704119E+01 -0.30963480697E+02 -0.32590913990E+02  0.46142318297E+02  0.10000004887E+02 0.  0.
        -12    1    1    2    0    0  0.28650704119E+01  0.30963480697E+02  0.32590913990E+02  0.45045681703E+02  0.00000000000E+00 0.  1.
         11    1    3    3    0    0 -0.29323547858E+00  0.10376843420E+00 -0.13004783430E+00  0.33714630972E+00  0.51100000000E-03 0. -1.
        -11    1    3    3    0    0  0.30541102569E+01 -0.95481589726E+01 -0.89227063669E+01  0.13420492480E+02  0.51100000000E-03 0.  1.
         12    1    3    3    0    0 -0.56259451902E+01 -0.21519090159E+02 -0.23538159789E+02  0.32384679508E+02  0.00000000000E+00 0. -1.
</event>
<event>
 7    1  0.3981356E-008  0.4614232E+02  0.7816164E-02  0.1320468E+00
        -11   -1    0    0    0    0  0.00000000000E+00  0.00000000000E+00  0.45593999997E+02  0.45594000000E+02  0.51100000000E-03 0. -1.
         11   -1    0    0    0    0 -0.00000000000E+00 -0.00000000000E+00 -0.45593999997E+02  0.45594000000E+02  0.51100000000E-03 0.  1.
    9900012    2    1    2    0    0 -0.87138800524E+01 -0.34514602122E+02  0.27602971792E+02  0.46142317444E+02  0.99999971050E+01 0.  0.
        -12    1    1    2    0    0  0.87138800524E+01  0.34514602122E+02 -0.27602971792E+02  0.45045682556E+02  0.00000000000E+00 0.  1.
         11    1    3    3    0    0 -0.86061085102E+00 -0.29499553048E+01 -0.49480403265E+00  0.31125100207E+01  0.51100000000E-03 0. -1.
        -11    1    3    3    0    0 -0.21733114365E+01 -0.11210171826E+02  0.10865075005E+02  0.15762014151E+02  0.51100000000E-03 0.  1.
         12    1    3    3    0    0 -0.56799577649E+01 -0.20354474991E+02  0.17232700820E+02  0.27267793272E+02  0.00000000000E+00 0. -1.
</event>
<event>
 7    1  0.3981356E-008  0.4614232E+02  0.7816164E-02  0.1320468E+00
        -11   -1    0    0    0    0  0.00000000000E+00  0.00000000000E+00  0.45593999997E+02  0.45594000000E+02  0.51100000000E-03 0.  1.
         11   -1    0    0    0    0 -0.00000000000E+00 -0.00000000000E+00 -0.45593999997E+02  0.45594000000E+02  0.51100000000E-03 0. -1.
    9900012    2    1    2    0    0 -0.23362715048E+02  0.38495954587E+02 -0.11655616608E+01  0.46142317543E+02  0.99999980144E+01 0.  0.
        -12    1    1    2    0    0  0.23362715048E+02 -0.38495954587E+02  0.11655616608E+01  0.45045682457E+02  0.00000000000E+00 0.  1.
         11    1    3    3    0    0 -0.12121318165E+02  0.22192887149E+02  0.20101936071E+01  0.25367133710E+02  0.51100000000E-03 0. -1.
        -11    1    3    3    0    0 -0.73816050757E+01  0.14316111987E+02 -0.17308584547E+01  0.16199846517E+02  0.51100000000E-03 0.  1.
        -12    1    3    3    0    0 -0.38597918073E+01  0.19869554519E+01 -0.14448968131E+01  0.45753373170E+01  0.00000000000E+00 0.  1.
</event>
<event>
 7    1  0.3981356E-008  0.4614232E+02  0.7816164E-02  0.1320468E+00
        -11   -1    0    0    0    0  0.00000000000E+00  0.00000000000E+00  0.45593999997E+02  0.45594000000E+02  0.51100000000E-03 0. -1.
         11   -1    0    0    0    0 -0.00000000000E+00 -0.00000000000E+00 -0.45593999997E+02  0.45594000000E+02  0.51100000000E-03 0.  1.
    9900012    2    1    2    0    0 -0.42520003980E+02  0.97799097399E+01  0.11203399619E+02  0.46142317233E+02  0.99999951801E+01 0.  0.
        -12    1    1    2    0    0  0.42520003980E+02 -0.97799097399E+01 -0.11203399619E+02  0.45045682767E+02  0.00000000000E+00 0.  1.
         11    1    3    3    0    0 -0.27059918005E+01 -0.11050012522E+01  0.27208389619E+00  0.29355492330E+01  0.51100000000E-03 0. -1.
        -11    1    3    3    0    0 -0.59135840637E+00 -0.28626307409E+00 -0.53026056568E+00  0.84429132473E+00  0.51100000000E-03 0.  1.
         12    1    3    3    0    0 -0.39222653773E+02  0.11171174066E+02  0.11461576288E+02  0.42362476675E+02  0.00000000000E+00 0. -1.
</event>
<event>
 7    1  0.3981356E-008  0.4614232E+02  0.7816164E-02  0.1320468E+00
        -11   -1    0    0    0    0  0.00000000000E+00  0.00000000000E+00  0.45593999997E+02  0.45594000000E+02  0.51100000000E-03 0. -1.
         11   -1    0    0    0    0 -0.00000000000E+00 -0.00000000000E+00 -0.45593999997E+02  0.45594000000E+02  0.51100000000E-03 0.  1.
    9900012    2    1    2    0    0 -0.35983072340E+02  0.27096710205E+02 -0.31609734206E+00  0.46142321889E+02  0.10000037646E+02 0.  0.
        -12    1    1    2    0    0  0.35983072340E+02 -0.27096710205E+02  0.31609734206E+00  0.45045678111E+02  0.00000000000E+00 0.  1.
         11    1    3    3    0    0 -0.18138224009E+02  0.11037249359E+02  0.29491733077E+01  0.21436269896E+02  0.51100000000E-03 0. -1.
        -11    1    3    3    0    0 -0.17734475354E+02  0.16263737768E+02 -0.35665017470E+01  0.24325721310E+02  0.51100000000E-03 0.  1.
        -12    1    3    3    0    0 -0.11037297661E+00 -0.20427692207E+00  0.30123109719E+00  0.38033068344E+00  0.00000000000E+00 0.  1.
</event>
<event>
 7    1  0.3981356E-008  0.4614232E+02  0.7816164E-02  0.1320468E+00
        -11   -1    0    0    0    0  0.00000000000E+00  0.00000000000E+00  0.45593999997E+02  0.45594000000E+02  0.51100000000E-03 0.  1.
         11   -1    0    0    0    0 -0.00000000000E+00 -0.00000000000E+00 -0.45593999997E+02  0.45594000000E+02  0.51100000000E-03 0. -1.
    9900012    2    1    2    0    0 -0.21561266603E+02 -0.20349953863E+02 -0.33913192804E+02  0.46142317788E+02  0.10000000247E+02 0.  0.
        -12    1    1    2    0    0  0.21561266603E+02  0.20349953863E+02  0.33913192804E+02  0.45045682212E+02  0.00000000000E+00 0.  1.
         11    1    3    3    0    0 -0.29907288284E+01 -0.13208810688E+01 -0.49214924400E+01  0.59084916706E+01  0.51100000000E-03 0. -1.
        -11    1    3    3    0    0 -0.41134800884E+01 -0.64196560210E+01 -0.13789843291E+02  0.15757299265E+02  0.51100000000E-03 0.  1.
        -12    1    3    3    0    0 -0.14457057686E+02 -0.12609416774E+02 -0.15201857072E+02  0.24476526853E+02  0.00000000000E+00 0.  1.
</event>
<event>
 7    1  0.3981356E-008  0.4614232E+02  0.7816164E-02  0.1320468E+00
        -11   -1    0    0    0    0  0.00000000000E+00  0.00000000000E+00  0.45593999997E+02  0.45594000000E+02  0.51100000000E-03 0.  1.
         11   -1    0    0    0    0 -0.00000000000E+00 -0.00000000000E+00 -0.45593999997E+02  0.45594000000E+02  0.51100000000E-03 0. -1.
    9900012    2    1    2    0    0 -0.88238532593E+01  0.26434157166E+02 -0.35390512818E+02  0.46142318199E+02  0.10000003991E+02 0.  0.
        -12    1    1    2    0    0  0.88238532593E+01 -0.26434157166E+02  0.35390512818E+02  0.45045681801E+02  0.00000000000E+00 0.  1.
         11    1    3    3    0    0 -0.60796932533E+01  0.24521466885E+02 -0.30477833485E+02  0.39587413940E+02  0.51100000000E-03 0. -1.
        -11    1    3    3    0    0 -0.17209649845E+01  0.25162607481E+01 -0.28425618767E+01  0.41681467002E+01  0.51100000000E-03 0.  1.
        -12    1    3    3    0    0 -0.10231950214E+01 -0.60357046738E+00 -0.20701174563E+01  0.23867575587E+01  0.00000000000E+00 0.  1.
</event>
<event>
 7    1  0.3981356E-008  0.4614232E+02  0.7816164E-02  0.1320468E+00
        -11   -1    0    0    0    0  0.00000000000E+00  0.00000000000E+00  0.45593999997E+02  0.45594000000E+02  0.51100000000E-03 0.  1.
         11   -1    0    0    0    0 -0.00000000000E+00 -0.00000000000E+00 -0.45593999997E+02  0.45594000000E+02  0.51100000000E-03 0. -1.
    9900012    2    1    2    0    0 -0.29468283750E+01 -0.27029697983E+02 -0.35914135612E+02  0.46142317551E+02  0.99999980828E+01 0.  0.
        -12    1    1    2    0    0  0.29468283750E+01  0.27029697983E+02  0.35914135612E+02  0.45045682449E+02  0.00000000000E+00 0.  1.
         11    1    3    3    0    0 -0.30741408166E+01 -0.90051599301E+01 -0.84305435737E+01  0.12712879781E+02  0.51100000000E-03 0. -1.
        -11    1    3    3    0    0 -0.12584105324E+01 -0.26662968481E+01 -0.17482139524E+01  0.34276797159E+01  0.51100000000E-03 0.  1.
         12    1    3    3    0    0  0.13857229739E+01 -0.15358241205E+02 -0.25735378086E+02  0.30001758054E+02  0.00000000000E+00 0. -1.
</event>
<event>
 7    1  0.3981356E-008  0.4614232E+02  0.7816164E-02  0.1320468E+00
        -11   -1    0    0    0    0  0.00000000000E+00  0.00000000000E+00  0.45593999997E+02  0.45594000000E+02  0.51100000000E-03 0.  1.
         11   -1    0    0    0    0 -0.00000000000E+00 -0.00000000000E+00 -0.45593999997E+02  0.45594000000E+02  0.51100000000E-03 0. -1.
    9900012    2    1    2    0    0 -0.39439299564E+02 -0.17679720935E+02 -0.12691832323E+02  0.46142317741E+02  0.99999998159E+01 0.  0.
        -12    1    1    2    0    0  0.39439299564E+02  0.17679720935E+02  0.12691832323E+02  0.45045682259E+02  0.00000000000E+00 0.  1.
         11    1    3    3    0    0 -0.18126272183E+02 -0.11003103911E+02 -0.10210703495E+02  0.23534835989E+02  0.51100000000E-03 0. -1.
        -11    1    3    3    0    0 -0.60340684187E+01 -0.27800140906E+01  0.11382054088E-01  0.66436879697E+01  0.51100000000E-03 0.  1.
         12    1    3    3    0    0 -0.15278958963E+02 -0.38966029335E+01 -0.24925108815E+01  0.15963793782E+02  0.00000000000E+00 0. -1.
</event>
<event>
 7    1  0.3981356E-008  0.4614232E+02  0.7816164E-02  0.1320468E+00
        -11   -1    0    0    0    0  0.00000000000E+00  0.00000000000E+00  0.45593999997E+02  0.45594000000E+02  0.51100000000E-03 0. -1.
         11   -1    0    0    0    0 -0.00000000000E+00 -0.00000000000E+00 -0.45593999997E+02  0.45594000000E+02  0.51100000000E-03 0.  1.
    9900012    2    1    2    0    0  0.26254107958E+02  0.17327366620E+02  0.32242793953E+02  0.46142316738E+02  0.99999906685E+01 0.  0.
        -12    1    1    2    0    0 -0.26254107958E+02 -0.17327366620E+02 -0.32242793953E+02  0.45045683262E+02  0.00000000000E+00 0.  1.
         11    1    3    3    0    0  0.78457977101E+01  0.61987550768E+01  0.10597673933E+02  0.14570236760E+02  0.51100000000E-03 0. -1.
        -11    1    3    3    0    0  0.27844802775E+01  0.52583220764E+01  0.82471998644E+01  0.10169542140E+02  0.51100000000E-03 0.  1.
         12    1    3    3    0    0  0.15623829970E+02  0.58702894670E+01  0.13397920156E+02  0.21402537837E+02  0.00000000000E+00 0. -1.
</event>
<event>
 7    1  0.3981356E-008  0.4614232E+02  0.7816164E-02  0.1320468E+00
        -11   -1    0    0    0    0  0.00000000000E+00  0.00000000000E+00  0.45593999997E+02  0.45594000000E+02  0.51100000000E-03 0.  1.
         11   -1    0    0    0    0 -0.00000000000E+00 -0.00000000000E+00 -0.45593999997E+02  0.45594000000E+02  0.51100000000E-03 0. -1.
    9900012    2    1    2    0    0  0.91495614223E+01 -0.14158244608E+02 -0.41772515624E+02  0.46142318452E+02  0.10000006300E+02 0.  0.
        -12    1    1    2    0    0 -0.91495614223E+01  0.14158244608E+02  0.41772515624E+02  0.45045681548E+02  0.00000000000E+00 0.  1.
         11    1    3    3    0    0 -0.71671172276E+00 -0.49341397705E+00 -0.79169490927E+00  0.11763988001E+01  0.51100000000E-03 0.  1.
        -11    1    3    3    0    0  0.45620202045E+00 -0.35335021998E+01 -0.16212238515E+02  0.16599109494E+02  0.51100000000E-03 0. -1.
         12    1    3    3    0    0  0.94100711246E+01 -0.10131328431E+02 -0.24768582200E+02  0.28366810158E+02  0.00000000000E+00 0. -1.
</event>
<event>
 7    1  0.3981356E-008  0.4614232E+02  0.7816164E-02  0.1320468E+00
        -11   -1    0    0    0    0  0.00000000000E+00  0.00000000000E+00  0.45593999997E+02  0.45594000000E+02  0.51100000000E-03 0.  1.
         11   -1    0    0    0    0 -0.00000000000E+00 -0.00000000000E+00 -0.45593999997E+02  0.45594000000E+02  0.51100000000E-03 0. -1.
    9900012    2    1    2    0    0 -0.14562091109E+02 -0.27876365202E+02 -0.32248523297E+02  0.46142317753E+02  0.99999999218E+01 0.  0.
        -12    1    1    2    0    0  0.14562091109E+02  0.27876365202E+02  0.32248523297E+02  0.45045682247E+02  0.00000000000E+00 0.  1.
         11    1    3    3    0    0 -0.80962207823E+00 -0.37705194621E+00  0.12120944136E+00  0.90130353905E+00  0.51100000000E-03 0.  1.
        -11    1    3    3    0    0 -0.98780635756E+01 -0.13822675026E+02 -0.14005851677E+02  0.22018318881E+02  0.51100000000E-03 0. -1.
         12    1    3    3    0    0 -0.38744054549E+01 -0.13676638229E+02 -0.18363881061E+02  0.23222695332E+02  0.00000000000E+00 0. -1.
</event>
<event>
 7    1  0.3981356E-008  0.4614232E+02  0.7816164E-02  0.1320468E+00
        -11   -1    0    0    0    0  0.00000000000E+00  0.00000000000E+00  0.45593999997E+02  0.45594000000E+02  0.51100000000E-03 0. -1.
         11   -1    0    0    0    0 -0.00000000000E+00 -0.00000000000E+00 -0.45593999997E+02  0.45594000000E+02  0.51100000000E-03 0.  1.
    9900012    2    1    2    0    0  0.28751125205E+01  0.18244844337E+02  0.41084946908E+02  0.46142317862E+02  0.10000000918E+02 0.  0.
        -12    1    1    2    0    0 -0.28751125205E+01 -0.18244844337E+02 -0.41084946908E+02  0.45045682138E+02  0.00000000000E+00 0.  1.
         11    1    3    3    0    0  0.38678885319E+01  0.86689102992E+01  0.16788117969E+02  0.19286043468E+02  0.51100000000E-03 0. -1.
        -11    1    3    3    0    0  0.15529027710E+01  0.66728450435E+01  0.19675667278E+02  0.20834352668E+02  0.51100000000E-03 0.  1.
        -12    1    3    3    0    0 -0.25456787824E+01  0.29030889942E+01  0.46211616605E+01  0.60219217252E+01  0.00000000000E+00 0.  1.
</event>
<event>
 7    1  0.3981356E-008  0.4614232E+02  0.7816164E-02  0.1320468E+00
        -11   -1    0    0    0    0  0.00000000000E+00  0.00000000000E+00  0.45593999997E+02  0.45594000000E+02  0.51100000000E-03 0.  1.
         11   -1    0    0    0    0 -0.00000000000E+00 -0.00000000000E+00 -0.45593999997E+02  0.45594000000E+02  0.51100000000E-03 0. -1.
    9900012    2    1    2    0    0 -0.85427825447E+01 -0.13301475298E+02 -0.42180624427E+02  0.46142318123E+02  0.10000003304E+02 0.  0.
        -12    1    1    2    0    0  0.85427825447E+01  0.13301475298E+02  0.42180624427E+02  0.45045681877E+02  0.00000000000E+00 0.  1.
         11    1    3    3    0    0 -0.58256057762E+01 -0.57661909985E+01 -0.22351141064E+02  0.23806724857E+02  0.51100000000E-03 0. -1.
        -11    1    3    3    0    0 -0.16709444773E+00 -0.64011425150E+01 -0.83549566897E+01  0.10526530654E+02  0.51100000000E-03 0.  1.
        -12    1    3    3    0    0 -0.25500823207E+01 -0.11341417842E+01 -0.11474526673E+02  0.11809062613E+02  0.00000000000E+00 0.  1.
</event>
<event>
 7    1  0.3981356E-008  0.4614232E+02  0.7816164E-02  0.1320468E+00
        -11   -1    0    0    0    0  0.00000000000E+00  0.00000000000E+00  0.45593999997E+02  0.45594000000E+02  0.51100000000E-03 0.  1.
         11   -1    0    0    0    0 -0.00000000000E+00 -0.00000000000E+00 -0.45593999997E+02  0.45594000000E+02  0.51100000000E-03 0. -1.
    9900012    2    1    2    0    0 -0.43729223248E+01  0.31982012296E+02 -0.31418816899E+02  0.46142316351E+02  0.99999871372E+01 0.  0.
        -12    1    1    2    0    0  0.43729223248E+01 -0.31982012296E+02  0.31418816899E+02  0.45045683649E+02  0.00000000000E+00 0.  1.
         11    1    3    3    0    0  0.13891820011E+01  0.23713425697E+01 -0.36726531547E+00  0.27727200162E+01  0.51100000000E-03 0. -1.
        -11    1    3    3    0    0 -0.34023833410E+01  0.10927920505E+02 -0.11902414770E+02  0.16512514544E+02  0.51100000000E-03 0.  1.
         12    1    3    3    0    0 -0.23597209850E+01  0.18682749221E+02 -0.19149136814E+02  0.26857081790E+02  0.00000000000E+00 0. -1.
</event>
<event>
 7    1  0.3981356E-008  0.4614232E+02  0.7816164E-02  0.1320468E+00
        -11   -1    0    0    0    0  0.00000000000E+00  0.00000000000E+00  0.45593999997E+02  0.45594000000E+02  0.51100000000E-03 0.  1.
         11   -1    0    0    0    0 -0.00000000000E+00 -0.00000000000E+00 -0.45593999997E+02  0.45594000000E+02  0.51100000000E-03 0. -1.
    9900012    2    1    2    0    0  0.25276570372E+02  0.13856368682E+02 -0.34615162834E+02  0.46142318066E+02  0.10000002784E+02 0.  0.
        -12    1    1    2    0    0 -0.25276570372E+02 -0.13856368682E+02  0.34615162834E+02  0.45045681934E+02  0.00000000000E+00 0.  1.
         11    1    3    3    0    0  0.89481690930E+01  0.33380534505E+01 -0.16245247153E+02  0.18844638131E+02  0.51100000000E-03 0. -1.
        -11    1    3    3    0    0  0.12258697666E-01 -0.13849969698E+00 -0.15459620486E+01  0.15522020998E+01  0.51100000000E-03 0.  1.
        -12    1    3    3    0    0  0.16316142582E+02  0.10656814928E+02 -0.16823953632E+02  0.25745477835E+02  0.00000000000E+00 0.  1.
</event>
<event>
 7    1  0.3981356E-008  0.4614232E+02  0.7816164E-02  0.1320468E+00
        -11   -1    0    0    0    0  0.00000000000E+00  0.00000000000E+00  0.45593999997E+02  0.45594000000E+02  0.51100000000E-03 0.  1.
         11   -1    0    0    0    0 -0.00000000000E+00 -0.00000000000E+00 -0.45593999997E+02  0.45594000000E+02  0.51100000000E-03 0. -1.
    9900012    2    1    2    0    0  0.41412831583E+02  0.10385365376E+02 -0.14360887942E+02  0.46142317230E+02  0.99999951598E+01 0.  0.
        -12    1    1    2    0    0 -0.41412831583E+02 -0.10385365376E+02  0.14360887942E+02  0.45045682770E+02  0.00000000000E+00 0.  1.
         11    1    3    3    0    0  0.17606565070E+02  0.45388076689E+01 -0.61365157798E+01  0.19189808097E+02  0.51100000000E-03 0. -1.
        -11    1    3    3    0    0  0.18910150061E+02  0.13299780490E+01 -0.68089310955E+01  0.20142595659E+02  0.51100000000E-03 0.  1.
         12    1    3    3    0    0  0.48961164515E+01  0.45165796585E+01 -0.14154410669E+01  0.68099134747E+01  0.00000000000E+00 0. -1.
</event>
<event>
 7    1  0.3981356E-008  0.4614231E+02  0.7816164E-02  0.1320468E+00
        -11   -1    0    0    0    0  0.00000000000E+00  0.00000000000E+00  0.45593999997E+02  0.45594000000E+02  0.51100000000E-03 0.  1.
         11   -1    0    0    0    0 -0.00000000000E+00 -0.00000000000E+00 -0.45593999997E+02  0.45594000000E+02  0.51100000000E-03 0. -1.
    9900012    2    1    2    0    0  0.33025399405E+02 -0.12155612658E+02 -0.28119007507E+02  0.46142306442E+02  0.99998967803E+01 0.  0.
        -12    1    1    2    0    0 -0.33025399405E+02  0.12155612658E+02  0.28119007507E+02  0.45045693558E+02  0.00000000000E+00 0.  1.
         11    1    3    3    0    0  0.66079937888E+01 -0.20547486988E+01 -0.16512506670E+01  0.71143659699E+01  0.51100000000E-03 0.  1.
        -11    1    3    3    0    0  0.20373685938E+02 -0.55499222199E+01 -0.19512815550E+02  0.28751324948E+02  0.51100000000E-03 0. -1.
         12    1    3    3    0    0  0.60437196788E+01 -0.45509417393E+01 -0.69549412898E+01  0.10276615523E+02  0.00000000000E+00 0. -1.
</event>
<event>
 7    1  0.4626826E-008  0.4614232E+02  0.7816164E-02  0.1320468E+00
        -11   -1    0    0    0    0  0.00000000000E+00  0.00000000000E+00  0.45593999997E+02  0.45594000000E+02  0.51100000000E-03 0.  1.
         11   -1    0    0    0    0 -0.00000000000E+00 -0.00000000000E+00 -0.45593999997E+02  0.45594000000E+02  0.51100000000E-03 0. -1.
    9900012    2    1    2    0    0  0.14701877429E+02  0.23321520605E+02 -0.35624078496E+02  0.46142317721E+02  0.99999996350E+01 0.  0.
        -12    1    1    2    0    0 -0.14701877429E+02 -0.23321520605E+02  0.35624078496E+02  0.45045682279E+02  0.00000000000E+00 0.  1.
         11    1    3    3    0    0  0.85439388844E+01  0.15191418361E+02 -0.19969782609E+02  0.26506042729E+02  0.51100000000E-03 0. -1.
        -11    1    3    3    0    0  0.68410587806E+01  0.63972497985E+01 -0.10083510194E+02  0.13762342399E+02  0.51100000000E-03 0.  1.
        -12    1    3    3    0    0 -0.68312023604E+00  0.17328524458E+01 -0.55707856935E+01  0.58739325923E+01  0.00000000000E+00 0.  1.
</event>
<event>
 7    1  0.3981356E-008  0.4614232E+02  0.7816164E-02  0.1320468E+00
        -11   -1    0    0    0    0  0.00000000000E+00  0.00000000000E+00  0.45593999997E+02  0.45594000000E+02  0.51100000000E-03 0. -1.
         11   -1    0    0    0    0 -0.00000000000E+00 -0.00000000000E+00 -0.45593999997E+02  0.45594000000E+02  0.51100000000E-03 0.  1.
    9900012    2    1    2    0    0 -0.87701571275E+00  0.43836362834E+02  0.10330423316E+02  0.46142317532E+02  0.99999979120E+01 0.  0.
        -12    1    1    2    0    0  0.87701571275E+00 -0.43836362834E+02 -0.10330423316E+02  0.45045682468E+02  0.00000000000E+00 0.  1.
         11    1    3    3    0    0 -0.14081305482E+01  0.12230972670E+02  0.37323526700E+00  0.12317419735E+02  0.51100000000E-03 0. -1.
        -11    1    3    3    0    0  0.31624719349E+00  0.35932027072E+01 -0.10032408046E+01  0.37440099299E+01  0.51100000000E-03 0.  1.
        -12    1    3    3    0    0  0.21486764200E+00  0.28012187457E+02  0.10960428854E+02  0.30080887867E+02  0.00000000000E+00 0.  1.
</event>
<event>
 7    1  0.3981356E-008  0.4614232E+02  0.7816164E-02  0.1320468E+00
        -11   -1    0    0    0    0  0.00000000000E+00  0.00000000000E+00  0.45593999997E+02  0.45594000000E+02  0.51100000000E-03 0. -1.
         11   -1    0    0    0    0 -0.00000000000E+00 -0.00000000000E+00 -0.45593999997E+02  0.45594000000E+02  0.51100000000E-03 0.  1.
    9900012    2    1    2    0    0  0.43162116848E+02 -0.88968853160E+01  0.93268722924E+01  0.46142318233E+02  0.10000004304E+02 0.  0.
        -12    1    1    2    0    0 -0.43162116848E+02  0.88968853160E+01 -0.93268722924E+01  0.45045681767E+02  0.00000000000E+00 0.  1.
         11    1    3    3    0    0  0.74420444612E+01 -0.39994281027E+01  0.27792902832E+01  0.88940376461E+01  0.51100000000E-03 0. -1.
        -11    1    3    3    0    0  0.24577610181E+01  0.15522527592E+00 -0.11762938129E+01  0.27291668149E+01  0.51100000000E-03 0.  1.
         12    1    3    3    0    0  0.33262311368E+02 -0.50526824892E+01  0.77238758221E+01  0.34519113772E+02  0.00000000000E+00 0. -1.
</event>
<event>
 7    1  0.3981356E-008  0.4614232E+02  0.7816164E-02  0.1320468E+00
        -11   -1    0    0    0    0  0.00000000000E+00  0.00000000000E+00  0.45593999997E+02  0.45594000000E+02  0.51100000000E-03 0.  1.
         11   -1    0    0    0    0 -0.00000000000E+00 -0.00000000000E+00 -0.45593999997E+02  0.45594000000E+02  0.51100000000E-03 0. -1.
    9900012    2    1    2    0    0  0.38364430186E+02 -0.77371076778E+01 -0.22302941176E+02  0.46142317368E+02  0.99999964118E+01 0.  0.
        -12    1    1    2    0    0 -0.38364430186E+02  0.77371076778E+01  0.22302941176E+02  0.45045682632E+02  0.00000000000E+00 0.  1.
         11    1    3    3    0    0  0.17919467662E+02 -0.24864709501E+01 -0.10559397953E+02  0.20947332634E+02  0.51100000000E-03 0. -1.
        -11    1    3    3    0    0  0.16280455222E+02 -0.65109218260E+01 -0.73522876953E+01  0.19013191733E+02  0.51100000000E-03 0.  1.
         12    1    3    3    0    0  0.41645073018E+01  0.12602850983E+01 -0.43912555272E+01  0.61817930005E+01  0.00000000000E+00 0. -1.
</event>
<event>
 7    1  0.3981356E-008  0.4614232E+02  0.7816164E-02  0.1320468E+00
        -11   -1    0    0    0    0  0.00000000000E+00  0.00000000000E+00  0.45593999997E+02  0.45594000000E+02  0.51100000000E-03 0.  1.
         11   -1    0    0    0    0 -0.00000000000E+00 -0.00000000000E+00 -0.45593999997E+02  0.45594000000E+02  0.51100000000E-03 0. -1.
    9900012    2    1    2    0    0 -0.35041246362E+02  0.20366333174E+02 -0.19658002368E+02  0.46142317292E+02  0.99999957187E+01 0.  0.
        -12    1    1    2    0    0  0.35041246362E+02 -0.20366333174E+02  0.19658002368E+02  0.45045682708E+02  0.00000000000E+00 0.  1.
         11    1    3    3    0    0 -0.19607093671E+02  0.14005917373E+02 -0.12530842001E+02  0.27159268127E+02  0.51100000000E-03 0. -1.
        -11    1    3    3    0    0 -0.31774744458E+01  0.39644678672E+01 -0.25237182128E+01  0.56729624714E+01  0.51100000000E-03 0.  1.
         12    1    3    3    0    0 -0.12256678245E+02  0.23959479337E+01 -0.46034421548E+01  0.13310086693E+02  0.00000000000E+00 0. -1.
</event>
<event>
 7    1  0.3981356E-008  0.4614232E+02  0.7816164E-02  0.1320468E+00
        -11   -1    0    0    0    0  0.00000000000E+00  0.00000000000E+00  0.45593999997E+02  0.45594000000E+02  0.51100000000E-03 0.  1.
         11   -1    0    0    0    0 -0.00000000000E+00 -0.00000000000E+00 -0.45593999997E+02  0.45594000000E+02  0.51100000000E-03 0. -1.
    9900012    2    1    2    0    0 -0.19693925785E+02 -0.34556627591E+02 -0.21144790361E+02  0.46142318934E+02  0.10000010698E+02 0.  0.
        -12    1    1    2    0    0  0.19693925785E+02  0.34556627591E+02  0.21144790361E+02  0.45045681066E+02  0.00000000000E+00 0.  1.
         11    1    3    3    0    0 -0.88315521946E+01 -0.13062802646E+02 -0.86101643137E+01  0.17965746767E+02  0.51100000000E-03 0. -1.
        -11    1    3    3    0    0 -0.71384537628E+01 -0.11915838714E+02 -0.31134138860E+01  0.14235100304E+02  0.51100000000E-03 0.  1.
        -12    1    3    3    0    0 -0.37239198276E+01 -0.95779862314E+01 -0.94212121612E+01  0.13941471863E+02  0.00000000000E+00 0.  1.
</event>
<event>
 7    1  0.3981356E-008  0.4614232E+02  0.7816164E-02  0.1320468E+00
        -11   -1    0    0    0    0  0.00000000000E+00  0.00000000000E+00  0.45593999997E+02  0.45594000000E+02  0.51100000000E-03 0.  1.
         11   -1    0    0    0    0 -0.00000000000E+00 -0.00000000000E+00 -0.45593999997E+02  0.45594000000E+02  0.51100000000E-03 0. -1.
    9900012    2    1    2    0    0  0.12515126867E+02 -0.88962091669E+01 -0.42347876558E+02  0.46142316666E+02  0.99999900176E+01 0.  0.
        -12    1    1    2    0    0 -0.12515126867E+02  0.88962091669E+01  0.42347876558E+02  0.45045683334E+02  0.00000000000E+00 0.  1.
         11    1    3    3    0    0  0.33640242104E+01 -0.45041541853E+00 -0.77461789932E+01  0.84571166596E+01  0.51100000000E-03 0. -1.
        -11    1    3    3    0    0  0.44349610262E+01 -0.14975257644E+01 -0.47263996402E+01  0.66520911404E+01  0.51100000000E-03 0.  1.
         12    1    3    3    0    0  0.47161416307E+01 -0.69482679839E+01 -0.29875297924E+02  0.31033108866E+02  0.00000000000E+00 0. -1.
</event>
<event>
 7    1  0.3981356E-008  0.4614232E+02  0.7816164E-02  0.1320468E+00
        -11   -1    0    0    0    0  0.00000000000E+00  0.00000000000E+00  0.45593999997E+02  0.45594000000E+02  0.51100000000E-03 0. -1.
         11   -1    0    0    0    0 -0.00000000000E+00 -0.00000000000E+00 -0.45593999997E+02  0.45594000000E+02  0.51100000000E-03 0.  1.
    9900012    2    1    2    0    0 -0.43125897708E+02 -0.93340892523E+01 -0.90634092630E+01  0.46142315826E+02  0.99999823507E+01 0.  0.
        -12    1    1    2    0    0  0.43125897708E+02  0.93340892523E+01  0.90634092630E+01  0.45045684174E+02  0.00000000000E+00 0.  1.
         11    1    3    3    0    0 -0.31416738806E+02 -0.88361797501E+01 -0.57795232682E+01  0.33143512778E+02  0.51100000000E-03 0. -1.
        -11    1    3    3    0    0 -0.28089756857E+01 -0.19722179190E+01 -0.10551380300E+00  0.34338202263E+01  0.51100000000E-03 0.  1.
        -12    1    3    3    0    0 -0.89001832162E+01  0.14743084168E+01 -0.31783721918E+01  0.95649828217E+01  0.00000000000E+00 0.  1.
</event>
<event>
 7    1  0.3981356E-008  0.4614232E+02  0.7816164E-02  0.1320468E+00
        -11   -1    0    0    0    0  0.00000000000E+00  0.00000000000E+00  0.45593999997E+02  0.45594000000E+02  0.51100000000E-03 0.  1.
         11   -1    0    0    0    0 -0.00000000000E+00 -0.00000000000E+00 -0.45593999997E+02  0.45594000000E+02  0.51100000000E-03 0. -1.
    9900012    2    1    2    0    0  0.12598263183E+02  0.32027243782E+02 -0.29062911959E+02  0.46142318397E+02  0.10000005798E+02 0.  0.
        -12    1    1    2    0    0 -0.12598263183E+02 -0.32027243782E+02  0.29062911959E+02  0.45045681603E+02  0.00000000000E+00 0.  1.
         11    1    3    3    0    0  0.42189134202E+01  0.77631127558E+01 -0.55211638284E+01  0.10418656362E+02  0.51100000000E-03 0. -1.
        -11    1    3    3    0    0  0.47184201869E+01  0.47464822983E+01 -0.36808464905E+01  0.76381420788E+01  0.51100000000E-03 0.  1.
        -12    1    3    3    0    0  0.36609295763E+01  0.19517648728E+02 -0.19860901641E+02  0.28085519956E+02  0.00000000000E+00 0.  1.
</event>
<event>
 7    1  0.3981356E-008  0.4614232E+02  0.7816164E-02  0.1320468E+00
        -11   -1    0    0    0    0  0.00000000000E+00  0.00000000000E+00  0.45593999997E+02  0.45594000000E+02  0.51100000000E-03 0.  1.
         11   -1    0    0    0    0 -0.00000000000E+00 -0.00000000000E+00 -0.45593999997E+02  0.45594000000E+02  0.51100000000E-03 0. -1.
    9900012    2    1    2    0    0  0.21436226705E+02  0.56466096956E+01 -0.39213738545E+02  0.46142319773E+02  0.10000018349E+02 0.  0.
        -12    1    1    2    0    0 -0.21436226705E+02 -0.56466096956E+01  0.39213738545E+02  0.45045680227E+02  0.00000000000E+00 0.  1.
         11    1    3    3    0    0  0.12947275531E+00  0.76102340830E+00 -0.47107506869E+01  0.47735827340E+01  0.51100000000E-03 0. -1.
        -11    1    3    3    0    0  0.89270513631E+01  0.13882054231E+01 -0.20220258122E+02  0.22146742404E+02  0.51100000000E-03 0.  1.
        -12    1    3    3    0    0  0.12379702586E+02  0.34973808642E+01 -0.14282729737E+02  0.19221994635E+02  0.00000000000E+00 0.  1.
</event>
<event>
 7    1  0.3981356E-008  0.4614232E+02  0.7816164E-02  0.1320468E+00
        -11   -1    0    0    0    0  0.00000000000E+00  0.00000000000E+00  0.45593999997E+02  0.45594000000E+02  0.51100000000E-03 0.  1.
         11   -1    0    0    0    0 -0.00000000000E+00 -0.00000000000E+00 -0.45593999997E+02  0.45594000000E+02  0.51100000000E-03 0. -1.
    9900012    2    1    2    0    0 -0.25253218871E+02  0.62600988821E+01 -0.36772265173E+02  0.46142318883E+02  0.10000010229E+02 0.  0.
        -12    1    1    2    0    0  0.25253218871E+02 -0.62600988821E+01  0.36772265173E+02  0.45045681117E+02  0.00000000000E+00 0.  1.
         11    1    3    3    0    0 -0.10124586890E+02 -0.81988185709E+00 -0.13344124907E+02  0.16770364806E+02  0.51100000000E-03 0.  1.
        -11    1    3    3    0    0 -0.80297375267E+01  0.40074187189E+01 -0.17352999324E+02  0.19536188864E+02  0.51100000000E-03 0. -1.
        -12    1    3    3    0    0 -0.70988944544E+01  0.30725620203E+01 -0.60751409421E+01  0.98357652122E+01  0.00000000000E+00 0.  1.
</event>
<event>
 7    1  0.3981356E-008  0.4614232E+02  0.7816164E-02  0.1320468E+00
        -11   -1    0    0    0    0  0.00000000000E+00  0.00000000000E+00  0.45593999997E+02  0.45594000000E+02  0.51100000000E-03 0.  1.
         11   -1    0    0    0    0 -0.00000000000E+00 -0.00000000000E+00 -0.45593999997E+02  0.45594000000E+02  0.51100000000E-03 0. -1.
    9900012    2    1    2    0    0  0.19132501249E+02  0.39404109076E+02  0.10506049412E+02  0.46142317739E+02  0.99999997991E+01 0.  0.
        -12    1    1    2    0    0 -0.19132501249E+02 -0.39404109076E+02 -0.10506049412E+02  0.45045682261E+02  0.00000000000E+00 0.  1.
         11    1    3    3    0    0  0.16297443468E+00  0.32269201295E+01 -0.49832831278E+00  0.32692362345E+01  0.51100000000E-03 0. -1.
        -11    1    3    3    0    0  0.63900384621E-01 -0.31319186651E+00 -0.28232413081E-01  0.32088897562E+00  0.51100000000E-03 0.  1.
         12    1    3    3    0    0  0.18905626430E+02  0.36490380813E+02  0.11032610138E+02  0.42552192529E+02  0.00000000000E+00 0. -1.
</event>
<event>
 7    1  0.3981356E-008  0.4614232E+02  0.7816164E-02  0.1320468E+00
        -11   -1    0    0    0    0  0.00000000000E+00  0.00000000000E+00  0.45593999997E+02  0.45594000000E+02  0.51100000000E-03 0. -1.
         11   -1    0    0    0    0 -0.00000000000E+00 -0.00000000000E+00 -0.45593999997E+02  0.45594000000E+02  0.51100000000E-03 0.  1.
    9900012    2    1    2    0    0  0.34111612987E+02 -0.12700583435E+01  0.29392148322E+02  0.46142316835E+02  0.99999915573E+01 0.  0.
        -12    1    1    2    0    0 -0.34111612987E+02  0.12700583435E+01 -0.29392148322E+02  0.45045683165E+02  0.00000000000E+00 0.  1.
         11    1    3    3    0    0  0.13356336609E+02 -0.47215253857E+00  0.10775118056E+02  0.17167347640E+02  0.51100000000E-03 0. -1.
        -11    1    3    3    0    0  0.11467945451E+02  0.20044030537E+01  0.14068289387E+02  0.18260563272E+02  0.51100000000E-03 0.  1.
        -12    1    3    3    0    0  0.92873309273E+01 -0.28023088587E+01  0.45487408794E+01  0.10714405923E+02  0.00000000000E+00 0.  1.
</event>
<event>
 7    1  0.3981356E-008  0.4614232E+02  0.7816164E-02  0.1320468E+00
        -11   -1    0    0    0    0  0.00000000000E+00  0.00000000000E+00  0.45593999997E+02  0.45594000000E+02  0.51100000000E-03 0.  1.
         11   -1    0    0    0    0 -0.00000000000E+00 -0.00000000000E+00 -0.45593999997E+02  0.45594000000E+02  0.51100000000E-03 0. -1.
    9900012    2    1    2    0    0 -0.22329774167E+02 -0.38977345751E+02 -0.33557695481E+01  0.46142317794E+02  0.10000000299E+02 0.  0.
        -12    1    1    2    0    0  0.22329774167E+02  0.38977345751E+02  0.33557695481E+01  0.45045682206E+02  0.00000000000E+00 0.  1.
         11    1    3    3    0    0 -0.25467134275E+01 -0.79217752947E+01  0.22179005046E+01  0.86115826659E+01  0.51100000000E-03 0. -1.
        -11    1    3    3    0    0 -0.42232750067E+01 -0.36334830187E+01 -0.46544678780E+00  0.55906074448E+01  0.51100000000E-03 0.  1.
         12    1    3    3    0    0 -0.15559785733E+02 -0.27422087438E+02 -0.51082232649E+01  0.31940127683E+02  0.00000000000E+00 0. -1.
</event>
<event>
 7    1  0.3981356E-008  0.4614232E+02  0.7816164E-02  0.1320468E+00
        -11   -1    0    0    0    0  0.00000000000E+00  0.00000000000E+00  0.45593999997E+02  0.45594000000E+02  0.51100000000E-03 0.  1.
         11   -1    0    0    0    0 -0.00000000000E+00 -0.00000000000E+00 -0.45593999997E+02  0.45594000000E+02  0.51100000000E-03 0. -1.
    9900012    2    1    2    0    0 -0.32047973903E+01 -0.35585131091E+02 -0.27432482776E+02  0.46142318827E+02  0.10000009719E+02 0.  0.
        -12    1    1    2    0    0  0.32047973903E+01  0.35585131091E+02  0.27432482776E+02  0.45045681173E+02  0.00000000000E+00 0.  1.
         11    1    3    3    0    0  0.10503918482E+01 -0.23295349636E+02 -0.21286485415E+02  0.31573582300E+02  0.51100000000E-03 0. -1.
        -11    1    3    3    0    0 -0.16480481763E+01 -0.39524113595E+01 -0.88948959080E+00  0.43736495446E+01  0.51100000000E-03 0.  1.
         12    1    3    3    0    0 -0.26071410622E+01 -0.83373700956E+01 -0.52565077705E+01  0.10195086982E+02  0.00000000000E+00 0. -1.
</event>
<event>
 7    1  0.3981356E-008  0.4614232E+02  0.7816164E-02  0.1320468E+00
        -11   -1    0    0    0    0  0.00000000000E+00  0.00000000000E+00  0.45593999997E+02  0.45594000000E+02  0.51100000000E-03 0. -1.
         11   -1    0    0    0    0 -0.00000000000E+00 -0.00000000000E+00 -0.45593999997E+02  0.45594000000E+02  0.51100000000E-03 0.  1.
    9900012    2    1    2    0    0 -0.31991418805E+02  0.40488437391E+01  0.31452657050E+02  0.46142315986E+02  0.99999838094E+01 0.  0.
        -12    1    1    2    0    0  0.31991418805E+02 -0.40488437391E+01 -0.31452657050E+02  0.45045684014E+02  0.00000000000E+00 0.  1.
         11    1    3    3    0    0 -0.89435770974E+01 -0.21140744679E+01  0.85397759140E+01  0.12545304105E+02  0.51100000000E-03 0. -1.
        -11    1    3    3    0    0 -0.11440871630E+02  0.59573494518E+01  0.13263988067E+02  0.18501808989E+02  0.51100000000E-03 0.  1.
         12    1    3    3    0    0 -0.11606970078E+02  0.20556875527E+00  0.96488930691E+01  0.15095202892E+02  0.00000000000E+00 0. -1.
</event>
<event>
 7    1  0.3981356E-008  0.4614232E+02  0.7816164E-02  0.1320468E+00
        -11   -1    0    0    0    0  0.00000000000E+00  0.00000000000E+00  0.45593999997E+02  0.45594000000E+02  0.51100000000E-03 0.  1.
         11   -1    0    0    0    0 -0.00000000000E+00 -0.00000000000E+00 -0.45593999997E+02  0.45594000000E+02  0.51100000000E-03 0. -1.
    9900012    2    1    2    0    0  0.34512944870E+01  0.29487452591E+02 -0.33877605783E+02  0.46142317993E+02  0.10000002112E+02 0.  0.
        -12    1    1    2    0    0 -0.34512944870E+01 -0.29487452591E+02  0.33877605783E+02  0.45045682007E+02  0.00000000000E+00 0.  1.
         11    1    3    3    0    0  0.99378627433E+00  0.72074203142E+00 -0.28372574065E+01  0.30914575991E+01  0.51100000000E-03 0. -1.
        -11    1    3    3    0    0  0.41902980996E+00  0.13615756523E+02 -0.93811510626E+01  0.16539963942E+02  0.51100000000E-03 0.  1.
        -12    1    3    3    0    0  0.20384784027E+01  0.15150954036E+02 -0.21659197314E+02  0.26510896452E+02  0.00000000000E+00 0.  1.
</event>
<event>
 7    1  0.3981356E-008  0.4614232E+02  0.7816164E-02  0.1320468E+00
        -11   -1    0    0    0    0  0.00000000000E+00  0.00000000000E+00  0.45593999997E+02  0.45594000000E+02  0.51100000000E-03 0.  1.
         11   -1    0    0    0    0 -0.00000000000E+00 -0.00000000000E+00 -0.45593999997E+02  0.45594000000E+02  0.51100000000E-03 0. -1.
    9900012    2    1    2    0    0  0.78968775562E+01 -0.44339465171E+02  0.87444054219E+00  0.46142317709E+02  0.99999995230E+01 0.  0.
        -12    1    1    2    0    0 -0.78968775562E+01  0.44339465171E+02 -0.87444054219E+00  0.45045682291E+02  0.00000000000E+00 0.  1.
         11    1    3    3    0    0  0.22191014753E+00 -0.70662592907E+01 -0.86458069460E+00  0.71224128296E+01  0.51100000000E-03 0. -1.
        -11    1    3    3    0    0  0.23352100578E+00 -0.21547983854E+02  0.17818408765E+01  0.21622791157E+02  0.51100000000E-03 0.  1.
        -12    1    3    3    0    0  0.74414464029E+01 -0.15725222027E+02 -0.42819639682E-01  0.17397113723E+02  0.00000000000E+00 0.  1.
</event>
<event>
 7    1  0.3981356E-008  0.4614232E+02  0.7816164E-02  0.1320468E+00
        -11   -1    0    0    0    0  0.00000000000E+00  0.00000000000E+00  0.45593999997E+02  0.45594000000E+02  0.51100000000E-03 0.  1.
         11   -1    0    0    0    0 -0.00000000000E+00 -0.00000000000E+00 -0.45593999997E+02  0.45594000000E+02  0.51100000000E-03 0. -1.
    9900012    2    1    2    0    0  0.16745278292E+02 -0.21772840640E+02 -0.35702277222E+02  0.46142317260E+02  0.99999954346E+01 0.  0.
        -12    1    1    2    0    0 -0.16745278292E+02  0.21772840640E+02  0.35702277222E+02  0.45045682740E+02  0.00000000000E+00 0.  1.
         11    1    3    3    0    0  0.15528405775E+02 -0.18295490351E+02 -0.26472235713E+02  0.35730038021E+02  0.51100000000E-03 0. -1.
        -11    1    3    3    0    0  0.21854414735E+01 -0.29519128145E+01 -0.76492130084E+01  0.84853051570E+01  0.51100000000E-03 0.  1.
        -12    1    3    3    0    0 -0.96856895688E+00 -0.52543747488E+00 -0.15808285009E+01  0.19269740822E+01  0.00000000000E+00 0.  1.
</event>
<event>
 7    1  0.3981356E-008  0.4614232E+02  0.7816164E-02  0.1320468E+00
        -11   -1    0    0    0    0  0.00000000000E+00  0.00000000000E+00  0.45593999997E+02  0.45594000000E+02  0.51100000000E-03 0.  1.
         11   -1    0    0    0    0 -0.00000000000E+00 -0.00000000000E+00 -0.45593999997E+02  0.45594000000E+02  0.51100000000E-03 0. -1.
    9900012    2    1    2    0    0 -0.18152145557E+01  0.41214558382E+02 -0.18088081175E+02  0.46142317553E+02  0.99999981058E+01 0.  0.
        -12    1    1    2    0    0  0.18152145557E+01 -0.41214558382E+02  0.18088081175E+02  0.45045682447E+02  0.00000000000E+00 0.  1.
         11    1    3    3    0    0  0.23670376236E+01  0.16074139885E+02 -0.92772452620E+01  0.18709572953E+02  0.51100000000E-03 0. -1.
        -11    1    3    3    0    0 -0.41286234898E+01  0.17903978954E+02 -0.41864713005E+01  0.18844748248E+02  0.51100000000E-03 0.  1.
        -12    1    3    3    0    0 -0.53628689551E-01  0.72364395427E+01 -0.46243646127E+01  0.85879963532E+01  0.00000000000E+00 0.  1.
</event>
<event>
 7    1  0.3981356E-008  0.4614232E+02  0.7816164E-02  0.1320468E+00
        -11   -1    0    0    0    0  0.00000000000E+00  0.00000000000E+00  0.45593999997E+02  0.45594000000E+02  0.51100000000E-03 0.  1.
         11   -1    0    0    0    0 -0.00000000000E+00 -0.00000000000E+00 -0.45593999997E+02  0.45594000000E+02  0.51100000000E-03 0. -1.
    9900012    2    1    2    0    0 -0.46099397337E+01 -0.90578078371E+01 -0.43884143355E+02  0.46142318019E+02  0.10000002349E+02 0.  0.
        -12    1    1    2    0    0  0.46099397337E+01  0.90578078371E+01  0.43884143355E+02  0.45045681981E+02  0.00000000000E+00 0.  1.
         11    1    3    3    0    0 -0.15545673764E+01  0.98554956521E+00 -0.13889838672E+02  0.14011267119E+02  0.51100000000E-03 0. -1.
        -11    1    3    3    0    0  0.43919662359E+00 -0.64134402398E+01 -0.18345695589E+02  0.19439384154E+02  0.51100000000E-03 0.  1.
         12    1    3    3    0    0 -0.34945689809E+01 -0.36299171625E+01 -0.11648609093E+02  0.12691666746E+02  0.00000000000E+00 0. -1.
</event>
<event>
 7    1  0.3981356E-008  0.4614232E+02  0.7816164E-02  0.1320468E+00
        -11   -1    0    0    0    0  0.00000000000E+00  0.00000000000E+00  0.45593999997E+02  0.45594000000E+02  0.51100000000E-03 0. -1.
         11   -1    0    0    0    0 -0.00000000000E+00 -0.00000000000E+00 -0.45593999997E+02  0.45594000000E+02  0.51100000000E-03 0.  1.
    9900012    2    1    2    0    0  0.63653018491E+01  0.11768538108E+02  0.43012764433E+02  0.46142318065E+02  0.10000002768E+02 0.  0.
        -12    1    1    2    0    0 -0.63653018491E+01 -0.11768538108E+02 -0.43012764433E+02  0.45045681935E+02  0.00000000000E+00 0.  1.
         11    1    3    3    0    0  0.23595176891E+01  0.15827074814E+01  0.67054727806E+01  0.72825580787E+01  0.51100000000E-03 0. -1.
        -11    1    3    3    0    0  0.33025684129E+01  0.18736578630E+01  0.40934106318E+01  0.55833290044E+01  0.51100000000E-03 0.  1.
         12    1    3    3    0    0  0.70321574703E+00  0.83121727631E+01  0.32213881021E+02  0.33276430981E+02  0.00000000000E+00 0. -1.
</event>
<event>
 7    1  0.3981356E-008  0.4614232E+02  0.7816164E-02  0.1320468E+00
        -11   -1    0    0    0    0  0.00000000000E+00  0.00000000000E+00  0.45593999997E+02  0.45594000000E+02  0.51100000000E-03 0. -1.
         11   -1    0    0    0    0 -0.00000000000E+00 -0.00000000000E+00 -0.45593999997E+02  0.45594000000E+02  0.51100000000E-03 0.  1.
    9900012    2    1    2    0    0  0.24700503036E+02 -0.23639918190E+02 -0.29328362329E+02  0.46142318529E+02  0.10000007000E+02 0.  0.
        -12    1    1    2    0    0 -0.24700503036E+02  0.23639918190E+02  0.29328362329E+02  0.45045681471E+02  0.00000000000E+00 0.  1.
         11    1    3    3    0    0  0.17497234537E+02 -0.12653132577E+02 -0.16049788334E+02  0.26904473350E+02  0.51100000000E-03 0. -1.
        -11    1    3    3    0    0  0.27527215946E+01 -0.41904968660E+01 -0.21397906716E+01  0.54512791655E+01  0.51100000000E-03 0.  1.
         12    1    3    3    0    0  0.44505469051E+01 -0.67962887472E+01 -0.11138783324E+02  0.13786566013E+02  0.00000000000E+00 0. -1.
</event>
<event>
 7    1  0.3981356E-008  0.4614232E+02  0.7816164E-02  0.1320468E+00
        -11   -1    0    0    0    0  0.00000000000E+00  0.00000000000E+00  0.45593999997E+02  0.45594000000E+02  0.51100000000E-03 0. -1.
         11   -1    0    0    0    0 -0.00000000000E+00 -0.00000000000E+00 -0.45593999997E+02  0.45594000000E+02  0.51100000000E-03 0.  1.
    9900012    2    1    2    0    0 -0.22835940359E+02  0.37427812157E+02  0.10334037047E+02  0.46142316338E+02  0.99999870203E+01 0.  0.
        -12    1    1    2    0    0  0.22835940359E+02 -0.37427812157E+02 -0.10334037047E+02  0.45045683662E+02  0.00000000000E+00 0.  1.
         11    1    3    3    0    0 -0.46204437894E+01  0.86114206717E+01  0.97681844636E+00  0.98213665716E+01  0.51100000000E-03 0. -1.
        -11    1    3    3    0    0 -0.89940384540E+01  0.69599834571E+01  0.29602644608E+01  0.11751479199E+02  0.51100000000E-03 0.  1.
        -12    1    3    3    0    0 -0.92214581156E+01  0.21856408028E+02  0.63969541400E+01  0.24569470567E+02  0.00000000000E+00 0.  1.
</event>
<event>
 7    1  0.3981356E-008  0.4614232E+02  0.7816164E-02  0.1320468E+00
        -11   -1    0    0    0    0  0.00000000000E+00  0.00000000000E+00  0.45593999997E+02  0.45594000000E+02  0.51100000000E-03 0. -1.
         11   -1    0    0    0    0 -0.00000000000E+00 -0.00000000000E+00 -0.45593999997E+02  0.45594000000E+02  0.51100000000E-03 0.  1.
    9900012    2    1    2    0    0  0.43477956709E+02  0.19302406833E+01  0.11621311373E+02  0.46142318445E+02  0.10000006240E+02 0.  0.
        -12    1    1    2    0    0 -0.43477956709E+02 -0.19302406833E+01 -0.11621311373E+02  0.45045681555E+02  0.00000000000E+00 0.  1.
         11    1    3    3    0    0  0.41759335446E+02  0.73963396177E+00  0.90277738774E+01  0.42730432443E+02  0.51100000000E-03 0. -1.
        -11    1    3    3    0    0  0.72717983775E-01  0.36775636462E+00  0.38786898794E+00  0.53942122855E+00  0.51100000000E-03 0.  1.
         12    1    3    3    0    0  0.16459032793E+01  0.82285035689E+00  0.22056685074E+01  0.28724647742E+01  0.00000000000E+00 0. -1.
</event>
<event>
 7    1  0.3981356E-008  0.4614232E+02  0.7816164E-02  0.1320468E+00
        -11   -1    0    0    0    0  0.00000000000E+00  0.00000000000E+00  0.45593999997E+02  0.45594000000E+02  0.51100000000E-03 0.  1.
         11   -1    0    0    0    0 -0.00000000000E+00 -0.00000000000E+00 -0.45593999997E+02  0.45594000000E+02  0.51100000000E-03 0. -1.
    9900012    2    1    2    0    0  0.12469227727E+02  0.13040301516E+02 -0.41274476208E+02  0.46142317743E+02  0.99999998335E+01 0.  0.
        -12    1    1    2    0    0 -0.12469227727E+02 -0.13040301516E+02  0.41274476208E+02  0.45045682257E+02  0.00000000000E+00 0.  1.
         11    1    3    3    0    0  0.53041449082E+01  0.54134946664E+01 -0.17455640643E+02  0.19029957127E+02  0.51100000000E-03 0. -1.
        -11    1    3    3    0    0  0.56301135506E+01  0.86331624902E+01 -0.15644268029E+02  0.18734267949E+02  0.51100000000E-03 0.  1.
        -12    1    3    3    0    0  0.15349692685E+01 -0.10063556410E+01 -0.81745675364E+01  0.83780926671E+01  0.00000000000E+00 0.  1.
</event>
<event>
 7    1  0.3981356E-008  0.4614232E+02  0.7816164E-02  0.1320468E+00
        -11   -1    0    0    0    0  0.00000000000E+00  0.00000000000E+00  0.45593999997E+02  0.45594000000E+02  0.51100000000E-03 0.  1.
         11   -1    0    0    0    0 -0.00000000000E+00 -0.00000000000E+00 -0.45593999997E+02  0.45594000000E+02  0.51100000000E-03 0. -1.
    9900012    2    1    2    0    0  0.23709897072E+02 -0.20343382051E+02 -0.32451519630E+02  0.46142317202E+02  0.99999949035E+01 0.  0.
        -12    1    1    2    0    0 -0.23709897072E+02  0.20343382051E+02  0.32451519630E+02  0.45045682798E+02  0.00000000000E+00 0.  1.
         11    1    3    3    0    0  0.12237775174E+02 -0.12430645977E+02 -0.23615276494E+02  0.29359247006E+02  0.51100000000E-03 0. -1.
        -11    1    3    3    0    0  0.34137215215E+01 -0.15201781684E+01 -0.38025622414E+01  0.53314084584E+01  0.51100000000E-03 0.  1.
        -12    1    3    3    0    0  0.80584003775E+01 -0.63925579050E+01 -0.50336808944E+01  0.11451661738E+02  0.00000000000E+00 0.  1.
</event>
<event>
 7    1  0.3981356E-008  0.4614232E+02  0.7816164E-02  0.1320468E+00
        -11   -1    0    0    0    0  0.00000000000E+00  0.00000000000E+00  0.45593999997E+02  0.45594000000E+02  0.51100000000E-03 0.  1.
         11   -1    0    0    0    0 -0.00000000000E+00 -0.00000000000E+00 -0.45593999997E+02  0.45594000000E+02  0.51100000000E-03 0. -1.
    9900012    2    1    2    0    0 -0.99446972646E+01  0.28805300097E+01 -0.43839697034E+02  0.46142317712E+02  0.99999995478E+01 0.  0.
        -12    1    1    2    0    0  0.99446972646E+01 -0.28805300097E+01  0.43839697034E+02  0.45045682288E+02  0.00000000000E+00 0.  1.
         11    1    3    3    0    0 -0.64842024639E+00 -0.73284111591E+00 -0.92275035439E+01  0.92792417164E+01  0.51100000000E-03 0. -1.
        -11    1    3    3    0    0  0.45336990998E+00  0.23241693716E+01 -0.34392335191E+01  0.41755999573E+01  0.51100000000E-03 0.  1.
        -12    1    3    3    0    0 -0.97496469282E+01  0.12892017540E+01 -0.31172959971E+02  0.32687476038E+02  0.00000000000E+00 0.  1.
</event>
<event>
 7    1  0.3981356E-008  0.4614232E+02  0.7816164E-02  0.1320468E+00
        -11   -1    0    0    0    0  0.00000000000E+00  0.00000000000E+00  0.45593999997E+02  0.45594000000E+02  0.51100000000E-03 0. -1.
         11   -1    0    0    0    0 -0.00000000000E+00 -0.00000000000E+00 -0.45593999997E+02  0.45594000000E+02  0.51100000000E-03 0.  1.
    9900012    2    1    2    0    0 -0.47131472125E+00  0.35170521016E+02  0.28141176099E+02  0.46142317872E+02  0.10000001014E+02 0.  0.
        -12    1    1    2    0    0  0.47131472125E+00 -0.35170521016E+02 -0.28141176099E+02  0.45045682128E+02  0.00000000000E+00 0.  1.
         11    1    3    3    0    0 -0.15310073450E+00  0.11275829455E+02  0.15269389635E+02  0.18982150295E+02  0.51100000000E-03 0. -1.
        -11    1    3    3    0    0 -0.29610271959E+00  0.12874108648E+02  0.64066511593E+01  0.14383168276E+02  0.51100000000E-03 0.  1.
         12    1    3    3    0    0 -0.22111267155E-01  0.11020582913E+02  0.64651353049E+01  0.12776999302E+02  0.00000000000E+00 0. -1.
</event>
<event>
 7    1  0.3981356E-008  0.4614232E+02  0.7816164E-02  0.1320468E+00
        -11   -1    0    0    0    0  0.00000000000E+00  0.00000000000E+00  0.45593999997E+02  0.45594000000E+02  0.51100000000E-03 0. -1.
         11   -1    0    0    0    0 -0.00000000000E+00 -0.00000000000E+00 -0.45593999997E+02  0.45594000000E+02  0.51100000000E-03 0.  1.
    9900012    2    1    2    0    0 -0.17204575417E+01  0.19490732355E+02  0.40574187626E+02  0.46142319592E+02  0.10000016696E+02 0.  0.
        -12    1    1    2    0    0  0.17204575417E+01 -0.19490732355E+02 -0.40574187626E+02  0.45045680408E+02  0.00000000000E+00 0.  1.
         11    1    3    3    0    0 -0.16239200234E+01  0.25926979548E+01  0.35832185979E+01  0.47115448325E+01  0.51100000000E-03 0. -1.
        -11    1    3    3    0    0 -0.86230361480E+00 -0.60609230881E+00  0.31743532136E+01  0.33447621734E+01  0.51100000000E-03 0.  1.
         12    1    3    3    0    0  0.76576609650E+00  0.17504126709E+02  0.33816615815E+02  0.38086012586E+02  0.00000000000E+00 0. -1.
</event>
<event>
 7    1  0.3981356E-008  0.4614232E+02  0.7816164E-02  0.1320468E+00
        -11   -1    0    0    0    0  0.00000000000E+00  0.00000000000E+00  0.45593999997E+02  0.45594000000E+02  0.51100000000E-03 0. -1.
         11   -1    0    0    0    0 -0.00000000000E+00 -0.00000000000E+00 -0.45593999997E+02  0.45594000000E+02  0.51100000000E-03 0.  1.
    9900012    2    1    2    0    0  0.25928814438E+01 -0.44804824164E+02 -0.38624044800E+01  0.46142317954E+02  0.10000001763E+02 0.  0.
        -12    1    1    2    0    0 -0.25928814438E+01  0.44804824164E+02  0.38624044800E+01  0.45045682046E+02  0.00000000000E+00 0.  1.
         11    1    3    3    0    0  0.23965401217E+01 -0.34436702986E+02 -0.66544005700E+01  0.35155525374E+02  0.51100000000E-03 0. -1.
        -11    1    3    3    0    0  0.61367472886E+00 -0.97005581042E+01  0.21125749446E+01  0.99468787750E+01  0.51100000000E-03 0.  1.
        -12    1    3    3    0    0 -0.41733340675E+00 -0.66756307393E+00  0.67942114537E+00  0.10399138055E+01  0.00000000000E+00 0.  1.
</event>
<event>
 7    1  0.3981356E-008  0.4614231E+02  0.7816164E-02  0.1320468E+00
        -11   -1    0    0    0    0  0.00000000000E+00  0.00000000000E+00  0.45593999997E+02  0.45594000000E+02  0.51100000000E-03 0.  1.
         11   -1    0    0    0    0 -0.00000000000E+00 -0.00000000000E+00 -0.45593999997E+02  0.45594000000E+02  0.51100000000E-03 0. -1.
    9900012    2    1    2    0    0  0.11217140484E+02  0.28690173837E+02 -0.32865842525E+02  0.46142312967E+02  0.99999562824E+01 0.  0.
        -12    1    1    2    0    0 -0.11217140484E+02 -0.28690173837E+02  0.32865842525E+02  0.45045687033E+02  0.00000000000E+00 0.  1.
         11    1    3    3    0    0 -0.11688238233E+00  0.35876048175E+01 -0.56839719494E+01  0.67225075084E+01  0.51100000000E-03 0. -1.
        -11    1    3    3    0    0  0.94152489593E+00  0.10585937956E+02 -0.11479193872E+02  0.15643543197E+02  0.51100000000E-03 0.  1.
         12    1    3    3    0    0  0.10392497970E+02  0.14516631063E+02 -0.15702676704E+02  0.23776262262E+02  0.00000000000E+00 0. -1.
</event>
<event>
 7    1  0.3981356E-008  0.4614232E+02  0.7816164E-02  0.1320468E+00
        -11   -1    0    0    0    0  0.00000000000E+00  0.00000000000E+00  0.45593999997E+02  0.45594000000E+02  0.51100000000E-03 0. -1.
         11   -1    0    0    0    0 -0.00000000000E+00 -0.00000000000E+00 -0.45593999997E+02  0.45594000000E+02  0.51100000000E-03 0.  1.
    9900012    2    1    2    0    0 -0.91830001367E+01  0.19460307035E+02  0.39573759754E+02  0.46142317604E+02  0.99999985700E+01 0.  0.
        -12    1    1    2    0    0  0.91830001367E+01 -0.19460307035E+02 -0.39573759754E+02  0.45045682396E+02  0.00000000000E+00 0.  1.
         11    1    3    3    0    0 -0.28700330611E+01  0.40406007580E+01  0.12224105775E+02  0.13190614335E+02  0.51100000000E-03 0. -1.
        -11    1    3    3    0    0 -0.76077565102E+01  0.90983108864E+01  0.19027605713E+02  0.22421128418E+02  0.51100000000E-03 0.  1.
        -12    1    3    3    0    0  0.12947894347E+01  0.63213953908E+01  0.83220482653E+01  0.10530574851E+02  0.00000000000E+00 0.  1.
</event>
<event>
 7    1  0.3981356E-008  0.4614232E+02  0.7816164E-02  0.1320468E+00
        -11   -1    0    0    0    0  0.00000000000E+00  0.00000000000E+00  0.45593999997E+02  0.45594000000E+02  0.51100000000E-03 0.  1.
         11   -1    0    0    0    0 -0.00000000000E+00 -0.00000000000E+00 -0.45593999997E+02  0.45594000000E+02  0.51100000000E-03 0. -1.
    9900012    2    1    2    0    0  0.67759102472E+01 -0.36675043495E+02 -0.25261469164E+02  0.46142316530E+02  0.99999887704E+01 0.  0.
        -12    1    1    2    0    0 -0.67759102472E+01  0.36675043495E+02  0.25261469164E+02  0.45045683470E+02  0.00000000000E+00 0.  1.
         11    1    3    3    0    0  0.48408322129E+01 -0.13712175350E+02 -0.85302449780E+01  0.16858899400E+02  0.51100000000E-03 0. -1.
        -11    1    3    3    0    0  0.34978601828E+01 -0.56793246558E+01 -0.50043806788E+01  0.83386797902E+01  0.51100000000E-03 0.  1.
         12    1    3    3    0    0 -0.15627821485E+01 -0.17283543489E+02 -0.11726843507E+02  0.20944737339E+02  0.00000000000E+00 0. -1.
</event>
<event>
 7    1  0.3981356E-008  0.4614231E+02  0.7816164E-02  0.1320468E+00
        -11   -1    0    0    0    0  0.00000000000E+00  0.00000000000E+00  0.45593999997E+02  0.45594000000E+02  0.51100000000E-03 0. -1.
         11   -1    0    0    0    0 -0.00000000000E+00 -0.00000000000E+00 -0.45593999997E+02  0.45594000000E+02  0.51100000000E-03 0.  1.
    9900012    2    1    2    0    0  0.29627487062E+01  0.12103567267E+02  0.43287869759E+02  0.46142313317E+02  0.99999594750E+01 0.  0.
        -12    1    1    2    0    0 -0.29627487062E+01 -0.12103567267E+02 -0.43287869759E+02  0.45045686683E+02  0.00000000000E+00 0.  1.
         11    1    3    3    0    0 -0.20287794394E+00  0.40977265250E+01  0.87586525269E+01  0.96719448138E+01  0.51100000000E-03 0. -1.
        -11    1    3    3    0    0  0.46321168096E+01  0.87677099874E+01  0.27037231337E+02  0.28798283338E+02  0.51100000000E-03 0.  1.
        -12    1    3    3    0    0 -0.14664901595E+01 -0.76186924587E+00  0.74919858948E+01  0.76720851653E+01  0.00000000000E+00 0.  1.
</event>
<event>
 7    1  0.3981356E-008  0.4614232E+02  0.7816164E-02  0.1320468E+00
        -11   -1    0    0    0    0  0.00000000000E+00  0.00000000000E+00  0.45593999997E+02  0.45594000000E+02  0.51100000000E-03 0.  1.
         11   -1    0    0    0    0 -0.00000000000E+00 -0.00000000000E+00 -0.45593999997E+02  0.45594000000E+02  0.51100000000E-03 0. -1.
    9900012    2    1    2    0    0 -0.16463798417E+02 -0.11438917439E+02 -0.40338666605E+02  0.46142317477E+02  0.99999974113E+01 0.  0.
        -12    1    1    2    0    0  0.16463798417E+02  0.11438917439E+02  0.40338666605E+02  0.45045682523E+02  0.00000000000E+00 0.  1.
         11    1    3    3    0    0 -0.30163680863E+01 -0.19395730331E+01 -0.11899742502E+02  0.12428366419E+02  0.51100000000E-03 0. -1.
        -11    1    3    3    0    0 -0.24768827294E+01 -0.36990176890E+01 -0.28810390530E+01  0.53026470942E+01  0.51100000000E-03 0.  1.
        -12    1    3    3    0    0 -0.10970547601E+02 -0.58003267170E+01 -0.25557885050E+02  0.28411303964E+02  0.00000000000E+00 0.  1.
</event>
<event>
 7    1  0.3981356E-008  0.4614232E+02  0.7816164E-02  0.1320468E+00
        -11   -1    0    0    0    0  0.00000000000E+00  0.00000000000E+00  0.45593999997E+02  0.45594000000E+02  0.51100000000E-03 0.  1.
         11   -1    0    0    0    0 -0.00000000000E+00 -0.00000000000E+00 -0.45593999997E+02  0.45594000000E+02  0.51100000000E-03 0. -1.
    9900012    2    1    2    0    0  0.93543240492E+01  0.33404859372E+02 -0.28735438578E+02  0.46142318316E+02  0.10000005059E+02 0.  0.
        -12    1    1    2    0    0 -0.93543240492E+01 -0.33404859372E+02  0.28735438578E+02  0.45045681684E+02  0.00000000000E+00 0.  1.
         11    1    3    3    0    0  0.23926178583E+01  0.64701968449E+01 -0.21989106248E+01  0.72403919524E+01  0.51100000000E-03 0. -1.
        -11    1    3    3    0    0  0.10750490357E+01  0.71568819576E+01 -0.10573063319E+02  0.12812742017E+02  0.51100000000E-03 0.  1.
         12    1    3    3    0    0  0.58866571552E+01  0.19777780570E+02 -0.15963464634E+02  0.26089184346E+02  0.00000000000E+00 0. -1.
</event>
<event>
 7    1  0.3981356E-008  0.4614232E+02  0.7816164E-02  0.1320468E+00
        -11   -1    0    0    0    0  0.00000000000E+00  0.00000000000E+00  0.45593999997E+02  0.45594000000E+02  0.51100000000E-03 0.  1.
         11   -1    0    0    0    0 -0.00000000000E+00 -0.00000000000E+00 -0.45593999997E+02  0.45594000000E+02  0.51100000000E-03 0. -1.
    9900012    2    1    2    0    0  0.21212527096E+02 -0.35107305555E+02 -0.18617712805E+02  0.46142318306E+02  0.10000004970E+02 0.  0.
        -12    1    1    2    0    0 -0.21212527096E+02  0.35107305555E+02  0.18617712805E+02  0.45045681694E+02  0.00000000000E+00 0.  1.
         11    1    3    3    0    0  0.10383836668E+02 -0.15509374797E+02 -0.63082650460E+01  0.19701750651E+02  0.51100000000E-03 0. -1.
        -11    1    3    3    0    0  0.69124965564E+01 -0.17652401154E+02 -0.91800070588E+01  0.21063295207E+02  0.51100000000E-03 0.  1.
        -12    1    3    3    0    0  0.39161938720E+01 -0.19455296044E+01 -0.31294407004E+01  0.53772724482E+01  0.00000000000E+00 0.  1.
</event>
<event>
 7    1  0.3981356E-008  0.4614232E+02  0.7816164E-02  0.1320468E+00
        -11   -1    0    0    0    0  0.00000000000E+00  0.00000000000E+00  0.45593999997E+02  0.45594000000E+02  0.51100000000E-03 0.  1.
         11   -1    0    0    0    0 -0.00000000000E+00 -0.00000000000E+00 -0.45593999997E+02  0.45594000000E+02  0.51100000000E-03 0. -1.
    9900012    2    1    2    0    0  0.26493313693E+02 -0.18122717373E+02 -0.31603558904E+02  0.46142317734E+02  0.99999997527E+01 0.  0.
        -12    1    1    2    0    0 -0.26493313693E+02  0.18122717373E+02  0.31603558904E+02  0.45045682266E+02  0.00000000000E+00 0.  1.
         11    1    3    3    0    0  0.10457734259E+02 -0.99190414042E+01 -0.11601680350E+02  0.18502718055E+02  0.51100000000E-03 0. -1.
        -11    1    3    3    0    0  0.11708531057E+02 -0.36810017541E+01 -0.99584023717E+01  0.15805355152E+02  0.51100000000E-03 0.  1.
         12    1    3    3    0    0  0.43270483774E+01 -0.45226742145E+01 -0.10043476182E+02  0.11834244527E+02  0.00000000000E+00 0. -1.
</event>
<event>
 7    1  0.3981356E-008  0.4614232E+02  0.7816164E-02  0.1320468E+00
        -11   -1    0    0    0    0  0.00000000000E+00  0.00000000000E+00  0.45593999997E+02  0.45594000000E+02  0.51100000000E-03 0.  1.
         11   -1    0    0    0    0 -0.00000000000E+00 -0.00000000000E+00 -0.45593999997E+02  0.45594000000E+02  0.51100000000E-03 0. -1.
    9900012    2    1    2    0    0  0.35715818452E+02  0.44943789179E+01 -0.27079407763E+02  0.46142318139E+02  0.10000003442E+02 0.  0.
        -12    1    1    2    0    0 -0.35715818452E+02 -0.44943789179E+01  0.27079407763E+02  0.45045681861E+02  0.00000000000E+00 0.  1.
         11    1    3    3    0    0  0.28618778869E+01 -0.81887494895E+00 -0.12988512041E+01  0.32477555223E+01  0.51100000000E-03 0. -1.
        -11    1    3    3    0    0  0.18339580132E+02  0.25861709003E+01 -0.19355129239E+02  0.26788981083E+02  0.51100000000E-03 0.  1.
         12    1    3    3    0    0  0.14514360433E+02  0.27270829666E+01 -0.64254273206E+01  0.16105581533E+02  0.00000000000E+00 0. -1.
</event>
<event>
 7    1  0.3981356E-008  0.4614232E+02  0.7816164E-02  0.1320468E+00
        -11   -1    0    0    0    0  0.00000000000E+00  0.00000000000E+00  0.45593999997E+02  0.45594000000E+02  0.51100000000E-03 0. -1.
         11   -1    0    0    0    0 -0.00000000000E+00 -0.00000000000E+00 -0.45593999997E+02  0.45594000000E+02  0.51100000000E-03 0.  1.
    9900012    2    1    2    0    0 -0.32944261716E+02 -0.30672350424E+02  0.17309014106E+01  0.46142317852E+02  0.10000000827E+02 0.  0.
        -12    1    1    2    0    0  0.32944261716E+02  0.30672350424E+02 -0.17309014106E+01  0.45045682148E+02  0.00000000000E+00 0.  1.
         11    1    3    3    0    0 -0.13408877331E+02 -0.76250826004E+01  0.35889709022E+01  0.15837316324E+02  0.51100000000E-03 0. -1.
        -11    1    3    3    0    0 -0.90975842144E+01 -0.97334989355E+01 -0.48946740280E+00  0.13332164815E+02  0.51100000000E-03 0.  1.
         12    1    3    3    0    0 -0.10437800170E+02 -0.13313768888E+02 -0.13686020888E+01  0.16972836712E+02  0.00000000000E+00 0. -1.
</event>
<event>
 7    1  0.3981356E-008  0.4614232E+02  0.7816164E-02  0.1320468E+00
        -11   -1    0    0    0    0  0.00000000000E+00  0.00000000000E+00  0.45593999997E+02  0.45594000000E+02  0.51100000000E-03 0. -1.
         11   -1    0    0    0    0 -0.00000000000E+00 -0.00000000000E+00 -0.45593999997E+02  0.45594000000E+02  0.51100000000E-03 0.  1.
    9900012    2    1    2    0    0  0.27452046146E+02  0.18116702857E+02  0.30777977876E+02  0.46142315610E+02  0.99999803867E+01 0.  0.
        -12    1    1    2    0    0 -0.27452046146E+02 -0.18116702857E+02 -0.30777977876E+02  0.45045684390E+02  0.00000000000E+00 0.  1.
         11    1    3    3    0    0  0.40588501804E+01  0.20555745398E+01  0.68281507169E+01  0.82050773275E+01  0.51100000000E-03 0. -1.
        -11    1    3    3    0    0  0.11239208491E+02  0.12370243015E+02  0.13991794136E+02  0.21797087493E+02  0.51100000000E-03 0.  1.
         12    1    3    3    0    0  0.12153987474E+02  0.36908853021E+01  0.99580330232E+01  0.16140150790E+02  0.00000000000E+00 0. -1.
</event>
<event>
 7    1  0.3981356E-008  0.4614232E+02  0.7816164E-02  0.1320468E+00
        -11   -1    0    0    0    0  0.00000000000E+00  0.00000000000E+00  0.45593999997E+02  0.45594000000E+02  0.51100000000E-03 0.  1.
         11   -1    0    0    0    0 -0.00000000000E+00 -0.00000000000E+00 -0.45593999997E+02  0.45594000000E+02  0.51100000000E-03 0. -1.
    9900012    2    1    2    0    0  0.79838088136E+01 -0.40058424579E+02 -0.18991970285E+02  0.46142317430E+02  0.99999969766E+01 0.  0.
        -12    1    1    2    0    0 -0.79838088136E+01  0.40058424579E+02  0.18991970285E+02  0.45045682570E+02  0.00000000000E+00 0.  1.
         11    1    3    3    0    0  0.16029029412E+01 -0.36507391225E+01 -0.45270523669E+01  0.60325282737E+01  0.51100000000E-03 0. -1.
        -11    1    3    3    0    0 -0.12916367088E+00 -0.95093023665E+01 -0.18195738265E+01  0.96826837149E+01  0.51100000000E-03 0.  1.
        -12    1    3    3    0    0  0.65100695433E+01 -0.26898383090E+02 -0.12645344092E+02  0.30427105441E+02  0.00000000000E+00 0.  1.
</event>
<event>
 7    1  0.3981356E-008  0.4614232E+02  0.7816164E-02  0.1320468E+00
        -11   -1    0    0    0    0  0.00000000000E+00  0.00000000000E+00  0.45593999997E+02  0.45594000000E+02  0.51100000000E-03 0.  1.
         11   -1    0    0    0    0 -0.00000000000E+00 -0.00000000000E+00 -0.45593999997E+02  0.45594000000E+02  0.51100000000E-03 0. -1.
    9900012    2    1    2    0    0  0.23459275299E+02 -0.23271796493E+02 -0.30613712744E+02  0.46142317437E+02  0.99999970444E+01 0.  0.
        -12    1    1    2    0    0 -0.23459275299E+02  0.23271796493E+02  0.30613712744E+02  0.45045682563E+02  0.00000000000E+00 0.  1.
         11    1    3    3    0    0 -0.38788542735E+00 -0.23058194863E+01 -0.13731889559E+01  0.27116243799E+01  0.51100000000E-03 0. -1.
        -11    1    3    3    0    0  0.75750470165E+01 -0.64728004655E+01 -0.12302069601E+02  0.15830963328E+02  0.51100000000E-03 0.  1.
         12    1    3    3    0    0  0.16272113710E+02 -0.14493176542E+02 -0.16938454187E+02  0.27599729729E+02  0.00000000000E+00 0. -1.
</event>
<event>
 7    1  0.3981356E-008  0.4614232E+02  0.7816164E-02  0.1320468E+00
        -11   -1    0    0    0    0  0.00000000000E+00  0.00000000000E+00  0.45593999997E+02  0.45594000000E+02  0.51100000000E-03 0. -1.
         11   -1    0    0    0    0 -0.00000000000E+00 -0.00000000000E+00 -0.45593999997E+02  0.45594000000E+02  0.51100000000E-03 0.  1.
    9900012    2    1    2    0    0  0.41062377690E+02  0.13123257825E+02  0.13068082667E+02  0.46142317165E+02  0.99999945627E+01 0.  0.
        -12    1    1    2    0    0 -0.41062377690E+02 -0.13123257825E+02 -0.13068082667E+02  0.45045682835E+02  0.00000000000E+00 0.  1.
         11    1    3    3    0    0  0.21733438439E+02  0.44008268008E+01  0.67745204340E+01  0.23186283667E+02  0.51100000000E-03 0. -1.
        -11    1    3    3    0    0  0.18699278940E+02  0.91175781487E+01  0.48944341545E+01  0.21371681032E+02  0.51100000000E-03 0.  1.
        -12    1    3    3    0    0  0.62966031146E+00 -0.39514712478E+00  0.13991280784E+01  0.15843524664E+01  0.00000000000E+00 0.  1.
</event>
<event>
 7    1  0.3981356E-008  0.4614232E+02  0.7816164E-02  0.1320468E+00
        -11   -1    0    0    0    0  0.00000000000E+00  0.00000000000E+00  0.45593999997E+02  0.45594000000E+02  0.51100000000E-03 0.  1.
         11   -1    0    0    0    0 -0.00000000000E+00 -0.00000000000E+00 -0.45593999997E+02  0.45594000000E+02  0.51100000000E-03 0. -1.
    9900012    2    1    2    0    0 -0.34245100315E+00 -0.44065121096E+02 -0.93413736295E+01  0.46142318396E+02  0.10000005792E+02 0.  0.
        -12    1    1    2    0    0  0.34245100315E+00  0.44065121096E+02  0.93413736295E+01  0.45045681604E+02  0.00000000000E+00 0.  1.
         11    1    3    3    0    0 -0.10143904799E+01 -0.43133959435E+01  0.12337183762E+01  0.45996123645E+01  0.51100000000E-03 0. -1.
        -11    1    3    3    0    0  0.93855345608E+00 -0.10916166104E+01  0.75050274039E-01  0.14415762965E+01  0.51100000000E-03 0.  1.
         12    1    3    3    0    0 -0.26661397938E+00 -0.38660108542E+02 -0.10650142280E+02  0.40101129735E+02  0.00000000000E+00 0. -1.
</event>
<event>
 7    1  0.3981356E-008  0.4614232E+02  0.7816164E-02  0.1320468E+00
        -11   -1    0    0    0    0  0.00000000000E+00  0.00000000000E+00  0.45593999997E+02  0.45594000000E+02  0.51100000000E-03 0.  1.
         11   -1    0    0    0    0 -0.00000000000E+00 -0.00000000000E+00 -0.45593999997E+02  0.45594000000E+02  0.51100000000E-03 0. -1.
    9900012    2    1    2    0    0 -0.97596937953E+01 -0.25121743747E+02 -0.36093761984E+02  0.46142320007E+02  0.10000020479E+02 0.  0.
        -12    1    1    2    0    0  0.97596937953E+01  0.25121743747E+02  0.36093761984E+02  0.45045679993E+02  0.00000000000E+00 0.  1.
         11    1    3    3    0    0 -0.68679253021E+01 -0.17473102610E+02 -0.21816737085E+02  0.28782767936E+02  0.51100000000E-03 0. -1.
        -11    1    3    3    0    0  0.60620688840E+00 -0.48605630877E+01 -0.46954999432E+01  0.67852988364E+01  0.51100000000E-03 0.  1.
         12    1    3    3    0    0 -0.34979753817E+01 -0.27880780492E+01 -0.95815249562E+01  0.10574253234E+02  0.00000000000E+00 0. -1.
</event>
<event>
 7    1  0.3981356E-008  0.4614232E+02  0.7816164E-02  0.1320468E+00
        -11   -1    0    0    0    0  0.00000000000E+00  0.00000000000E+00  0.45593999997E+02  0.45594000000E+02  0.51100000000E-03 0.  1.
         11   -1    0    0    0    0 -0.00000000000E+00 -0.00000000000E+00 -0.45593999997E+02  0.45594000000E+02  0.51100000000E-03 0. -1.
    9900012    2    1    2    0    0  0.87251559891E+01  0.21092188364E+02 -0.38834326625E+02  0.46142315618E+02  0.99999804595E+01 0.  0.
        -12    1    1    2    0    0 -0.87251559891E+01 -0.21092188364E+02  0.38834326625E+02  0.45045684382E+02  0.00000000000E+00 0.  1.
         11    1    3    3    0    0  0.35570620431E+00  0.31654950645E+01 -0.11031663398E+02  0.11482355311E+02  0.51100000000E-03 0.  1.
        -11    1    3    3    0    0  0.41936810792E+01  0.41425894906E+01 -0.52112906741E+01  0.78680086066E+01  0.51100000000E-03 0. -1.
         12    1    3    3    0    0  0.41757687056E+01  0.13784103809E+02 -0.22591372553E+02  0.26791951700E+02  0.00000000000E+00 0. -1.
</event>
<event>
 7    1  0.3981356E-008  0.4614232E+02  0.7816164E-02  0.1320468E+00
        -11   -1    0    0    0    0  0.00000000000E+00  0.00000000000E+00  0.45593999997E+02  0.45594000000E+02  0.51100000000E-03 0. -1.
         11   -1    0    0    0    0 -0.00000000000E+00 -0.00000000000E+00 -0.45593999997E+02  0.45594000000E+02  0.51100000000E-03 0.  1.
    9900012    2    1    2    0    0  0.19086076934E+02  0.20409691394E+02  0.35331001809E+02  0.46142317362E+02  0.99999963574E+01 0.  0.
        -12    1    1    2    0    0 -0.19086076934E+02 -0.20409691394E+02 -0.35331001809E+02  0.45045682638E+02  0.00000000000E+00 0.  1.
         11    1    3    3    0    0  0.82269693673E+01  0.12296235910E+02  0.14441347529E+02  0.20674451897E+02  0.51100000000E-03 0. -1.
        -11    1    3    3    0    0 -0.36074393666E+00  0.14559703288E+01  0.17531669990E+01  0.23072885761E+01  0.51100000000E-03 0.  1.
        -12    1    3    3    0    0  0.11219851503E+02  0.66574851549E+01  0.19136487281E+02  0.23160576889E+02  0.00000000000E+00 0.  1.
</event>
<event>
 7    1  0.3981356E-008  0.4614232E+02  0.7816164E-02  0.1320468E+00
        -11   -1    0    0    0    0  0.00000000000E+00  0.00000000000E+00  0.45593999997E+02  0.45594000000E+02  0.51100000000E-03 0.  1.
         11   -1    0    0    0    0 -0.00000000000E+00 -0.00000000000E+00 -0.45593999997E+02  0.45594000000E+02  0.51100000000E-03 0. -1.
    9900012    2    1    2    0    0 -0.15285649349E+02  0.31795931466E+02 -0.28008591975E+02  0.46142316985E+02  0.99999929251E+01 0.  0.
        -12    1    1    2    0    0  0.15285649349E+02 -0.31795931466E+02  0.28008591975E+02  0.45045683015E+02  0.00000000000E+00 0.  1.
         11    1    3    3    0    0 -0.96176155600E+01  0.14515713057E+02 -0.12785550989E+02  0.21602656525E+02  0.51100000000E-03 0. -1.
        -11    1    3    3    0    0 -0.53424786193E+01  0.15160470892E+02 -0.15556459444E+02  0.22369295612E+02  0.51100000000E-03 0.  1.
        -12    1    3    3    0    0 -0.32555516964E+00  0.21197475171E+01  0.33341845773E+00  0.21703648478E+01  0.00000000000E+00 0.  1.
</event>
<event>
 7    1  0.3981356E-008  0.4614232E+02  0.7816164E-02  0.1320468E+00
        -11   -1    0    0    0    0  0.00000000000E+00  0.00000000000E+00  0.45593999997E+02  0.45594000000E+02  0.51100000000E-03 0.  1.
         11   -1    0    0    0    0 -0.00000000000E+00 -0.00000000000E+00 -0.45593999997E+02  0.45594000000E+02  0.51100000000E-03 0. -1.
    9900012    2    1    2    0    0 -0.30643048811E+02  0.16020454907E+02 -0.28869740337E+02  0.46142319597E+02  0.10000016741E+02 0.  0.
        -12    1    1    2    0    0  0.30643048811E+02 -0.16020454907E+02  0.28869740337E+02  0.45045680403E+02  0.00000000000E+00 0.  1.
         11    1    3    3    0    0 -0.69422403793E-01  0.54360714595E+00 -0.12167283574E+01  0.13344498327E+01  0.51100000000E-03 0. -1.
        -11    1    3    3    0    0  0.40110244658E-01 -0.64207334496E+00 -0.33668184881E+00  0.72610050301E+00  0.51100000000E-03 0.  1.
         12    1    3    3    0    0 -0.30613736651E+02  0.16118921106E+02 -0.27316330131E+02  0.44081769261E+02  0.00000000000E+00 0. -1.
</event>
<event>
 7    1  0.3981356E-008  0.4614232E+02  0.7816164E-02  0.1320468E+00
        -11   -1    0    0    0    0  0.00000000000E+00  0.00000000000E+00  0.45593999997E+02  0.45594000000E+02  0.51100000000E-03 0. -1.
         11   -1    0    0    0    0 -0.00000000000E+00 -0.00000000000E+00 -0.45593999997E+02  0.45594000000E+02  0.51100000000E-03 0.  1.
    9900012    2    1    2    0    0 -0.24473931992E+02 -0.34298781652E+02  0.15929021165E+02  0.46142317795E+02  0.10000000312E+02 0.  0.
        -12    1    1    2    0    0  0.24473931992E+02  0.34298781652E+02 -0.15929021165E+02  0.45045682205E+02  0.00000000000E+00 0.  1.
         11    1    3    3    0    0 -0.27178212051E+01 -0.57942644798E+01  0.21820816088E+01  0.67617699882E+01  0.51100000000E-03 0. -1.
        -11    1    3    3    0    0 -0.27722660047E+01 -0.13871128482E+01 -0.83303045101E+00  0.32099035574E+01  0.51100000000E-03 0.  1.
         12    1    3    3    0    0 -0.18983844783E+02 -0.27117404324E+02  0.14579970007E+02  0.36170644250E+02  0.00000000000E+00 0. -1.
</event>
<event>
 7    1  0.3981356E-008  0.4614232E+02  0.7816164E-02  0.1320468E+00
        -11   -1    0    0    0    0  0.00000000000E+00  0.00000000000E+00  0.45593999997E+02  0.45594000000E+02  0.51100000000E-03 0.  1.
         11   -1    0    0    0    0 -0.00000000000E+00 -0.00000000000E+00 -0.45593999997E+02  0.45594000000E+02  0.51100000000E-03 0. -1.
    9900012    2    1    2    0    0 -0.22916408623E+02 -0.30075866065E+02 -0.24482524180E+02  0.46142317699E+02  0.99999994364E+01 0.  0.
        -12    1    1    2    0    0  0.22916408623E+02  0.30075866065E+02  0.24482524180E+02  0.45045682301E+02  0.00000000000E+00 0.  1.
         11    1    3    3    0    0 -0.81954612482E+01 -0.75755438672E+01 -0.41199926100E+01  0.11896587297E+02  0.51100000000E-03 0. -1.
        -11    1    3    3    0    0  0.49132558308E+00 -0.39703900123E+00 -0.89409698738E+00  0.10947376311E+01  0.51100000000E-03 0.  1.
         12    1    3    3    0    0 -0.15212272957E+02 -0.22103283196E+02 -0.19468434583E+02  0.33150992771E+02  0.00000000000E+00 0. -1.
</event>
<event>
 7    1  0.3981356E-008  0.4614232E+02  0.7816164E-02  0.1320468E+00
        -11   -1    0    0    0    0  0.00000000000E+00  0.00000000000E+00  0.45593999997E+02  0.45594000000E+02  0.51100000000E-03 0.  1.
         11   -1    0    0    0    0 -0.00000000000E+00 -0.00000000000E+00 -0.45593999997E+02  0.45594000000E+02  0.51100000000E-03 0. -1.
    9900012    2    1    2    0    0  0.88082316545E+01 -0.43795994966E+02  0.57826781181E+01  0.46142317785E+02  0.10000000220E+02 0.  0.
        -12    1    1    2    0    0 -0.88082316545E+01  0.43795994966E+02 -0.57826781181E+01  0.45045682215E+02  0.00000000000E+00 0.  1.
         11    1    3    3    0    0  0.10808157422E+01 -0.75821393123E+01 -0.24384547722E+01  0.80376029484E+01  0.51100000000E-03 0. -1.
        -11    1    3    3    0    0  0.33149778048E+01 -0.87614838430E+01  0.27925084728E+01  0.97750079698E+01  0.51100000000E-03 0.  1.
        -12    1    3    3    0    0  0.44124381074E+01 -0.27452371811E+02  0.54286244175E+01  0.28329706867E+02  0.00000000000E+00 0.  1.
</event>
<event>
 7    1  0.3981356E-008  0.4614232E+02  0.7816164E-02  0.1320468E+00
        -11   -1    0    0    0    0  0.00000000000E+00  0.00000000000E+00  0.45593999997E+02  0.45594000000E+02  0.51100000000E-03 0. -1.
         11   -1    0    0    0    0 -0.00000000000E+00 -0.00000000000E+00 -0.45593999997E+02  0.45594000000E+02  0.51100000000E-03 0.  1.
    9900012    2    1    2    0    0  0.13430747488E+02  0.42243085263E+02  0.80156307860E+01  0.46142316883E+02  0.99999919914E+01 0.  0.
        -12    1    1    2    0    0 -0.13430747488E+02 -0.42243085263E+02 -0.80156307860E+01  0.45045683117E+02  0.00000000000E+00 0.  1.
         11    1    3    3    0    0  0.11537734507E+02  0.37116308404E+02  0.64877687308E+01  0.39405974299E+02  0.51100000000E-03 0. -1.
        -11    1    3    3    0    0 -0.88241580530E+00  0.21134007736E+01 -0.18121375454E+00  0.22973809369E+01  0.51100000000E-03 0.  1.
         12    1    3    3    0    0  0.27754287867E+01  0.30133760850E+01  0.17090758097E+01  0.44389616469E+01  0.00000000000E+00 0. -1.
</event>
<event>
 7    1  0.3981356E-008  0.4614232E+02  0.7816164E-02  0.1320468E+00
        -11   -1    0    0    0    0  0.00000000000E+00  0.00000000000E+00  0.45593999997E+02  0.45594000000E+02  0.51100000000E-03 0.  1.
         11   -1    0    0    0    0 -0.00000000000E+00 -0.00000000000E+00 -0.45593999997E+02  0.45594000000E+02  0.51100000000E-03 0. -1.
    9900012    2    1    2    0    0  0.10776576553E+02  0.37111590621E+02 -0.23145380440E+02  0.46142318782E+02  0.10000009313E+02 0.  0.
        -12    1    1    2    0    0 -0.10776576553E+02 -0.37111590621E+02  0.23145380440E+02  0.45045681218E+02  0.00000000000E+00 0.  1.
         11    1    3    3    0    0  0.29084014992E+01  0.30476723662E+01 -0.35166367616E+01  0.54876079038E+01  0.51100000000E-03 0. -1.
        -11    1    3    3    0    0  0.79589489454E+01  0.20132038087E+02 -0.11244834264E+02  0.24394469122E+02  0.51100000000E-03 0.  1.
        -12    1    3    3    0    0 -0.90773891692E-01  0.13931880168E+02 -0.83839094144E+01  0.16260241756E+02  0.00000000000E+00 0.  1.
</event>
<event>
 7    1  0.3981356E-008  0.4614232E+02  0.7816164E-02  0.1320468E+00
        -11   -1    0    0    0    0  0.00000000000E+00  0.00000000000E+00  0.45593999997E+02  0.45594000000E+02  0.51100000000E-03 0.  1.
         11   -1    0    0    0    0 -0.00000000000E+00 -0.00000000000E+00 -0.45593999997E+02  0.45594000000E+02  0.51100000000E-03 0. -1.
    9900012    2    1    2    0    0  0.14444153426E+02  0.36789131927E+02 -0.21611101393E+02  0.46142317637E+02  0.99999988647E+01 0.  0.
        -12    1    1    2    0    0 -0.14444153426E+02 -0.36789131927E+02  0.21611101393E+02  0.45045682363E+02  0.00000000000E+00 0.  1.
         11    1    3    3    0    0  0.86551584733E+01  0.15512654695E+02 -0.13592337967E+02  0.22367518314E+02  0.51100000000E-03 0. -1.
        -11    1    3    3    0    0 -0.42301420810E+00  0.11908942211E+01  0.25734734636E-01  0.12640540352E+01  0.51100000000E-03 0.  1.
         12    1    3    3    0    0  0.62120091610E+01  0.20085583011E+02 -0.80444981612E+01  0.22510745287E+02  0.00000000000E+00 0. -1.
</event>
<event>
 7    1  0.4178461E-008  0.4614232E+02  0.7816164E-02  0.1320468E+00
        -11   -1    0    0    0    0  0.00000000000E+00  0.00000000000E+00  0.45593999997E+02  0.45594000000E+02  0.51100000000E-03 0. -1.
         11   -1    0    0    0    0 -0.00000000000E+00 -0.00000000000E+00 -0.45593999997E+02  0.45594000000E+02  0.51100000000E-03 0.  1.
    9900012    2    1    2    0    0  0.39025261820E+00  0.35033792209E+01  0.44907544600E+02  0.46142317354E+02  0.99999962845E+01 0.  0.
        -12    1    1    2    0    0 -0.39025261820E+00 -0.35033792209E+01 -0.44907544600E+02  0.45045682646E+02  0.00000000000E+00 0.  1.
         11    1    3    3    0    0 -0.49379917738E+00  0.23525028421E+01  0.30717708245E+02  0.30811616435E+02  0.51100000000E-03 0. -1.
        -11    1    3    3    0    0 -0.14356838608E+01 -0.88644296036E+00  0.99150610305E+01  0.10057604326E+02  0.51100000000E-03 0.  1.
        -12    1    3    3    0    0  0.23197356564E+01  0.20373193391E+01  0.42747753244E+01  0.52730965930E+01  0.00000000000E+00 0.  1.
</event>
<event>
 7    1  0.3981356E-008  0.4614231E+02  0.7816164E-02  0.1320468E+00
        -11   -1    0    0    0    0  0.00000000000E+00  0.00000000000E+00  0.45593999997E+02  0.45594000000E+02  0.51100000000E-03 0.  1.
         11   -1    0    0    0    0 -0.00000000000E+00 -0.00000000000E+00 -0.45593999997E+02  0.45594000000E+02  0.51100000000E-03 0. -1.
    9900012    2    1    2    0    0  0.30249048387E+02 -0.31188190451E+02 -0.11891410339E+02  0.46142314393E+02  0.99999692886E+01 0.  0.
        -12    1    1    2    0    0 -0.30249048387E+02  0.31188190451E+02  0.11891410339E+02  0.45045685607E+02  0.00000000000E+00 0.  1.
         11    1    3    3    0    0  0.39389682462E+00  0.22100470781E+00 -0.33053514991E+00  0.55968878474E+00  0.51100000000E-03 0. -1.
        -11    1    3    3    0    0  0.58557019174E+01 -0.30563377242E+01  0.23130481395E+00  0.66093832849E+01  0.51100000000E-03 0.  1.
         12    1    3    3    0    0  0.23999449645E+02 -0.28352857435E+02 -0.11792180003E+02  0.38973242323E+02  0.00000000000E+00 0. -1.
</event>
<event>
 7    1  0.3981356E-008  0.4614233E+02  0.7816164E-02  0.1320468E+00
        -11   -1    0    0    0    0  0.00000000000E+00  0.00000000000E+00  0.45593999997E+02  0.45594000000E+02  0.51100000000E-03 0. -1.
         11   -1    0    0    0    0 -0.00000000000E+00 -0.00000000000E+00 -0.45593999997E+02  0.45594000000E+02  0.51100000000E-03 0.  1.
    9900012    2    1    2    0    0  0.34282237496E+02  0.10019541962E+02  0.27449039601E+02  0.46142325359E+02  0.10000069285E+02 0.  0.
        -12    1    1    2    0    0 -0.34282237496E+02 -0.10019541962E+02 -0.27449039601E+02  0.45045674641E+02  0.00000000000E+00 0.  1.
         11    1    3    3    0    0  0.13331889015E+02  0.81661012375E+01  0.13023804420E+02  0.20348070079E+02  0.51100000000E-03 0. -1.
        -11    1    3    3    0    0  0.19009319991E+02  0.28149662702E+01  0.12895990910E+02  0.23142706485E+02  0.51100000000E-03 0.  1.
        -12    1    3    3    0    0  0.19410284895E+01 -0.96152554546E+00  0.15292442706E+01  0.26515487947E+01  0.00000000000E+00 0.  1.
</event>
<event>
 7    1  0.3981356E-008  0.4614232E+02  0.7816164E-02  0.1320468E+00
        -11   -1    0    0    0    0  0.00000000000E+00  0.00000000000E+00  0.45593999997E+02  0.45594000000E+02  0.51100000000E-03 0.  1.
         11   -1    0    0    0    0 -0.00000000000E+00 -0.00000000000E+00 -0.45593999997E+02  0.45594000000E+02  0.51100000000E-03 0. -1.
    9900012    2    1    2    0    0  0.17705868032E+02  0.21353677636E+02 -0.35491353268E+02  0.46142317986E+02  0.10000002048E+02 0.  0.
        -12    1    1    2    0    0 -0.17705868032E+02 -0.21353677636E+02  0.35491353268E+02  0.45045682014E+02  0.00000000000E+00 0.  1.
         11    1    3    3    0    0  0.45595481594E+01  0.28058346309E+01 -0.54985277947E+01  0.76743726495E+01  0.51100000000E-03 0. -1.
        -11    1    3    3    0    0  0.59623535658E+01  0.88302275567E+01 -0.78226567466E+01  0.13218038341E+02  0.51100000000E-03 0.  1.
         12    1    3    3    0    0  0.71839663066E+01  0.97176154483E+01 -0.22170168727E+02  0.25249906995E+02  0.00000000000E+00 0. -1.
</event>
<event>
 7    1  0.3981356E-008  0.4614232E+02  0.7816164E-02  0.1320468E+00
        -11   -1    0    0    0    0  0.00000000000E+00  0.00000000000E+00  0.45593999997E+02  0.45594000000E+02  0.51100000000E-03 0.  1.
         11   -1    0    0    0    0 -0.00000000000E+00 -0.00000000000E+00 -0.45593999997E+02  0.45594000000E+02  0.51100000000E-03 0. -1.
    9900012    2    1    2    0    0 -0.48459380637E+00 -0.37615528311E+02 -0.24778028989E+02  0.46142317389E+02  0.99999966085E+01 0.  0.
        -12    1    1    2    0    0  0.48459380637E+00  0.37615528311E+02  0.24778028989E+02  0.45045682611E+02  0.00000000000E+00 0.  1.
         11    1    3    3    0    0  0.17314079802E+01 -0.11521357159E+02 -0.70779097462E+01  0.13632177046E+02  0.51100000000E-03 0. -1.
        -11    1    3    3    0    0 -0.40719042421E+01 -0.15859084774E+02 -0.77482035602E+01  0.18114238397E+02  0.51100000000E-03 0.  1.
        -12    1    3    3    0    0  0.18559024555E+01 -0.10235086379E+02 -0.99519156824E+01  0.14395901946E+02  0.00000000000E+00 0.  1.
</event>
<event>
 7    1  0.3981356E-008  0.4614232E+02  0.7816164E-02  0.1320468E+00
        -11   -1    0    0    0    0  0.00000000000E+00  0.00000000000E+00  0.45593999997E+02  0.45594000000E+02  0.51100000000E-03 0.  1.
         11   -1    0    0    0    0 -0.00000000000E+00 -0.00000000000E+00 -0.45593999997E+02  0.45594000000E+02  0.51100000000E-03 0. -1.
    9900012    2    1    2    0    0 -0.24975327582E+02  0.34361127131E+02 -0.14988641031E+02  0.46142318681E+02  0.10000008385E+02 0.  0.
        -12    1    1    2    0    0  0.24975327582E+02 -0.34361127131E+02  0.14988641031E+02  0.45045681319E+02  0.00000000000E+00 0.  1.
         11    1    3    3    0    0 -0.83595540599E+01  0.13900780085E+02 -0.42990606630E+01  0.16780815055E+02  0.51100000000E-03 0. -1.
        -11    1    3    3    0    0 -0.53368924438E+01  0.24810115722E+01 -0.77672892380E+00  0.59364254784E+01  0.51100000000E-03 0.  1.
         12    1    3    3    0    0 -0.11278881078E+02  0.17979335474E+02 -0.99128514441E+01  0.23425078147E+02  0.00000000000E+00 0. -1.
</event>
<event>
 7    1  0.3981356E-008  0.4614231E+02  0.7816164E-02  0.1320468E+00
        -11   -1    0    0    0    0  0.00000000000E+00  0.00000000000E+00  0.45593999997E+02  0.45594000000E+02  0.51100000000E-03 0.  1.
         11   -1    0    0    0    0 -0.00000000000E+00 -0.00000000000E+00 -0.45593999997E+02  0.45594000000E+02  0.51100000000E-03 0. -1.
    9900012    2    1    2    0    0 -0.37027500121E+02  0.25179166364E+02 -0.49079095467E+01  0.46142314744E+02  0.99999724906E+01 0.  0.
        -12    1    1    2    0    0  0.37027500121E+02 -0.25179166364E+02  0.49079095467E+01  0.45045685256E+02  0.00000000000E+00 0.  1.
         11    1    3    3    0    0 -0.66937598937E+01  0.58020876550E+01 -0.35702660459E+00  0.88655575644E+01  0.51100000000E-03 0. -1.
        -11    1    3    3    0    0 -0.36706392110E+01  0.76489760056E+00 -0.28607231825E+01  0.47161846810E+01  0.51100000000E-03 0.  1.
        -12    1    3    3    0    0 -0.26663101017E+02  0.18612181109E+02 -0.16901597595E+01  0.32560572499E+02  0.00000000000E+00 0.  1.
</event>
<event>
 7    1  0.3981356E-008  0.4614232E+02  0.7816164E-02  0.1320468E+00
        -11   -1    0    0    0    0  0.00000000000E+00  0.00000000000E+00  0.45593999997E+02  0.45594000000E+02  0.51100000000E-03 0. -1.
         11   -1    0    0    0    0 -0.00000000000E+00 -0.00000000000E+00 -0.45593999997E+02  0.45594000000E+02  0.51100000000E-03 0.  1.
    9900012    2    1    2    0    0  0.23228945298E+02  0.28948413593E+02  0.25524868136E+02  0.46142318270E+02  0.10000004636E+02 0.  0.
        -12    1    1    2    0    0 -0.23228945298E+02 -0.28948413593E+02 -0.25524868136E+02  0.45045681730E+02  0.00000000000E+00 0.  1.
         11    1    3    3    0    0  0.57445504064E+01  0.20131172880E+01  0.50328040525E+01  0.78982034336E+01  0.51100000000E-03 0. -1.
        -11    1    3    3    0    0  0.73251508490E+00  0.23889323450E+01  0.93237063130E+00  0.26670004413E+01  0.51100000000E-03 0.  1.
         12    1    3    3    0    0  0.16751879807E+02  0.24546363960E+02  0.19559693453E+02  0.35577114395E+02  0.00000000000E+00 0. -1.
</event>
<event>
 7    1  0.3981356E-008  0.4614232E+02  0.7816164E-02  0.1320468E+00
        -11   -1    0    0    0    0  0.00000000000E+00  0.00000000000E+00  0.45593999997E+02  0.45594000000E+02  0.51100000000E-03 0. -1.
         11   -1    0    0    0    0 -0.00000000000E+00 -0.00000000000E+00 -0.45593999997E+02  0.45594000000E+02  0.51100000000E-03 0.  1.
    9900012    2    1    2    0    0 -0.12790900208E+02 -0.40887895225E+02  0.13917125201E+02  0.46142317877E+02  0.10000001056E+02 0.  0.
        -12    1    1    2    0    0  0.12790900208E+02  0.40887895225E+02 -0.13917125201E+02  0.45045682123E+02  0.00000000000E+00 0.  1.
         11    1    3    3    0    0 -0.98107210762E+00 -0.11447050976E+02  0.12826964928E+01  0.11560397445E+02  0.51100000000E-03 0. -1.
        -11    1    3    3    0    0 -0.22063196970E+01 -0.88355900489E+01  0.59796888062E+01  0.10894593916E+02  0.51100000000E-03 0.  1.
         12    1    3    3    0    0 -0.96035084035E+01 -0.20605254200E+02  0.66547399019E+01  0.23687326516E+02  0.00000000000E+00 0. -1.
</event>
<event>
 7    1  0.3981356E-008  0.4614232E+02  0.7816164E-02  0.1320468E+00
        -11   -1    0    0    0    0  0.00000000000E+00  0.00000000000E+00  0.45593999997E+02  0.45594000000E+02  0.51100000000E-03 0.  1.
         11   -1    0    0    0    0 -0.00000000000E+00 -0.00000000000E+00 -0.45593999997E+02  0.45594000000E+02  0.51100000000E-03 0. -1.
    9900012    2    1    2    0    0 -0.12857989941E+02  0.34783448601E+02 -0.25571414247E+02  0.46142318426E+02  0.10000006062E+02 0.  0.
        -12    1    1    2    0    0  0.12857989941E+02 -0.34783448601E+02  0.25571414247E+02  0.45045681574E+02  0.00000000000E+00 0.  1.
         11    1    3    3    0    0  0.53098106756E+00  0.18335873798E+01 -0.42672281124E+00  0.19560358361E+01  0.51100000000E-03 0. -1.
        -11    1    3    3    0    0 -0.30189129962E+01  0.18869605024E+01 -0.29765442544E+01  0.46405033753E+01  0.51100000000E-03 0.  1.
         12    1    3    3    0    0 -0.10370058012E+02  0.31062900718E+02 -0.22168147181E+02  0.39545779215E+02  0.00000000000E+00 0. -1.
</event>
<event>
 7    1  0.3981356E-008  0.4614232E+02  0.7816164E-02  0.1320468E+00
        -11   -1    0    0    0    0  0.00000000000E+00  0.00000000000E+00  0.45593999997E+02  0.45594000000E+02  0.51100000000E-03 0.  1.
         11   -1    0    0    0    0 -0.00000000000E+00 -0.00000000000E+00 -0.45593999997E+02  0.45594000000E+02  0.51100000000E-03 0. -1.
    9900012    2    1    2    0    0 -0.28856552279E+02  0.33739845390E+02 -0.76181153520E+01  0.46142318099E+02  0.10000003082E+02 0.  0.
        -12    1    1    2    0    0  0.28856552279E+02 -0.33739845390E+02  0.76181153520E+01  0.45045681901E+02  0.00000000000E+00 0.  1.
         11    1    3    3    0    0 -0.41254098949E+01  0.80193570929E+01  0.12710198651E+01  0.91073918738E+01  0.51100000000E-03 0.  1.
        -11    1    3    3    0    0 -0.96768128995E+01  0.12409196082E+02 -0.54125810924E+01  0.16641060352E+02  0.51100000000E-03 0. -1.
        -12    1    3    3    0    0 -0.15054329485E+02  0.13311292215E+02 -0.34765541247E+01  0.20393865873E+02  0.00000000000E+00 0.  1.
</event>
<event>
 7    1  0.3981356E-008  0.4614232E+02  0.7816164E-02  0.1320468E+00
        -11   -1    0    0    0    0  0.00000000000E+00  0.00000000000E+00  0.45593999997E+02  0.45594000000E+02  0.51100000000E-03 0.  1.
         11   -1    0    0    0    0 -0.00000000000E+00 -0.00000000000E+00 -0.45593999997E+02  0.45594000000E+02  0.51100000000E-03 0. -1.
    9900012    2    1    2    0    0  0.20865440234E+02 -0.20483015441E+02 -0.34266497278E+02  0.46142319259E+02  0.10000013659E+02 0.  0.
        -12    1    1    2    0    0 -0.20865440234E+02  0.20483015441E+02  0.34266497278E+02  0.45045680741E+02  0.00000000000E+00 0.  1.
         11    1    3    3    0    0  0.10130160983E+02 -0.47196634961E+01 -0.13373841136E+02  0.17428568847E+02  0.51100000000E-03 0. -1.
        -11    1    3    3    0    0  0.10353441075E+02 -0.14338124328E+02 -0.20699274305E+02  0.27225640642E+02  0.51100000000E-03 0.  1.
        -12    1    3    3    0    0  0.38183817583E+00 -0.14252276171E+01 -0.19338183669E+00  0.14881097701E+01  0.00000000000E+00 0.  1.
</event>
<event>
 7    1  0.3981356E-008  0.4614232E+02  0.7816164E-02  0.1320468E+00
        -11   -1    0    0    0    0  0.00000000000E+00  0.00000000000E+00  0.45593999997E+02  0.45594000000E+02  0.51100000000E-03 0. -1.
         11   -1    0    0    0    0 -0.00000000000E+00 -0.00000000000E+00 -0.45593999997E+02  0.45594000000E+02  0.51100000000E-03 0.  1.
    9900012    2    1    2    0    0 -0.10306676389E+01  0.33960146860E+02  0.29576334565E+02  0.46142318555E+02  0.10000007241E+02 0.  0.
        -12    1    1    2    0    0  0.10306676389E+01 -0.33960146860E+02 -0.29576334565E+02  0.45045681445E+02  0.00000000000E+00 0.  1.
         11    1    3    3    0    0  0.80823243457E+00  0.18356324950E+02  0.11561774091E+02  0.21709042487E+02  0.51100000000E-03 0.  1.
        -11    1    3    3    0    0  0.67899903193E+00  0.30238154629E+01  0.64714252136E+01  0.71752243306E+01  0.51100000000E-03 0. -1.
        -12    1    3    3    0    0 -0.25178991054E+01  0.12580006447E+02  0.11543135261E+02  0.17258051737E+02  0.00000000000E+00 0.  1.
</event>
<event>
 7    1  0.3981356E-008  0.4614232E+02  0.7816164E-02  0.1320468E+00
        -11   -1    0    0    0    0  0.00000000000E+00  0.00000000000E+00  0.45593999997E+02  0.45594000000E+02  0.51100000000E-03 0.  1.
         11   -1    0    0    0    0 -0.00000000000E+00 -0.00000000000E+00 -0.45593999997E+02  0.45594000000E+02  0.51100000000E-03 0. -1.
    9900012    2    1    2    0    0 -0.18701668622E+02  0.61741935582E+00 -0.40975353581E+02  0.46142320773E+02  0.10000027466E+02 0.  0.
        -12    1    1    2    0    0  0.18701668622E+02 -0.61741935582E+00  0.40975353581E+02  0.45045679227E+02  0.00000000000E+00 0.  1.
         11    1    3    3    0    0 -0.78758306825E+01  0.40876443077E+00 -0.22268305602E+02  0.23623573649E+02  0.51100000000E-03 0. -1.
        -11    1    3    3    0    0 -0.81348556971E+01 -0.73585693758E+00 -0.17700806841E+02  0.19494510143E+02  0.51100000000E-03 0.  1.
        -12    1    3    3    0    0 -0.26909822425E+01  0.94451186264E+00 -0.10062411381E+01  0.30242369808E+01  0.00000000000E+00 0.  1.
</event>
<event>
 7    1  0.3981356E-008  0.4614232E+02  0.7816164E-02  0.1320468E+00
        -11   -1    0    0    0    0  0.00000000000E+00  0.00000000000E+00  0.45593999997E+02  0.45594000000E+02  0.51100000000E-03 0.  1.
         11   -1    0    0    0    0 -0.00000000000E+00 -0.00000000000E+00 -0.45593999997E+02  0.45594000000E+02  0.51100000000E-03 0. -1.
    9900012    2    1    2    0    0 -0.11005070087E+02 -0.37484095390E+02 -0.22426423598E+02  0.46142318185E+02  0.10000003863E+02 0.  0.
        -12    1    1    2    0    0  0.11005070087E+02  0.37484095390E+02  0.22426423598E+02  0.45045681815E+02  0.00000000000E+00 0.  1.
         11    1    3    3    0    0 -0.21135055624E+01 -0.37673725368E+01 -0.10608866030E+01  0.44480874810E+01  0.51100000000E-03 0. -1.
        -11    1    3    3    0    0 -0.10018155943E+02 -0.30020284825E+02 -0.20580474499E+02  0.37750985157E+02  0.51100000000E-03 0.  1.
        -12    1    3    3    0    0  0.11265914184E+01 -0.36964380278E+01 -0.78506249606E+00  0.39432455465E+01  0.00000000000E+00 0.  1.
</event>
<event>
 7    1  0.3981356E-008  0.4614232E+02  0.7816164E-02  0.1320468E+00
        -11   -1    0    0    0    0  0.00000000000E+00  0.00000000000E+00  0.45593999997E+02  0.45594000000E+02  0.51100000000E-03 0.  1.
         11   -1    0    0    0    0 -0.00000000000E+00 -0.00000000000E+00 -0.45593999997E+02  0.45594000000E+02  0.51100000000E-03 0. -1.
    9900012    2    1    2    0    0 -0.23484536694E+02 -0.28893074149E+02  0.25353111066E+02  0.46142318318E+02  0.10000005074E+02 0.  0.
        -12    1    1    2    0    0  0.23484536694E+02  0.28893074149E+02 -0.25353111066E+02  0.45045681682E+02  0.00000000000E+00 0.  1.
         11    1    3    3    0    0 -0.74038005070E+01 -0.83698050560E+01  0.80693345390E+01  0.13783470491E+02  0.51100000000E-03 0. -1.
        -11    1    3    3    0    0 -0.23973210506E+01 -0.94262218979E+01  0.56842649058E+01  0.11265508212E+02  0.51100000000E-03 0.  1.
        -12    1    3    3    0    0 -0.13683415136E+02 -0.11097047195E+02  0.11599511621E+02  0.21093339614E+02  0.00000000000E+00 0.  1.
</event>
<event>
 7    1  0.3981356E-008  0.4614232E+02  0.7816164E-02  0.1320468E+00
        -11   -1    0    0    0    0  0.00000000000E+00  0.00000000000E+00  0.45593999997E+02  0.45594000000E+02  0.51100000000E-03 0.  1.
         11   -1    0    0    0    0 -0.00000000000E+00 -0.00000000000E+00 -0.45593999997E+02  0.45594000000E+02  0.51100000000E-03 0. -1.
    9900012    2    1    2    0    0  0.30569697869E+02 -0.66293747335E+01 -0.32413861185E+02  0.46142318364E+02  0.10000005499E+02 0.  0.
        -12    1    1    2    0    0 -0.30569697869E+02  0.66293747335E+01  0.32413861185E+02  0.45045681636E+02  0.00000000000E+00 0.  1.
         11    1    3    3    0    0  0.80685071721E+01 -0.94773281790E+00 -0.10364130454E+02  0.13168682766E+02  0.51100000000E-03 0. -1.
        -11    1    3    3    0    0  0.96385528718E+01  0.42617660841E+00 -0.53665666821E+01  0.11040079990E+02  0.51100000000E-03 0.  1.
        -12    1    3    3    0    0  0.12862637825E+02 -0.61078185240E+01 -0.16683164049E+02  0.21933555608E+02  0.00000000000E+00 0.  1.
</event>
<event>
 7    1  0.3981356E-008  0.4614232E+02  0.7816164E-02  0.1320468E+00
        -11   -1    0    0    0    0  0.00000000000E+00  0.00000000000E+00  0.45593999997E+02  0.45594000000E+02  0.51100000000E-03 0.  1.
         11   -1    0    0    0    0 -0.00000000000E+00 -0.00000000000E+00 -0.45593999997E+02  0.45594000000E+02  0.51100000000E-03 0. -1.
    9900012    2    1    2    0    0 -0.18990061093E+02  0.34214942789E+02 -0.22312077115E+02  0.46142317459E+02  0.99999972470E+01 0.  0.
        -12    1    1    2    0    0  0.18990061093E+02 -0.34214942789E+02  0.22312077115E+02  0.45045682541E+02  0.00000000000E+00 0.  1.
         11    1    3    3    0    0 -0.33066326233E+01  0.60912090994E+01 -0.39653560560E+01  0.79850295247E+01  0.51100000000E-03 0. -1.
        -11    1    3    3    0    0 -0.82517363416E+01  0.22982001868E+02 -0.13226352943E+02  0.27770487481E+02  0.51100000000E-03 0.  1.
         12    1    3    3    0    0 -0.74316921281E+01  0.51417318218E+01 -0.51203681157E+01  0.10386800453E+02  0.00000000000E+00 0. -1.
</event>
<event>
 7    1  0.3981356E-008  0.4614232E+02  0.7816164E-02  0.1320468E+00
        -11   -1    0    0    0    0  0.00000000000E+00  0.00000000000E+00  0.45593999997E+02  0.45594000000E+02  0.51100000000E-03 0. -1.
         11   -1    0    0    0    0 -0.00000000000E+00 -0.00000000000E+00 -0.45593999997E+02  0.45594000000E+02  0.51100000000E-03 0.  1.
    9900012    2    1    2    0    0 -0.99938395344E+01  0.43760750070E+02  0.37727222825E+01  0.46142317534E+02  0.99999979329E+01 0.  0.
        -12    1    1    2    0    0  0.99938395344E+01 -0.43760750070E+02 -0.37727222825E+01  0.45045682466E+02  0.00000000000E+00 0.  1.
         11    1    3    3    0    0 -0.20492710808E+01  0.17029048902E+02 -0.13143411586E+01  0.17202194959E+02  0.51100000000E-03 0. -1.
        -11    1    3    3    0    0 -0.12392537630E+01  0.35321140888E+01 -0.12967012324E+01  0.39614409212E+01  0.51100000000E-03 0.  1.
         12    1    3    3    0    0 -0.67053146906E+01  0.23199587080E+02  0.63837646735E+01  0.24978681654E+02  0.00000000000E+00 0. -1.
</event>
<event>
 7    1  0.3981356E-008  0.4614232E+02  0.7816164E-02  0.1320468E+00
        -11   -1    0    0    0    0  0.00000000000E+00  0.00000000000E+00  0.45593999997E+02  0.45594000000E+02  0.51100000000E-03 0.  1.
         11   -1    0    0    0    0 -0.00000000000E+00 -0.00000000000E+00 -0.45593999997E+02  0.45594000000E+02  0.51100000000E-03 0. -1.
    9900012    2    1    2    0    0  0.10370128290E+02 -0.43791107186E+02  0.19780565929E+01  0.46142319439E+02  0.10000015297E+02 0.  0.
        -12    1    1    2    0    0 -0.10370128290E+02  0.43791107186E+02 -0.19780565929E+01  0.45045680561E+02  0.00000000000E+00 0.  1.
         11    1    3    3    0    0  0.33763409402E+01 -0.11239312753E+02 -0.17305205629E+01  0.11862399883E+02  0.51100000000E-03 0. -1.
        -11    1    3    3    0    0 -0.40961161011E+00 -0.14819431919E+02  0.81498807510E+00  0.14847476213E+02  0.51100000000E-03 0.  1.
        -12    1    3    3    0    0  0.74033989600E+01 -0.17732362514E+02  0.28935890806E+01  0.19432443342E+02  0.00000000000E+00 0.  1.
</event>
<event>
 7    1  0.3981356E-008  0.4614232E+02  0.7816164E-02  0.1320468E+00
        -11   -1    0    0    0    0  0.00000000000E+00  0.00000000000E+00  0.45593999997E+02  0.45594000000E+02  0.51100000000E-03 0.  1.
         11   -1    0    0    0    0 -0.00000000000E+00 -0.00000000000E+00 -0.45593999997E+02  0.45594000000E+02  0.51100000000E-03 0. -1.
    9900012    2    1    2    0    0  0.16216951504E+02  0.14870702223E+01 -0.41998958944E+02  0.46142318227E+02  0.10000004252E+02 0.  0.
        -12    1    1    2    0    0 -0.16216951504E+02 -0.14870702223E+01  0.41998958944E+02  0.45045681773E+02  0.00000000000E+00 0.  1.
         11    1    3    3    0    0  0.46631014684E+01 -0.18018850559E+01 -0.19377549911E+02  0.20012015038E+02  0.51100000000E-03 0. -1.
        -11    1    3    3    0    0  0.17012697482E+01 -0.13587063503E+01 -0.34335196600E+01  0.40656437644E+01  0.51100000000E-03 0.  1.
         12    1    3    3    0    0  0.98525802877E+01  0.46476616285E+01 -0.19187889374E+02  0.22064659425E+02  0.00000000000E+00 0. -1.
</event>
<event>
 7    1  0.3981356E-008  0.4614232E+02  0.7816164E-02  0.1320468E+00
        -11   -1    0    0    0    0  0.00000000000E+00  0.00000000000E+00  0.45593999997E+02  0.45594000000E+02  0.51100000000E-03 0. -1.
         11   -1    0    0    0    0 -0.00000000000E+00 -0.00000000000E+00 -0.45593999997E+02  0.45594000000E+02  0.51100000000E-03 0.  1.
    9900012    2    1    2    0    0  0.23674165064E+02  0.16135121771E+02  0.34760685427E+02  0.46142317661E+02  0.99999990856E+01 0.  0.
        -12    1    1    2    0    0 -0.23674165064E+02 -0.16135121771E+02 -0.34760685427E+02  0.45045682339E+02  0.00000000000E+00 0.  1.
         11    1    3    3    0    0  0.12703079127E+02  0.12450974397E+02  0.25137142428E+02  0.30794007736E+02  0.51100000000E-03 0. -1.
        -11    1    3    3    0    0  0.74342090281E+01  0.37173394548E+01  0.57739489039E+01  0.10120502097E+02  0.51100000000E-03 0.  1.
         12    1    3    3    0    0  0.35368769093E+01 -0.33192080650E-01  0.38495940948E+01  0.52278078274E+01  0.00000000000E+00 0. -1.
</event>
<event>
 7    1  0.3981356E-008  0.4614232E+02  0.7816164E-02  0.1320468E+00
        -11   -1    0    0    0    0  0.00000000000E+00  0.00000000000E+00  0.45593999997E+02  0.45594000000E+02  0.51100000000E-03 0.  1.
         11   -1    0    0    0    0 -0.00000000000E+00 -0.00000000000E+00 -0.45593999997E+02  0.45594000000E+02  0.51100000000E-03 0. -1.
    9900012    2    1    2    0    0  0.34285491896E+02 -0.27740728046E+02  0.91689965731E+01  0.46142318240E+02  0.10000004366E+02 0.  0.
        -12    1    1    2    0    0 -0.34285491896E+02  0.27740728046E+02 -0.91689965731E+01  0.45045681760E+02  0.00000000000E+00 0.  1.
         11    1    3    3    0    0  0.10387458153E+01  0.29457076817E+00  0.79968809555E+00  0.13436019193E+01  0.51100000000E-03 0.  1.
        -11    1    3    3    0    0  0.18982533432E+02 -0.13991932250E+02  0.75641405593E+01  0.24765438947E+02  0.51100000000E-03 0. -1.
         12    1    3    3    0    0  0.14264212649E+02 -0.14043366564E+02  0.80516791817E+00  0.20033277373E+02  0.00000000000E+00 0. -1.
</event>
<event>
 7    1  0.3981356E-008  0.4614232E+02  0.7816164E-02  0.1320468E+00
        -11   -1    0    0    0    0  0.00000000000E+00  0.00000000000E+00  0.45593999997E+02  0.45594000000E+02  0.51100000000E-03 0.  1.
         11   -1    0    0    0    0 -0.00000000000E+00 -0.00000000000E+00 -0.45593999997E+02  0.45594000000E+02  0.51100000000E-03 0. -1.
    9900012    2    1    2    0    0 -0.27276713850E+02 -0.33212838709E+02 -0.13490808837E+02  0.46142315449E+02  0.99999789203E+01 0.  0.
        -12    1    1    2    0    0  0.27276713850E+02  0.33212838709E+02  0.13490808837E+02  0.45045684551E+02  0.00000000000E+00 0.  1.
         11    1    3    3    0    0 -0.60581999381E+01 -0.43915123888E+01 -0.18926402255E+01  0.77181121290E+01  0.51100000000E-03 0. -1.
        -11    1    3    3    0    0 -0.15947568803E+02 -0.15863379582E+02 -0.54551259739E+01  0.23145845462E+02  0.51100000000E-03 0.  1.
        -12    1    3    3    0    0 -0.52709451083E+01 -0.12957946738E+02 -0.61430426375E+01  0.15278357858E+02  0.00000000000E+00 0.  1.
</event>
<event>
 7    1  0.3981356E-008  0.4614232E+02  0.7816164E-02  0.1320468E+00
        -11   -1    0    0    0    0  0.00000000000E+00  0.00000000000E+00  0.45593999997E+02  0.45594000000E+02  0.51100000000E-03 0.  1.
         11   -1    0    0    0    0 -0.00000000000E+00 -0.00000000000E+00 -0.45593999997E+02  0.45594000000E+02  0.51100000000E-03 0. -1.
    9900012    2    1    2    0    0 -0.12620316435E+02 -0.37110331952E+02 -0.22196043678E+02  0.46142317860E+02  0.10000000899E+02 0.  0.
        -12    1    1    2    0    0  0.12620316435E+02  0.37110331952E+02  0.22196043678E+02  0.45045682140E+02  0.00000000000E+00 0.  1.
         11    1    3    3    0    0  0.20917910713E+00 -0.69321103392E+00  0.84145463977E-01  0.72895689628E+00  0.51100000000E-03 0. -1.
        -11    1    3    3    0    0 -0.77989517420E+01 -0.24641839149E+02 -0.10127989208E+02  0.27760044139E+02  0.51100000000E-03 0.  1.
         12    1    3    3    0    0 -0.50305437999E+01 -0.11775281769E+02 -0.12152199935E+02  0.17653316825E+02  0.00000000000E+00 0. -1.
</event>
<event>
 7    1  0.3981356E-008  0.4614232E+02  0.7816164E-02  0.1320468E+00
        -11   -1    0    0    0    0  0.00000000000E+00  0.00000000000E+00  0.45593999997E+02  0.45594000000E+02  0.51100000000E-03 0.  1.
         11   -1    0    0    0    0 -0.00000000000E+00 -0.00000000000E+00 -0.45593999997E+02  0.45594000000E+02  0.51100000000E-03 0. -1.
    9900012    2    1    2    0    0  0.16807198665E+02 -0.29894188328E+02 -0.29205634163E+02  0.46142317747E+02  0.99999998703E+01 0.  0.
        -12    1    1    2    0    0 -0.16807198665E+02  0.29894188328E+02  0.29205634163E+02  0.45045682253E+02  0.00000000000E+00 0.  1.
         11    1    3    3    0    0  0.69466272009E+01 -0.17721923996E+02 -0.18240657612E+02  0.26363683543E+02  0.51100000000E-03 0. -1.
        -11    1    3    3    0    0  0.32386498884E+01 -0.53662366998E+01 -0.72453941929E+01  0.95802446049E+01  0.51100000000E-03 0.  1.
         12    1    3    3    0    0  0.66219215759E+01 -0.68060276328E+01 -0.37195823587E+01  0.10198389599E+02  0.00000000000E+00 0. -1.
</event>
<event>
 7    1  0.3981356E-008  0.4614232E+02  0.7816164E-02  0.1320468E+00
        -11   -1    0    0    0    0  0.00000000000E+00  0.00000000000E+00  0.45593999997E+02  0.45594000000E+02  0.51100000000E-03 0.  1.
         11   -1    0    0    0    0 -0.00000000000E+00 -0.00000000000E+00 -0.45593999997E+02  0.45594000000E+02  0.51100000000E-03 0. -1.
    9900012    2    1    2    0    0 -0.22955677596E+02  0.56686417423E+01 -0.38340798943E+02  0.46142317668E+02  0.99999991543E+01 0.  0.
        -12    1    1    2    0    0  0.22955677596E+02 -0.56686417423E+01  0.38340798943E+02  0.45045682332E+02  0.00000000000E+00 0.  1.
         11    1    3    3    0    0 -0.76384242264E+00  0.17731530116E+01 -0.17971134212E+01  0.26376398084E+01  0.51100000000E-03 0. -1.
        -11    1    3    3    0    0 -0.45324587796E+01 -0.19273988741E+01 -0.92379879656E+01  0.10468928834E+02  0.51100000000E-03 0.  1.
        -12    1    3    3    0    0 -0.17659376394E+02  0.58228876048E+01 -0.27305697556E+02  0.33035749026E+02  0.00000000000E+00 0.  1.
</event>
<event>
 7    1  0.3981356E-008  0.4614232E+02  0.7816164E-02  0.1320468E+00
        -11   -1    0    0    0    0  0.00000000000E+00  0.00000000000E+00  0.45593999997E+02  0.45594000000E+02  0.51100000000E-03 0.  1.
         11   -1    0    0    0    0 -0.00000000000E+00 -0.00000000000E+00 -0.45593999997E+02  0.45594000000E+02  0.51100000000E-03 0. -1.
    9900012    2    1    2    0    0  0.19183246229E+02  0.64668633643E+01 -0.40240479057E+02  0.46142318604E+02  0.10000007689E+02 0.  0.
        -12    1    1    2    0    0 -0.19183246229E+02 -0.64668633643E+01  0.40240479057E+02  0.45045681396E+02  0.00000000000E+00 0.  1.
         11    1    3    3    0    0  0.13606993463E+02  0.13865341483E+01 -0.22457435038E+02  0.26294659853E+02  0.51100000000E-03 0. -1.
        -11    1    3    3    0    0  0.46188732365E+01  0.59349240207E+01 -0.14832260687E+02  0.16629890873E+02  0.51100000000E-03 0.  1.
         12    1    3    3    0    0  0.95737952945E+00 -0.85459480469E+00 -0.29507833327E+01  0.32177678785E+01  0.00000000000E+00 0. -1.
</event>
<event>
 7    1  0.3981356E-008  0.4614232E+02  0.7816164E-02  0.1320468E+00
        -11   -1    0    0    0    0  0.00000000000E+00  0.00000000000E+00  0.45593999997E+02  0.45594000000E+02  0.51100000000E-03 0.  1.
         11   -1    0    0    0    0 -0.00000000000E+00 -0.00000000000E+00 -0.45593999997E+02  0.45594000000E+02  0.51100000000E-03 0. -1.
    9900012    2    1    2    0    0 -0.37982188011E+00  0.39684955543E+02 -0.21309001550E+02  0.46142317541E+02  0.99999979932E+01 0.  0.
        -12    1    1    2    0    0  0.37982188011E+00 -0.39684955543E+02  0.21309001550E+02  0.45045682459E+02  0.00000000000E+00 0.  1.
         11    1    3    3    0    0 -0.97792871707E+00  0.19474204152E+01 -0.21801526548E+01  0.30825081847E+01  0.51100000000E-03 0. -1.
        -11    1    3    3    0    0  0.95035802545E+00  0.90038929749E+01 -0.10610730079E+01  0.91158732588E+01  0.51100000000E-03 0.  1.
        -12    1    3    3    0    0 -0.35225118849E+00  0.28733642153E+02 -0.18067775887E+02  0.33943936098E+02  0.00000000000E+00 0.  1.
</event>
<event>
 7    1  0.3981356E-008  0.4614232E+02  0.7816164E-02  0.1320468E+00
        -11   -1    0    0    0    0  0.00000000000E+00  0.00000000000E+00  0.45593999997E+02  0.45594000000E+02  0.51100000000E-03 0.  1.
         11   -1    0    0    0    0 -0.00000000000E+00 -0.00000000000E+00 -0.45593999997E+02  0.45594000000E+02  0.51100000000E-03 0. -1.
    9900012    2    1    2    0    0 -0.38629506980E+02  0.15545307367E+02 -0.17181911409E+02  0.46142317961E+02  0.10000001824E+02 0.  0.
        -12    1    1    2    0    0  0.38629506980E+02 -0.15545307367E+02  0.17181911409E+02  0.45045682039E+02  0.00000000000E+00 0.  1.
         11    1    3    3    0    0 -0.54899856666E+01  0.23172310260E+01 -0.10421508858E+01  0.60494281529E+01  0.51100000000E-03 0.  1.
        -11    1    3    3    0    0 -0.74968569548E+01  0.60148824337E+01 -0.15954993292E+01  0.97430638540E+01  0.51100000000E-03 0. -1.
         12    1    3    3    0    0 -0.25642664359E+02  0.72131939074E+01 -0.14544261194E+02  0.30349825954E+02  0.00000000000E+00 0. -1.
</event>
<event>
 7    1  0.3981356E-008  0.4614233E+02  0.7816164E-02  0.1320468E+00
        -11   -1    0    0    0    0  0.00000000000E+00  0.00000000000E+00  0.45593999997E+02  0.45594000000E+02  0.51100000000E-03 0.  1.
         11   -1    0    0    0    0 -0.00000000000E+00 -0.00000000000E+00 -0.45593999997E+02  0.45594000000E+02  0.51100000000E-03 0. -1.
    9900012    2    1    2    0    0  0.23478598663E+02  0.37887503496E+02 -0.65119288366E+01  0.46142326140E+02  0.10000076402E+02 0.  0.
        -12    1    1    2    0    0 -0.23478598663E+02 -0.37887503496E+02  0.65119288366E+01  0.45045673860E+02  0.00000000000E+00 0.  1.
         11    1    3    3    0    0  0.14876048915E+02  0.17984002022E+02 -0.18459198908E+01  0.23412146005E+02  0.51100000000E-03 0. -1.
        -11    1    3    3    0    0  0.37542372333E+01  0.68037631146E+01  0.61948766356E+00  0.77954637418E+01  0.51100000000E-03 0.  1.
        -12    1    3    3    0    0  0.48483125150E+01  0.13099738360E+02 -0.52854966093E+01  0.14934716393E+02  0.00000000000E+00 0.  1.
</event>
<event>
 7    1  0.3981356E-008  0.4614232E+02  0.7816164E-02  0.1320468E+00
        -11   -1    0    0    0    0  0.00000000000E+00  0.00000000000E+00  0.45593999997E+02  0.45594000000E+02  0.51100000000E-03 0.  1.
         11   -1    0    0    0    0 -0.00000000000E+00 -0.00000000000E+00 -0.45593999997E+02  0.45594000000E+02  0.51100000000E-03 0. -1.
    9900012    2    1    2    0    0 -0.10563445574E+02 -0.35190722247E+02 -0.26060319159E+02  0.46142317085E+02  0.99999938323E+01 0.  0.
        -12    1    1    2    0    0  0.10563445574E+02  0.35190722247E+02  0.26060319159E+02  0.45045682915E+02  0.00000000000E+00 0.  1.
         11    1    3    3    0    0 -0.55780300648E+01 -0.11100544633E+02 -0.76340773418E+01  0.14581345880E+02  0.51100000000E-03 0. -1.
        -11    1    3    3    0    0 -0.44530700042E+01 -0.24405786796E+02 -0.17201668841E+02  0.30188899827E+02  0.51100000000E-03 0.  1.
        -12    1    3    3    0    0 -0.53234550483E+00  0.31560918182E+00 -0.12245729762E+01  0.13720713779E+01  0.00000000000E+00 0.  1.
</event>
<event>
 7    1  0.3981356E-008  0.4614232E+02  0.7816164E-02  0.1320468E+00
        -11   -1    0    0    0    0  0.00000000000E+00  0.00000000000E+00  0.45593999997E+02  0.45594000000E+02  0.51100000000E-03 0.  1.
         11   -1    0    0    0    0 -0.00000000000E+00 -0.00000000000E+00 -0.45593999997E+02  0.45594000000E+02  0.51100000000E-03 0. -1.
    9900012    2    1    2    0    0 -0.35602575524E+02  0.15912618706E+02 -0.22546811825E+02  0.46142317171E+02  0.99999946171E+01 0.  0.
        -12    1    1    2    0    0  0.35602575524E+02 -0.15912618706E+02  0.22546811825E+02  0.45045682829E+02  0.00000000000E+00 0.  1.
         11    1    3    3    0    0 -0.19167735507E+02  0.86559603320E+01 -0.11598676479E+02  0.24017848156E+02  0.51100000000E-03 0. -1.
        -11    1    3    3    0    0 -0.11099727690E+02  0.50542674087E+01 -0.10892691297E+02  0.16352378964E+02  0.51100000000E-03 0.  1.
        -12    1    3    3    0    0 -0.53351123276E+01  0.22023909657E+01 -0.55444049911E-01  0.57720900510E+01  0.00000000000E+00 0.  1.
</event>
<event>
 7    1  0.3981356E-008  0.4614232E+02  0.7816164E-02  0.1320468E+00
        -11   -1    0    0    0    0  0.00000000000E+00  0.00000000000E+00  0.45593999997E+02  0.45594000000E+02  0.51100000000E-03 0. -1.
         11   -1    0    0    0    0 -0.00000000000E+00 -0.00000000000E+00 -0.45593999997E+02  0.45594000000E+02  0.51100000000E-03 0.  1.
    9900012    2    1    2    0    0 -0.19407447866E+02 -0.29693207367E+02  0.27762886960E+02  0.46142317756E+02  0.99999999576E+01 0.  0.
        -12    1    1    2    0    0  0.19407447866E+02  0.29693207367E+02 -0.27762886960E+02  0.45045682244E+02  0.00000000000E+00 0.  1.
         11    1    3    3    0    0 -0.24234727733E+01 -0.10110006319E+01  0.39370454075E+01  0.47324062973E+01  0.51100000000E-03 0. -1.
        -11    1    3    3    0    0 -0.18558926862E+01 -0.32808134041E+01  0.53574763922E+01  0.65506204141E+01  0.51100000000E-03 0.  1.
         12    1    3    3    0    0 -0.15128082407E+02 -0.25401393331E+02  0.18468365160E+02  0.34859291045E+02  0.00000000000E+00 0. -1.
</event>
<event>
 7    1  0.3981356E-008  0.4614232E+02  0.7816164E-02  0.1320468E+00
        -11   -1    0    0    0    0  0.00000000000E+00  0.00000000000E+00  0.45593999997E+02  0.45594000000E+02  0.51100000000E-03 0. -1.
         11   -1    0    0    0    0 -0.00000000000E+00 -0.00000000000E+00 -0.45593999997E+02  0.45594000000E+02  0.51100000000E-03 0.  1.
    9900012    2    1    2    0    0 -0.37626650646E+02 -0.23355181636E+02 -0.82391894078E+01  0.46142316631E+02  0.99999896931E+01 0.  0.
        -12    1    1    2    0    0  0.37626650646E+02  0.23355181636E+02  0.82391894078E+01  0.45045683369E+02  0.00000000000E+00 0.  1.
         11    1    3    3    0    0 -0.26022171765E+02 -0.17450128697E+02 -0.15619983461E+01  0.31370372232E+02  0.51100000000E-03 0. -1.
        -11    1    3    3    0    0 -0.68145588378E+01 -0.45449412336E+01 -0.39307825036E+01  0.90854694057E+01  0.51100000000E-03 0.  1.
         12    1    3    3    0    0 -0.47899200437E+01 -0.13601117051E+01 -0.27464085581E+01  0.56864749928E+01  0.00000000000E+00 0. -1.
</event>
<event>
 7    1  0.3981356E-008  0.4614232E+02  0.7816164E-02  0.1320468E+00
        -11   -1    0    0    0    0  0.00000000000E+00  0.00000000000E+00  0.45593999997E+02  0.45594000000E+02  0.51100000000E-03 0.  1.
         11   -1    0    0    0    0 -0.00000000000E+00 -0.00000000000E+00 -0.45593999997E+02  0.45594000000E+02  0.51100000000E-03 0. -1.
    9900012    2    1    2    0    0 -0.22638686186E+02  0.28570201558E+02 -0.26464068697E+02  0.46142318061E+02  0.10000002739E+02 0.  0.
        -12    1    1    2    0    0  0.22638686186E+02 -0.28570201558E+02  0.26464068697E+02  0.45045681939E+02  0.00000000000E+00 0.  1.
         11    1    3    3    0    0 -0.17430528808E+02  0.20107119670E+02 -0.17212703922E+02  0.31692219432E+02  0.51100000000E-03 0. -1.
        -11    1    3    3    0    0 -0.25667822109E+01  0.58075772730E+00 -0.33268186286E+01  0.42418596045E+01  0.51100000000E-03 0.  1.
         12    1    3    3    0    0 -0.26413751670E+01  0.78823241608E+01 -0.59245461462E+01  0.10208239025E+02  0.00000000000E+00 0. -1.
</event>
<event>
 7    1  0.3981356E-008  0.4614232E+02  0.7816164E-02  0.1320468E+00
        -11   -1    0    0    0    0  0.00000000000E+00  0.00000000000E+00  0.45593999997E+02  0.45594000000E+02  0.51100000000E-03 0.  1.
         11   -1    0    0    0    0 -0.00000000000E+00 -0.00000000000E+00 -0.45593999997E+02  0.45594000000E+02  0.51100000000E-03 0. -1.
    9900012    2    1    2    0    0 -0.29036419302E+02 -0.18726294906E+02 -0.28902002625E+02  0.46142317382E+02  0.99999965434E+01 0.  0.
        -12    1    1    2    0    0  0.29036419302E+02  0.18726294906E+02  0.28902002625E+02  0.45045682618E+02  0.00000000000E+00 0.  1.
         11    1    3    3    0    0 -0.12344419185E+02 -0.87712028285E+01 -0.10707509314E+02  0.18546413132E+02  0.51100000000E-03 0. -1.
        -11    1    3    3    0    0 -0.34885326869E+01 -0.10366688218E+01 -0.32384697684E+00  0.36536857663E+01  0.51100000000E-03 0.  1.
        -12    1    3    3    0    0 -0.13203467430E+02 -0.89184232557E+01 -0.17870646334E+02  0.23942218484E+02  0.00000000000E+00 0.  1.
</event>
<event>
 7    1  0.3981356E-008  0.4614232E+02  0.7816164E-02  0.1320468E+00
        -11   -1    0    0    0    0  0.00000000000E+00  0.00000000000E+00  0.45593999997E+02  0.45594000000E+02  0.51100000000E-03 0. -1.
         11   -1    0    0    0    0 -0.00000000000E+00 -0.00000000000E+00 -0.45593999997E+02  0.45594000000E+02  0.51100000000E-03 0.  1.
    9900012    2    1    2    0    0 -0.27778429933E+02 -0.19420935868E+02  0.29669839843E+02  0.46142319676E+02  0.10000017460E+02 0.  0.
        -12    1    1    2    0    0  0.27778429933E+02  0.19420935868E+02 -0.29669839843E+02  0.45045680324E+02  0.00000000000E+00 0.  1.
         11    1    3    3    0    0 -0.13127151782E+02 -0.12874592816E+02  0.15221036056E+02  0.23869587197E+02  0.51100000000E-03 0. -1.
        -11    1    3    3    0    0 -0.50882159512E+01 -0.32388560682E+01  0.88449594362E+01  0.10705766572E+02  0.51100000000E-03 0.  1.
        -12    1    3    3    0    0 -0.95630621998E+01 -0.33074869843E+01  0.56038443509E+01  0.11566965907E+02  0.00000000000E+00 0.  1.
</event>
<event>
 7    1  0.3981356E-008  0.4614232E+02  0.7816164E-02  0.1320468E+00
        -11   -1    0    0    0    0  0.00000000000E+00  0.00000000000E+00  0.45593999997E+02  0.45594000000E+02  0.51100000000E-03 0.  1.
         11   -1    0    0    0    0 -0.00000000000E+00 -0.00000000000E+00 -0.45593999997E+02  0.45594000000E+02  0.51100000000E-03 0. -1.
    9900012    2    1    2    0    0 -0.41828836341E+02 -0.14787268909E+02 -0.77973614910E+01  0.46142315216E+02  0.99999767912E+01 0.  0.
        -12    1    1    2    0    0  0.41828836341E+02  0.14787268909E+02  0.77973614910E+01  0.45045684784E+02  0.00000000000E+00 0.  1.
         11    1    3    3    0    0 -0.53446790860E+01 -0.10229079002E+01  0.30655073458E+00  0.54503127175E+01  0.51100000000E-03 0. -1.
        -11    1    3    3    0    0 -0.14931766364E+02 -0.16871474986E+01 -0.13930356142E+01  0.15091211413E+02  0.51100000000E-03 0.  1.
         12    1    3    3    0    0 -0.21552390891E+02 -0.12077213511E+02 -0.67108766114E+01  0.25600791085E+02  0.00000000000E+00 0. -1.
</event>
<event>
 7    1  0.3981356E-008  0.4614232E+02  0.7816164E-02  0.1320468E+00
        -11   -1    0    0    0    0  0.00000000000E+00  0.00000000000E+00  0.45593999997E+02  0.45594000000E+02  0.51100000000E-03 0. -1.
         11   -1    0    0    0    0 -0.00000000000E+00 -0.00000000000E+00 -0.45593999997E+02  0.45594000000E+02  0.51100000000E-03 0.  1.
    9900012    2    1    2    0    0 -0.10959284480E+02  0.32815353021E+02  0.28847186989E+02  0.46142317550E+02  0.99999980794E+01 0.  0.
        -12    1    1    2    0    0  0.10959284480E+02 -0.32815353021E+02 -0.28847186989E+02  0.45045682450E+02  0.00000000000E+00 0.  1.
         11    1    3    3    0    0 -0.73701582571E+00  0.55736803151E+01  0.36638562713E+01  0.67106592538E+01  0.51100000000E-03 0. -1.
        -11    1    3    3    0    0 -0.69419065480E+01  0.25857126236E+02  0.22530078369E+02  0.34991219974E+02  0.51100000000E-03 0.  1.
        -12    1    3    3    0    0 -0.32803621060E+01  0.13845464698E+01  0.26532523485E+01  0.44404383227E+01  0.00000000000E+00 0.  1.
</event>
<event>
 7    1  0.3981356E-008  0.4614231E+02  0.7816164E-02  0.1320468E+00
        -11   -1    0    0    0    0  0.00000000000E+00  0.00000000000E+00  0.45593999997E+02  0.45594000000E+02  0.51100000000E-03 0.  1.
         11   -1    0    0    0    0 -0.00000000000E+00 -0.00000000000E+00 -0.45593999997E+02  0.45594000000E+02  0.51100000000E-03 0. -1.
    9900012    2    1    2    0    0  0.42206500402E+01  0.38525380615E+02 -0.22958556814E+02  0.46142310203E+02  0.99999310823E+01 0.  0.
        -12    1    1    2    0    0 -0.42206500402E+01 -0.38525380615E+02  0.22958556814E+02  0.45045689797E+02  0.00000000000E+00 0.  1.
         11    1    3    3    0    0 -0.88238694026E-01  0.36769605980E+01 -0.37567107916E+01  0.52574424903E+01  0.51100000000E-03 0. -1.
        -11    1    3    3    0    0  0.32373891428E+01  0.31549269398E+02 -0.19766436095E+02  0.37370430613E+02  0.51100000000E-03 0.  1.
        -12    1    3    3    0    0  0.10714995914E+01  0.32991506190E+01  0.56459007333E+00  0.35144371003E+01  0.00000000000E+00 0.  1.
</event>
<event>
 7    1  0.3981356E-008  0.4614232E+02  0.7816164E-02  0.1320468E+00
        -11   -1    0    0    0    0  0.00000000000E+00  0.00000000000E+00  0.45593999997E+02  0.45594000000E+02  0.51100000000E-03 0.  1.
         11   -1    0    0    0    0 -0.00000000000E+00 -0.00000000000E+00 -0.45593999997E+02  0.45594000000E+02  0.51100000000E-03 0. -1.
    9900012    2    1    2    0    0 -0.42813173335E+02  0.13833940736E+02  0.21835236148E+01  0.46142317602E+02  0.99999985482E+01 0.  0.
        -12    1    1    2    0    0  0.42813173335E+02 -0.13833940736E+02 -0.21835236148E+01  0.45045682398E+02  0.00000000000E+00 0.  1.
         11    1    3    3    0    0 -0.67908458474E+01  0.34935570824E+01  0.14910600806E+01  0.77809889369E+01  0.51100000000E-03 0.  1.
        -11    1    3    3    0    0 -0.86778616257E+01  0.40812874930E+01 -0.30455833034E+01  0.10061698063E+02  0.51100000000E-03 0. -1.
         12    1    3    3    0    0 -0.27344465862E+02  0.62590961609E+01  0.37380468375E+01  0.28299630602E+02  0.00000000000E+00 0. -1.
</event>
<event>
 7    1  0.3981356E-008  0.4614232E+02  0.7816164E-02  0.1320468E+00
        -11   -1    0    0    0    0  0.00000000000E+00  0.00000000000E+00  0.45593999997E+02  0.45594000000E+02  0.51100000000E-03 0.  1.
         11   -1    0    0    0    0 -0.00000000000E+00 -0.00000000000E+00 -0.45593999997E+02  0.45594000000E+02  0.51100000000E-03 0. -1.
    9900012    2    1    2    0    0  0.19451021821E+02  0.32718851658E+02 -0.24088337219E+02  0.46142317702E+02  0.99999994606E+01 0.  0.
        -12    1    1    2    0    0 -0.19451021821E+02 -0.32718851658E+02  0.24088337219E+02  0.45045682298E+02  0.00000000000E+00 0.  1.
         11    1    3    3    0    0  0.48352518048E+01  0.12712647870E+02 -0.11138580012E+02  0.17580075109E+02  0.51100000000E-03 0. -1.
        -11    1    3    3    0    0  0.72600459491E+01  0.12415977655E+02 -0.46257691723E+01  0.15108358912E+02  0.51100000000E-03 0.  1.
        -12    1    3    3    0    0  0.73557240676E+01  0.75902261328E+01 -0.83239880347E+01  0.13453883681E+02  0.00000000000E+00 0.  1.
</event>
<event>
 7    1  0.3981356E-008  0.4614232E+02  0.7816164E-02  0.1320468E+00
        -11   -1    0    0    0    0  0.00000000000E+00  0.00000000000E+00  0.45593999997E+02  0.45594000000E+02  0.51100000000E-03 0.  1.
         11   -1    0    0    0    0 -0.00000000000E+00 -0.00000000000E+00 -0.45593999997E+02  0.45594000000E+02  0.51100000000E-03 0. -1.
    9900012    2    1    2    0    0 -0.42304555219E+02 -0.91733664399E+01  0.12461438926E+02  0.46142317585E+02  0.99999983967E+01 0.  0.
        -12    1    1    2    0    0  0.42304555219E+02  0.91733664399E+01 -0.12461438926E+02  0.45045682415E+02  0.00000000000E+00 0.  1.
         11    1    3    3    0    0 -0.27837145737E+02 -0.47184601669E+01  0.70341840216E+01  0.29097255786E+02  0.51100000000E-03 0. -1.
        -11    1    3    3    0    0 -0.11089401620E+02 -0.46893549886E+01  0.19599666937E+01  0.12198620750E+02  0.51100000000E-03 0.  1.
        -12    1    3    3    0    0 -0.33780078614E+01  0.23444871565E+00  0.34672882105E+01  0.48464410496E+01  0.00000000000E+00 0.  1.
</event>
<event>
 7    1  0.3981356E-008  0.4614233E+02  0.7816164E-02  0.1320468E+00
        -11   -1    0    0    0    0  0.00000000000E+00  0.00000000000E+00  0.45593999997E+02  0.45594000000E+02  0.51100000000E-03 0.  1.
         11   -1    0    0    0    0 -0.00000000000E+00 -0.00000000000E+00 -0.45593999997E+02  0.45594000000E+02  0.51100000000E-03 0. -1.
    9900012    2    1    2    0    0 -0.28878888705E+02  0.58347757812E+01 -0.34074593695E+02  0.46142325882E+02  0.10000074053E+02 0.  0.
        -12    1    1    2    0    0  0.28878888705E+02 -0.58347757812E+01  0.34074593695E+02  0.45045674118E+02  0.00000000000E+00 0.  1.
         11    1    3    3    0    0 -0.16809292611E+02 -0.41168269215E+00 -0.20760364297E+02  0.26715436113E+02  0.51100000000E-03 0. -1.
        -11    1    3    3    0    0 -0.74491325171E+01  0.36017105034E+01 -0.53710200064E+01  0.98645704407E+01  0.51100000000E-03 0.  1.
        -12    1    3    3    0    0 -0.46204635769E+01  0.26447479699E+01 -0.79432093917E+01  0.95623193280E+01  0.00000000000E+00 0.  1.
</event>
<event>
 7    1  0.3981356E-008  0.4614232E+02  0.7816164E-02  0.1320468E+00
        -11   -1    0    0    0    0  0.00000000000E+00  0.00000000000E+00  0.45593999997E+02  0.45594000000E+02  0.51100000000E-03 0.  1.
         11   -1    0    0    0    0 -0.00000000000E+00 -0.00000000000E+00 -0.45593999997E+02  0.45594000000E+02  0.51100000000E-03 0. -1.
    9900012    2    1    2    0    0  0.19648120666E+02  0.17596507528E+02 -0.36516130740E+02  0.46142317332E+02  0.99999960827E+01 0.  0.
        -12    1    1    2    0    0 -0.19648120666E+02 -0.17596507528E+02  0.36516130740E+02  0.45045682668E+02  0.00000000000E+00 0.  1.
         11    1    3    3    0    0  0.11414174362E+01 -0.37339308911E+00 -0.27982194557E-01  0.12012657604E+01  0.51100000000E-03 0.  1.
        -11    1    3    3    0    0  0.76100749532E+01  0.42559324414E+01 -0.12250414838E+02  0.15036584243E+02  0.51100000000E-03 0. -1.
         12    1    3    3    0    0  0.10896628276E+02  0.13713968175E+02 -0.24237733707E+02  0.29904467328E+02  0.00000000000E+00 0. -1.
</event>
<event>
 7    1  0.3981356E-008  0.4614232E+02  0.7816164E-02  0.1320468E+00
        -11   -1    0    0    0    0  0.00000000000E+00  0.00000000000E+00  0.45593999997E+02  0.45594000000E+02  0.51100000000E-03 0.  1.
         11   -1    0    0    0    0 -0.00000000000E+00 -0.00000000000E+00 -0.45593999997E+02  0.45594000000E+02  0.51100000000E-03 0. -1.
    9900012    2    1    2    0    0 -0.17781262104E+02  0.55063371104E+01 -0.41019754245E+02  0.46142320200E+02  0.10000022236E+02 0.  0.
        -12    1    1    2    0    0  0.17781262104E+02 -0.55063371104E+01  0.41019754245E+02  0.45045679800E+02  0.00000000000E+00 0.  1.
         11    1    3    3    0    0 -0.72150864255E+01  0.37481783102E+01 -0.11938474679E+02  0.14444150743E+02  0.51100000000E-03 0. -1.
        -11    1    3    3    0    0 -0.25823952803E+01  0.24287477543E+01 -0.38878246659E+01  0.52614410508E+01  0.51100000000E-03 0.  1.
         12    1    3    3    0    0 -0.79837803981E+01 -0.67058895410E+00 -0.25193454900E+02  0.26436728406E+02  0.00000000000E+00 0. -1.
</event>
<event>
 7    1  0.3981356E-008  0.4614232E+02  0.7816164E-02  0.1320468E+00
        -11   -1    0    0    0    0  0.00000000000E+00  0.00000000000E+00  0.45593999997E+02  0.45594000000E+02  0.51100000000E-03 0.  1.
         11   -1    0    0    0    0 -0.00000000000E+00 -0.00000000000E+00 -0.45593999997E+02  0.45594000000E+02  0.51100000000E-03 0. -1.
    9900012    2    1    2    0    0 -0.89621866148E+01 -0.30328483680E+02 -0.32077652352E+02  0.46142317724E+02  0.99999996636E+01 0.  0.
        -12    1    1    2    0    0  0.89621866148E+01  0.30328483680E+02  0.32077652352E+02  0.45045682276E+02  0.00000000000E+00 0.  1.
         11    1    3    3    0    0 -0.35126111338E+01 -0.25275845277E+02 -0.22918423608E+02  0.34299576271E+02  0.51100000000E-03 0. -1.
        -11    1    3    3    0    0 -0.37875041662E+01 -0.40767378516E+01 -0.71239043136E+01  0.90396345197E+01  0.51100000000E-03 0.  1.
         12    1    3    3    0    0 -0.16620713148E+01 -0.97590055176E+00 -0.20353244306E+01  0.28031069335E+01  0.00000000000E+00 0. -1.
</event>
<event>
 7    1  0.3981356E-008  0.4614231E+02  0.7816164E-02  0.1320468E+00
        -11   -1    0    0    0    0  0.00000000000E+00  0.00000000000E+00  0.45593999997E+02  0.45594000000E+02  0.51100000000E-03 0. -1.
         11   -1    0    0    0    0 -0.00000000000E+00 -0.00000000000E+00 -0.45593999997E+02  0.45594000000E+02  0.51100000000E-03 0.  1.
    9900012    2    1    2    0    0  0.23422219377E+02 -0.37815025947E+02 -0.71089661917E+01  0.46142312657E+02  0.99999534577E+01 0.  0.
        -12    1    1    2    0    0 -0.23422219377E+02  0.37815025947E+02  0.71089661917E+01  0.45045687343E+02  0.00000000000E+00 0.  1.
         11    1    3    3    0    0  0.50410025887E+01 -0.70472988133E+01 -0.10964878550E+00  0.86653419310E+01  0.51100000000E-03 0. -1.
        -11    1    3    3    0    0  0.14418956948E+02 -0.18476703857E+02 -0.16374198854E+01  0.23494170533E+02  0.51100000000E-03 0.  1.
        -12    1    3    3    0    0  0.39622598399E+01 -0.12291023276E+02 -0.53618975208E+01  0.13982800193E+02  0.00000000000E+00 0.  1.
</event>
<event>
 7    1  0.3981356E-008  0.4614232E+02  0.7816164E-02  0.1320468E+00
        -11   -1    0    0    0    0  0.00000000000E+00  0.00000000000E+00  0.45593999997E+02  0.45594000000E+02  0.51100000000E-03 0.  1.
         11   -1    0    0    0    0 -0.00000000000E+00 -0.00000000000E+00 -0.45593999997E+02  0.45594000000E+02  0.51100000000E-03 0. -1.
    9900012    2    1    2    0    0 -0.22604824741E+02  0.42525736279E+00 -0.38960936210E+02  0.46142317679E+02  0.99999992513E+01 0.  0.
        -12    1    1    2    0    0  0.22604824741E+02 -0.42525736279E+00  0.38960936210E+02  0.45045682321E+02  0.00000000000E+00 0.  1.
         11    1    3    3    0    0 -0.11829264453E+02 -0.16444655693E-01 -0.11314943368E+02  0.16369474995E+02  0.51100000000E-03 0. -1.
        -11    1    3    3    0    0 -0.26432329819E+01 -0.93145584349E+00 -0.71738574651E+01  0.77018518407E+01  0.51100000000E-03 0.  1.
         12    1    3    3    0    0 -0.81323273066E+01  0.13731578620E+01 -0.20472135377E+02  0.22070990844E+02  0.00000000000E+00 0. -1.
</event>
<event>
 7    1  0.3981356E-008  0.4614232E+02  0.7816164E-02  0.1320468E+00
        -11   -1    0    0    0    0  0.00000000000E+00  0.00000000000E+00  0.45593999997E+02  0.45594000000E+02  0.51100000000E-03 0. -1.
         11   -1    0    0    0    0 -0.00000000000E+00 -0.00000000000E+00 -0.45593999997E+02  0.45594000000E+02  0.51100000000E-03 0.  1.
    9900012    2    1    2    0    0  0.25126524662E+02  0.23237403366E+01  0.37314494401E+02  0.46142317597E+02  0.99999985031E+01 0.  0.
        -12    1    1    2    0    0 -0.25126524662E+02 -0.23237403366E+01 -0.37314494401E+02  0.45045682403E+02  0.00000000000E+00 0.  1.
         11    1    3    3    0    0  0.16442322259E+02 -0.21048510866E+01  0.20362645922E+02  0.26256765006E+02  0.51100000000E-03 0. -1.
        -11    1    3    3    0    0  0.26722499747E+01  0.22778904180E+00  0.72019512822E+01  0.76851096484E+01  0.51100000000E-03 0.  1.
         12    1    3    3    0    0  0.60119524279E+01  0.42008023814E+01  0.97498971968E+01  0.12200442942E+02  0.00000000000E+00 0. -1.
</event>
<event>
 7    1  0.3981356E-008  0.4614232E+02  0.7816164E-02  0.1320468E+00
        -11   -1    0    0    0    0  0.00000000000E+00  0.00000000000E+00  0.45593999997E+02  0.45594000000E+02  0.51100000000E-03 0.  1.
         11   -1    0    0    0    0 -0.00000000000E+00 -0.00000000000E+00 -0.45593999997E+02  0.45594000000E+02  0.51100000000E-03 0. -1.
    9900012    2    1    2    0    0  0.25142352492E+02  0.30203815428E+02 -0.22016019688E+02  0.46142317874E+02  0.10000001032E+02 0.  0.
        -12    1    1    2    0    0 -0.25142352492E+02 -0.30203815428E+02  0.22016019688E+02  0.45045682126E+02  0.00000000000E+00 0.  1.
         11    1    3    3    0    0  0.35093013729E+01  0.82075493796E+01 -0.83525125566E+01  0.12224709780E+02  0.51100000000E-03 0. -1.
        -11    1    3    3    0    0  0.41440871361E+01  0.29016736920E+01 -0.32241210065E+01  0.59990103294E+01  0.51100000000E-03 0.  1.
        -12    1    3    3    0    0  0.17488963983E+02  0.19094592357E+02 -0.10439386125E+02  0.27918597765E+02  0.00000000000E+00 0.  1.
</event>
<event>
 7    1  0.3981356E-008  0.4614232E+02  0.7816164E-02  0.1320468E+00
        -11   -1    0    0    0    0  0.00000000000E+00  0.00000000000E+00  0.45593999997E+02  0.45594000000E+02  0.51100000000E-03 0. -1.
         11   -1    0    0    0    0 -0.00000000000E+00 -0.00000000000E+00 -0.45593999997E+02  0.45594000000E+02  0.51100000000E-03 0.  1.
    9900012    2    1    2    0    0 -0.19786729837E+02  0.12602817364E+02  0.38454748719E+02  0.46142318940E+02  0.10000010751E+02 0.  0.
        -12    1    1    2    0    0  0.19786729837E+02 -0.12602817364E+02 -0.38454748719E+02  0.45045681060E+02  0.00000000000E+00 0.  1.
         11    1    3    3    0    0 -0.89950943760E+01  0.49423981285E+01  0.15074503293E+02  0.18236767035E+02  0.51100000000E-03 0. -1.
        -11    1    3    3    0    0 -0.11830875307E+02  0.64856887913E+01  0.19426947162E+02  0.23652484984E+02  0.51100000000E-03 0.  1.
        -12    1    3    3    0    0  0.10392398463E+01  0.11747304439E+01  0.39532982639E+01  0.42530669213E+01  0.00000000000E+00 0.  1.
</event>
<event>
 7    1  0.3981356E-008  0.4614232E+02  0.7816164E-02  0.1320468E+00
        -11   -1    0    0    0    0  0.00000000000E+00  0.00000000000E+00  0.45593999997E+02  0.45594000000E+02  0.51100000000E-03 0.  1.
         11   -1    0    0    0    0 -0.00000000000E+00 -0.00000000000E+00 -0.45593999997E+02  0.45594000000E+02  0.51100000000E-03 0. -1.
    9900012    2    1    2    0    0  0.25761191937E+02  0.22241421526E+02 -0.29509212882E+02  0.46142317782E+02  0.10000000193E+02 0.  0.
        -12    1    1    2    0    0 -0.25761191937E+02 -0.22241421526E+02  0.29509212882E+02  0.45045682218E+02  0.00000000000E+00 0.  1.
         11    1    3    3    0    0  0.19225375488E+02  0.18261705301E+02 -0.21081475197E+02  0.33875264426E+02  0.51100000000E-03 0. -1.
        -11    1    3    3    0    0 -0.46849316425E+00 -0.26303997000E+00 -0.31003508378E-01  0.53817966277E+00  0.51100000000E-03 0.  1.
        -12    1    3    3    0    0  0.70043096139E+01  0.42427561945E+01 -0.83967341769E+01  0.11728873694E+02  0.00000000000E+00 0.  1.
</event>
<event>
 7    1  0.3981356E-008  0.4614232E+02  0.7816164E-02  0.1320468E+00
        -11   -1    0    0    0    0  0.00000000000E+00  0.00000000000E+00  0.45593999997E+02  0.45594000000E+02  0.51100000000E-03 0.  1.
         11   -1    0    0    0    0 -0.00000000000E+00 -0.00000000000E+00 -0.45593999997E+02  0.45594000000E+02  0.51100000000E-03 0. -1.
    9900012    2    1    2    0    0  0.21049891017E+02 -0.36426603785E+02 -0.16097146832E+02  0.46142317507E+02  0.99999976813E+01 0.  0.
        -12    1    1    2    0    0 -0.21049891017E+02  0.36426603785E+02  0.16097146832E+02  0.45045682493E+02  0.00000000000E+00 0.  1.
         11    1    3    3    0    0  0.14009174854E+02 -0.26627180008E+02 -0.12706170860E+02  0.32660533882E+02  0.51100000000E-03 0. -1.
        -11    1    3    3    0    0  0.27772681140E+01 -0.29384948703E+01 -0.35821288824E+01  0.54018161642E+01  0.51100000000E-03 0.  1.
        -12    1    3    3    0    0  0.42634480492E+01 -0.68609289070E+01  0.19115291053E+00  0.80799674610E+01  0.00000000000E+00 0.  1.
</event>
<event>
 7    1  0.3981356E-008  0.4614232E+02  0.7816164E-02  0.1320468E+00
        -11   -1    0    0    0    0  0.00000000000E+00  0.00000000000E+00  0.45593999997E+02  0.45594000000E+02  0.51100000000E-03 0.  1.
         11   -1    0    0    0    0 -0.00000000000E+00 -0.00000000000E+00 -0.45593999997E+02  0.45594000000E+02  0.51100000000E-03 0. -1.
    9900012    2    1    2    0    0  0.16370397632E+02 -0.39644188790E+02 -0.13764512847E+02  0.46142318327E+02  0.10000005160E+02 0.  0.
        -12    1    1    2    0    0 -0.16370397632E+02  0.39644188790E+02  0.13764512847E+02  0.45045681673E+02  0.00000000000E+00 0.  1.
         11    1    3    3    0    0  0.13987009830E+02 -0.25893684664E+02 -0.84319041976E+01  0.30613989582E+02  0.51100000000E-03 0. -1.
        -11    1    3    3    0    0  0.73493796100E-01 -0.92040401249E+01 -0.48553321002E+01  0.10406440603E+02  0.51100000000E-03 0.  1.
        -12    1    3    3    0    0  0.23098940059E+01 -0.45464640019E+01 -0.47727654900E+00  0.51218881425E+01  0.00000000000E+00 0.  1.
</event>
<event>
 7    1  0.3981356E-008  0.4614231E+02  0.7816164E-02  0.1320468E+00
        -11   -1    0    0    0    0  0.00000000000E+00  0.00000000000E+00  0.45593999997E+02  0.45594000000E+02  0.51100000000E-03 0.  1.
         11   -1    0    0    0    0 -0.00000000000E+00 -0.00000000000E+00 -0.45593999997E+02  0.45594000000E+02  0.51100000000E-03 0. -1.
    9900012    2    1    2    0    0  0.38986093899E+02 -0.56259111272E+01 -0.21852857920E+02  0.46142314382E+02  0.99999691893E+01 0.  0.
        -12    1    1    2    0    0 -0.38986093899E+02  0.56259111272E+01  0.21852857920E+02  0.45045685618E+02  0.00000000000E+00 0.  1.
         11    1    3    3    0    0  0.17264458102E+02 -0.46162098690E+01 -0.94792960499E+01  0.20229383604E+02  0.51100000000E-03 0. -1.
        -11    1    3    3    0    0  0.28043071961E+00 -0.12870161364E+01 -0.87666537552E+00  0.15822750600E+01  0.51100000000E-03 0.  1.
        -12    1    3    3    0    0  0.21441205077E+02  0.27731487815E+00 -0.11496896494E+02  0.24330655719E+02  0.00000000000E+00 0.  1.
</event>
<event>
 7    1  0.3981356E-008  0.4614232E+02  0.7816164E-02  0.1320468E+00
        -11   -1    0    0    0    0  0.00000000000E+00  0.00000000000E+00  0.45593999997E+02  0.45594000000E+02  0.51100000000E-03 0.  1.
         11   -1    0    0    0    0 -0.00000000000E+00 -0.00000000000E+00 -0.45593999997E+02  0.45594000000E+02  0.51100000000E-03 0. -1.
    9900012    2    1    2    0    0  0.34752176666E+02  0.16661710614E+02 -0.23319243890E+02  0.46142317419E+02  0.99999968824E+01 0.  0.
        -12    1    1    2    0    0 -0.34752176666E+02 -0.16661710614E+02  0.23319243890E+02  0.45045682581E+02  0.00000000000E+00 0.  1.
         11    1    3    3    0    0  0.26059505183E+02  0.12963651453E+02 -0.20372618708E+02  0.35527421278E+02  0.51100000000E-03 0. -1.
        -11    1    3    3    0    0  0.26751886576E+01 -0.51220422866E+00 -0.15667642103E+01  0.31422504479E+01  0.51100000000E-03 0.  1.
         12    1    3    3    0    0  0.60174828251E+01  0.42102633895E+01 -0.13798609715E+01  0.74726456934E+01  0.00000000000E+00 0. -1.
</event>
<event>
 7    1  0.3981356E-008  0.4614232E+02  0.7816164E-02  0.1320468E+00
        -11   -1    0    0    0    0  0.00000000000E+00  0.00000000000E+00  0.45593999997E+02  0.45594000000E+02  0.51100000000E-03 0.  1.
         11   -1    0    0    0    0 -0.00000000000E+00 -0.00000000000E+00 -0.45593999997E+02  0.45594000000E+02  0.51100000000E-03 0. -1.
    9900012    2    1    2    0    0  0.17104263174E+02  0.26799507140E+02 -0.31911504025E+02  0.46142317734E+02  0.99999997547E+01 0.  0.
        -12    1    1    2    0    0 -0.17104263174E+02 -0.26799507140E+02  0.31911504025E+02  0.45045682266E+02  0.00000000000E+00 0.  1.
         11    1    3    3    0    0  0.12350110783E+02  0.13564356682E+02 -0.15425198483E+02  0.23967764958E+02  0.51100000000E-03 0. -1.
        -11    1    3    3    0    0  0.54564703451E+01  0.90313399702E+01 -0.11273966160E+02  0.15441518174E+02  0.51100000000E-03 0.  1.
        -12    1    3    3    0    0 -0.70231795496E+00  0.42038104878E+01 -0.52123393813E+01  0.67330346021E+01  0.00000000000E+00 0.  1.
</event>
<event>
 7    1  0.3981356E-008  0.4614232E+02  0.7816164E-02  0.1320468E+00
        -11   -1    0    0    0    0  0.00000000000E+00  0.00000000000E+00  0.45593999997E+02  0.45594000000E+02  0.51100000000E-03 0.  1.
         11   -1    0    0    0    0 -0.00000000000E+00 -0.00000000000E+00 -0.45593999997E+02  0.45594000000E+02  0.51100000000E-03 0. -1.
    9900012    2    1    2    0    0  0.10611836833E+02 -0.35746458270E+02 -0.25272378530E+02  0.46142317894E+02  0.10000001215E+02 0.  0.
        -12    1    1    2    0    0 -0.10611836833E+02  0.35746458270E+02  0.25272378530E+02  0.45045682106E+02  0.00000000000E+00 0.  1.
         11    1    3    3    0    0  0.54223880077E+01 -0.11875297250E+02 -0.93558496821E+01  0.16061036704E+02  0.51100000000E-03 0. -1.
        -11    1    3    3    0    0  0.61054555020E+01 -0.23392053676E+02 -0.14088622491E+02  0.27981316017E+02  0.51100000000E-03 0.  1.
        -12    1    3    3    0    0 -0.91600667670E+00 -0.47910734341E+00 -0.18279063573E+01  0.20999651734E+01  0.00000000000E+00 0.  1.
</event>
<event>
 7    1  0.3981356E-008  0.4614232E+02  0.7816164E-02  0.1320468E+00
        -11   -1    0    0    0    0  0.00000000000E+00  0.00000000000E+00  0.45593999997E+02  0.45594000000E+02  0.51100000000E-03 0.  1.
         11   -1    0    0    0    0 -0.00000000000E+00 -0.00000000000E+00 -0.45593999997E+02  0.45594000000E+02  0.51100000000E-03 0. -1.
    9900012    2    1    2    0    0 -0.21171552412E+02  0.72863041272E+00 -0.39753590056E+02  0.46142318119E+02  0.10000003261E+02 0.  0.
        -12    1    1    2    0    0  0.21171552412E+02 -0.72863041272E+00  0.39753590056E+02  0.45045681881E+02  0.00000000000E+00 0.  1.
         11    1    3    3    0    0 -0.15774069441E+00  0.29376183686E+00 -0.76534328348E+01  0.76606926946E+01  0.51100000000E-03 0. -1.
        -11    1    3    3    0    0 -0.47861574425E+01  0.92262300200E+00 -0.58241912574E+01  0.75947179231E+01  0.51100000000E-03 0.  1.
        -12    1    3    3    0    0 -0.16227654275E+02 -0.48775442614E+00 -0.26275965964E+02  0.30886907501E+02  0.00000000000E+00 0.  1.
</event>
<event>
 7    1  0.3981356E-008  0.4614230E+02  0.7816164E-02  0.1320468E+00
        -11   -1    0    0    0    0  0.00000000000E+00  0.00000000000E+00  0.45593999997E+02  0.45594000000E+02  0.51100000000E-03 0.  1.
         11   -1    0    0    0    0 -0.00000000000E+00 -0.00000000000E+00 -0.45593999997E+02  0.45594000000E+02  0.51100000000E-03 0. -1.
    9900012    2    1    2    0    0  0.67913644835E+01  0.20602988186E+02 -0.39477957025E+02  0.46142302706E+02  0.99998627189E+01 0.  0.
        -12    1    1    2    0    0 -0.67913644835E+01 -0.20602988186E+02  0.39477957025E+02  0.45045697294E+02  0.00000000000E+00 0.  1.
         11    1    3    3    0    0  0.14674542331E+01  0.19518522627E+01 -0.54834322500E+01  0.60025976613E+01  0.51100000000E-03 0. -1.
        -11    1    3    3    0    0 -0.20553067265E+01  0.12191668180E+01 -0.32293847372E+01  0.40174095524E+01  0.51100000000E-03 0.  1.
        -12    1    3    3    0    0  0.73792169769E+01  0.17431969106E+02 -0.30765140038E+02  0.36122295493E+02  0.00000000000E+00 0.  1.
</event>
<event>
 7    1  0.3981356E-008  0.4614232E+02  0.7816164E-02  0.1320468E+00
        -11   -1    0    0    0    0  0.00000000000E+00  0.00000000000E+00  0.45593999997E+02  0.45594000000E+02  0.51100000000E-03 0. -1.
         11   -1    0    0    0    0 -0.00000000000E+00 -0.00000000000E+00 -0.45593999997E+02  0.45594000000E+02  0.51100000000E-03 0.  1.
    9900012    2    1    2    0    0 -0.44208459560E+02 -0.73026454498E+01  0.46256827728E+01  0.46142317983E+02  0.10000002024E+02 0.  0.
        -12    1    1    2    0    0  0.44208459560E+02  0.73026454498E+01 -0.46256827728E+01  0.45045682017E+02  0.00000000000E+00 0.  1.
         11    1    3    3    0    0 -0.88584462484E+01 -0.31800823314E+01  0.15308052447E+01  0.95356362414E+01  0.51100000000E-03 0. -1.
        -11    1    3    3    0    0 -0.25900258826E+02  0.48096292094E+00  0.12523390462E+01  0.25934978040E+02  0.51100000000E-03 0.  1.
        -12    1    3    3    0    0 -0.94497544857E+01 -0.46035260393E+01  0.18425384819E+01  0.10671703701E+02  0.00000000000E+00 0.  1.
</event>
<event>
 7    1  0.3981356E-008  0.4614232E+02  0.7816164E-02  0.1320468E+00
        -11   -1    0    0    0    0  0.00000000000E+00  0.00000000000E+00  0.45593999997E+02  0.45594000000E+02  0.51100000000E-03 0. -1.
         11   -1    0    0    0    0 -0.00000000000E+00 -0.00000000000E+00 -0.45593999997E+02  0.45594000000E+02  0.51100000000E-03 0.  1.
    9900012    2    1    2    0    0 -0.42960028125E+01 -0.40223393239E+02  0.19817581330E+02  0.46142317259E+02  0.99999954250E+01 0.  0.
        -12    1    1    2    0    0  0.42960028125E+01  0.40223393239E+02 -0.19817581330E+02  0.45045682741E+02  0.00000000000E+00 0.  1.
         11    1    3    3    0    0  0.11413864620E+01 -0.23647883639E+02  0.97390775590E+01  0.25600288975E+02  0.51100000000E-03 0. -1.
        -11    1    3    3    0    0 -0.22815251787E+00 -0.13651506482E+01 -0.28576124512E+00  0.14132761988E+01  0.51100000000E-03 0.  1.
        -12    1    3    3    0    0 -0.52092367566E+01 -0.15210358952E+02  0.10364265016E+02  0.19128752085E+02  0.00000000000E+00 0.  1.
</event>
<event>
 7    1  0.3981356E-008  0.4614232E+02  0.7816164E-02  0.1320468E+00
        -11   -1    0    0    0    0  0.00000000000E+00  0.00000000000E+00  0.45593999997E+02  0.45594000000E+02  0.51100000000E-03 0.  1.
         11   -1    0    0    0    0 -0.00000000000E+00 -0.00000000000E+00 -0.45593999997E+02  0.45594000000E+02  0.51100000000E-03 0. -1.
    9900012    2    1    2    0    0 -0.26007520829E+02 -0.35559981036E+02 -0.93920231061E+01  0.46142317754E+02  0.99999999352E+01 0.  0.
        -12    1    1    2    0    0  0.26007520829E+02  0.35559981036E+02  0.93920231061E+01  0.45045682246E+02  0.00000000000E+00 0.  1.
         11    1    3    3    0    0 -0.90671673378E+01 -0.12779959223E+02 -0.27714217368E+01  0.15912940017E+02  0.51100000000E-03 0. -1.
        -11    1    3    3    0    0 -0.98340345638E+01 -0.79634098755E+01 -0.40498686099E+00  0.12660495538E+02  0.51100000000E-03 0.  1.
        -12    1    3    3    0    0 -0.71063189274E+01 -0.14816611938E+02 -0.62156145083E+01  0.17568882199E+02  0.00000000000E+00 0.  1.
</event>
<event>
 7    1  0.3981356E-008  0.4614232E+02  0.7816164E-02  0.1320468E+00
        -11   -1    0    0    0    0  0.00000000000E+00  0.00000000000E+00  0.45593999997E+02  0.45594000000E+02  0.51100000000E-03 0. -1.
         11   -1    0    0    0    0 -0.00000000000E+00 -0.00000000000E+00 -0.45593999997E+02  0.45594000000E+02  0.51100000000E-03 0.  1.
    9900012    2    1    2    0    0  0.28809745277E+02 -0.20277342011E+02  0.28070295690E+02  0.46142317387E+02  0.99999965852E+01 0.  0.
        -12    1    1    2    0    0 -0.28809745277E+02  0.20277342011E+02 -0.28070295690E+02  0.45045682613E+02  0.00000000000E+00 0.  1.
         11    1    3    3    0    0  0.13256723182E+02 -0.96191866080E+01  0.12251028375E+02  0.20453780996E+02  0.51100000000E-03 0. -1.
        -11    1    3    3    0    0  0.10257955078E+02 -0.95811246096E+01  0.79164464872E+01  0.16115015247E+02  0.51100000000E-03 0.  1.
        -12    1    3    3    0    0  0.52950670173E+01 -0.10770307934E+01  0.79028208283E+01  0.95735211439E+01  0.00000000000E+00 0.  1.
</event>
<event>
 7    1  0.3981356E-008  0.4614232E+02  0.7816164E-02  0.1320468E+00
        -11   -1    0    0    0    0  0.00000000000E+00  0.00000000000E+00  0.45593999997E+02  0.45594000000E+02  0.51100000000E-03 0.  1.
         11   -1    0    0    0    0 -0.00000000000E+00 -0.00000000000E+00 -0.45593999997E+02  0.45594000000E+02  0.51100000000E-03 0. -1.
    9900012    2    1    2    0    0 -0.11115057845E+02  0.65081003128E+01 -0.43164956515E+02  0.46142319280E+02  0.10000013852E+02 0.  0.
        -12    1    1    2    0    0  0.11115057845E+02 -0.65081003128E+01  0.43164956515E+02  0.45045680720E+02  0.00000000000E+00 0.  1.
         11    1    3    3    0    0 -0.46692460587E+01  0.13228572907E+01 -0.17616208808E+02  0.18272455314E+02  0.51100000000E-03 0. -1.
        -11    1    3    3    0    0 -0.71754056627E+01  0.15621624813E+01 -0.18646528644E+02  0.20040454805E+02  0.51100000000E-03 0.  1.
         12    1    3    3    0    0  0.72959387650E+00  0.36230805408E+01 -0.69022190630E+01  0.78294091618E+01  0.00000000000E+00 0. -1.
</event>
<event>
 7    1  0.3981356E-008  0.4614231E+02  0.7816164E-02  0.1320468E+00
        -11   -1    0    0    0    0  0.00000000000E+00  0.00000000000E+00  0.45593999997E+02  0.45594000000E+02  0.51100000000E-03 0. -1.
         11   -1    0    0    0    0 -0.00000000000E+00 -0.00000000000E+00 -0.45593999997E+02  0.45594000000E+02  0.51100000000E-03 0.  1.
    9900012    2    1    2    0    0  0.32393525103E+02  0.26086661513E+02  0.17299115967E+02  0.46142314405E+02  0.99999693990E+01 0.  0.
        -12    1    1    2    0    0 -0.32393525103E+02 -0.26086661513E+02 -0.17299115967E+02  0.45045685595E+02  0.00000000000E+00 0.  1.
         11    1    3    3    0    0  0.50616891071E+01  0.63703036677E+01  0.34911837922E+01  0.88538031358E+01  0.51100000000E-03 0.  1.
        -11    1    3    3    0    0 -0.23840146405E+00  0.14390260575E+01  0.11999754632E+01  0.18888019021E+01  0.51100000000E-03 0. -1.
         12    1    3    3    0    0  0.27570237460E+02  0.18277331788E+02  0.12607956711E+02  0.35399709367E+02  0.00000000000E+00 0. -1.
</event>
<event>
 7    1  0.3981356E-008  0.4614232E+02  0.7816164E-02  0.1320468E+00
        -11   -1    0    0    0    0  0.00000000000E+00  0.00000000000E+00  0.45593999997E+02  0.45594000000E+02  0.51100000000E-03 0.  1.
         11   -1    0    0    0    0 -0.00000000000E+00 -0.00000000000E+00 -0.45593999997E+02  0.45594000000E+02  0.51100000000E-03 0. -1.
    9900012    2    1    2    0    0  0.44889720930E+02  0.37431211658E+01  0.12306263484E+00  0.46142321566E+02  0.10000034694E+02 0.  0.
        -12    1    1    2    0    0 -0.44889720930E+02 -0.37431211658E+01 -0.12306263484E+00  0.45045678434E+02  0.00000000000E+00 0.  1.
         11    1    3    3    0    0  0.18473754955E+02 -0.30503276485E+00  0.38025531245E+01  0.18863511806E+02  0.51100000000E-03 0. -1.
        -11    1    3    3    0    0  0.14392690697E+02  0.17941560253E+00 -0.22302009251E+01  0.14565559787E+02  0.51100000000E-03 0.  1.
        -12    1    3    3    0    0  0.12023275277E+02  0.38687383281E+01 -0.14492895646E+01  0.12713249973E+02  0.00000000000E+00 0.  1.
</event>
<event>
 7    1  0.3981356E-008  0.4614231E+02  0.7816164E-02  0.1320468E+00
        -11   -1    0    0    0    0  0.00000000000E+00  0.00000000000E+00  0.45593999997E+02  0.45594000000E+02  0.51100000000E-03 0.  1.
         11   -1    0    0    0    0 -0.00000000000E+00 -0.00000000000E+00 -0.45593999997E+02  0.45594000000E+02  0.51100000000E-03 0. -1.
    9900012    2    1    2    0    0  0.11179163269E+02  0.32205798054E+02 -0.29443620537E+02  0.46142313081E+02  0.99999573217E+01 0.  0.
        -12    1    1    2    0    0 -0.11179163269E+02 -0.32205798054E+02  0.29443620537E+02  0.45045686919E+02  0.00000000000E+00 0.  1.
         11    1    3    3    0    0  0.34487988943E+01  0.18023986629E+02 -0.19548571709E+02  0.26812403174E+02  0.51100000000E-03 0.  1.
        -11    1    3    3    0    0 -0.32912834861E-01  0.32185057873E+00 -0.11525847917E+01  0.11971311594E+01  0.51100000000E-03 0. -1.
         12    1    3    3    0    0  0.77632772091E+01  0.13859960847E+02 -0.87424640357E+01  0.18132778748E+02  0.00000000000E+00 0. -1.
</event>
<event>
 7    1  0.3981356E-008  0.4614232E+02  0.7816164E-02  0.1320468E+00
        -11   -1    0    0    0    0  0.00000000000E+00  0.00000000000E+00  0.45593999997E+02  0.45594000000E+02  0.51100000000E-03 0.  1.
         11   -1    0    0    0    0 -0.00000000000E+00 -0.00000000000E+00 -0.45593999997E+02  0.45594000000E+02  0.51100000000E-03 0. -1.
    9900012    2    1    2    0    0  0.41173831730E+02  0.12163119491E+02 -0.13634061289E+02  0.46142317385E+02  0.99999965667E+01 0.  0.
        -12    1    1    2    0    0 -0.41173831730E+02 -0.12163119491E+02  0.13634061289E+02  0.45045682615E+02  0.00000000000E+00 0.  1.
         11    1    3    3    0    0  0.30623485839E+02  0.55269232535E+01 -0.10009116091E+02  0.32688333863E+02  0.51100000000E-03 0. -1.
        -11    1    3    3    0    0  0.16788520930E+01  0.11573489671E+01  0.71368784556E+00  0.21604054211E+01  0.51100000000E-03 0.  1.
        -12    1    3    3    0    0  0.88714937977E+01  0.54788472705E+01 -0.43386330433E+01  0.11293578100E+02  0.00000000000E+00 0.  1.
</event>
<event>
 7    1  0.3981356E-008  0.4614232E+02  0.7816164E-02  0.1320468E+00
        -11   -1    0    0    0    0  0.00000000000E+00  0.00000000000E+00  0.45593999997E+02  0.45594000000E+02  0.51100000000E-03 0.  1.
         11   -1    0    0    0    0 -0.00000000000E+00 -0.00000000000E+00 -0.45593999997E+02  0.45594000000E+02  0.51100000000E-03 0. -1.
    9900012    2    1    2    0    0 -0.14371894287E+02 -0.39601655149E+02 -0.15945877411E+02  0.46142318272E+02  0.10000004655E+02 0.  0.
        -12    1    1    2    0    0  0.14371894287E+02  0.39601655149E+02  0.15945877411E+02  0.45045681728E+02  0.00000000000E+00 0.  1.
         11    1    3    3    0    0 -0.92009985888E+00 -0.56984008723E+00 -0.75679395308E+00  0.13206206207E+01  0.51100000000E-03 0. -1.
        -11    1    3    3    0    0 -0.55087802029E+01 -0.13759892918E+02 -0.98557971324E+01  0.17799383411E+02  0.51100000000E-03 0.  1.
         12    1    3    3    0    0 -0.79430142255E+01 -0.25271922144E+02 -0.53332863254E+01  0.27022314240E+02  0.00000000000E+00 0. -1.
</event>
<event>
 7    1  0.3981356E-008  0.4614232E+02  0.7816164E-02  0.1320468E+00
        -11   -1    0    0    0    0  0.00000000000E+00  0.00000000000E+00  0.45593999997E+02  0.45594000000E+02  0.51100000000E-03 0.  1.
         11   -1    0    0    0    0 -0.00000000000E+00 -0.00000000000E+00 -0.45593999997E+02  0.45594000000E+02  0.51100000000E-03 0. -1.
    9900012    2    1    2    0    0 -0.43376113414E+02 -0.12022044373E+02  0.17597544824E+01  0.46142317614E+02  0.99999986570E+01 0.  0.
        -12    1    1    2    0    0  0.43376113414E+02  0.12022044373E+02 -0.17597544824E+01  0.45045682386E+02  0.00000000000E+00 0.  1.
         11    1    3    3    0    0 -0.15359113708E+02 -0.37619394768E+01  0.53338409034E+01  0.16688451743E+02  0.51100000000E-03 0.  1.
        -11    1    3    3    0    0 -0.75983799756E+01 -0.20261370462E+01 -0.14846840647E+01  0.80028055466E+01  0.51100000000E-03 0. -1.
        -12    1    3    3    0    0 -0.20418619730E+02 -0.62339678497E+01 -0.20894023564E+01  0.21451060324E+02  0.00000000000E+00 0.  1.
</event>
<event>
 7    1  0.3981356E-008  0.4614232E+02  0.7816164E-02  0.1320468E+00
        -11   -1    0    0    0    0  0.00000000000E+00  0.00000000000E+00  0.45593999997E+02  0.45594000000E+02  0.51100000000E-03 0. -1.
         11   -1    0    0    0    0 -0.00000000000E+00 -0.00000000000E+00 -0.45593999997E+02  0.45594000000E+02  0.51100000000E-03 0.  1.
    9900012    2    1    2    0    0 -0.11740378377E+02 -0.28949123193E+02  0.32453432184E+02  0.46142317869E+02  0.10000000988E+02 0.  0.
        -12    1    1    2    0    0  0.11740378377E+02  0.28949123193E+02 -0.32453432184E+02  0.45045682131E+02  0.00000000000E+00 0.  1.
         11    1    3    3    0    0 -0.81694286962E+01 -0.17613325671E+02  0.15622681663E+02  0.24920613736E+02  0.51100000000E-03 0. -1.
        -11    1    3    3    0    0 -0.46699860382E+01 -0.96365373939E+01  0.15341121245E+02  0.18708864847E+02  0.51100000000E-03 0.  1.
         12    1    3    3    0    0  0.10990363569E+01 -0.16992601279E+01  0.14896292763E+01  0.25128392859E+01  0.00000000000E+00 0. -1.
</event>
<event>
 7    1  0.3981356E-008  0.4614232E+02  0.7816164E-02  0.1320468E+00
        -11   -1    0    0    0    0  0.00000000000E+00  0.00000000000E+00  0.45593999997E+02  0.45594000000E+02  0.51100000000E-03 0.  1.
         11   -1    0    0    0    0 -0.00000000000E+00 -0.00000000000E+00 -0.45593999997E+02  0.45594000000E+02  0.51100000000E-03 0. -1.
    9900012    2    1    2    0    0 -0.59102172129E+01  0.32558597064E+02 -0.30563387112E+02  0.46142317166E+02  0.99999945688E+01 0.  0.
        -12    1    1    2    0    0  0.59102172129E+01 -0.32558597064E+02  0.30563387112E+02  0.45045682834E+02  0.00000000000E+00 0.  1.
         11    1    3    3    0    0 -0.20760547788E+01  0.12810439776E+02 -0.12190701037E+02  0.17805352081E+02  0.51100000000E-03 0. -1.
        -11    1    3    3    0    0 -0.15980191188E+01  0.30301697093E+01 -0.75651273795E+01  0.83046219721E+01  0.51100000000E-03 0.  1.
         12    1    3    3    0    0 -0.22361433153E+01  0.16717987579E+02 -0.10807558695E+02  0.20032343112E+02  0.00000000000E+00 0. -1.
</event>
<event>
 7    1  0.3981356E-008  0.4614232E+02  0.7816164E-02  0.1320468E+00
        -11   -1    0    0    0    0  0.00000000000E+00  0.00000000000E+00  0.45593999997E+02  0.45594000000E+02  0.51100000000E-03 0.  1.
         11   -1    0    0    0    0 -0.00000000000E+00 -0.00000000000E+00 -0.45593999997E+02  0.45594000000E+02  0.51100000000E-03 0. -1.
    9900012    2    1    2    0    0 -0.59061520672E+01  0.35098140059E+02 -0.27610712176E+02  0.46142317691E+02  0.99999993602E+01 0.  0.
        -12    1    1    2    0    0  0.59061520672E+01 -0.35098140059E+02  0.27610712176E+02  0.45045682309E+02  0.00000000000E+00 0.  1.
         11    1    3    3    0    0  0.64666791581E+00  0.35077912684E+00 -0.66413976217E+00  0.99111415790E+00  0.51100000000E-03 0.  1.
        -11    1    3    3    0    0 -0.64693712413E+01  0.33972311534E+02 -0.23978643777E+02  0.42082610100E+02  0.51100000000E-03 0. -1.
         12    1    3    3    0    0 -0.83448741620E-01  0.77504939819E+00 -0.29679286371E+01  0.30685934330E+01  0.00000000000E+00 0. -1.
</event>
<event>
 7    1  0.3981356E-008  0.4614232E+02  0.7816164E-02  0.1320468E+00
        -11   -1    0    0    0    0  0.00000000000E+00  0.00000000000E+00  0.45593999997E+02  0.45594000000E+02  0.51100000000E-03 0. -1.
         11   -1    0    0    0    0 -0.00000000000E+00 -0.00000000000E+00 -0.45593999997E+02  0.45594000000E+02  0.51100000000E-03 0.  1.
    9900012    2    1    2    0    0  0.67394309014E+01  0.36612939530E+02  0.25361119851E+02  0.46142315745E+02  0.99999816162E+01 0.  0.
        -12    1    1    2    0    0 -0.67394309014E+01 -0.36612939530E+02 -0.25361119851E+02  0.45045684255E+02  0.00000000000E+00 0.  1.
         11    1    3    3    0    0  0.42932094788E+01  0.18576980040E+02  0.10936401427E+02  0.21980462040E+02  0.51100000000E-03 0. -1.
        -11    1    3    3    0    0  0.37582303072E+01  0.83860513589E+01  0.44111562898E+01  0.10193549554E+02  0.51100000000E-03 0.  1.
         12    1    3    3    0    0 -0.13120088846E+01  0.96499081305E+01  0.10013562135E+02  0.13968304151E+02  0.00000000000E+00 0. -1.
</event>
<event>
 7    1  0.3981356E-008  0.4614232E+02  0.7816164E-02  0.1320468E+00
        -11   -1    0    0    0    0  0.00000000000E+00  0.00000000000E+00  0.45593999997E+02  0.45594000000E+02  0.51100000000E-03 0.  1.
         11   -1    0    0    0    0 -0.00000000000E+00 -0.00000000000E+00 -0.45593999997E+02  0.45594000000E+02  0.51100000000E-03 0. -1.
    9900012    2    1    2    0    0 -0.12763770407E+02 -0.43138390192E+02  0.22975663741E+01  0.46142319246E+02  0.10000013537E+02 0.  0.
        -12    1    1    2    0    0  0.12763770407E+02  0.43138390192E+02 -0.22975663741E+01  0.45045680754E+02  0.00000000000E+00 0.  1.
         11    1    3    3    0    0 -0.55985792469E+01 -0.20342126216E+02 -0.29978750673E+01  0.21310406935E+02  0.51100000000E-03 0. -1.
        -11    1    3    3    0    0 -0.48415058599E+01 -0.85738611658E+01  0.23523194889E+01  0.10123471812E+02  0.51100000000E-03 0.  1.
         12    1    3    3    0    0 -0.23236853005E+01 -0.14222402811E+02  0.29431219526E+01  0.14708440499E+02  0.00000000000E+00 0. -1.
</event>
<event>
 7    1  0.3981356E-008  0.4614232E+02  0.7816164E-02  0.1320468E+00
        -11   -1    0    0    0    0  0.00000000000E+00  0.00000000000E+00  0.45593999997E+02  0.45594000000E+02  0.51100000000E-03 0.  1.
         11   -1    0    0    0    0 -0.00000000000E+00 -0.00000000000E+00 -0.45593999997E+02  0.45594000000E+02  0.51100000000E-03 0. -1.
    9900012    2    1    2    0    0 -0.95049865408E+01 -0.50004002290E+01 -0.43746596225E+02  0.46142318155E+02  0.10000003591E+02 0.  0.
        -12    1    1    2    0    0  0.95049865408E+01  0.50004002290E+01  0.43746596225E+02  0.45045681845E+02  0.00000000000E+00 0.  1.
         11    1    3    3    0    0 -0.43099702915E+00 -0.69624243125E+00 -0.72294746501E+01  0.72757003745E+01  0.51100000000E-03 0. -1.
        -11    1    3    3    0    0  0.75571482345E+00 -0.31946820882E+01 -0.11664485668E+02  0.12117645179E+02  0.51100000000E-03 0.  1.
        -12    1    3    3    0    0 -0.98297043351E+01 -0.11094757096E+01 -0.24852635908E+02  0.26748972601E+02  0.00000000000E+00 0.  1.
</event>
<event>
 7    1  0.3981356E-008  0.4614232E+02  0.7816164E-02  0.1320468E+00
        -11   -1    0    0    0    0  0.00000000000E+00  0.00000000000E+00  0.45593999997E+02  0.45594000000E+02  0.51100000000E-03 0.  1.
         11   -1    0    0    0    0 -0.00000000000E+00 -0.00000000000E+00 -0.45593999997E+02  0.45594000000E+02  0.51100000000E-03 0. -1.
    9900012    2    1    2    0    0  0.15861534203E+02  0.34663772690E+02 -0.23998919762E+02  0.46142317032E+02  0.99999933502E+01 0.  0.
        -12    1    1    2    0    0 -0.15861534203E+02 -0.34663772690E+02  0.23998919762E+02  0.45045682968E+02  0.00000000000E+00 0.  1.
         11    1    3    3    0    0  0.39512779639E+01  0.13353172901E+02 -0.71504925870E+01  0.15654052784E+02  0.51100000000E-03 0. -1.
        -11    1    3    3    0    0  0.35382838023E+01  0.12803190005E+02 -0.10730023365E+02  0.17075553527E+02  0.51100000000E-03 0.  1.
        -12    1    3    3    0    0  0.83719724367E+01  0.85074097837E+01 -0.61184038092E+01  0.13412710721E+02  0.00000000000E+00 0.  1.
</event>
<event>
 7    1  0.3981356E-008  0.4614232E+02  0.7816164E-02  0.1320468E+00
        -11   -1    0    0    0    0  0.00000000000E+00  0.00000000000E+00  0.45593999997E+02  0.45594000000E+02  0.51100000000E-03 0.  1.
         11   -1    0    0    0    0 -0.00000000000E+00 -0.00000000000E+00 -0.45593999997E+02  0.45594000000E+02  0.51100000000E-03 0. -1.
    9900012    2    1    2    0    0  0.85604720491E+01 -0.14719831141E+02 -0.41703216682E+02  0.46142318829E+02  0.10000009741E+02 0.  0.
        -12    1    1    2    0    0 -0.85604720491E+01  0.14719831141E+02  0.41703216682E+02  0.45045681171E+02  0.00000000000E+00 0.  1.
         11    1    3    3    0    0  0.39658999075E+01 -0.41102735486E+01 -0.20038688669E+02  0.20836788489E+02  0.51100000000E-03 0. -1.
        -11    1    3    3    0    0  0.11733381170E+01 -0.77369189842E+01 -0.17619090891E+02  0.19278718883E+02  0.51100000000E-03 0.  1.
        -12    1    3    3    0    0  0.34212340246E+01 -0.28726386081E+01 -0.40454371223E+01  0.60268114567E+01  0.00000000000E+00 0.  1.
</event>
<event>
 7    1  0.3981356E-008  0.4614232E+02  0.7816164E-02  0.1320468E+00
        -11   -1    0    0    0    0  0.00000000000E+00  0.00000000000E+00  0.45593999997E+02  0.45594000000E+02  0.51100000000E-03 0.  1.
         11   -1    0    0    0    0 -0.00000000000E+00 -0.00000000000E+00 -0.45593999997E+02  0.45594000000E+02  0.51100000000E-03 0. -1.
    9900012    2    1    2    0    0  0.18681038588E+02  0.27459804908E+01 -0.40897332738E+02  0.46142318335E+02  0.10000005232E+02 0.  0.
        -12    1    1    2    0    0 -0.18681038588E+02 -0.27459804908E+01  0.40897332738E+02  0.45045681665E+02  0.00000000000E+00 0.  1.
         11    1    3    3    0    0  0.73496504540E+01  0.30544355742E+01 -0.24809608326E+02  0.26055011111E+02  0.51100000000E-03 0. -1.
        -11    1    3    3    0    0  0.83325798308E+01 -0.16968373831E+01 -0.13182386188E+02  0.15687142812E+02  0.51100000000E-03 0.  1.
        -12    1    3    3    0    0  0.29988083028E+01  0.13883822997E+01 -0.29053382244E+01  0.44001644112E+01  0.00000000000E+00 0.  1.
</event>
<event>
 7    1  0.3981356E-008  0.4614232E+02  0.7816164E-02  0.1320468E+00
        -11   -1    0    0    0    0  0.00000000000E+00  0.00000000000E+00  0.45593999997E+02  0.45594000000E+02  0.51100000000E-03 0. -1.
         11   -1    0    0    0    0 -0.00000000000E+00 -0.00000000000E+00 -0.45593999997E+02  0.45594000000E+02  0.51100000000E-03 0.  1.
    9900012    2    1    2    0    0 -0.31293856901E+02  0.29325469303E+02  0.13777693302E+02  0.46142318050E+02  0.10000002638E+02 0.  0.
        -12    1    1    2    0    0  0.31293856901E+02 -0.29325469303E+02 -0.13777693302E+02  0.45045681950E+02  0.00000000000E+00 0.  1.
         11    1    3    3    0    0 -0.88397986166E+01  0.10488876048E+02  0.46610233488E+01  0.14487363433E+02  0.51100000000E-03 0. -1.
        -11    1    3    3    0    0 -0.21049825612E+02  0.15776660288E+02  0.58180285706E+01  0.26941559436E+02  0.51100000000E-03 0.  1.
        -12    1    3    3    0    0 -0.14042326727E+01  0.30599329673E+01  0.32986413830E+01  0.47133951816E+01  0.00000000000E+00 0.  1.
</event>
<event>
 7    1  0.3981356E-008  0.4614232E+02  0.7816164E-02  0.1320468E+00
        -11   -1    0    0    0    0  0.00000000000E+00  0.00000000000E+00  0.45593999997E+02  0.45594000000E+02  0.51100000000E-03 0.  1.
         11   -1    0    0    0    0 -0.00000000000E+00 -0.00000000000E+00 -0.45593999997E+02  0.45594000000E+02  0.51100000000E-03 0. -1.
    9900012    2    1    2    0    0  0.63794280020E+01  0.25089806233E+02 -0.36863504599E+02  0.46142318189E+02  0.10000003906E+02 0.  0.
        -12    1    1    2    0    0 -0.63794280020E+01 -0.25089806233E+02  0.36863504599E+02  0.45045681811E+02  0.00000000000E+00 0.  1.
         11    1    3    3    0    0  0.10339774586E+01  0.47118002121E+01 -0.47350490969E+01  0.67595015227E+01  0.51100000000E-03 0. -1.
        -11    1    3    3    0    0  0.44787720165E+01  0.38877851495E+01 -0.57400861511E+01  0.82536574576E+01  0.51100000000E-03 0.  1.
         12    1    3    3    0    0  0.86667852694E+00  0.16490220871E+02 -0.26388369351E+02  0.31129159209E+02  0.00000000000E+00 0. -1.
</event>
<event>
 7    1  0.3981356E-008  0.4614233E+02  0.7816164E-02  0.1320468E+00
        -11   -1    0    0    0    0  0.00000000000E+00  0.00000000000E+00  0.45593999997E+02  0.45594000000E+02  0.51100000000E-03 0. -1.
         11   -1    0    0    0    0 -0.00000000000E+00 -0.00000000000E+00 -0.45593999997E+02  0.45594000000E+02  0.51100000000E-03 0.  1.
    9900012    2    1    2    0    0 -0.21188846177E+02 -0.31455175434E+02  0.24304667697E+02  0.46142332774E+02  0.10000136903E+02 0.  0.
        -12    1    1    2    0    0  0.21188846177E+02  0.31455175434E+02 -0.24304667697E+02  0.45045667226E+02  0.00000000000E+00 0.  1.
         11    1    3    3    0    0 -0.15744260247E+02 -0.22062287699E+02  0.20965530612E+02  0.34266306240E+02  0.51100000000E-03 0. -1.
        -11    1    3    3    0    0 -0.25913363978E+01 -0.15409260660E+01  0.12552184252E+01  0.32657389705E+01  0.51100000000E-03 0.  1.
         12    1    3    3    0    0 -0.28532495321E+01 -0.78519616695E+01  0.20839186602E+01  0.86102875639E+01  0.00000000000E+00 0. -1.
</event>
<event>
 7    1  0.3981356E-008  0.4614232E+02  0.7816164E-02  0.1320468E+00
        -11   -1    0    0    0    0  0.00000000000E+00  0.00000000000E+00  0.45593999997E+02  0.45594000000E+02  0.51100000000E-03 0.  1.
         11   -1    0    0    0    0 -0.00000000000E+00 -0.00000000000E+00 -0.45593999997E+02  0.45594000000E+02  0.51100000000E-03 0. -1.
    9900012    2    1    2    0    0  0.36922340414E+02  0.24308978752E+01 -0.25689396508E+02  0.46142316754E+02  0.99999908206E+01 0.  0.
        -12    1    1    2    0    0 -0.36922340414E+02 -0.24308978752E+01  0.25689396508E+02  0.45045683246E+02  0.00000000000E+00 0.  1.
         11    1    3    3    0    0  0.16538782737E+00  0.87665732064E+00 -0.19580039473E+01  0.21516646835E+01  0.51100000000E-03 0. -1.
        -11    1    3    3    0    0  0.14677547644E+02  0.21709712184E+01 -0.78499836689E+01  0.16785879921E+02  0.51100000000E-03 0.  1.
         12    1    3    3    0    0  0.22079404943E+02 -0.61673066384E+00 -0.15881408892E+02  0.27204772150E+02  0.00000000000E+00 0. -1.
</event>
<event>
 7    1  0.3981356E-008  0.4614232E+02  0.7816164E-02  0.1320468E+00
        -11   -1    0    0    0    0  0.00000000000E+00  0.00000000000E+00  0.45593999997E+02  0.45594000000E+02  0.51100000000E-03 0. -1.
         11   -1    0    0    0    0 -0.00000000000E+00 -0.00000000000E+00 -0.45593999997E+02  0.45594000000E+02  0.51100000000E-03 0.  1.
    9900012    2    1    2    0    0 -0.10516902902E+02 -0.31648300351E+02  0.30280245335E+02  0.46142318527E+02  0.10000006988E+02 0.  0.
        -12    1    1    2    0    0  0.10516902902E+02  0.31648300351E+02 -0.30280245335E+02  0.45045681473E+02  0.00000000000E+00 0.  1.
         11    1    3    3    0    0 -0.63844775611E+00 -0.43799033239E+01  0.31297396051E+01  0.54209260205E+01  0.51100000000E-03 0. -1.
        -11    1    3    3    0    0 -0.19592891942E+01 -0.15738672783E+02  0.10719068981E+02  0.19142702923E+02  0.51100000000E-03 0.  1.
         12    1    3    3    0    0 -0.79191659518E+01 -0.11529724245E+02  0.16431436749E+02  0.21578689584E+02  0.00000000000E+00 0. -1.
</event>
<event>
 7    1  0.3981356E-008  0.4614232E+02  0.7816164E-02  0.1320468E+00
        -11   -1    0    0    0    0  0.00000000000E+00  0.00000000000E+00  0.45593999997E+02  0.45594000000E+02  0.51100000000E-03 0.  1.
         11   -1    0    0    0    0 -0.00000000000E+00 -0.00000000000E+00 -0.45593999997E+02  0.45594000000E+02  0.51100000000E-03 0. -1.
    9900012    2    1    2    0    0  0.25333666704E+02  0.96121080269E+01 -0.35985085055E+02  0.46142316124E+02  0.99999850741E+01 0.  0.
        -12    1    1    2    0    0 -0.25333666704E+02 -0.96121080269E+01  0.35985085055E+02  0.45045683876E+02  0.00000000000E+00 0.  1.
         11    1    3    3    0    0  0.32299400346E+01  0.22813245957E+01 -0.10095993020E+02  0.10842786996E+02  0.51100000000E-03 0. -1.
        -11    1    3    3    0    0  0.16249748658E+02  0.79354402887E+01 -0.20239862765E+02  0.27141805190E+02  0.51100000000E-03 0.  1.
        -12    1    3    3    0    0  0.58539780119E+01 -0.60465685754E+00 -0.56492292711E+01  0.81577239373E+01  0.00000000000E+00 0.  1.
</event>
<event>
 7    1  0.3981356E-008  0.4614232E+02  0.7816164E-02  0.1320468E+00
        -11   -1    0    0    0    0  0.00000000000E+00  0.00000000000E+00  0.45593999997E+02  0.45594000000E+02  0.51100000000E-03 0.  1.
         11   -1    0    0    0    0 -0.00000000000E+00 -0.00000000000E+00 -0.45593999997E+02  0.45594000000E+02  0.51100000000E-03 0. -1.
    9900012    2    1    2    0    0  0.29417186646E+02 -0.32508879562E+02  0.10339989409E+02  0.46142317615E+02  0.99999986661E+01 0.  0.
        -12    1    1    2    0    0 -0.29417186646E+02  0.32508879562E+02 -0.10339989409E+02  0.45045682385E+02  0.00000000000E+00 0.  1.
         11    1    3    3    0    0  0.10071027223E+02 -0.13690573254E+02  0.51104934703E+01  0.17747521774E+02  0.51100000000E-03 0. -1.
        -11    1    3    3    0    0  0.11322322351E+02 -0.84749426154E+01  0.58134804246E+01  0.15291049364E+02  0.51100000000E-03 0.  1.
         12    1    3    3    0    0  0.80238370723E+01 -0.10343363693E+02 -0.58398448547E+00  0.13103746476E+02  0.00000000000E+00 0. -1.
</event>
<event>
 7    1  0.3981356E-008  0.4614232E+02  0.7816164E-02  0.1320468E+00
        -11   -1    0    0    0    0  0.00000000000E+00  0.00000000000E+00  0.45593999997E+02  0.45594000000E+02  0.51100000000E-03 0.  1.
         11   -1    0    0    0    0 -0.00000000000E+00 -0.00000000000E+00 -0.45593999997E+02  0.45594000000E+02  0.51100000000E-03 0. -1.
    9900012    2    1    2    0    0 -0.32210894935E+02 -0.90093405796E+01 -0.30172892988E+02  0.46142318282E+02  0.10000004747E+02 0.  0.
        -12    1    1    2    0    0  0.32210894935E+02  0.90093405796E+01  0.30172892988E+02  0.45045681718E+02  0.00000000000E+00 0.  1.
         11    1    3    3    0    0 -0.12698760975E+01 -0.15254016638E+01 -0.19271874805E+01  0.27664936987E+01  0.51100000000E-03 0.  1.
        -11    1    3    3    0    0 -0.11373982932E+02  0.13270364890E+01 -0.93670512477E+01  0.14794261148E+02  0.51100000000E-03 0. -1.
         12    1    3    3    0    0 -0.19567035906E+02 -0.88109754048E+01 -0.18878654260E+02  0.28581563435E+02  0.00000000000E+00 0. -1.
</event>
<event>
 7    1  0.3981356E-008  0.4614232E+02  0.7816164E-02  0.1320468E+00
        -11   -1    0    0    0    0  0.00000000000E+00  0.00000000000E+00  0.45593999997E+02  0.45594000000E+02  0.51100000000E-03 0.  1.
         11   -1    0    0    0    0 -0.00000000000E+00 -0.00000000000E+00 -0.45593999997E+02  0.45594000000E+02  0.51100000000E-03 0. -1.
    9900012    2    1    2    0    0  0.11317526210E+02  0.20514380584E+02 -0.38473203099E+02  0.46142316889E+02  0.99999920484E+01 0.  0.
        -12    1    1    2    0    0 -0.11317526210E+02 -0.20514380584E+02  0.38473203099E+02  0.45045683111E+02  0.00000000000E+00 0.  1.
         11    1    3    3    0    0  0.69339413025E+01  0.47174103792E+01 -0.15049499198E+02  0.17228491781E+02  0.51100000000E-03 0.  1.
        -11    1    3    3    0    0  0.30764423604E+01  0.39085360733E+01 -0.63007924181E+01  0.80275237271E+01  0.51100000000E-03 0. -1.
         12    1    3    3    0    0  0.13071425467E+01  0.11888434132E+02 -0.17122911482E+02  0.20886301381E+02  0.00000000000E+00 0. -1.
</event>
<event>
 7    1  0.3981356E-008  0.4614232E+02  0.7816164E-02  0.1320468E+00
        -11   -1    0    0    0    0  0.00000000000E+00  0.00000000000E+00  0.45593999997E+02  0.45594000000E+02  0.51100000000E-03 0.  1.
         11   -1    0    0    0    0 -0.00000000000E+00 -0.00000000000E+00 -0.45593999997E+02  0.45594000000E+02  0.51100000000E-03 0. -1.
    9900012    2    1    2    0    0 -0.22437892920E+02 -0.35503445221E+02 -0.16283734386E+02  0.46142315781E+02  0.99999819402E+01 0.  0.
        -12    1    1    2    0    0  0.22437892920E+02  0.35503445221E+02  0.16283734386E+02  0.45045684219E+02  0.00000000000E+00 0.  1.
         11    1    3    3    0    0 -0.87174907497E+01 -0.11768342324E+02 -0.25860908590E+01  0.14872000276E+02  0.51100000000E-03 0. -1.
        -11    1    3    3    0    0 -0.25847268016E+00 -0.35183460521E+01 -0.32275839585E+00  0.35425612644E+01  0.51100000000E-03 0.  1.
         12    1    3    3    0    0 -0.13461929490E+02 -0.20216756845E+02 -0.13374885132E+02  0.27727754240E+02  0.00000000000E+00 0. -1.
</event>
<event>
 7    1  0.3981356E-008  0.4614232E+02  0.7816164E-02  0.1320468E+00
        -11   -1    0    0    0    0  0.00000000000E+00  0.00000000000E+00  0.45593999997E+02  0.45594000000E+02  0.51100000000E-03 0.  1.
         11   -1    0    0    0    0 -0.00000000000E+00 -0.00000000000E+00 -0.45593999997E+02  0.45594000000E+02  0.51100000000E-03 0. -1.
    9900012    2    1    2    0    0 -0.42900252313E+02 -0.18730849884E+01 -0.13607843485E+02  0.46142317630E+02  0.99999988033E+01 0.  0.
        -12    1    1    2    0    0  0.42900252313E+02  0.18730849884E+01  0.13607843485E+02  0.45045682370E+02  0.00000000000E+00 0.  1.
         11    1    3    3    0    0 -0.24168004956E+02 -0.14758722455E+01 -0.29918000537E+01  0.24397162341E+02  0.51100000000E-03 0. -1.
        -11    1    3    3    0    0 -0.17276005494E+02  0.32205592540E+00 -0.91255768125E+01  0.19540732797E+02  0.51100000000E-03 0.  1.
         12    1    3    3    0    0 -0.14562418628E+01 -0.71926866838E+00 -0.14904666190E+01  0.22044224918E+01  0.00000000000E+00 0. -1.
</event>
<event>
 7    1  0.3981356E-008  0.4614232E+02  0.7816164E-02  0.1320468E+00
        -11   -1    0    0    0    0  0.00000000000E+00  0.00000000000E+00  0.45593999997E+02  0.45594000000E+02  0.51100000000E-03 0.  1.
         11   -1    0    0    0    0 -0.00000000000E+00 -0.00000000000E+00 -0.45593999997E+02  0.45594000000E+02  0.51100000000E-03 0. -1.
    9900012    2    1    2    0    0 -0.37396420289E+02 -0.25073051349E+02 -0.14011803712E+01  0.46142318067E+02  0.10000002787E+02 0.  0.
        -12    1    1    2    0    0  0.37396420289E+02  0.25073051349E+02  0.14011803712E+01  0.45045681933E+02  0.00000000000E+00 0.  1.
         11    1    3    3    0    0 -0.22925525210E+02 -0.13921550386E+02  0.27597027237E+01  0.26963034523E+02  0.51100000000E-03 0. -1.
        -11    1    3    3    0    0 -0.88330588919E+01 -0.47289444984E+01 -0.34790328789E+01  0.10606107462E+02  0.51100000000E-03 0.  1.
        -12    1    3    3    0    0 -0.56378361873E+01 -0.64225564643E+01 -0.68185021606E+00  0.85731760817E+01  0.00000000000E+00 0.  1.
</event>
<event>
 7    1  0.3981356E-008  0.4614232E+02  0.7816164E-02  0.1320468E+00
        -11   -1    0    0    0    0  0.00000000000E+00  0.00000000000E+00  0.45593999997E+02  0.45594000000E+02  0.51100000000E-03 0.  1.
         11   -1    0    0    0    0 -0.00000000000E+00 -0.00000000000E+00 -0.45593999997E+02  0.45594000000E+02  0.51100000000E-03 0. -1.
    9900012    2    1    2    0    0 -0.36063116705E+01 -0.47339814488E+01 -0.44650838660E+02  0.46142318106E+02  0.10000003144E+02 0.  0.
        -12    1    1    2    0    0  0.36063116705E+01  0.47339814488E+01  0.44650838660E+02  0.45045681894E+02  0.00000000000E+00 0.  1.
         11    1    3    3    0    0  0.44352580104E+00 -0.12726797703E+01 -0.19414738078E+02  0.19461461503E+02  0.51100000000E-03 0. -1.
        -11    1    3    3    0    0 -0.18602702429E+01 -0.53842928634E+01 -0.15293563356E+02  0.16320058070E+02  0.51100000000E-03 0.  1.
        -12    1    3    3    0    0 -0.21895672286E+01  0.19229911849E+01 -0.99425372262E+01  0.10360798533E+02  0.00000000000E+00 0.  1.
</event>
<event>
 7    1  0.3981356E-008  0.4614232E+02  0.7816164E-02  0.1320468E+00
        -11   -1    0    0    0    0  0.00000000000E+00  0.00000000000E+00  0.45593999997E+02  0.45594000000E+02  0.51100000000E-03 0.  1.
         11   -1    0    0    0    0 -0.00000000000E+00 -0.00000000000E+00 -0.45593999997E+02  0.45594000000E+02  0.51100000000E-03 0. -1.
    9900012    2    1    2    0    0 -0.41567530594E+02  0.76199252547E+01 -0.15594573983E+02  0.46142316541E+02  0.99999888712E+01 0.  0.
        -12    1    1    2    0    0  0.41567530594E+02 -0.76199252547E+01  0.15594573983E+02  0.45045683459E+02  0.00000000000E+00 0.  1.
         11    1    3    3    0    0 -0.22878731227E+02  0.37828372368E+01 -0.54412531725E+01  0.23819182111E+02  0.51100000000E-03 0. -1.
        -11    1    3    3    0    0 -0.99174059131E+01  0.41410021230E+01 -0.76649508029E+01  0.13200542023E+02  0.51100000000E-03 0.  1.
        -12    1    3    3    0    0 -0.87713934544E+01 -0.30391410510E+00 -0.24883700080E+01  0.91225924063E+01  0.00000000000E+00 0.  1.
</event>
<event>
 7    1  0.5165396E-008  0.4614232E+02  0.7816164E-02  0.1320468E+00
        -11   -1    0    0    0    0  0.00000000000E+00  0.00000000000E+00  0.45593999997E+02  0.45594000000E+02  0.51100000000E-03 0. -1.
         11   -1    0    0    0    0 -0.00000000000E+00 -0.00000000000E+00 -0.45593999997E+02  0.45594000000E+02  0.51100000000E-03 0.  1.
    9900012    2    1    2    0    0 -0.14759042830E+02  0.31521369369E+02  0.28595233910E+02  0.46142317915E+02  0.10000001400E+02 0.  0.
        -12    1    1    2    0    0  0.14759042830E+02 -0.31521369369E+02 -0.28595233910E+02  0.45045682085E+02  0.00000000000E+00 0.  1.
         11    1    3    3    0    0 -0.77889649653E+01  0.15823471218E+02  0.12978501504E+02  0.21897299335E+02  0.51100000000E-03 0. -1.
        -11    1    3    3    0    0 -0.69049010506E+01  0.15219114101E+02  0.11946403214E+02  0.20543019314E+02  0.51100000000E-03 0.  1.
        -12    1    3    3    0    0 -0.65176813611E-01  0.47878405111E+00  0.36703291922E+01  0.37019992658E+01  0.00000000000E+00 0.  1.
</event>
<event>
 7    1  0.3981356E-008  0.4614232E+02  0.7816164E-02  0.1320468E+00
        -11   -1    0    0    0    0  0.00000000000E+00  0.00000000000E+00  0.45593999997E+02  0.45594000000E+02  0.51100000000E-03 0. -1.
         11   -1    0    0    0    0 -0.00000000000E+00 -0.00000000000E+00 -0.45593999997E+02  0.45594000000E+02  0.51100000000E-03 0.  1.
    9900012    2    1    2    0    0 -0.78292910828E+01  0.11226662647E+01  0.44345860649E+02  0.46142317242E+02  0.99999952695E+01 0.  0.
        -12    1    1    2    0    0  0.78292910828E+01 -0.11226662647E+01 -0.44345860649E+02  0.45045682758E+02  0.00000000000E+00 0.  1.
         11    1    3    3    0    0 -0.67022045001E+01 -0.50280524040E+00  0.18413326897E+02  0.19601606208E+02  0.51100000000E-03 0. -1.
        -11    1    3    3    0    0 -0.26511001564E+01  0.26881993701E+01  0.16426682122E+02  0.16854988392E+02  0.51100000000E-03 0.  1.
        -12    1    3    3    0    0  0.15240135736E+01 -0.10627278650E+01  0.95058516300E+01  0.96857226421E+01  0.00000000000E+00 0.  1.
</event>
<event>
 7    1  0.3981356E-008  0.4614232E+02  0.7816164E-02  0.1320468E+00
        -11   -1    0    0    0    0  0.00000000000E+00  0.00000000000E+00  0.45593999997E+02  0.45594000000E+02  0.51100000000E-03 0.  1.
         11   -1    0    0    0    0 -0.00000000000E+00 -0.00000000000E+00 -0.45593999997E+02  0.45594000000E+02  0.51100000000E-03 0. -1.
    9900012    2    1    2    0    0  0.16872178540E+02  0.10493279458E+02 -0.40426895764E+02  0.46142320700E+02  0.10000026796E+02 0.  0.
        -12    1    1    2    0    0 -0.16872178540E+02 -0.10493279458E+02  0.40426895764E+02  0.45045679300E+02  0.00000000000E+00 0.  1.
         11    1    3    3    0    0  0.12414111979E+02  0.37843688809E+01 -0.20570826217E+02  0.24322633812E+02  0.51100000000E-03 0. -1.
        -11    1    3    3    0    0  0.13695438506E+01  0.64342090604E+00 -0.11113501045E+01  0.18774291297E+01  0.51100000000E-03 0.  1.
         12    1    3    3    0    0  0.30885227109E+01  0.60654896712E+01 -0.18744719443E+02  0.19942257758E+02  0.00000000000E+00 0. -1.
</event>
<event>
 7    1  0.3981356E-008  0.4614232E+02  0.7816164E-02  0.1320468E+00
        -11   -1    0    0    0    0  0.00000000000E+00  0.00000000000E+00  0.45593999997E+02  0.45594000000E+02  0.51100000000E-03 0.  1.
         11   -1    0    0    0    0 -0.00000000000E+00 -0.00000000000E+00 -0.45593999997E+02  0.45594000000E+02  0.51100000000E-03 0. -1.
    9900012    2    1    2    0    0 -0.32475893599E+02  0.11479545544E+02 -0.29028427893E+02  0.46142320330E+02  0.10000023424E+02 0.  0.
        -12    1    1    2    0    0  0.32475893599E+02 -0.11479545544E+02  0.29028427893E+02  0.45045679670E+02  0.00000000000E+00 0.  1.
         11    1    3    3    0    0 -0.10938474025E+02  0.44615424852E+01 -0.10072893232E+02  0.15524778700E+02  0.51100000000E-03 0. -1.
        -11    1    3    3    0    0 -0.11718865845E+02 -0.24051339671E+00 -0.10765344921E+02  0.15914845740E+02  0.51100000000E-03 0.  1.
         12    1    3    3    0    0 -0.98185537294E+01  0.72585164553E+01 -0.81901897399E+01  0.14702695890E+02  0.00000000000E+00 0. -1.
</event>
<event>
 7    1  0.3981356E-008  0.4614232E+02  0.7816164E-02  0.1320468E+00
        -11   -1    0    0    0    0  0.00000000000E+00  0.00000000000E+00  0.45593999997E+02  0.45594000000E+02  0.51100000000E-03 0.  1.
         11   -1    0    0    0    0 -0.00000000000E+00 -0.00000000000E+00 -0.45593999997E+02  0.45594000000E+02  0.51100000000E-03 0. -1.
    9900012    2    1    2    0    0 -0.40831329963E+02  0.16735003700E+02  0.90474047443E+01  0.46142318875E+02  0.10000010159E+02 0.  0.
        -12    1    1    2    0    0  0.40831329963E+02 -0.16735003700E+02 -0.90474047443E+01  0.45045681125E+02  0.00000000000E+00 0.  1.
         11    1    3    3    0    0 -0.27903061755E+02  0.14457778566E+02  0.70167449564E+01  0.32200045441E+02  0.51100000000E-03 0. -1.
        -11    1    3    3    0    0 -0.33327372700E+01  0.23387654376E+01  0.14751577845E+01  0.43304794461E+01  0.51100000000E-03 0.  1.
        -12    1    3    3    0    0 -0.95955309383E+01 -0.61540303205E-01  0.55550200330E+00  0.96117939882E+01  0.00000000000E+00 0.  1.
</event>
<event>
 7    1  0.3981356E-008  0.4614232E+02  0.7816164E-02  0.1320468E+00
        -11   -1    0    0    0    0  0.00000000000E+00  0.00000000000E+00  0.45593999997E+02  0.45594000000E+02  0.51100000000E-03 0.  1.
         11   -1    0    0    0    0 -0.00000000000E+00 -0.00000000000E+00 -0.45593999997E+02  0.45594000000E+02  0.51100000000E-03 0. -1.
    9900012    2    1    2    0    0  0.17866508922E+02  0.41126768315E+02  0.42999832007E+01  0.46142322421E+02  0.10000042489E+02 0.  0.
        -12    1    1    2    0    0 -0.17866508922E+02 -0.41126768315E+02 -0.42999832007E+01  0.45045677579E+02  0.00000000000E+00 0.  1.
         11    1    3    3    0    0  0.66679834818E+01  0.17108072158E+02  0.20055970792E+01  0.18470802813E+02  0.51100000000E-03 0. -1.
        -11    1    3    3    0    0  0.94494057765E+01  0.18948594688E+02  0.48622603987E+01  0.21725148714E+02  0.51100000000E-03 0.  1.
        -12    1    3    3    0    0  0.17491196633E+01  0.50701014688E+01 -0.25678742772E+01  0.59463708935E+01  0.00000000000E+00 0.  1.
</event>
<event>
 7    1  0.3981356E-008  0.4614232E+02  0.7816164E-02  0.1320468E+00
        -11   -1    0    0    0    0  0.00000000000E+00  0.00000000000E+00  0.45593999997E+02  0.45594000000E+02  0.51100000000E-03 0.  1.
         11   -1    0    0    0    0 -0.00000000000E+00 -0.00000000000E+00 -0.45593999997E+02  0.45594000000E+02  0.51100000000E-03 0. -1.
    9900012    2    1    2    0    0 -0.30259723642E+01  0.43197380262E+02 -0.12407398502E+02  0.46142315325E+02  0.99999777843E+01 0.  0.
        -12    1    1    2    0    0  0.30259723642E+01 -0.43197380262E+02  0.12407398502E+02  0.45045684675E+02  0.00000000000E+00 0.  1.
         11    1    3    3    0    0 -0.23407929603E+01  0.16817056412E+02 -0.84961294400E+00  0.17000427655E+02  0.51100000000E-03 0.  1.
        -11    1    3    3    0    0  0.10009087181E+01  0.15569836351E+02 -0.49887057000E+01  0.16380134526E+02  0.51100000000E-03 0. -1.
        -12    1    3    3    0    0 -0.16860881220E+01  0.10810487499E+02 -0.65690798576E+01  0.12761753144E+02  0.00000000000E+00 0.  1.
</event>
<event>
 7    1  0.3981356E-008  0.4614232E+02  0.7816164E-02  0.1320468E+00
        -11   -1    0    0    0    0  0.00000000000E+00  0.00000000000E+00  0.45593999997E+02  0.45594000000E+02  0.51100000000E-03 0.  1.
         11   -1    0    0    0    0 -0.00000000000E+00 -0.00000000000E+00 -0.45593999997E+02  0.45594000000E+02  0.51100000000E-03 0. -1.
    9900012    2    1    2    0    0  0.94614437440E+00 -0.19316739554E+02 -0.40682697340E+02  0.46142317864E+02  0.10000000942E+02 0.  0.
        -12    1    1    2    0    0 -0.94614437440E+00  0.19316739554E+02  0.40682697340E+02  0.45045682136E+02  0.00000000000E+00 0.  1.
         11    1    3    3    0    0  0.29426974615E+01 -0.12515725014E+02 -0.24346963763E+02  0.27533206963E+02  0.51100000000E-03 0. -1.
        -11    1    3    3    0    0  0.14550810752E+01 -0.82513715654E+00 -0.14998310869E+01  0.22466877426E+01  0.51100000000E-03 0.  1.
         12    1    3    3    0    0 -0.34516341623E+01 -0.59758773839E+01 -0.14835902491E+02  0.16362423158E+02  0.00000000000E+00 0. -1.
</event>
<event>
 7    1  0.3981356E-008  0.4614232E+02  0.7816164E-02  0.1320468E+00
        -11   -1    0    0    0    0  0.00000000000E+00  0.00000000000E+00  0.45593999997E+02  0.45594000000E+02  0.51100000000E-03 0.  1.
         11   -1    0    0    0    0 -0.00000000000E+00 -0.00000000000E+00 -0.45593999997E+02  0.45594000000E+02  0.51100000000E-03 0. -1.
    9900012    2    1    2    0    0  0.21325570474E+01  0.94154743779E+01 -0.43999028998E+02  0.46142317520E+02  0.99999977971E+01 0.  0.
        -12    1    1    2    0    0 -0.21325570474E+01 -0.94154743779E+01  0.43999028998E+02  0.45045682480E+02  0.00000000000E+00 0.  1.
         11    1    3    3    0    0  0.20160736761E+01  0.71167649181E+01 -0.13783130582E+02  0.15642492924E+02  0.51100000000E-03 0. -1.
        -11    1    3    3    0    0 -0.12075765889E+01  0.19033203786E+01 -0.10688426544E+02  0.10923521956E+02  0.51100000000E-03 0.  1.
         12    1    3    3    0    0  0.13240599602E+01  0.39538908124E+00 -0.19527471873E+02  0.19576302640E+02  0.00000000000E+00 0. -1.
</event>
<event>
 7    1  0.3981356E-008  0.4614232E+02  0.7816164E-02  0.1320468E+00
        -11   -1    0    0    0    0  0.00000000000E+00  0.00000000000E+00  0.45593999997E+02  0.45594000000E+02  0.51100000000E-03 0.  1.
         11   -1    0    0    0    0 -0.00000000000E+00 -0.00000000000E+00 -0.45593999997E+02  0.45594000000E+02  0.51100000000E-03 0. -1.
    9900012    2    1    2    0    0 -0.26299013128E+02 -0.16341223662E+01 -0.36534981096E+02  0.46142319950E+02  0.10000019962E+02 0.  0.
        -12    1    1    2    0    0  0.26299013128E+02  0.16341223662E+01  0.36534981096E+02  0.45045680050E+02  0.00000000000E+00 0.  1.
         11    1    3    3    0    0 -0.59447792731E+01 -0.10560035375E+01 -0.13358503260E+02  0.14659643709E+02  0.51100000000E-03 0. -1.
        -11    1    3    3    0    0 -0.11849881740E+01 -0.14688232932E+01 -0.36269161793E+01  0.40885400905E+01  0.51100000000E-03 0.  1.
        -12    1    3    3    0    0 -0.19169245681E+02  0.89070446445E+00 -0.19549561657E+02  0.27394136150E+02  0.00000000000E+00 0.  1.
</event>
<event>
 7    1  0.3981356E-008  0.4614232E+02  0.7816164E-02  0.1320468E+00
        -11   -1    0    0    0    0  0.00000000000E+00  0.00000000000E+00  0.45593999997E+02  0.45594000000E+02  0.51100000000E-03 0.  1.
         11   -1    0    0    0    0 -0.00000000000E+00 -0.00000000000E+00 -0.45593999997E+02  0.45594000000E+02  0.51100000000E-03 0. -1.
    9900012    2    1    2    0    0  0.40207378268E+02 -0.18165266525E+02 -0.90831366856E+01  0.46142317109E+02  0.99999940508E+01 0.  0.
        -12    1    1    2    0    0 -0.40207378268E+02  0.18165266525E+02  0.90831366856E+01  0.45045682891E+02  0.00000000000E+00 0.  1.
         11    1    3    3    0    0  0.54519923637E-01 -0.35428546703E+00  0.28618543899E+00  0.45868614633E+00  0.51100000000E-03 0. -1.
        -11    1    3    3    0    0 -0.17180894542E+00 -0.91782317639E+00 -0.54692465923E+00  0.10821481141E+01  0.51100000000E-03 0.  1.
         12    1    3    3    0    0  0.40324667290E+02 -0.16893157881E+02 -0.88223974653E+01  0.44601482848E+02  0.00000000000E+00 0. -1.
</event>
<event>
 7    1  0.3981356E-008  0.4614232E+02  0.7816164E-02  0.1320468E+00
        -11   -1    0    0    0    0  0.00000000000E+00  0.00000000000E+00  0.45593999997E+02  0.45594000000E+02  0.51100000000E-03 0. -1.
         11   -1    0    0    0    0 -0.00000000000E+00 -0.00000000000E+00 -0.45593999997E+02  0.45594000000E+02  0.51100000000E-03 0.  1.
    9900012    2    1    2    0    0 -0.40760086887E+02 -0.97118712176E+01  0.16535063567E+02  0.46142318157E+02  0.10000003606E+02 0.  0.
        -12    1    1    2    0    0  0.40760086887E+02  0.97118712176E+01 -0.16535063567E+02  0.45045681843E+02  0.00000000000E+00 0.  1.
         11    1    3    3    0    0 -0.16692275877E+02 -0.10281749550E+01  0.67984666132E+01  0.18052932344E+02  0.51100000000E-03 0. -1.
        -11    1    3    3    0    0 -0.14475831181E+02 -0.61497594800E+01  0.27784210051E+01  0.15971501294E+02  0.51100000000E-03 0.  1.
         12    1    3    3    0    0 -0.95919798294E+01 -0.25339367827E+01  0.69581759484E+01  0.12117884518E+02  0.00000000000E+00 0. -1.
</event>
<event>
 7    1  0.3981356E-008  0.4614232E+02  0.7816164E-02  0.1320468E+00
        -11   -1    0    0    0    0  0.00000000000E+00  0.00000000000E+00  0.45593999997E+02  0.45594000000E+02  0.51100000000E-03 0. -1.
         11   -1    0    0    0    0 -0.00000000000E+00 -0.00000000000E+00 -0.45593999997E+02  0.45594000000E+02  0.51100000000E-03 0.  1.
    9900012    2    1    2    0    0 -0.34484006453E+02 -0.28626166778E+02  0.45287206998E+01  0.46142318336E+02  0.10000005240E+02 0.  0.
        -12    1    1    2    0    0  0.34484006453E+02  0.28626166778E+02 -0.45287206998E+01  0.45045681664E+02  0.00000000000E+00 0.  1.
         11    1    3    3    0    0 -0.15601828417E+02 -0.69959732087E+01  0.21181956136E+01  0.17229261273E+02  0.51100000000E-03 0.  1.
        -11    1    3    3    0    0 -0.31216469574E+01 -0.23975387748E+01  0.57148662665E-01  0.39365134490E+01  0.51100000000E-03 0. -1.
        -12    1    3    3    0    0 -0.15760531078E+02 -0.19232654794E+02  0.23533764236E+01  0.24976543614E+02  0.00000000000E+00 0.  1.
</event>
<event>
 7    1  0.3981356E-008  0.4614232E+02  0.7816164E-02  0.1320468E+00
        -11   -1    0    0    0    0  0.00000000000E+00  0.00000000000E+00  0.45593999997E+02  0.45594000000E+02  0.51100000000E-03 0.  1.
         11   -1    0    0    0    0 -0.00000000000E+00 -0.00000000000E+00 -0.45593999997E+02  0.45594000000E+02  0.51100000000E-03 0. -1.
    9900012    2    1    2    0    0  0.40873522781E+02 -0.15421040450E+02 -0.10984544310E+02  0.46142316891E+02  0.99999920624E+01 0.  0.
        -12    1    1    2    0    0 -0.40873522781E+02  0.15421040450E+02  0.10984544310E+02  0.45045683109E+02  0.00000000000E+00 0.  1.
         11    1    3    3    0    0  0.19795940529E+02 -0.63086290010E+01 -0.64884784259E+01  0.21766451567E+02  0.51100000000E-03 0. -1.
        -11    1    3    3    0    0  0.97606958894E+01 -0.63238065276E+01  0.62075476531E+00  0.11646761352E+02  0.51100000000E-03 0.  1.
        -12    1    3    3    0    0  0.11316886363E+02 -0.27886049209E+01 -0.51168206497E+01  0.12729103972E+02  0.00000000000E+00 0.  1.
</event>
<event>
 7    1  0.3981356E-008  0.4614232E+02  0.7816164E-02  0.1320468E+00
        -11   -1    0    0    0    0  0.00000000000E+00  0.00000000000E+00  0.45593999997E+02  0.45594000000E+02  0.51100000000E-03 0. -1.
         11   -1    0    0    0    0 -0.00000000000E+00 -0.00000000000E+00 -0.45593999997E+02  0.45594000000E+02  0.51100000000E-03 0.  1.
    9900012    2    1    2    0    0  0.25247874226E+02  0.34095028490E+02 -0.15138940210E+02  0.46142316174E+02  0.99999855259E+01 0.  0.
        -12    1    1    2    0    0 -0.25247874226E+02 -0.34095028490E+02  0.15138940210E+02  0.45045683826E+02  0.00000000000E+00 0.  1.
         11    1    3    3    0    0  0.64558193915E+01  0.13189428381E+02 -0.24951376877E+01  0.14895111190E+02  0.51100000000E-03 0. -1.
        -11    1    3    3    0    0  0.54895738132E+01  0.51831734217E+01 -0.10766989321E+01  0.76262696137E+01  0.51100000000E-03 0.  1.
        -12    1    3    3    0    0  0.13302481022E+02  0.15722426687E+02 -0.11567103591E+02  0.23620935370E+02  0.00000000000E+00 0.  1.
</event>
<event>
 7    1  0.3981356E-008  0.4614232E+02  0.7816164E-02  0.1320468E+00
        -11   -1    0    0    0    0  0.00000000000E+00  0.00000000000E+00  0.45593999997E+02  0.45594000000E+02  0.51100000000E-03 0. -1.
         11   -1    0    0    0    0 -0.00000000000E+00 -0.00000000000E+00 -0.45593999997E+02  0.45594000000E+02  0.51100000000E-03 0.  1.
    9900012    2    1    2    0    0 -0.54165721311E+01 -0.27132506401E+02  0.35547170931E+02  0.46142317427E+02  0.99999969512E+01 0.  0.
        -12    1    1    2    0    0  0.54165721311E+01  0.27132506401E+02 -0.35547170931E+02  0.45045682573E+02  0.00000000000E+00 0.  1.
         11    1    3    3    0    0 -0.16227256160E+01 -0.42523723665E+01  0.25478764258E+01  0.52160889286E+01  0.51100000000E-03 0. -1.
        -11    1    3    3    0    0 -0.35333868163E+01 -0.42603247978E+01  0.87150092347E+01  0.10324077489E+02  0.51100000000E-03 0.  1.
         12    1    3    3    0    0 -0.26045969867E+00 -0.18619809237E+02  0.24284285271E+02  0.30602151009E+02  0.00000000000E+00 0. -1.
</event>
<event>
 7    1  0.3981356E-008  0.4614232E+02  0.7816164E-02  0.1320468E+00
        -11   -1    0    0    0    0  0.00000000000E+00  0.00000000000E+00  0.45593999997E+02  0.45594000000E+02  0.51100000000E-03 0.  1.
         11   -1    0    0    0    0 -0.00000000000E+00 -0.00000000000E+00 -0.45593999997E+02  0.45594000000E+02  0.51100000000E-03 0. -1.
    9900012    2    1    2    0    0 -0.13406838009E+02  0.38286980714E+02 -0.19582575537E+02  0.46142318051E+02  0.10000002645E+02 0.  0.
        -12    1    1    2    0    0  0.13406838009E+02 -0.38286980714E+02  0.19582575537E+02  0.45045681949E+02  0.00000000000E+00 0.  1.
         11    1    3    3    0    0 -0.18503181339E+01  0.43160496880E+01 -0.20297236928E+01  0.51158323503E+01  0.51100000000E-03 0. -1.
        -11    1    3    3    0    0 -0.88482789547E+01  0.15611574380E+02 -0.50226757624E+01  0.18634392052E+02  0.51100000000E-03 0.  1.
        -12    1    3    3    0    0 -0.27082409207E+01  0.18359356646E+02 -0.12530176082E+02  0.22392093649E+02  0.00000000000E+00 0.  1.
</event>
<event>
 7    1  0.3981356E-008  0.4614233E+02  0.7816164E-02  0.1320468E+00
        -11   -1    0    0    0    0  0.00000000000E+00  0.00000000000E+00  0.45593999997E+02  0.45594000000E+02  0.51100000000E-03 0.  1.
         11   -1    0    0    0    0 -0.00000000000E+00 -0.00000000000E+00 -0.45593999997E+02  0.45594000000E+02  0.51100000000E-03 0. -1.
    9900012    2    1    2    0    0  0.33746206521E+01 -0.43383119594E+02  0.11646016519E+02  0.46142325057E+02  0.10000066534E+02 0.  0.
        -12    1    1    2    0    0 -0.33746206521E+01  0.43383119594E+02 -0.11646016519E+02  0.45045674943E+02  0.00000000000E+00 0.  1.
         11    1    3    3    0    0  0.45138812334E+01 -0.26804894195E+02  0.41467398378E+01  0.27496780323E+02  0.51100000000E-03 0. -1.
        -11    1    3    3    0    0  0.39350839619E+00 -0.86703693146E+00 -0.35192319217E+00  0.10151118622E+01  0.51100000000E-03 0.  1.
        -12    1    3    3    0    0 -0.15327689775E+01 -0.15711188468E+02  0.78511998737E+01  0.17630432872E+02  0.00000000000E+00 0.  1.
</event>
<event>
 7    1  0.3981356E-008  0.4614232E+02  0.7816164E-02  0.1320468E+00
        -11   -1    0    0    0    0  0.00000000000E+00  0.00000000000E+00  0.45593999997E+02  0.45594000000E+02  0.51100000000E-03 0. -1.
         11   -1    0    0    0    0 -0.00000000000E+00 -0.00000000000E+00 -0.45593999997E+02  0.45594000000E+02  0.51100000000E-03 0.  1.
    9900012    2    1    2    0    0 -0.39716933319E+02 -0.23667036752E+00 -0.21251417475E+02  0.46142317079E+02  0.99999937755E+01 0.  0.
        -12    1    1    2    0    0  0.39716933319E+02  0.23667036752E+00  0.21251417475E+02  0.45045682921E+02  0.00000000000E+00 0.  1.
         11    1    3    3    0    0 -0.15869275854E+02 -0.21860519826E+01 -0.92105088538E+01  0.18478263257E+02  0.51100000000E-03 0. -1.
        -11    1    3    3    0    0 -0.56791098939E+01  0.16810916026E+01 -0.10447861752E+00  0.59236200255E+01  0.51100000000E-03 0.  1.
        -12    1    3    3    0    0 -0.18168547572E+02  0.26829001247E+00 -0.11936430004E+02  0.21740433796E+02  0.00000000000E+00 0.  1.
</event>
<event>
 7    1  0.3981356E-008  0.4614232E+02  0.7816164E-02  0.1320468E+00
        -11   -1    0    0    0    0  0.00000000000E+00  0.00000000000E+00  0.45593999997E+02  0.45594000000E+02  0.51100000000E-03 0.  1.
         11   -1    0    0    0    0 -0.00000000000E+00 -0.00000000000E+00 -0.45593999997E+02  0.45594000000E+02  0.51100000000E-03 0. -1.
    9900012    2    1    2    0    0  0.24253613160E+01 -0.14620783712E+02 -0.42537791417E+02  0.46142318825E+02  0.10000009701E+02 0.  0.
        -12    1    1    2    0    0 -0.24253613160E+01  0.14620783712E+02  0.42537791417E+02  0.45045681175E+02  0.00000000000E+00 0.  1.
         11    1    3    3    0    0  0.13850231822E+01 -0.45918555177E+01 -0.24760672790E+02  0.25220910840E+02  0.51100000000E-03 0. -1.
        -11    1    3    3    0    0 -0.11449629492E+01 -0.22831152302E+01 -0.71372540290E+01  0.75804980473E+01  0.51100000000E-03 0.  1.
        -12    1    3    3    0    0  0.21853010829E+01 -0.77458129645E+01 -0.10639864598E+02  0.13340909938E+02  0.00000000000E+00 0.  1.
</event>
<event>
 7    1  0.3981356E-008  0.4614232E+02  0.7816164E-02  0.1320468E+00
        -11   -1    0    0    0    0  0.00000000000E+00  0.00000000000E+00  0.45593999997E+02  0.45594000000E+02  0.51100000000E-03 0.  1.
         11   -1    0    0    0    0 -0.00000000000E+00 -0.00000000000E+00 -0.45593999997E+02  0.45594000000E+02  0.51100000000E-03 0. -1.
    9900012    2    1    2    0    0 -0.33296291488E+02 -0.26965092534E+02 -0.13905187301E+02  0.46142317898E+02  0.10000001248E+02 0.  0.
        -12    1    1    2    0    0  0.33296291488E+02  0.26965092534E+02  0.13905187301E+02  0.45045682102E+02  0.00000000000E+00 0.  1.
         11    1    3    3    0    0 -0.66246869802E+01 -0.59190997010E+01 -0.23273175181E+01  0.91836063694E+01  0.51100000000E-03 0. -1.
        -11    1    3    3    0    0 -0.24975479319E+02 -0.17650096752E+02 -0.77104504692E+01  0.31539681820E+02  0.51100000000E-03 0.  1.
         12    1    3    3    0    0 -0.16961251886E+01 -0.33958960800E+01 -0.38674193134E+01  0.54190297091E+01  0.00000000000E+00 0. -1.
</event>
<event>
 7    1  0.3981356E-008  0.4614232E+02  0.7816164E-02  0.1320468E+00
        -11   -1    0    0    0    0  0.00000000000E+00  0.00000000000E+00  0.45593999997E+02  0.45594000000E+02  0.51100000000E-03 0.  1.
         11   -1    0    0    0    0 -0.00000000000E+00 -0.00000000000E+00 -0.45593999997E+02  0.45594000000E+02  0.51100000000E-03 0. -1.
    9900012    2    1    2    0    0  0.38219441777E+02 -0.17065846155E+02 -0.16647663917E+02  0.46142317092E+02  0.99999939024E+01 0.  0.
        -12    1    1    2    0    0 -0.38219441777E+02  0.17065846155E+02  0.16647663917E+02  0.45045682908E+02  0.00000000000E+00 0.  1.
         11    1    3    3    0    0  0.18137901043E+02 -0.74259472392E+01 -0.64520927667E+01  0.20633895608E+02  0.51100000000E-03 0. -1.
        -11    1    3    3    0    0  0.33920045404E+01 -0.31448069676E+01 -0.51076948234E+01  0.68908673138E+01  0.51100000000E-03 0.  1.
        -12    1    3    3    0    0  0.16689536194E+02 -0.64950919480E+01 -0.50878763269E+01  0.18617554170E+02  0.00000000000E+00 0.  1.
</event>
<event>
 7    1  0.3981356E-008  0.4614232E+02  0.7816164E-02  0.1320468E+00
        -11   -1    0    0    0    0  0.00000000000E+00  0.00000000000E+00  0.45593999997E+02  0.45594000000E+02  0.51100000000E-03 0. -1.
         11   -1    0    0    0    0 -0.00000000000E+00 -0.00000000000E+00 -0.45593999997E+02  0.45594000000E+02  0.51100000000E-03 0.  1.
    9900012    2    1    2    0    0 -0.19001355352E+02  0.36983531516E+02  0.17328600681E+02  0.46142317519E+02  0.99999977918E+01 0.  0.
        -12    1    1    2    0    0  0.19001355352E+02 -0.36983531516E+02 -0.17328600681E+02  0.45045682481E+02  0.00000000000E+00 0.  1.
         11    1    3    3    0    0 -0.10255963627E+02  0.23691001641E+02  0.11201952850E+02  0.28141288112E+02  0.51100000000E-03 0. -1.
        -11    1    3    3    0    0 -0.10600363337E+01  0.67412074583E+01  0.22895158754E+01  0.71978773420E+01  0.51100000000E-03 0.  1.
        -12    1    3    3    0    0 -0.76853553913E+01  0.65513224166E+01  0.38371319564E+01  0.10803152065E+02  0.00000000000E+00 0.  1.
</event>
<event>
 7    1  0.3981356E-008  0.4614232E+02  0.7816164E-02  0.1320468E+00
        -11   -1    0    0    0    0  0.00000000000E+00  0.00000000000E+00  0.45593999997E+02  0.45594000000E+02  0.51100000000E-03 0. -1.
         11   -1    0    0    0    0 -0.00000000000E+00 -0.00000000000E+00 -0.45593999997E+02  0.45594000000E+02  0.51100000000E-03 0.  1.
    9900012    2    1    2    0    0 -0.27963672902E+02 -0.12877075693E+02  0.32883542967E+02  0.46142317869E+02  0.10000000982E+02 0.  0.
        -12    1    1    2    0    0  0.27963672902E+02  0.12877075693E+02 -0.32883542967E+02  0.45045682131E+02  0.00000000000E+00 0.  1.
         11    1    3    3    0    0 -0.35739943335E+01 -0.39251219770E+00  0.82232148346E+00  0.36883213261E+01  0.51100000000E-03 0. -1.
        -11    1    3    3    0    0 -0.95624204486E+00  0.35978381571E+00  0.19021679326E+01  0.21591865013E+01  0.51100000000E-03 0.  1.
         12    1    3    3    0    0 -0.23433436524E+02 -0.12844347311E+02  0.30159053551E+02  0.40294810041E+02  0.00000000000E+00 0. -1.
</event>
<event>
 7    1  0.3981356E-008  0.4614232E+02  0.7816164E-02  0.1320468E+00
        -11   -1    0    0    0    0  0.00000000000E+00  0.00000000000E+00  0.45593999997E+02  0.45594000000E+02  0.51100000000E-03 0.  1.
         11   -1    0    0    0    0 -0.00000000000E+00 -0.00000000000E+00 -0.45593999997E+02  0.45594000000E+02  0.51100000000E-03 0. -1.
    9900012    2    1    2    0    0 -0.14743925398E+02  0.35583886823E+02 -0.23356310727E+02  0.46142316651E+02  0.99999898766E+01 0.  0.
        -12    1    1    2    0    0  0.14743925398E+02 -0.35583886823E+02  0.23356310727E+02  0.45045683349E+02  0.00000000000E+00 0.  1.
         11    1    3    3    0    0 -0.75807704310E+01  0.14380099697E+02 -0.82087456537E+01  0.18210954206E+02  0.51100000000E-03 0.  1.
        -11    1    3    3    0    0 -0.30335498669E+01  0.14484495050E+02 -0.13146076607E+02  0.19794503077E+02  0.51100000000E-03 0. -1.
        -12    1    3    3    0    0 -0.41296051004E+01  0.67192920758E+01 -0.20014884662E+01  0.81368593675E+01  0.00000000000E+00 0.  1.
</event>
<event>
 7    1  0.3981356E-008  0.4614231E+02  0.7816164E-02  0.1320468E+00
        -11   -1    0    0    0    0  0.00000000000E+00  0.00000000000E+00  0.45593999997E+02  0.45594000000E+02  0.51100000000E-03 0.  1.
         11   -1    0    0    0    0 -0.00000000000E+00 -0.00000000000E+00 -0.45593999997E+02  0.45594000000E+02  0.51100000000E-03 0. -1.
    9900012    2    1    2    0    0  0.19078854179E+02  0.17078063710E+02 -0.37060097930E+02  0.46142314352E+02  0.99999689153E+01 0.  0.
        -12    1    1    2    0    0 -0.19078854179E+02 -0.17078063710E+02  0.37060097930E+02  0.45045685648E+02  0.00000000000E+00 0.  1.
         11    1    3    3    0    0  0.10125342841E+02  0.96763615204E+01 -0.12297642646E+02  0.18638308797E+02  0.51100000000E-03 0. -1.
        -11    1    3    3    0    0  0.55099088160E+00  0.15666995439E+00 -0.32393745486E+01  0.32896328296E+01  0.51100000000E-03 0.  1.
         12    1    3    3    0    0  0.84025204562E+01  0.72450322351E+01 -0.21523080736E+02  0.24214372725E+02  0.00000000000E+00 0. -1.
</event>
<event>
 7    1  0.3981356E-008  0.4614232E+02  0.7816164E-02  0.1320468E+00
        -11   -1    0    0    0    0  0.00000000000E+00  0.00000000000E+00  0.45593999997E+02  0.45594000000E+02  0.51100000000E-03 0.  1.
         11   -1    0    0    0    0 -0.00000000000E+00 -0.00000000000E+00 -0.45593999997E+02  0.45594000000E+02  0.51100000000E-03 0. -1.
    9900012    2    1    2    0    0  0.33783521102E+02 -0.15536130975E+02 -0.25424709776E+02  0.46142317288E+02  0.99999956891E+01 0.  0.
        -12    1    1    2    0    0 -0.33783521102E+02  0.15536130975E+02  0.25424709776E+02  0.45045682712E+02  0.00000000000E+00 0.  1.
         11    1    3    3    0    0  0.14175088984E+02 -0.41113121888E+01 -0.98970311053E+01  0.17770404064E+02  0.51100000000E-03 0. -1.
        -11    1    3    3    0    0  0.39088699620E+01 -0.21587401056E+01 -0.68620912157E+01  0.81870458247E+01  0.51100000000E-03 0.  1.
         12    1    3    3    0    0  0.15699562156E+02 -0.92660786804E+01 -0.86655874555E+01  0.20184867400E+02  0.00000000000E+00 0. -1.
</event>
<event>
 7    1  0.3981356E-008  0.4614232E+02  0.7816164E-02  0.1320468E+00
        -11   -1    0    0    0    0  0.00000000000E+00  0.00000000000E+00  0.45593999997E+02  0.45594000000E+02  0.51100000000E-03 0.  1.
         11   -1    0    0    0    0 -0.00000000000E+00 -0.00000000000E+00 -0.45593999997E+02  0.45594000000E+02  0.51100000000E-03 0. -1.
    9900012    2    1    2    0    0  0.11768227911E+02  0.41978942371E+02 -0.11330958894E+02  0.46142318517E+02  0.10000006896E+02 0.  0.
        -12    1    1    2    0    0 -0.11768227911E+02 -0.41978942371E+02  0.11330958894E+02  0.45045681483E+02  0.00000000000E+00 0.  1.
         11    1    3    3    0    0  0.35681280045E+01  0.25984856602E+02 -0.88321230225E+01  0.27675814485E+02  0.51100000000E-03 0. -1.
        -11    1    3    3    0    0  0.33637358434E+01  0.80858200149E+01  0.36239566610E+00  0.87650747297E+01  0.51100000000E-03 0.  1.
         12    1    3    3    0    0  0.48363640631E+01  0.79082657545E+01 -0.28612315373E+01  0.97014293021E+01  0.00000000000E+00 0. -1.
</event>
<event>
 7    1  0.3981356E-008  0.4614232E+02  0.7816164E-02  0.1320468E+00
        -11   -1    0    0    0    0  0.00000000000E+00  0.00000000000E+00  0.45593999997E+02  0.45594000000E+02  0.51100000000E-03 0. -1.
         11   -1    0    0    0    0 -0.00000000000E+00 -0.00000000000E+00 -0.45593999997E+02  0.45594000000E+02  0.51100000000E-03 0.  1.
    9900012    2    1    2    0    0 -0.22688502707E+02  0.32494953280E+02 -0.21410826577E+02  0.46142316095E+02  0.99999848096E+01 0.  0.
        -12    1    1    2    0    0  0.22688502707E+02 -0.32494953280E+02  0.21410826577E+02  0.45045683905E+02  0.00000000000E+00 0.  1.
         11    1    3    3    0    0 -0.15846763760E+02  0.28813589664E+02 -0.15730846026E+02  0.36452741844E+02  0.51100000000E-03 0. -1.
        -11    1    3    3    0    0 -0.39328743347E+01  0.26807029972E+01 -0.37348302808E+01  0.60500104611E+01  0.51100000000E-03 0.  1.
         12    1    3    3    0    0 -0.29088646127E+01  0.10006606179E+01 -0.19451502704E+01  0.36395637900E+01  0.00000000000E+00 0. -1.
</event>
<event>
 7    1  0.3981356E-008  0.4614232E+02  0.7816164E-02  0.1320468E+00
        -11   -1    0    0    0    0  0.00000000000E+00  0.00000000000E+00  0.45593999997E+02  0.45594000000E+02  0.51100000000E-03 0. -1.
         11   -1    0    0    0    0 -0.00000000000E+00 -0.00000000000E+00 -0.45593999997E+02  0.45594000000E+02  0.51100000000E-03 0.  1.
    9900012    2    1    2    0    0 -0.12459434228E+02  0.26675286818E+02  0.34092595984E+02  0.46142317310E+02  0.99999958862E+01 0.  0.
        -12    1    1    2    0    0  0.12459434228E+02 -0.26675286818E+02 -0.34092595984E+02  0.45045682690E+02  0.00000000000E+00 0.  1.
         11    1    3    3    0    0 -0.11179510973E+02  0.17600228575E+02  0.23498014887E+02  0.31415063511E+02  0.51100000000E-03 0. -1.
        -11    1    3    3    0    0 -0.22369164328E+00 -0.30592116454E+00  0.17516951822E+01  0.17922226376E+01  0.51100000000E-03 0.  1.
         12    1    3    3    0    0 -0.10562316123E+01  0.93809794074E+01  0.88428859142E+01  0.12935031162E+02  0.00000000000E+00 0. -1.
</event>
<event>
 7    1  0.3981356E-008  0.4614231E+02  0.7816164E-02  0.1320468E+00
        -11   -1    0    0    0    0  0.00000000000E+00  0.00000000000E+00  0.45593999997E+02  0.45594000000E+02  0.51100000000E-03 0. -1.
         11   -1    0    0    0    0 -0.00000000000E+00 -0.00000000000E+00 -0.45593999997E+02  0.45594000000E+02  0.51100000000E-03 0.  1.
    9900012    2    1    2    0    0  0.29602970197E+02  0.43199786623E+01  0.33676635378E+02  0.46142313963E+02  0.99999653701E+01 0.  0.
        -12    1    1    2    0    0 -0.29602970197E+02 -0.43199786623E+01 -0.33676635378E+02  0.45045686037E+02  0.00000000000E+00 0.  1.
         11    1    3    3    0    0  0.10426132246E+02  0.23098474442E+01  0.12951206187E+02  0.16786106482E+02  0.51100000000E-03 0. -1.
        -11    1    3    3    0    0  0.15150246172E+02  0.32890014930E+01  0.19588445580E+02  0.24981086653E+02  0.51100000000E-03 0.  1.
        -12    1    3    3    0    0  0.40265917793E+01 -0.12788702749E+01  0.11369836104E+01  0.43751208288E+01  0.00000000000E+00 0.  1.
</event>
<event>
 7    1  0.3981356E-008  0.4614232E+02  0.7816164E-02  0.1320468E+00
        -11   -1    0    0    0    0  0.00000000000E+00  0.00000000000E+00  0.45593999997E+02  0.45594000000E+02  0.51100000000E-03 0.  1.
         11   -1    0    0    0    0 -0.00000000000E+00 -0.00000000000E+00 -0.45593999997E+02  0.45594000000E+02  0.51100000000E-03 0. -1.
    9900012    2    1    2    0    0 -0.43201682419E+01  0.24925258829E+02 -0.37271722821E+02  0.46142315374E+02  0.99999782347E+01 0.  0.
        -12    1    1    2    0    0  0.43201682419E+01 -0.24925258829E+02  0.37271722821E+02  0.45045684626E+02  0.00000000000E+00 0.  1.
         11    1    3    3    0    0  0.53802609625E+00 -0.24127285665E+00 -0.30594684165E+01  0.31157714814E+01  0.51100000000E-03 0. -1.
        -11    1    3    3    0    0 -0.46734179524E+01  0.17982424654E+02 -0.27532004143E+02  0.33214751003E+02  0.51100000000E-03 0.  1.
        -12    1    3    3    0    0 -0.18477638570E+00  0.71841070312E+01 -0.66802502616E+01  0.98117928895E+01  0.00000000000E+00 0.  1.
</event>
<event>
 7    1  0.3981356E-008  0.4614232E+02  0.7816164E-02  0.1320468E+00
        -11   -1    0    0    0    0  0.00000000000E+00  0.00000000000E+00  0.45593999997E+02  0.45594000000E+02  0.51100000000E-03 0.  1.
         11   -1    0    0    0    0 -0.00000000000E+00 -0.00000000000E+00 -0.45593999997E+02  0.45594000000E+02  0.51100000000E-03 0. -1.
    9900012    2    1    2    0    0  0.39018786885E+01  0.44138493456E+02 -0.81044531054E+01  0.46142318498E+02  0.10000006717E+02 0.  0.
        -12    1    1    2    0    0 -0.39018786885E+01 -0.44138493456E+02  0.81044531054E+01  0.45045681502E+02  0.00000000000E+00 0.  1.
         11    1    3    3    0    0  0.16362951135E+01  0.81073124689E+01 -0.43047800483E+00  0.82819857970E+01  0.51100000000E-03 0. -1.
        -11    1    3    3    0    0 -0.14569776111E+01  0.83134605852E+00 -0.40064182482E+00  0.17246547948E+01  0.51100000000E-03 0.  1.
        -12    1    3    3    0    0  0.37225611861E+01  0.35199834929E+02 -0.72733332757E+01  0.36135677906E+02  0.00000000000E+00 0.  1.
</event>
<event>
 7    1  0.3981356E-008  0.4614232E+02  0.7816164E-02  0.1320468E+00
        -11   -1    0    0    0    0  0.00000000000E+00  0.00000000000E+00  0.45593999997E+02  0.45594000000E+02  0.51100000000E-03 0.  1.
         11   -1    0    0    0    0 -0.00000000000E+00 -0.00000000000E+00 -0.45593999997E+02  0.45594000000E+02  0.51100000000E-03 0. -1.
    9900012    2    1    2    0    0 -0.17335844784E+02  0.20731587350E+02 -0.36038636278E+02  0.46142317264E+02  0.99999954642E+01 0.  0.
        -12    1    1    2    0    0  0.17335844784E+02 -0.20731587350E+02  0.36038636278E+02  0.45045682736E+02  0.00000000000E+00 0.  1.
         11    1    3    3    0    0 -0.50495913821E+01  0.20427221621E+01 -0.64500782399E+01  0.84424283544E+01  0.51100000000E-03 0. -1.
        -11    1    3    3    0    0 -0.62929601908E+01  0.45978417579E+01 -0.12720026010E+02  0.14917793360E+02  0.51100000000E-03 0.  1.
         12    1    3    3    0    0 -0.59932932108E+01  0.14091023430E+02 -0.16868532028E+02  0.22782095549E+02  0.00000000000E+00 0. -1.
</event>
<event>
 7    1  0.5125857E-008  0.4614232E+02  0.7816164E-02  0.1320468E+00
        -11   -1    0    0    0    0  0.00000000000E+00  0.00000000000E+00  0.45593999997E+02  0.45594000000E+02  0.51100000000E-03 0.  1.
         11   -1    0    0    0    0 -0.00000000000E+00 -0.00000000000E+00 -0.45593999997E+02  0.45594000000E+02  0.51100000000E-03 0. -1.
    9900012    2    1    2    0    0 -0.15661380930E+02  0.42231009119E+02  0.61360040763E+00  0.46142317750E+02  0.99999999014E+01 0.  0.
        -12    1    1    2    0    0  0.15661380930E+02 -0.42231009119E+02 -0.61360040763E+00  0.45045682250E+02  0.00000000000E+00 0.  1.
         11    1    3    3    0    0 -0.39163578058E+01  0.16650063514E+02 -0.11625528373E+00  0.17104852792E+02  0.51100000000E-03 0. -1.
        -11    1    3    3    0    0 -0.39524280082E+01  0.16905756867E+02  0.16036656654E+00  0.17362373689E+02  0.51100000000E-03 0.  1.
        -12    1    3    3    0    0 -0.77925951163E+01  0.86751887383E+01  0.56948912482E+00  0.11675091270E+02  0.00000000000E+00 0.  1.
</event>
<event>
 7    1  0.3981356E-008  0.4614232E+02  0.7816164E-02  0.1320468E+00
        -11   -1    0    0    0    0  0.00000000000E+00  0.00000000000E+00  0.45593999997E+02  0.45594000000E+02  0.51100000000E-03 0.  1.
         11   -1    0    0    0    0 -0.00000000000E+00 -0.00000000000E+00 -0.45593999997E+02  0.45594000000E+02  0.51100000000E-03 0. -1.
    9900012    2    1    2    0    0  0.34295550200E+02  0.23487302074E+02 -0.17357287601E+02  0.46142317020E+02  0.99999932407E+01 0.  0.
        -12    1    1    2    0    0 -0.34295550200E+02 -0.23487302074E+02  0.17357287601E+02  0.45045682980E+02  0.00000000000E+00 0.  1.
         11    1    3    3    0    0  0.52314326077E+01  0.62832214133E+01 -0.52013592776E+01  0.96902475228E+01  0.51100000000E-03 0. -1.
        -11    1    3    3    0    0  0.15745836310E+02  0.10500562287E+02 -0.99419867375E+01  0.21378406629E+02  0.51100000000E-03 0.  1.
        -12    1    3    3    0    0  0.13318281283E+02  0.67035183741E+01 -0.22139415864E+01  0.15073662868E+02  0.00000000000E+00 0.  1.
</event>
<event>
 7    1  0.3981356E-008  0.4614232E+02  0.7816164E-02  0.1320468E+00
        -11   -1    0    0    0    0  0.00000000000E+00  0.00000000000E+00  0.45593999997E+02  0.45594000000E+02  0.51100000000E-03 0.  1.
         11   -1    0    0    0    0 -0.00000000000E+00 -0.00000000000E+00 -0.45593999997E+02  0.45594000000E+02  0.51100000000E-03 0. -1.
    9900012    2    1    2    0    0  0.36750167120E+02 -0.21424476813E+02 -0.14816561203E+02  0.46142317899E+02  0.10000001260E+02 0.  0.
        -12    1    1    2    0    0 -0.36750167120E+02  0.21424476813E+02  0.14816561203E+02  0.45045682101E+02  0.00000000000E+00 0.  1.
         11    1    3    3    0    0  0.10626859850E+02 -0.49444946444E+01 -0.53124159812E+01  0.12868564076E+02  0.51100000000E-03 0. -1.
        -11    1    3    3    0    0  0.28946207821E+01  0.71582854220E+00 -0.72359418540E+00  0.30683592978E+01  0.51100000000E-03 0.  1.
         12    1    3    3    0    0  0.23228686487E+02 -0.17195810711E+02 -0.87805510361E+01  0.30205394525E+02  0.00000000000E+00 0. -1.
</event>
<event>
 7    1  0.3981356E-008  0.4614232E+02  0.7816164E-02  0.1320468E+00
        -11   -1    0    0    0    0  0.00000000000E+00  0.00000000000E+00  0.45593999997E+02  0.45594000000E+02  0.51100000000E-03 0.  1.
         11   -1    0    0    0    0 -0.00000000000E+00 -0.00000000000E+00 -0.45593999997E+02  0.45594000000E+02  0.51100000000E-03 0. -1.
    9900012    2    1    2    0    0 -0.34263342378E+01 -0.39286119925E+02 -0.21770953086E+02  0.46142318927E+02  0.10000010628E+02 0.  0.
        -12    1    1    2    0    0  0.34263342378E+01  0.39286119925E+02  0.21770953086E+02  0.45045681073E+02  0.00000000000E+00 0.  1.
         11    1    3    3    0    0 -0.25856252844E+01 -0.20776555702E+02 -0.12814842029E+02  0.24547319639E+02  0.51100000000E-03 0. -1.
        -11    1    3    3    0    0 -0.33821499815E+01 -0.84712955214E+01 -0.27695523363E+01  0.95326914726E+01  0.51100000000E-03 0.  1.
        -12    1    3    3    0    0  0.25414410281E+01 -0.10038268702E+02 -0.61865587204E+01  0.12062307815E+02  0.00000000000E+00 0.  1.
</event>
<event>
 7    1  0.3981356E-008  0.4614232E+02  0.7816164E-02  0.1320468E+00
        -11   -1    0    0    0    0  0.00000000000E+00  0.00000000000E+00  0.45593999997E+02  0.45594000000E+02  0.51100000000E-03 0.  1.
         11   -1    0    0    0    0 -0.00000000000E+00 -0.00000000000E+00 -0.45593999997E+02  0.45594000000E+02  0.51100000000E-03 0. -1.
    9900012    2    1    2    0    0 -0.24173455205E+02  0.20713804580E+02 -0.31869984642E+02  0.46142316990E+02  0.99999929698E+01 0.  0.
        -12    1    1    2    0    0  0.24173455205E+02 -0.20713804580E+02  0.31869984642E+02  0.45045683010E+02  0.00000000000E+00 0.  1.
         11    1    3    3    0    0 -0.14225376478E+01  0.42180322784E+01 -0.80896325207E+01  0.92335022739E+01  0.51100000000E-03 0. -1.
        -11    1    3    3    0    0 -0.56421727587E+01  0.49782299526E+01 -0.51720473256E+01  0.91305509526E+01  0.51100000000E-03 0.  1.
         12    1    3    3    0    0 -0.17108744798E+02  0.11517542349E+02 -0.18608304796E+02  0.27778263764E+02  0.00000000000E+00 0. -1.
</event>
<event>
 7    1  0.3981356E-008  0.4614232E+02  0.7816164E-02  0.1320468E+00
        -11   -1    0    0    0    0  0.00000000000E+00  0.00000000000E+00  0.45593999997E+02  0.45594000000E+02  0.51100000000E-03 0.  1.
         11   -1    0    0    0    0 -0.00000000000E+00 -0.00000000000E+00 -0.45593999997E+02  0.45594000000E+02  0.51100000000E-03 0. -1.
    9900012    2    1    2    0    0 -0.93187863359E+01 -0.31814122824E+02 -0.30498117876E+02  0.46142318922E+02  0.10000010583E+02 0.  0.
        -12    1    1    2    0    0  0.93187863359E+01  0.31814122824E+02  0.30498117876E+02  0.45045681078E+02  0.00000000000E+00 0.  1.
         11    1    3    3    0    0 -0.11315809912E+01 -0.64471095542E+01 -0.11194539350E+02  0.12967783491E+02  0.51100000000E-03 0. -1.
        -11    1    3    3    0    0 -0.50936534831E-01 -0.55203391626E+01 -0.43153845525E+01  0.70070880612E+01  0.51100000000E-03 0.  1.
        -12    1    3    3    0    0 -0.81362688099E+01 -0.19846674107E+02 -0.14988193973E+02  0.26167447370E+02  0.00000000000E+00 0.  1.
</event>
<event>
 7    1  0.3981356E-008  0.4614232E+02  0.7816164E-02  0.1320468E+00
        -11   -1    0    0    0    0  0.00000000000E+00  0.00000000000E+00  0.45593999997E+02  0.45594000000E+02  0.51100000000E-03 0. -1.
         11   -1    0    0    0    0 -0.00000000000E+00 -0.00000000000E+00 -0.45593999997E+02  0.45594000000E+02  0.51100000000E-03 0.  1.
    9900012    2    1    2    0    0  0.19003136292E+02 -0.20998418870E+02  0.35029425823E+02  0.46142318105E+02  0.10000003132E+02 0.  0.
        -12    1    1    2    0    0 -0.19003136292E+02  0.20998418870E+02 -0.35029425823E+02  0.45045681895E+02  0.00000000000E+00 0.  1.
         11    1    3    3    0    0  0.89425978473E+01 -0.85886401795E+01  0.19246473570E+02  0.22894574500E+02  0.51100000000E-03 0. -1.
        -11    1    3    3    0    0  0.67796983716E+01 -0.11972765430E+02  0.12669004568E+02  0.18703344595E+02  0.51100000000E-03 0.  1.
        -12    1    3    3    0    0  0.32808400728E+01 -0.43701326069E+00  0.31139476849E+01  0.45443990095E+01  0.00000000000E+00 0.  1.
</event>
<event>
 7    1  0.3981356E-008  0.4614232E+02  0.7816164E-02  0.1320468E+00
        -11   -1    0    0    0    0  0.00000000000E+00  0.00000000000E+00  0.45593999997E+02  0.45594000000E+02  0.51100000000E-03 0. -1.
         11   -1    0    0    0    0 -0.00000000000E+00 -0.00000000000E+00 -0.45593999997E+02  0.45594000000E+02  0.51100000000E-03 0.  1.
    9900012    2    1    2    0    0  0.23906526939E+02  0.19913652082E+02  0.32573575717E+02  0.46142318692E+02  0.10000008487E+02 0.  0.
        -12    1    1    2    0    0 -0.23906526939E+02 -0.19913652082E+02 -0.32573575717E+02  0.45045681308E+02  0.00000000000E+00 0.  1.
         11    1    3    3    0    0  0.18084365649E+01  0.82265103088E+00  0.41343514049E+00  0.20293167333E+01  0.51100000000E-03 0.  1.
        -11    1    3    3    0    0  0.86407800017E+00 -0.33675359980E+00 -0.36371872719E-01  0.92809318045E+00  0.51100000000E-03 0. -1.
         12    1    3    3    0    0  0.21234012374E+02  0.19427754651E+02  0.32196512449E+02  0.43184908778E+02  0.00000000000E+00 0. -1.
</event>
<event>
 7    1  0.3981356E-008  0.4614232E+02  0.7816164E-02  0.1320468E+00
        -11   -1    0    0    0    0  0.00000000000E+00  0.00000000000E+00  0.45593999997E+02  0.45594000000E+02  0.51100000000E-03 0. -1.
         11   -1    0    0    0    0 -0.00000000000E+00 -0.00000000000E+00 -0.45593999997E+02  0.45594000000E+02  0.51100000000E-03 0.  1.
    9900012    2    1    2    0    0 -0.40448078753E+02  0.87642410397E+01  0.17783544823E+02  0.46142318051E+02  0.10000002639E+02 0.  0.
        -12    1    1    2    0    0  0.40448078753E+02 -0.87642410397E+01 -0.17783544823E+02  0.45045681949E+02  0.00000000000E+00 0.  1.
         11    1    3    3    0    0 -0.35039502226E+01  0.29179556339E+00  0.24358169086E+01  0.42773842575E+01  0.51100000000E-03 0. -1.
        -11    1    3    3    0    0 -0.20977511903E+02  0.92646150650E+01  0.98719941322E+01  0.24966885395E+02  0.51100000000E-03 0.  1.
        -12    1    3    3    0    0 -0.15966616628E+02 -0.79216958873E+00  0.54757337817E+01  0.16898048398E+02  0.00000000000E+00 0.  1.
</event>
<event>
 7    1  0.3981356E-008  0.4614232E+02  0.7816164E-02  0.1320468E+00
        -11   -1    0    0    0    0  0.00000000000E+00  0.00000000000E+00  0.45593999997E+02  0.45594000000E+02  0.51100000000E-03 0. -1.
         11   -1    0    0    0    0 -0.00000000000E+00 -0.00000000000E+00 -0.45593999997E+02  0.45594000000E+02  0.51100000000E-03 0.  1.
    9900012    2    1    2    0    0  0.29712359148E+02 -0.17545743118E+02  0.28955755275E+02  0.46142321504E+02  0.10000034126E+02 0.  0.
        -12    1    1    2    0    0 -0.29712359148E+02  0.17545743118E+02 -0.28955755275E+02  0.45045678496E+02  0.00000000000E+00 0.  1.
         11    1    3    3    0    0  0.26177578675E+01 -0.34140128031E+00  0.18456639651E+01  0.32211312951E+01  0.51100000000E-03 0. -1.
        -11    1    3    3    0    0  0.14768937901E+02 -0.12766032197E+02  0.20272663933E+02  0.28143809408E+02  0.51100000000E-03 0.  1.
        -12    1    3    3    0    0  0.12325663379E+02 -0.44383096412E+01  0.68374273764E+01  0.14777380801E+02  0.00000000000E+00 0.  1.
</event>
<event>
 7    1  0.3981356E-008  0.4614232E+02  0.7816164E-02  0.1320468E+00
        -11   -1    0    0    0    0  0.00000000000E+00  0.00000000000E+00  0.45593999997E+02  0.45594000000E+02  0.51100000000E-03 0.  1.
         11   -1    0    0    0    0 -0.00000000000E+00 -0.00000000000E+00 -0.45593999997E+02  0.45594000000E+02  0.51100000000E-03 0. -1.
    9900012    2    1    2    0    0 -0.36778641621E+02 -0.22137181577E+02 -0.13652474574E+02  0.46142319301E+02  0.10000014042E+02 0.  0.
        -12    1    1    2    0    0  0.36778641621E+02  0.22137181577E+02  0.13652474574E+02  0.45045680699E+02  0.00000000000E+00 0.  1.
         11    1    3    3    0    0 -0.10252279554E+02 -0.51804198813E+01  0.11495318770E+00  0.11487349594E+02  0.51100000000E-03 0. -1.
        -11    1    3    3    0    0 -0.29408307502E+01 -0.37428974849E+01 -0.17856260763E+01  0.50839185507E+01  0.51100000000E-03 0.  1.
        -12    1    3    3    0    0 -0.23585531317E+02 -0.13213864211E+02 -0.11981801685E+02  0.29571051156E+02  0.00000000000E+00 0.  1.
</event>
<event>
 7    1  0.3981356E-008  0.4614232E+02  0.7816164E-02  0.1320468E+00
        -11   -1    0    0    0    0  0.00000000000E+00  0.00000000000E+00  0.45593999997E+02  0.45594000000E+02  0.51100000000E-03 0.  1.
         11   -1    0    0    0    0 -0.00000000000E+00 -0.00000000000E+00 -0.45593999997E+02  0.45594000000E+02  0.51100000000E-03 0. -1.
    9900012    2    1    2    0    0  0.43516080565E+02  0.58130625267E+01  0.10083279163E+02  0.46142317828E+02  0.10000000608E+02 0.  0.
        -12    1    1    2    0    0 -0.43516080565E+02 -0.58130625267E+01 -0.10083279163E+02  0.45045682172E+02  0.00000000000E+00 0.  1.
         11    1    3    3    0    0  0.17535058491E+01 -0.63618447078E-01 -0.92278465398E-01  0.17570844162E+01  0.51100000000E-03 0. -1.
        -11    1    3    3    0    0  0.63406697220E+01 -0.20918917128E+01  0.32405920791E+01  0.74216939270E+01  0.51100000000E-03 0.  1.
        -12    1    3    3    0    0  0.35421904994E+02  0.79685726866E+01  0.69349655493E+01  0.36963539485E+02  0.00000000000E+00 0.  1.
</event>
<event>
 7    1  0.3981356E-008  0.4614232E+02  0.7816164E-02  0.1320468E+00
        -11   -1    0    0    0    0  0.00000000000E+00  0.00000000000E+00  0.45593999997E+02  0.45594000000E+02  0.51100000000E-03 0.  1.
         11   -1    0    0    0    0 -0.00000000000E+00 -0.00000000000E+00 -0.45593999997E+02  0.45594000000E+02  0.51100000000E-03 0. -1.
    9900012    2    1    2    0    0  0.85900919902E+01  0.14482979969E+00 -0.44218805692E+02  0.46142318377E+02  0.10000005615E+02 0.  0.
        -12    1    1    2    0    0 -0.85900919902E+01 -0.14482979969E+00  0.44218805692E+02  0.45045681623E+02  0.00000000000E+00 0.  1.
         11    1    3    3    0    0  0.33139492648E+01 -0.13494127223E+01 -0.19942366820E+02  0.20260828440E+02  0.51100000000E-03 0. -1.
        -11    1    3    3    0    0  0.30396629005E+01  0.43659781033E+01 -0.15084937539E+02  0.15995519877E+02  0.51100000000E-03 0.  1.
        -12    1    3    3    0    0  0.22364798249E+01 -0.28717355813E+01 -0.91915013333E+01  0.98859700595E+01  0.00000000000E+00 0.  1.
</event>
<event>
 7    1  0.3981356E-008  0.4614232E+02  0.7816164E-02  0.1320468E+00
        -11   -1    0    0    0    0  0.00000000000E+00  0.00000000000E+00  0.45593999997E+02  0.45594000000E+02  0.51100000000E-03 0.  1.
         11   -1    0    0    0    0 -0.00000000000E+00 -0.00000000000E+00 -0.45593999997E+02  0.45594000000E+02  0.51100000000E-03 0. -1.
    9900012    2    1    2    0    0  0.24657065230E+01  0.16313461422E+02 -0.41915442871E+02  0.46142322258E+02  0.10000041002E+02 0.  0.
        -12    1    1    2    0    0 -0.24657065230E+01 -0.16313461422E+02  0.41915442871E+02  0.45045677742E+02  0.00000000000E+00 0.  1.
         11    1    3    3    0    0  0.13685948129E+01  0.75567639131E+01 -0.21673659582E+02  0.22994026453E+02  0.51100000000E-03 0. -1.
        -11    1    3    3    0    0  0.31770192190E+01  0.74861528143E+01 -0.18321998277E+02  0.20045736609E+02  0.51100000000E-03 0.  1.
         12    1    3    3    0    0 -0.20799075089E+01  0.12705446950E+01 -0.19197850114E+01  0.31025591949E+01  0.00000000000E+00 0. -1.
</event>
<event>
 7    1  0.3981356E-008  0.4614232E+02  0.7816164E-02  0.1320468E+00
        -11   -1    0    0    0    0  0.00000000000E+00  0.00000000000E+00  0.45593999997E+02  0.45594000000E+02  0.51100000000E-03 0.  1.
         11   -1    0    0    0    0 -0.00000000000E+00 -0.00000000000E+00 -0.45593999997E+02  0.45594000000E+02  0.51100000000E-03 0. -1.
    9900012    2    1    2    0    0  0.18392202700E+02 -0.44098215530E+01 -0.40882684202E+02  0.46142317479E+02  0.99999974244E+01 0.  0.
        -12    1    1    2    0    0 -0.18392202700E+02  0.44098215530E+01  0.40882684202E+02  0.45045682521E+02  0.00000000000E+00 0.  1.
         11    1    3    3    0    0  0.13821216179E+02  0.80110947270E+00 -0.25942671864E+02  0.29405611994E+02  0.51100000000E-03 0. -1.
        -11    1    3    3    0    0  0.21969029781E+01 -0.30558091838E+01 -0.47862979326E+01  0.60887601877E+01  0.51100000000E-03 0.  1.
        -12    1    3    3    0    0  0.23740835429E+01 -0.21551218419E+01 -0.10153714405E+02  0.10647945297E+02  0.00000000000E+00 0.  1.
</event>
<event>
 7    1  0.3981356E-008  0.4614231E+02  0.7816164E-02  0.1320468E+00
        -11   -1    0    0    0    0  0.00000000000E+00  0.00000000000E+00  0.45593999997E+02  0.45594000000E+02  0.51100000000E-03 0.  1.
         11   -1    0    0    0    0 -0.00000000000E+00 -0.00000000000E+00 -0.45593999997E+02  0.45594000000E+02  0.51100000000E-03 0. -1.
    9900012    2    1    2    0    0  0.25062731272E+02  0.35756946506E+02 -0.11064121971E+02  0.46142306341E+02  0.99998958623E+01 0.  0.
        -12    1    1    2    0    0 -0.25062731272E+02 -0.35756946506E+02  0.11064121971E+02  0.45045693659E+02  0.00000000000E+00 0.  1.
         11    1    3    3    0    0  0.44336857801E+01  0.79583946033E+01  0.46868485248E+00  0.91221313305E+01  0.51100000000E-03 0. -1.
        -11    1    3    3    0    0  0.76548409681E+00  0.14638477812E+01  0.75957946700E+00  0.18181797097E+01  0.51100000000E-03 0.  1.
         12    1    3    3    0    0  0.19863561395E+02  0.26334704122E+02 -0.12292386290E+02  0.35201995301E+02  0.00000000000E+00 0. -1.
</event>
<event>
 7    1  0.3981356E-008  0.4614232E+02  0.7816164E-02  0.1320468E+00
        -11   -1    0    0    0    0  0.00000000000E+00  0.00000000000E+00  0.45593999997E+02  0.45594000000E+02  0.51100000000E-03 0.  1.
         11   -1    0    0    0    0 -0.00000000000E+00 -0.00000000000E+00 -0.45593999997E+02  0.45594000000E+02  0.51100000000E-03 0. -1.
    9900012    2    1    2    0    0  0.34295908595E+02  0.17360262860E+02 -0.23484577542E+02  0.46142318129E+02  0.10000003353E+02 0.  0.
        -12    1    1    2    0    0 -0.34295908595E+02 -0.17360262860E+02  0.23484577542E+02  0.45045681871E+02  0.00000000000E+00 0.  1.
         11    1    3    3    0    0  0.25607279712E+02  0.15058734542E+02 -0.15261084589E+02  0.33397589184E+02  0.51100000000E-03 0. -1.
        -11    1    3    3    0    0  0.62334494306E+01  0.54226481888E+00 -0.35900880513E+01  0.72137837101E+01  0.51100000000E-03 0.  1.
         12    1    3    3    0    0  0.24551794525E+01  0.17592634993E+01 -0.46334049014E+01  0.55309452343E+01  0.00000000000E+00 0. -1.
</event>
<event>
 7    1  0.3981356E-008  0.4614232E+02  0.7816164E-02  0.1320468E+00
        -11   -1    0    0    0    0  0.00000000000E+00  0.00000000000E+00  0.45593999997E+02  0.45594000000E+02  0.51100000000E-03 0. -1.
         11   -1    0    0    0    0 -0.00000000000E+00 -0.00000000000E+00 -0.45593999997E+02  0.45594000000E+02  0.51100000000E-03 0.  1.
    9900012    2    1    2    0    0 -0.87423365713E+01 -0.55331838026E+01  0.43841405750E+02  0.46142318410E+02  0.10000005920E+02 0.  0.
        -12    1    1    2    0    0  0.87423365713E+01  0.55331838026E+01 -0.43841405750E+02  0.45045681590E+02  0.00000000000E+00 0.  1.
         11    1    3    3    0    0 -0.52644823386E+01 -0.35937161428E+01  0.24005948810E+02  0.24837776642E+02  0.51100000000E-03 0. -1.
        -11    1    3    3    0    0 -0.18985301780E+01  0.67368106360E+00  0.17059246752E+02  0.17177781086E+02  0.51100000000E-03 0.  1.
         12    1    3    3    0    0 -0.15793240546E+01 -0.26131487235E+01  0.27762101883E+01  0.41267606824E+01  0.00000000000E+00 0. -1.
</event>
<event>
 7    1  0.3981356E-008  0.4614232E+02  0.7816164E-02  0.1320468E+00
        -11   -1    0    0    0    0  0.00000000000E+00  0.00000000000E+00  0.45593999997E+02  0.45594000000E+02  0.51100000000E-03 0.  1.
         11   -1    0    0    0    0 -0.00000000000E+00 -0.00000000000E+00 -0.45593999997E+02  0.45594000000E+02  0.51100000000E-03 0. -1.
    9900012    2    1    2    0    0 -0.32012346124E+02  0.46965797799E+01 -0.31341110580E+02  0.46142318982E+02  0.10000011134E+02 0.  0.
        -12    1    1    2    0    0  0.32012346124E+02 -0.46965797799E+01  0.31341110580E+02  0.45045681018E+02  0.00000000000E+00 0.  1.
         11    1    3    3    0    0 -0.28704977805E+02  0.24423016440E+01 -0.28798400089E+02  0.40734364314E+02  0.51100000000E-03 0. -1.
        -11    1    3    3    0    0 -0.20370847279E+01  0.11819498932E+01  0.17702912854E-01  0.23552140864E+01  0.51100000000E-03 0.  1.
         12    1    3    3    0    0 -0.12702835911E+01  0.10723282426E+01 -0.25604134038E+01  0.30527405818E+01  0.00000000000E+00 0. -1.
</event>
<event>
 7    1  0.3981356E-008  0.4614232E+02  0.7816164E-02  0.1320468E+00
        -11   -1    0    0    0    0  0.00000000000E+00  0.00000000000E+00  0.45593999997E+02  0.45594000000E+02  0.51100000000E-03 0. -1.
         11   -1    0    0    0    0 -0.00000000000E+00 -0.00000000000E+00 -0.45593999997E+02  0.45594000000E+02  0.51100000000E-03 0.  1.
    9900012    2    1    2    0    0 -0.42791088031E+02 -0.13095372143E+02 -0.51524314186E+01  0.46142317233E+02  0.99999951829E+01 0.  0.
        -12    1    1    2    0    0  0.42791088031E+02  0.13095372143E+02  0.51524314186E+01  0.45045682767E+02  0.00000000000E+00 0.  1.
         11    1    3    3    0    0 -0.17526302248E+02 -0.99286546158E+01 -0.36344071388E+01  0.20468472549E+02  0.51100000000E-03 0. -1.
        -11    1    3    3    0    0 -0.12376458761E+02 -0.29139538511E+01 -0.20710323028E+00  0.12716554192E+02  0.51100000000E-03 0.  1.
        -12    1    3    3    0    0 -0.12888327021E+02 -0.25276367622E+00 -0.13109210495E+01  0.12957290491E+02  0.00000000000E+00 0.  1.
</event>
<event>
 7    1  0.3981356E-008  0.4614232E+02  0.7816164E-02  0.1320468E+00
        -11   -1    0    0    0    0  0.00000000000E+00  0.00000000000E+00  0.45593999997E+02  0.45594000000E+02  0.51100000000E-03 0.  1.
         11   -1    0    0    0    0 -0.00000000000E+00 -0.00000000000E+00 -0.45593999997E+02  0.45594000000E+02  0.51100000000E-03 0. -1.
    9900012    2    1    2    0    0  0.47453741176E+01  0.47975152943E+01 -0.44537385859E+02  0.46142317991E+02  0.10000002095E+02 0.  0.
        -12    1    1    2    0    0 -0.47453741176E+01 -0.47975152943E+01  0.44537385859E+02  0.45045682009E+02  0.00000000000E+00 0.  1.
         11    1    3    3    0    0  0.21481432682E+01  0.33989456216E+01 -0.25109595913E+02  0.25429493860E+02  0.51100000000E-03 0. -1.
        -11    1    3    3    0    0  0.16879941874E-01  0.13087778764E+01 -0.17348348460E+02  0.17397654411E+02  0.51100000000E-03 0.  1.
        -12    1    3    3    0    0  0.25803509075E+01  0.89791796374E-01 -0.20794414866E+01  0.33151697195E+01  0.00000000000E+00 0.  1.
</event>
<event>
 7    1  0.3981356E-008  0.4614232E+02  0.7816164E-02  0.1320468E+00
        -11   -1    0    0    0    0  0.00000000000E+00  0.00000000000E+00  0.45593999997E+02  0.45594000000E+02  0.51100000000E-03 0.  1.
         11   -1    0    0    0    0 -0.00000000000E+00 -0.00000000000E+00 -0.45593999997E+02  0.45594000000E+02  0.51100000000E-03 0. -1.
    9900012    2    1    2    0    0  0.40055579880E+02 -0.11296993359E+02 -0.17234903380E+02  0.46142318376E+02  0.10000005603E+02 0.  0.
        -12    1    1    2    0    0 -0.40055579880E+02  0.11296993359E+02  0.17234903380E+02  0.45045681624E+02  0.00000000000E+00 0.  1.
         11    1    3    3    0    0  0.81585044635E+01 -0.60444337578E-01 -0.16271417709E+01  0.83194013729E+01  0.51100000000E-03 0. -1.
        -11    1    3    3    0    0  0.22170363640E+02 -0.10265631892E+02 -0.90598121547E+01  0.26057406214E+02  0.51100000000E-03 0.  1.
        -12    1    3    3    0    0  0.97267117770E+01 -0.97091712959E+00 -0.65479494546E+01  0.11765510789E+02  0.00000000000E+00 0.  1.
</event>
<event>
 7    1  0.3981356E-008  0.4614232E+02  0.7816164E-02  0.1320468E+00
        -11   -1    0    0    0    0  0.00000000000E+00  0.00000000000E+00  0.45593999997E+02  0.45594000000E+02  0.51100000000E-03 0. -1.
         11   -1    0    0    0    0 -0.00000000000E+00 -0.00000000000E+00 -0.45593999997E+02  0.45594000000E+02  0.51100000000E-03 0.  1.
    9900012    2    1    2    0    0  0.26395252131E+02  0.36371590577E+02  0.30841170709E+01  0.46142315254E+02  0.99999771382E+01 0.  0.
        -12    1    1    2    0    0 -0.26395252131E+02 -0.36371590577E+02 -0.30841170709E+01  0.45045684746E+02  0.00000000000E+00 0.  1.
         11    1    3    3    0    0  0.43047163022E+01  0.19005699050E+01  0.25928103193E+00  0.47127460489E+01  0.51100000000E-03 0.  1.
        -11    1    3    3    0    0  0.17704042573E+01  0.12065247476E+01 -0.78758887606E+00  0.22826146630E+01  0.51100000000E-03 0. -1.
         12    1    3    3    0    0  0.20320131571E+02  0.33264495924E+02  0.36124249151E+01  0.39146954542E+02  0.00000000000E+00 0. -1.
</event>
<event>
 7    1  0.3981356E-008  0.4614232E+02  0.7816164E-02  0.1320468E+00
        -11   -1    0    0    0    0  0.00000000000E+00  0.00000000000E+00  0.45593999997E+02  0.45594000000E+02  0.51100000000E-03 0.  1.
         11   -1    0    0    0    0 -0.00000000000E+00 -0.00000000000E+00 -0.45593999997E+02  0.45594000000E+02  0.51100000000E-03 0. -1.
    9900012    2    1    2    0    0 -0.35105354219E+02 -0.17163399429E+02 -0.22408602005E+02  0.46142316315E+02  0.99999868176E+01 0.  0.
        -12    1    1    2    0    0  0.35105354219E+02  0.17163399429E+02  0.22408602005E+02  0.45045683685E+02  0.00000000000E+00 0.  1.
         11    1    3    3    0    0 -0.15693330129E+02 -0.48236394834E+01 -0.12489834202E+02  0.20628719472E+02  0.51100000000E-03 0. -1.
        -11    1    3    3    0    0 -0.85720191992E+01 -0.58895169703E+01 -0.19162769810E+01  0.10575350634E+02  0.51100000000E-03 0.  1.
        -12    1    3    3    0    0 -0.10840004891E+02 -0.64502429748E+01 -0.80024908220E+01  0.14938246210E+02  0.00000000000E+00 0.  1.
</event>
<event>
 7    1  0.3981356E-008  0.4614232E+02  0.7816164E-02  0.1320468E+00
        -11   -1    0    0    0    0  0.00000000000E+00  0.00000000000E+00  0.45593999997E+02  0.45594000000E+02  0.51100000000E-03 0. -1.
         11   -1    0    0    0    0 -0.00000000000E+00 -0.00000000000E+00 -0.45593999997E+02  0.45594000000E+02  0.51100000000E-03 0.  1.
    9900012    2    1    2    0    0  0.20668921306E+02 -0.25147086961E+02  0.31137326211E+02  0.46142319028E+02  0.10000011555E+02 0.  0.
        -12    1    1    2    0    0 -0.20668921306E+02  0.25147086961E+02 -0.31137326211E+02  0.45045680972E+02  0.00000000000E+00 0.  1.
         11    1    3    3    0    0  0.13027742605E+01  0.21032215751E-01  0.25777872166E+01  0.28883646451E+01  0.51100000000E-03 0. -1.
        -11    1    3    3    0    0  0.80237619669E+01 -0.88260415263E+01  0.66324910596E+01  0.13648065908E+02  0.51100000000E-03 0.  1.
         12    1    3    3    0    0  0.11342385079E+02 -0.16342077651E+02  0.21927047935E+02  0.29605888475E+02  0.00000000000E+00 0. -1.
</event>
<event>
 7    1  0.3981356E-008  0.4614232E+02  0.7816164E-02  0.1320468E+00
        -11   -1    0    0    0    0  0.00000000000E+00  0.00000000000E+00  0.45593999997E+02  0.45594000000E+02  0.51100000000E-03 0. -1.
         11   -1    0    0    0    0 -0.00000000000E+00 -0.00000000000E+00 -0.45593999997E+02  0.45594000000E+02  0.51100000000E-03 0.  1.
    9900012    2    1    2    0    0  0.13384197483E+02 -0.39019711022E+02  0.18095273258E+02  0.46142317579E+02  0.99999983395E+01 0.  0.
        -12    1    1    2    0    0 -0.13384197483E+02  0.39019711022E+02 -0.18095273258E+02  0.45045682421E+02  0.00000000000E+00 0.  1.
         11    1    3    3    0    0 -0.97628007820E+00 -0.66156476035E+00  0.61036472874E+00  0.13279066558E+01  0.51100000000E-03 0. -1.
        -11    1    3    3    0    0  0.75869000312E+01 -0.16127336960E+02  0.54155939040E+01  0.18627418155E+02  0.51100000000E-03 0.  1.
         12    1    3    3    0    0  0.67735775299E+01 -0.22230809301E+02  0.12069314625E+02  0.26186992769E+02  0.00000000000E+00 0. -1.
</event>
<event>
 7    1  0.3981356E-008  0.4614231E+02  0.7816164E-02  0.1320468E+00
        -11   -1    0    0    0    0  0.00000000000E+00  0.00000000000E+00  0.45593999997E+02  0.45594000000E+02  0.51100000000E-03 0.  1.
         11   -1    0    0    0    0 -0.00000000000E+00 -0.00000000000E+00 -0.45593999997E+02  0.45594000000E+02  0.51100000000E-03 0. -1.
    9900012    2    1    2    0    0  0.16806443767E+02  0.15961162929E+02 -0.38625105912E+02  0.46142311185E+02  0.99999400329E+01 0.  0.
        -12    1    1    2    0    0 -0.16806443767E+02 -0.15961162929E+02  0.38625105912E+02  0.45045688815E+02  0.00000000000E+00 0.  1.
         11    1    3    3    0    0 -0.69708905885E+00  0.21735258619E+01 -0.34274332195E+01  0.41179420301E+01  0.51100000000E-03 0. -1.
        -11    1    3    3    0    0  0.34238135008E+01  0.57521084449E+01 -0.89999194637E+01  0.11216407672E+02  0.51100000000E-03 0.  1.
        -12    1    3    3    0    0  0.14079719325E+02  0.80355286223E+01 -0.26197753229E+02  0.30807961483E+02  0.00000000000E+00 0.  1.
</event>
<event>
 7    1  0.3981356E-008  0.4614232E+02  0.7816164E-02  0.1320468E+00
        -11   -1    0    0    0    0  0.00000000000E+00  0.00000000000E+00  0.45593999997E+02  0.45594000000E+02  0.51100000000E-03 0.  1.
         11   -1    0    0    0    0 -0.00000000000E+00 -0.00000000000E+00 -0.45593999997E+02  0.45594000000E+02  0.51100000000E-03 0. -1.
    9900012    2    1    2    0    0  0.19881857447E+02 -0.40237631306E+02 -0.38416217828E+01  0.46142320001E+02  0.10000020426E+02 0.  0.
        -12    1    1    2    0    0 -0.19881857447E+02  0.40237631306E+02  0.38416217828E+01  0.45045679999E+02  0.00000000000E+00 0.  1.
         11    1    3    3    0    0  0.10383313704E+02 -0.15929572750E+02 -0.43319219114E+01  0.19502052179E+02  0.51100000000E-03 0. -1.
        -11    1    3    3    0    0  0.34155307858E+01 -0.14142135920E+02 -0.15055162220E+01  0.14626429444E+02  0.51100000000E-03 0.  1.
         12    1    3    3    0    0  0.60830129574E+01 -0.10165922636E+02  0.19958163507E+01  0.12013838378E+02  0.00000000000E+00 0. -1.
</event>
<event>
 7    1  0.3981356E-008  0.4614232E+02  0.7816164E-02  0.1320468E+00
        -11   -1    0    0    0    0  0.00000000000E+00  0.00000000000E+00  0.45593999997E+02  0.45594000000E+02  0.51100000000E-03 0.  1.
         11   -1    0    0    0    0 -0.00000000000E+00 -0.00000000000E+00 -0.45593999997E+02  0.45594000000E+02  0.51100000000E-03 0. -1.
    9900012    2    1    2    0    0  0.28417112446E+02 -0.17432587722E+02 -0.30293334598E+02  0.46142317460E+02  0.99999972523E+01 0.  0.
        -12    1    1    2    0    0 -0.28417112446E+02  0.17432587722E+02  0.30293334598E+02  0.45045682540E+02  0.00000000000E+00 0.  1.
         11    1    3    3    0    0  0.36556530630E+01  0.14383985253E+00 -0.25841353803E+01  0.44790897675E+01  0.51100000000E-03 0. -1.
        -11    1    3    3    0    0  0.59056652741E+01 -0.79547322849E+01 -0.78991098598E+01  0.12670855729E+02  0.51100000000E-03 0.  1.
        -12    1    3    3    0    0  0.18855794109E+02 -0.96216952897E+01 -0.19810089358E+02  0.28992371964E+02  0.00000000000E+00 0.  1.
</event>
<event>
 7    1  0.3981356E-008  0.4614232E+02  0.7816164E-02  0.1320468E+00
        -11   -1    0    0    0    0  0.00000000000E+00  0.00000000000E+00  0.45593999997E+02  0.45594000000E+02  0.51100000000E-03 0.  1.
         11   -1    0    0    0    0 -0.00000000000E+00 -0.00000000000E+00 -0.45593999997E+02  0.45594000000E+02  0.51100000000E-03 0. -1.
    9900012    2    1    2    0    0 -0.21539447679E+02 -0.39238026695E+02 -0.50540024067E+01  0.46142317792E+02  0.10000000285E+02 0.  0.
        -12    1    1    2    0    0  0.21539447679E+02  0.39238026695E+02  0.50540024067E+01  0.45045682208E+02  0.00000000000E+00 0.  1.
         11    1    3    3    0    0 -0.15427371738E+02 -0.24398254105E+02 -0.15714304322E+01  0.28909306391E+02  0.51100000000E-03 0. -1.
        -11    1    3    3    0    0 -0.49961107463E+01 -0.78384410158E+01 -0.40107425995E+01  0.10123652335E+02  0.51100000000E-03 0.  1.
         12    1    3    3    0    0 -0.11159651942E+01 -0.70013315736E+01  0.52817062504E+00  0.71093590659E+01  0.00000000000E+00 0. -1.
</event>
<event>
 7    1  0.4043677E-008  0.4614232E+02  0.7816164E-02  0.1320468E+00
        -11   -1    0    0    0    0  0.00000000000E+00  0.00000000000E+00  0.45593999997E+02  0.45594000000E+02  0.51100000000E-03 0.  1.
         11   -1    0    0    0    0 -0.00000000000E+00 -0.00000000000E+00 -0.45593999997E+02  0.45594000000E+02  0.51100000000E-03 0. -1.
    9900012    2    1    2    0    0 -0.11224207284E+02  0.35465568142E+02 -0.25403229730E+02  0.46142318370E+02  0.10000005553E+02 0.  0.
        -12    1    1    2    0    0  0.11224207284E+02 -0.35465568142E+02  0.25403229730E+02  0.45045681630E+02  0.00000000000E+00 0.  1.
         11    1    3    3    0    0 -0.75585816096E+01  0.22665312739E+02 -0.15082236107E+02  0.28254599692E+02  0.51100000000E-03 0. -1.
        -11    1    3    3    0    0  0.27921147470E-01  0.99098768113E+01 -0.73101445129E+01  0.12314408271E+02  0.51100000000E-03 0.  1.
        -12    1    3    3    0    0 -0.36935468220E+01  0.28903785915E+01 -0.30108491108E+01  0.55733104073E+01  0.00000000000E+00 0.  1.
</event>
<event>
 7    1  0.3981356E-008  0.4614232E+02  0.7816164E-02  0.1320468E+00
        -11   -1    0    0    0    0  0.00000000000E+00  0.00000000000E+00  0.45593999997E+02  0.45594000000E+02  0.51100000000E-03 0. -1.
         11   -1    0    0    0    0 -0.00000000000E+00 -0.00000000000E+00 -0.45593999997E+02  0.45594000000E+02  0.51100000000E-03 0.  1.
    9900012    2    1    2    0    0 -0.73217349138E+01  0.21736553178E+02  0.38768904239E+02  0.46142317831E+02  0.10000000635E+02 0.  0.
        -12    1    1    2    0    0  0.73217349138E+01 -0.21736553178E+02 -0.38768904239E+02  0.45045682169E+02  0.00000000000E+00 0.  1.
         11    1    3    3    0    0 -0.30411516469E+01  0.49189162120E+01  0.44504641855E+01  0.72973263438E+01  0.51100000000E-03 0. -1.
        -11    1    3    3    0    0 -0.48793335634E+01  0.85805373305E+01  0.20351953208E+02  0.22619361542E+02  0.51100000000E-03 0.  1.
        -12    1    3    3    0    0  0.59875029656E+00  0.82370996354E+01  0.13966486845E+02  0.16225629945E+02  0.00000000000E+00 0.  1.
</event>
<event>
 7    1  0.3981356E-008  0.4614232E+02  0.7816164E-02  0.1320468E+00
        -11   -1    0    0    0    0  0.00000000000E+00  0.00000000000E+00  0.45593999997E+02  0.45594000000E+02  0.51100000000E-03 0.  1.
         11   -1    0    0    0    0 -0.00000000000E+00 -0.00000000000E+00 -0.45593999997E+02  0.45594000000E+02  0.51100000000E-03 0. -1.
    9900012    2    1    2    0    0  0.79300432286E+01  0.14872017678E+02 -0.41773807355E+02  0.46142317894E+02  0.10000001215E+02 0.  0.
        -12    1    1    2    0    0 -0.79300432286E+01 -0.14872017678E+02  0.41773807355E+02  0.45045682106E+02  0.00000000000E+00 0.  1.
         11    1    3    3    0    0  0.27728452575E+01  0.30751901383E+01 -0.22692002447E+02  0.23066695484E+02  0.51100000000E-03 0. -1.
        -11    1    3    3    0    0 -0.15469646160E-01  0.84136245236E+00 -0.15724373086E+01  0.17834487480E+01  0.51100000000E-03 0.  1.
         12    1    3    3    0    0  0.51726676172E+01  0.10955465087E+02 -0.17509367599E+02  0.21292173662E+02  0.00000000000E+00 0. -1.
</event>
<event>
 7    1  0.3981356E-008  0.4614232E+02  0.7816164E-02  0.1320468E+00
        -11   -1    0    0    0    0  0.00000000000E+00  0.00000000000E+00  0.45593999997E+02  0.45594000000E+02  0.51100000000E-03 0.  1.
         11   -1    0    0    0    0 -0.00000000000E+00 -0.00000000000E+00 -0.45593999997E+02  0.45594000000E+02  0.51100000000E-03 0. -1.
    9900012    2    1    2    0    0 -0.29332764419E+02  0.10006095717E+02 -0.32689145641E+02  0.46142320266E+02  0.10000022841E+02 0.  0.
        -12    1    1    2    0    0  0.29332764419E+02 -0.10006095717E+02  0.32689145641E+02  0.45045679734E+02  0.00000000000E+00 0.  1.
         11    1    3    3    0    0 -0.75172091865E+01  0.49888200892E+01 -0.56968640944E+01  0.10670099372E+02  0.51100000000E-03 0. -1.
        -11    1    3    3    0    0 -0.77291250307E+01  0.21353442938E+01 -0.59428073465E+01  0.99807829559E+01  0.51100000000E-03 0.  1.
         12    1    3    3    0    0 -0.14086430202E+02  0.28819313336E+01 -0.21049474200E+02  0.25491437938E+02  0.00000000000E+00 0. -1.
</event>
<event>
 7    1  0.3981356E-008  0.4614232E+02  0.7816164E-02  0.1320468E+00
        -11   -1    0    0    0    0  0.00000000000E+00  0.00000000000E+00  0.45593999997E+02  0.45594000000E+02  0.51100000000E-03 0.  1.
         11   -1    0    0    0    0 -0.00000000000E+00 -0.00000000000E+00 -0.45593999997E+02  0.45594000000E+02  0.51100000000E-03 0. -1.
    9900012    2    1    2    0    0 -0.90666858349E+01 -0.31048834032E+02 -0.31350895533E+02  0.46142317215E+02  0.99999950241E+01 0.  0.
        -12    1    1    2    0    0  0.90666858349E+01  0.31048834032E+02  0.31350895533E+02  0.45045682785E+02  0.00000000000E+00 0.  1.
         11    1    3    3    0    0 -0.42681412983E+01 -0.10539781707E+02 -0.15778306965E+02  0.19448881703E+02  0.51100000000E-03 0. -1.
        -11    1    3    3    0    0 -0.11204623799E+00 -0.43162398278E+01 -0.57244794572E+01  0.71702263512E+01  0.51100000000E-03 0.  1.
        -12    1    3    3    0    0 -0.46864982985E+01 -0.16192812497E+02 -0.98481091116E+01  0.19523209161E+02  0.00000000000E+00 0.  1.
</event>
<event>
 7    1  0.3981356E-008  0.4614232E+02  0.7816164E-02  0.1320468E+00
        -11   -1    0    0    0    0  0.00000000000E+00  0.00000000000E+00  0.45593999997E+02  0.45594000000E+02  0.51100000000E-03 0.  1.
         11   -1    0    0    0    0 -0.00000000000E+00 -0.00000000000E+00 -0.45593999997E+02  0.45594000000E+02  0.51100000000E-03 0. -1.
    9900012    2    1    2    0    0  0.24926778101E+02 -0.35549437367E+02  0.12000276879E+02  0.46142318644E+02  0.10000008055E+02 0.  0.
        -12    1    1    2    0    0 -0.24926778101E+02  0.35549437367E+02 -0.12000276879E+02  0.45045681356E+02  0.00000000000E+00 0.  1.
         11    1    3    3    0    0  0.79822797248E+01 -0.88787719245E+01  0.47782306200E+00  0.11948962115E+02  0.51100000000E-03 0. -1.
        -11    1    3    3    0    0  0.42283284597E+00 -0.34410953133E+01  0.54873608875E-01  0.34674105533E+01  0.51100000000E-03 0.  1.
         12    1    3    3    0    0  0.16521665531E+02 -0.23229570129E+02  0.11467580208E+02  0.30725945976E+02  0.00000000000E+00 0. -1.
</event>
<event>
 7    1  0.3981356E-008  0.4614232E+02  0.7816164E-02  0.1320468E+00
        -11   -1    0    0    0    0  0.00000000000E+00  0.00000000000E+00  0.45593999997E+02  0.45594000000E+02  0.51100000000E-03 0.  1.
         11   -1    0    0    0    0 -0.00000000000E+00 -0.00000000000E+00 -0.45593999997E+02  0.45594000000E+02  0.51100000000E-03 0. -1.
    9900012    2    1    2    0    0  0.43366210005E+02  0.11188486680E+02 -0.48273204077E+01  0.46142318445E+02  0.10000006239E+02 0.  0.
        -12    1    1    2    0    0 -0.43366210005E+02 -0.11188486680E+02  0.48273204077E+01  0.45045681555E+02  0.00000000000E+00 0.  1.
         11    1    3    3    0    0  0.61269469783E+01  0.35371287381E+01  0.67156164506E+00  0.71064586321E+01  0.51100000000E-03 0. -1.
        -11    1    3    3    0    0  0.11219768064E+02  0.29821410781E+01 -0.48805806717E+01  0.12593507406E+02  0.51100000000E-03 0.  1.
         12    1    3    3    0    0  0.26019494963E+02  0.46692168634E+01 -0.61830138105E+00  0.26442352408E+02  0.00000000000E+00 0. -1.
</event>
<event>
 7    1  0.3981356E-008  0.4614232E+02  0.7816164E-02  0.1320468E+00
        -11   -1    0    0    0    0  0.00000000000E+00  0.00000000000E+00  0.45593999997E+02  0.45594000000E+02  0.51100000000E-03 0.  1.
         11   -1    0    0    0    0 -0.00000000000E+00 -0.00000000000E+00 -0.45593999997E+02  0.45594000000E+02  0.51100000000E-03 0. -1.
    9900012    2    1    2    0    0  0.25275035539E+01 -0.92829686321E+01 -0.44006267947E+02  0.46142318748E+02  0.10000009003E+02 0.  0.
        -12    1    1    2    0    0 -0.25275035539E+01  0.92829686321E+01  0.44006267947E+02  0.45045681252E+02  0.00000000000E+00 0.  1.
         11    1    3    3    0    0 -0.10088864878E+01  0.31466359373E+00 -0.18524912394E+01  0.21327421728E+01  0.51100000000E-03 0. -1.
        -11    1    3    3    0    0  0.34304956035E+01 -0.16803009286E+01 -0.69932477468E+01  0.79685146423E+01  0.51100000000E-03 0.  1.
         12    1    3    3    0    0  0.10589443820E+00 -0.79173312972E+01 -0.35160528960E+02  0.36041061933E+02  0.00000000000E+00 0. -1.
</event>
<event>
 7    1  0.3981356E-008  0.4614232E+02  0.7816164E-02  0.1320468E+00
        -11   -1    0    0    0    0  0.00000000000E+00  0.00000000000E+00  0.45593999997E+02  0.45594000000E+02  0.51100000000E-03 0.  1.
         11   -1    0    0    0    0 -0.00000000000E+00 -0.00000000000E+00 -0.45593999997E+02  0.45594000000E+02  0.51100000000E-03 0. -1.
    9900012    2    1    2    0    0 -0.12696793214E+02  0.10525251259E+02 -0.41918062151E+02  0.46142318670E+02  0.10000008286E+02 0.  0.
        -12    1    1    2    0    0  0.12696793214E+02 -0.10525251259E+02  0.41918062151E+02  0.45045681330E+02  0.00000000000E+00 0.  1.
         11    1    3    3    0    0 -0.37483509905E+01  0.30373979471E+00 -0.11518940008E+02  0.12117275774E+02  0.51100000000E-03 0.  1.
        -11    1    3    3    0    0 -0.11569226876E+01  0.41848732145E+01 -0.42318559670E+01  0.60630222755E+01  0.51100000000E-03 0. -1.
         12    1    3    3    0    0 -0.77915195356E+01  0.60366382502E+01 -0.26167266177E+02  0.27962020621E+02  0.00000000000E+00 0. -1.
</event>
<event>
 7    1  0.3981356E-008  0.4614232E+02  0.7816164E-02  0.1320468E+00
        -11   -1    0    0    0    0  0.00000000000E+00  0.00000000000E+00  0.45593999997E+02  0.45594000000E+02  0.51100000000E-03 0.  1.
         11   -1    0    0    0    0 -0.00000000000E+00 -0.00000000000E+00 -0.45593999997E+02  0.45594000000E+02  0.51100000000E-03 0. -1.
    9900012    2    1    2    0    0 -0.23199239464E+01  0.22582192389E+02 -0.38907268253E+02  0.46142323369E+02  0.10000051136E+02 0.  0.
        -12    1    1    2    0    0  0.23199239464E+01 -0.22582192389E+02  0.38907268253E+02  0.45045676631E+02  0.00000000000E+00 0.  1.
         11    1    3    3    0    0 -0.79447763691E+00  0.73367828480E+01 -0.87903418739E+01  0.11477355436E+02  0.51100000000E-03 0. -1.
        -11    1    3    3    0    0 -0.45772633276E+01  0.69304274031E+01 -0.14833450435E+02  0.17000394572E+02  0.51100000000E-03 0.  1.
        -12    1    3    3    0    0  0.30518170181E+01  0.83149821379E+01 -0.15283475945E+02  0.17664573361E+02  0.00000000000E+00 0.  1.
</event>
<event>
 7    1  0.3981356E-008  0.4614232E+02  0.7816164E-02  0.1320468E+00
        -11   -1    0    0    0    0  0.00000000000E+00  0.00000000000E+00  0.45593999997E+02  0.45594000000E+02  0.51100000000E-03 0.  1.
         11   -1    0    0    0    0 -0.00000000000E+00 -0.00000000000E+00 -0.45593999997E+02  0.45594000000E+02  0.51100000000E-03 0. -1.
    9900012    2    1    2    0    0  0.90282886381E+00 -0.29459564708E+01 -0.44940177385E+02  0.46142319820E+02  0.10000018772E+02 0.  0.
        -12    1    1    2    0    0 -0.90282886381E+00  0.29459564708E+01  0.44940177385E+02  0.45045680180E+02  0.00000000000E+00 0.  1.
         11    1    3    3    0    0  0.49475693697E+00  0.88413682508E+00 -0.29267695585E+02  0.29285226437E+02  0.51100000000E-03 0. -1.
        -11    1    3    3    0    0 -0.36360853944E+00  0.10922662693E+01 -0.40781696740E+01  0.42375376015E+01  0.51100000000E-03 0.  1.
        -12    1    3    3    0    0  0.77168046629E+00 -0.49223595651E+01 -0.11594312127E+02  0.12619555781E+02  0.00000000000E+00 0.  1.
</event>
<event>
 7    1  0.3981356E-008  0.4614232E+02  0.7816164E-02  0.1320468E+00
        -11   -1    0    0    0    0  0.00000000000E+00  0.00000000000E+00  0.45593999997E+02  0.45594000000E+02  0.51100000000E-03 0.  1.
         11   -1    0    0    0    0 -0.00000000000E+00 -0.00000000000E+00 -0.45593999997E+02  0.45594000000E+02  0.51100000000E-03 0. -1.
    9900012    2    1    2    0    0  0.31764695152E+02  0.27285226937E+02 -0.16602218913E+02  0.46142321629E+02  0.10000035268E+02 0.  0.
        -12    1    1    2    0    0 -0.31764695152E+02 -0.27285226937E+02  0.16602218913E+02  0.45045678371E+02  0.00000000000E+00 0.  1.
         11    1    3    3    0    0  0.88209072170E+01  0.53935248953E+01 -0.62509260439E+01  0.12081911752E+02  0.51100000000E-03 0. -1.
        -11    1    3    3    0    0  0.35363383718E+01  0.64522320009E+01 -0.43404949801E+01  0.85426508653E+01  0.51100000000E-03 0.  1.
         12    1    3    3    0    0  0.19407449563E+02  0.15439470041E+02 -0.60107978893E+01  0.25517759011E+02  0.00000000000E+00 0. -1.
</event>
<event>
 7    1  0.3981356E-008  0.4614232E+02  0.7816164E-02  0.1320468E+00
        -11   -1    0    0    0    0  0.00000000000E+00  0.00000000000E+00  0.45593999997E+02  0.45594000000E+02  0.51100000000E-03 0.  1.
         11   -1    0    0    0    0 -0.00000000000E+00 -0.00000000000E+00 -0.45593999997E+02  0.45594000000E+02  0.51100000000E-03 0. -1.
    9900012    2    1    2    0    0 -0.18724871761E+02 -0.38164107184E+02 -0.14899450724E+02  0.46142317283E+02  0.99999956383E+01 0.  0.
        -12    1    1    2    0    0  0.18724871761E+02  0.38164107184E+02  0.14899450724E+02  0.45045682717E+02  0.00000000000E+00 0.  1.
         11    1    3    3    0    0 -0.12948571008E+02 -0.22325534496E+02 -0.90425595151E+01  0.27347081463E+02  0.51100000000E-03 0. -1.
        -11    1    3    3    0    0 -0.33848868865E+01 -0.29413645286E+01 -0.29267579344E+01  0.53549039947E+01  0.51100000000E-03 0.  1.
        -12    1    3    3    0    0 -0.23914138671E+01 -0.12897208159E+02 -0.29301332740E+01  0.13440331825E+02  0.00000000000E+00 0.  1.
</event>
<event>
 7    1  0.3981356E-008  0.4614232E+02  0.7816164E-02  0.1320468E+00
        -11   -1    0    0    0    0  0.00000000000E+00  0.00000000000E+00  0.45593999997E+02  0.45594000000E+02  0.51100000000E-03 0.  1.
         11   -1    0    0    0    0 -0.00000000000E+00 -0.00000000000E+00 -0.45593999997E+02  0.45594000000E+02  0.51100000000E-03 0. -1.
    9900012    2    1    2    0    0  0.17757454736E+02 -0.36756132230E-01 -0.41397885647E+02  0.46142317790E+02  0.10000000260E+02 0.  0.
        -12    1    1    2    0    0 -0.17757454736E+02  0.36756132230E-01  0.41397885647E+02  0.45045682210E+02  0.00000000000E+00 0.  1.
         11    1    3    3    0    0  0.80580641524E+01 -0.52268061960E+00 -0.15199328065E+02  0.17211193068E+02  0.51100000000E-03 0. -1.
        -11    1    3    3    0    0  0.78011907725E+01 -0.10268216163E+01 -0.10911955811E+02  0.13453018992E+02  0.51100000000E-03 0.  1.
        -12    1    3    3    0    0  0.18981998115E+01  0.15127461037E+01 -0.15286601771E+02  0.15478105730E+02  0.00000000000E+00 0.  1.
</event>
<event>
 7    1  0.3981356E-008  0.4614232E+02  0.7816164E-02  0.1320468E+00
        -11   -1    0    0    0    0  0.00000000000E+00  0.00000000000E+00  0.45593999997E+02  0.45594000000E+02  0.51100000000E-03 0. -1.
         11   -1    0    0    0    0 -0.00000000000E+00 -0.00000000000E+00 -0.45593999997E+02  0.45594000000E+02  0.51100000000E-03 0.  1.
    9900012    2    1    2    0    0 -0.12864263707E+02  0.34316720987E+02  0.26191350445E+02  0.46142318097E+02  0.10000003060E+02 0.  0.
        -12    1    1    2    0    0  0.12864263707E+02 -0.34316720987E+02 -0.26191350445E+02  0.45045681903E+02  0.00000000000E+00 0.  1.
         11    1    3    3    0    0 -0.12074835321E+02  0.28104103374E+02  0.22594178110E+02  0.38028136415E+02  0.51100000000E-03 0. -1.
        -11    1    3    3    0    0 -0.17885399612E+01  0.59202775394E+01  0.27341463433E+01  0.67619610931E+01  0.51100000000E-03 0.  1.
        -12    1    3    3    0    0  0.99911157520E+00  0.29234007362E+00  0.86302599103E+00  0.13522205883E+01  0.00000000000E+00 0.  1.
</event>
<event>
 7    1  0.3981356E-008  0.4614232E+02  0.7816164E-02  0.1320468E+00
        -11   -1    0    0    0    0  0.00000000000E+00  0.00000000000E+00  0.45593999997E+02  0.45594000000E+02  0.51100000000E-03 0.  1.
         11   -1    0    0    0    0 -0.00000000000E+00 -0.00000000000E+00 -0.45593999997E+02  0.45594000000E+02  0.51100000000E-03 0. -1.
    9900012    2    1    2    0    0  0.33872431985E+02 -0.78161850867E+01 -0.28647498131E+02  0.46142317110E+02  0.99999940593E+01 0.  0.
        -12    1    1    2    0    0 -0.33872431985E+02  0.78161850867E+01  0.28647498131E+02  0.45045682890E+02  0.00000000000E+00 0.  1.
         11    1    3    3    0    0  0.14713348304E+02 -0.61372563955E+01 -0.84827628006E+01  0.18058399691E+02  0.51100000000E-03 0. -1.
        -11    1    3    3    0    0  0.38485787371E+01 -0.39750666078E+00 -0.22209209901E+01  0.44611725080E+01  0.51100000000E-03 0.  1.
         12    1    3    3    0    0  0.15310504943E+02 -0.12814220304E+01 -0.17943814341E+02  0.23622744911E+02  0.00000000000E+00 0. -1.
</event>
<event>
 7    1  0.3981356E-008  0.4614232E+02  0.7816164E-02  0.1320468E+00
        -11   -1    0    0    0    0  0.00000000000E+00  0.00000000000E+00  0.45593999997E+02  0.45594000000E+02  0.51100000000E-03 0.  1.
         11   -1    0    0    0    0 -0.00000000000E+00 -0.00000000000E+00 -0.45593999997E+02  0.45594000000E+02  0.51100000000E-03 0. -1.
    9900012    2    1    2    0    0 -0.21626422803E+02  0.26525197648E+02 -0.29288653341E+02  0.46142317765E+02  0.10000000035E+02 0.  0.
        -12    1    1    2    0    0  0.21626422803E+02 -0.26525197648E+02  0.29288653341E+02  0.45045682235E+02  0.00000000000E+00 0.  1.
         11    1    3    3    0    0 -0.37700352458E+01  0.68043417354E+01 -0.66304263884E+01  0.10221290846E+02  0.51100000000E-03 0. -1.
        -11    1    3    3    0    0 -0.16168121167E+02  0.15900439041E+02 -0.22174025991E+02  0.31716234528E+02  0.51100000000E-03 0.  1.
        -12    1    3    3    0    0 -0.16882663901E+01  0.38204168715E+01 -0.48420096185E+00  0.42047923906E+01  0.00000000000E+00 0.  1.
</event>
<event>
 7    1  0.3981356E-008  0.4614232E+02  0.7816164E-02  0.1320468E+00
        -11   -1    0    0    0    0  0.00000000000E+00  0.00000000000E+00  0.45593999997E+02  0.45594000000E+02  0.51100000000E-03 0.  1.
         11   -1    0    0    0    0 -0.00000000000E+00 -0.00000000000E+00 -0.45593999997E+02  0.45594000000E+02  0.51100000000E-03 0. -1.
    9900012    2    1    2    0    0  0.84098224877E+00  0.34741203756E+02 -0.28661035388E+02  0.46142318308E+02  0.10000004991E+02 0.  0.
        -12    1    1    2    0    0 -0.84098224877E+00 -0.34741203756E+02  0.28661035388E+02  0.45045681692E+02  0.00000000000E+00 0.  1.
         11    1    3    3    0    0 -0.14734231278E+01  0.18799603124E+02 -0.16884172671E+02  0.25311486333E+02  0.51100000000E-03 0. -1.
        -11    1    3    3    0    0 -0.10119486014E+01  0.13074030689E+01 -0.30531572851E+01  0.34720472959E+01  0.51100000000E-03 0.  1.
        -12    1    3    3    0    0  0.33263539780E+01  0.14634197563E+02 -0.87237054325E+01  0.17358784680E+02  0.00000000000E+00 0.  1.
</event>
<event>
 7    1  0.3981356E-008  0.4614231E+02  0.7816164E-02  0.1320468E+00
        -11   -1    0    0    0    0  0.00000000000E+00  0.00000000000E+00  0.45593999997E+02  0.45594000000E+02  0.51100000000E-03 0.  1.
         11   -1    0    0    0    0 -0.00000000000E+00 -0.00000000000E+00 -0.45593999997E+02  0.45594000000E+02  0.51100000000E-03 0. -1.
    9900012    2    1    2    0    0 -0.41183122324E+02  0.95171909608E+01 -0.15572005382E+02  0.46142313860E+02  0.99999644295E+01 0.  0.
        -12    1    1    2    0    0  0.41183122324E+02 -0.95171909608E+01  0.15572005382E+02  0.45045686140E+02  0.00000000000E+00 0.  1.
         11    1    3    3    0    0 -0.16669996577E+02  0.59431552582E+01 -0.49965274506E+01  0.18389539611E+02  0.51100000000E-03 0. -1.
        -11    1    3    3    0    0 -0.39124835673E+01 -0.13974252512E+01 -0.34332027124E+01  0.53895460033E+01  0.51100000000E-03 0.  1.
         12    1    3    3    0    0 -0.20600642180E+02  0.49714609538E+01 -0.71422752191E+01  0.22363228246E+02  0.00000000000E+00 0. -1.
</event>
<event>
 7    1  0.3981356E-008  0.4614232E+02  0.7816164E-02  0.1320468E+00
        -11   -1    0    0    0    0  0.00000000000E+00  0.00000000000E+00  0.45593999997E+02  0.45594000000E+02  0.51100000000E-03 0.  1.
         11   -1    0    0    0    0 -0.00000000000E+00 -0.00000000000E+00 -0.45593999997E+02  0.45594000000E+02  0.51100000000E-03 0. -1.
    9900012    2    1    2    0    0 -0.24934814618E+02  0.31144794480E+02 -0.20913398912E+02  0.46142318106E+02  0.10000003148E+02 0.  0.
        -12    1    1    2    0    0  0.24934814618E+02 -0.31144794480E+02  0.20913398912E+02  0.45045681894E+02  0.00000000000E+00 0.  1.
         11    1    3    3    0    0 -0.20818352445E+02  0.21357285443E+02 -0.18596527570E+02  0.35147806161E+02  0.51100000000E-03 0. -1.
        -11    1    3    3    0    0 -0.16615446072E+01  0.24348805225E+01 -0.17767796305E+00  0.29531243388E+01  0.51100000000E-03 0.  1.
         12    1    3    3    0    0 -0.24549175652E+01  0.73526285140E+01 -0.21391933793E+01  0.80413876061E+01  0.00000000000E+00 0. -1.
</event>
<event>
 7    1  0.3981356E-008  0.4614232E+02  0.7816164E-02  0.1320468E+00
        -11   -1    0    0    0    0  0.00000000000E+00  0.00000000000E+00  0.45593999997E+02  0.45594000000E+02  0.51100000000E-03 0. -1.
         11   -1    0    0    0    0 -0.00000000000E+00 -0.00000000000E+00 -0.45593999997E+02  0.45594000000E+02  0.51100000000E-03 0.  1.
    9900012    2    1    2    0    0 -0.21132181892E+02  0.99312431673E+01  0.38521614697E+02  0.46142317619E+02  0.99999986997E+01 0.  0.
        -12    1    1    2    0    0  0.21132181892E+02 -0.99312431673E+01 -0.38521614697E+02  0.45045682381E+02  0.00000000000E+00 0.  1.
         11    1    3    3    0    0 -0.30232540869E+01  0.15681564249E+01  0.84976874164E+01  0.91547731559E+01  0.51100000000E-03 0. -1.
        -11    1    3    3    0    0 -0.84023279247E+01 -0.43178529498E+00  0.10122622574E+02  0.13162562103E+02  0.51100000000E-03 0.  1.
        -12    1    3    3    0    0 -0.97065998809E+01  0.87948720374E+01  0.19901304706E+02  0.23824982359E+02  0.00000000000E+00 0.  1.
</event>
<event>
 7    1  0.3981356E-008  0.4614232E+02  0.7816164E-02  0.1320468E+00
        -11   -1    0    0    0    0  0.00000000000E+00  0.00000000000E+00  0.45593999997E+02  0.45594000000E+02  0.51100000000E-03 0. -1.
         11   -1    0    0    0    0 -0.00000000000E+00 -0.00000000000E+00 -0.45593999997E+02  0.45594000000E+02  0.51100000000E-03 0.  1.
    9900012    2    1    2    0    0 -0.33789321845E+01  0.44842117899E+02  0.26231231813E+01  0.46142317680E+02  0.99999992637E+01 0.  0.
        -12    1    1    2    0    0  0.33789321845E+01 -0.44842117899E+02 -0.26231231813E+01  0.45045682320E+02  0.00000000000E+00 0.  1.
         11    1    3    3    0    0 -0.26938570311E+01  0.10403443972E+02  0.16797634637E+01  0.10877045451E+02  0.51100000000E-03 0. -1.
        -11    1    3    3    0    0 -0.11057427817E+01  0.47626486633E+01 -0.23117433456E+01  0.54082942733E+01  0.51100000000E-03 0.  1.
         12    1    3    3    0    0  0.42066762830E+00  0.29676025264E+02  0.32551030631E+01  0.29856977956E+02  0.00000000000E+00 0. -1.
</event>
<event>
 7    1  0.3981356E-008  0.4614232E+02  0.7816164E-02  0.1320468E+00
        -11   -1    0    0    0    0  0.00000000000E+00  0.00000000000E+00  0.45593999997E+02  0.45594000000E+02  0.51100000000E-03 0.  1.
         11   -1    0    0    0    0 -0.00000000000E+00 -0.00000000000E+00 -0.45593999997E+02  0.45594000000E+02  0.51100000000E-03 0. -1.
    9900012    2    1    2    0    0  0.33189793972E+02 -0.29394018598E+02  0.79713803205E+01  0.46142315884E+02  0.99999828845E+01 0.  0.
        -12    1    1    2    0    0 -0.33189793972E+02  0.29394018598E+02 -0.79713803205E+01  0.45045684116E+02  0.00000000000E+00 0.  1.
         11    1    3    3    0    0  0.45860314056E+01 -0.65769300809E+00  0.10238027473E+01  0.47447251208E+01  0.51100000000E-03 0. -1.
        -11    1    3    3    0    0  0.22427488008E+02 -0.20308919971E+02  0.64577271977E+01  0.30937787405E+02  0.51100000000E-03 0.  1.
        -12    1    3    3    0    0  0.61762745584E+01 -0.84274056195E+01  0.48985037545E+00  0.10459803358E+02  0.00000000000E+00 0.  1.
</event>
<event>
 7    1  0.3981356E-008  0.4614231E+02  0.7816164E-02  0.1320468E+00
        -11   -1    0    0    0    0  0.00000000000E+00  0.00000000000E+00  0.45593999997E+02  0.45594000000E+02  0.51100000000E-03 0.  1.
         11   -1    0    0    0    0 -0.00000000000E+00 -0.00000000000E+00 -0.45593999997E+02  0.45594000000E+02  0.51100000000E-03 0. -1.
    9900012    2    1    2    0    0 -0.27946276262E+02 -0.21417927589E+02 -0.28096125483E+02  0.46142309348E+02  0.99999232813E+01 0.  0.
        -12    1    1    2    0    0  0.27946276262E+02  0.21417927589E+02  0.28096125483E+02  0.45045690652E+02  0.00000000000E+00 0.  1.
         11    1    3    3    0    0 -0.63096981127E+01 -0.24254119308E+01 -0.59487856228E+01  0.90046079290E+01  0.51100000000E-03 0. -1.
        -11    1    3    3    0    0 -0.83665017411E+01 -0.38142106684E+01 -0.40571119839E+01  0.10050209566E+02  0.51100000000E-03 0.  1.
        -12    1    3    3    0    0 -0.13270076409E+02 -0.15178304990E+02 -0.18090227876E+02  0.27087491853E+02  0.00000000000E+00 0.  1.
</event>
<event>
 7    1  0.3981356E-008  0.4614232E+02  0.7816164E-02  0.1320468E+00
        -11   -1    0    0    0    0  0.00000000000E+00  0.00000000000E+00  0.45593999997E+02  0.45594000000E+02  0.51100000000E-03 0.  1.
         11   -1    0    0    0    0 -0.00000000000E+00 -0.00000000000E+00 -0.45593999997E+02  0.45594000000E+02  0.51100000000E-03 0. -1.
    9900012    2    1    2    0    0 -0.21270963840E+02  0.35883272335E+02 -0.17001477725E+02  0.46142318953E+02  0.10000010866E+02 0.  0.
        -12    1    1    2    0    0  0.21270963840E+02 -0.35883272335E+02  0.17001477725E+02  0.45045681047E+02  0.00000000000E+00 0.  1.
         11    1    3    3    0    0 -0.75882177710E+01  0.94300764075E+01 -0.63772932435E+01  0.13681274040E+02  0.51100000000E-03 0. -1.
        -11    1    3    3    0    0 -0.41841367578E+01  0.26123349103E+01 -0.25787377555E+01  0.55660742687E+01  0.51100000000E-03 0.  1.
         12    1    3    3    0    0 -0.94986093115E+01  0.23840861017E+02 -0.80454467265E+01  0.26894970644E+02  0.00000000000E+00 0. -1.
</event>
<event>
 7    1  0.3981356E-008  0.4614232E+02  0.7816164E-02  0.1320468E+00
        -11   -1    0    0    0    0  0.00000000000E+00  0.00000000000E+00  0.45593999997E+02  0.45594000000E+02  0.51100000000E-03 0.  1.
         11   -1    0    0    0    0 -0.00000000000E+00 -0.00000000000E+00 -0.45593999997E+02  0.45594000000E+02  0.51100000000E-03 0. -1.
    9900012    2    1    2    0    0  0.89994978906E+01 -0.31614812354E+02 -0.30799776185E+02  0.46142317238E+02  0.99999952298E+01 0.  0.
        -12    1    1    2    0    0 -0.89994978906E+01  0.31614812354E+02  0.30799776185E+02  0.45045682762E+02  0.00000000000E+00 0.  1.
         11    1    3    3    0    0  0.55544331033E+00 -0.65629625556E+01 -0.39325657456E+01  0.76711191088E+01  0.51100000000E-03 0. -1.
        -11    1    3    3    0    0  0.57472488660E+00 -0.86411872191E+01 -0.49227215099E+01  0.99616069274E+01  0.51100000000E-03 0.  1.
         12    1    3    3    0    0  0.78693296937E+01 -0.16410662579E+02 -0.21944488930E+02  0.28509591202E+02  0.00000000000E+00 0. -1.
</event>
<event>
 7    1  0.3981356E-008  0.4614232E+02  0.7816164E-02  0.1320468E+00
        -11   -1    0    0    0    0  0.00000000000E+00  0.00000000000E+00  0.45593999997E+02  0.45594000000E+02  0.51100000000E-03 0.  1.
         11   -1    0    0    0    0 -0.00000000000E+00 -0.00000000000E+00 -0.45593999997E+02  0.45594000000E+02  0.51100000000E-03 0. -1.
    9900012    2    1    2    0    0 -0.19454018854E+02  0.35374265374E+02 -0.19982892327E+02  0.46142317787E+02  0.10000000236E+02 0.  0.
        -12    1    1    2    0    0  0.19454018854E+02 -0.35374265374E+02  0.19982892327E+02  0.45045682213E+02  0.00000000000E+00 0.  1.
         11    1    3    3    0    0 -0.14201745769E+02  0.20046015365E+02 -0.14131981577E+02  0.28341581086E+02  0.51100000000E-03 0. -1.
        -11    1    3    3    0    0 -0.28328101939E+01  0.75610423744E+01 -0.52758128147E+01  0.96451219017E+01  0.51100000000E-03 0.  1.
        -12    1    3    3    0    0 -0.24194628905E+01  0.77672076347E+01 -0.57509793479E+00  0.81556147992E+01  0.00000000000E+00 0.  1.
</event>
<event>
 7    1  0.3981356E-008  0.4614232E+02  0.7816164E-02  0.1320468E+00
        -11   -1    0    0    0    0  0.00000000000E+00  0.00000000000E+00  0.45593999997E+02  0.45594000000E+02  0.51100000000E-03 0.  1.
         11   -1    0    0    0    0 -0.00000000000E+00 -0.00000000000E+00 -0.45593999997E+02  0.45594000000E+02  0.51100000000E-03 0. -1.
    9900012    2    1    2    0    0 -0.44726024186E+02  0.45132139198E+01 -0.28857107528E+01  0.46142315791E+02  0.99999820327E+01 0.  0.
        -12    1    1    2    0    0  0.44726024186E+02 -0.45132139198E+01  0.28857107528E+01  0.45045684209E+02  0.00000000000E+00 0.  1.
         11    1    3    3    0    0 -0.46697817453E+01  0.16504089890E+01 -0.19916060062E+01  0.53382774492E+01  0.51100000000E-03 0.  1.
        -11    1    3    3    0    0 -0.20273657011E+02 -0.10568794199E+01 -0.30221725284E+01  0.20524904135E+02  0.51100000000E-03 0. -1.
        -12    1    3    3    0    0 -0.19782585430E+02  0.39196843507E+01  0.21280677819E+01  0.20279134207E+02  0.00000000000E+00 0.  1.
</event>
<event>
 7    1  0.3981356E-008  0.4614232E+02  0.7816164E-02  0.1320468E+00
        -11   -1    0    0    0    0  0.00000000000E+00  0.00000000000E+00  0.45593999997E+02  0.45594000000E+02  0.51100000000E-03 0. -1.
         11   -1    0    0    0    0 -0.00000000000E+00 -0.00000000000E+00 -0.45593999997E+02  0.45594000000E+02  0.51100000000E-03 0.  1.
    9900012    2    1    2    0    0 -0.21126375968E+02  0.35894808963E+02  0.17156700275E+02  0.46142318339E+02  0.10000005266E+02 0.  0.
        -12    1    1    2    0    0  0.21126375968E+02 -0.35894808963E+02 -0.17156700275E+02  0.45045681661E+02  0.00000000000E+00 0.  1.
         11    1    3    3    0    0 -0.61585323996E+01  0.85862487758E+01  0.42418041874E+01  0.11386135972E+02  0.51100000000E-03 0. -1.
        -11    1    3    3    0    0 -0.32304514508E+00  0.12514876324E+01 -0.11425344480E+01  0.17250984568E+01  0.51100000000E-03 0.  1.
         12    1    3    3    0    0 -0.14644798424E+02  0.26057072554E+02  0.14057430535E+02  0.33031083909E+02  0.00000000000E+00 0. -1.
</event>
<event>
 7    1  0.3981356E-008  0.4614232E+02  0.7816164E-02  0.1320468E+00
        -11   -1    0    0    0    0  0.00000000000E+00  0.00000000000E+00  0.45593999997E+02  0.45594000000E+02  0.51100000000E-03 0. -1.
         11   -1    0    0    0    0 -0.00000000000E+00 -0.00000000000E+00 -0.45593999997E+02  0.45594000000E+02  0.51100000000E-03 0.  1.
    9900012    2    1    2    0    0 -0.37712064809E+02 -0.22236051463E+02  0.10605275588E+02  0.46142315556E+02  0.99999798889E+01 0.  0.
        -12    1    1    2    0    0  0.37712064809E+02  0.22236051463E+02 -0.10605275588E+02  0.45045684444E+02  0.00000000000E+00 0.  1.
         11    1    3    3    0    0 -0.23274185593E+02 -0.13520078784E+02  0.98048556074E+01  0.28646386143E+02  0.51100000000E-03 0. -1.
        -11    1    3    3    0    0 -0.56971186058E+00  0.45726076952E+00 -0.38583412713E+00  0.82615207450E+00  0.51100000000E-03 0.  1.
         12    1    3    3    0    0 -0.13868167355E+02 -0.91732334482E+01  0.11862541075E+01  0.16669777338E+02  0.00000000000E+00 0. -1.
</event>
<event>
 7    1  0.3981356E-008  0.4614232E+02  0.7816164E-02  0.1320468E+00
        -11   -1    0    0    0    0  0.00000000000E+00  0.00000000000E+00  0.45593999997E+02  0.45594000000E+02  0.51100000000E-03 0.  1.
         11   -1    0    0    0    0 -0.00000000000E+00 -0.00000000000E+00 -0.45593999997E+02  0.45594000000E+02  0.51100000000E-03 0. -1.
    9900012    2    1    2    0    0 -0.21510191676E+02 -0.21964373256E+02 -0.32924026024E+02  0.46142317320E+02  0.99999959804E+01 0.  0.
        -12    1    1    2    0    0  0.21510191676E+02  0.21964373256E+02  0.32924026024E+02  0.45045682680E+02  0.00000000000E+00 0.  1.
         11    1    3    3    0    0 -0.76294813145E+01 -0.74022639226E+01 -0.18325230721E+02  0.21185291538E+02  0.51100000000E-03 0. -1.
        -11    1    3    3    0    0 -0.20180962168E+01 -0.11125396414E+01 -0.15118810719E+01  0.27561279779E+01  0.51100000000E-03 0.  1.
        -12    1    3    3    0    0 -0.11862614144E+02 -0.13449569692E+02 -0.13086914231E+02  0.22200897804E+02  0.00000000000E+00 0.  1.
</event>
<event>
 7    1  0.3981356E-008  0.4614232E+02  0.7816164E-02  0.1320468E+00
        -11   -1    0    0    0    0  0.00000000000E+00  0.00000000000E+00  0.45593999997E+02  0.45594000000E+02  0.51100000000E-03 0.  1.
         11   -1    0    0    0    0 -0.00000000000E+00 -0.00000000000E+00 -0.45593999997E+02  0.45594000000E+02  0.51100000000E-03 0. -1.
    9900012    2    1    2    0    0 -0.35660850630E+02  0.33573813697E+01 -0.27315658843E+02  0.46142317684E+02  0.99999992980E+01 0.  0.
        -12    1    1    2    0    0  0.35660850630E+02 -0.33573813697E+01  0.27315658843E+02  0.45045682316E+02  0.00000000000E+00 0.  1.
         11    1    3    3    0    0 -0.26018732015E+02  0.32559061940E+00 -0.23517372826E+02  0.35073455060E+02  0.51100000000E-03 0. -1.
        -11    1    3    3    0    0 -0.19423440435E+01 -0.32194215358E+00 -0.40078220842E+00  0.20092221812E+01  0.51100000000E-03 0.  1.
         12    1    3    3    0    0 -0.76997745708E+01  0.33537329039E+01 -0.33975038084E+01  0.90596404432E+01  0.00000000000E+00 0. -1.
</event>
<event>
 7    1  0.3981356E-008  0.4614232E+02  0.7816164E-02  0.1320468E+00
        -11   -1    0    0    0    0  0.00000000000E+00  0.00000000000E+00  0.45593999997E+02  0.45594000000E+02  0.51100000000E-03 0. -1.
         11   -1    0    0    0    0 -0.00000000000E+00 -0.00000000000E+00 -0.45593999997E+02  0.45594000000E+02  0.51100000000E-03 0.  1.
    9900012    2    1    2    0    0 -0.26217252151E+00  0.42887051453E+02  0.13774816594E+02  0.46142317755E+02  0.99999999401E+01 0.  0.
        -12    1    1    2    0    0  0.26217252151E+00 -0.42887051453E+02 -0.13774816594E+02  0.45045682245E+02  0.00000000000E+00 0.  1.
         11    1    3    3    0    0  0.12816680385E+01  0.10410351848E+02  0.26922680797E+01  0.10828961457E+02  0.51100000000E-03 0. -1.
        -11    1    3    3    0    0 -0.29107625027E+00  0.32221658583E+02  0.10374316930E+02  0.33851830959E+02  0.51100000000E-03 0.  1.
        -12    1    3    3    0    0 -0.12527643097E+01  0.25504102145E+00  0.70823158449E+00  0.14615253387E+01  0.00000000000E+00 0.  1.
</event>
<event>
 7    1  0.3981356E-008  0.4614232E+02  0.7816164E-02  0.1320468E+00
        -11   -1    0    0    0    0  0.00000000000E+00  0.00000000000E+00  0.45593999997E+02  0.45594000000E+02  0.51100000000E-03 0.  1.
         11   -1    0    0    0    0 -0.00000000000E+00 -0.00000000000E+00 -0.45593999997E+02  0.45594000000E+02  0.51100000000E-03 0. -1.
    9900012    2    1    2    0    0  0.33060684251E+02 -0.26815884581E+02 -0.14731354848E+02  0.46142319578E+02  0.10000016564E+02 0.  0.
        -12    1    1    2    0    0 -0.33060684251E+02  0.26815884581E+02  0.14731354848E+02  0.45045680422E+02  0.00000000000E+00 0.  1.
         11    1    3    3    0    0  0.21526920148E+02 -0.17319473883E+02 -0.12636228582E+02  0.30381684280E+02  0.51100000000E-03 0. -1.
        -11    1    3    3    0    0  0.28049426116E+01 -0.50236798774E+01 -0.11578343915E+00  0.57548647796E+01  0.51100000000E-03 0.  1.
         12    1    3    3    0    0  0.87288214923E+01 -0.44727308214E+01 -0.19793428265E+01  0.10005770519E+02  0.00000000000E+00 0. -1.
</event>
<event>
 7    1  0.3981356E-008  0.4614232E+02  0.7816164E-02  0.1320468E+00
        -11   -1    0    0    0    0  0.00000000000E+00  0.00000000000E+00  0.45593999997E+02  0.45594000000E+02  0.51100000000E-03 0.  1.
         11   -1    0    0    0    0 -0.00000000000E+00 -0.00000000000E+00 -0.45593999997E+02  0.45594000000E+02  0.51100000000E-03 0. -1.
    9900012    2    1    2    0    0  0.12879450494E+02 -0.17818384146E+02 -0.39315880928E+02  0.46142317058E+02  0.99999935870E+01 0.  0.
        -12    1    1    2    0    0 -0.12879450494E+02  0.17818384146E+02  0.39315880928E+02  0.45045682942E+02  0.00000000000E+00 0.  1.
         11    1    3    3    0    0  0.67916575113E+01 -0.76171185722E+01 -0.12891353361E+02  0.16441839886E+02  0.51100000000E-03 0. -1.
        -11    1    3    3    0    0 -0.50324623599E-01  0.10295182266E+00  0.34678741083E+00  0.36523063257E+00  0.51100000000E-03 0.  1.
        -12    1    3    3    0    0  0.61381176065E+01 -0.10304217397E+02 -0.26771314977E+02  0.29335246539E+02  0.00000000000E+00 0.  1.
</event>
<event>
 7    1  0.3981356E-008  0.4614233E+02  0.7816164E-02  0.1320468E+00
        -11   -1    0    0    0    0  0.00000000000E+00  0.00000000000E+00  0.45593999997E+02  0.45594000000E+02  0.51100000000E-03 0.  1.
         11   -1    0    0    0    0 -0.00000000000E+00 -0.00000000000E+00 -0.45593999997E+02  0.45594000000E+02  0.51100000000E-03 0. -1.
    9900012    2    1    2    0    0  0.58043981624E+01 -0.17286682302E+02 -0.41189708867E+02  0.46142328293E+02  0.10000096035E+02 0.  0.
        -12    1    1    2    0    0 -0.58043981624E+01  0.17286682302E+02  0.41189708867E+02  0.45045671707E+02  0.00000000000E+00 0.  1.
         11    1    3    3    0    0 -0.91724409994E+00 -0.12529966696E+00 -0.72508302283E+00  0.11759176827E+01  0.51100000000E-03 0. -1.
        -11    1    3    3    0    0  0.33413176864E+01 -0.17282418589E+01 -0.91148771939E+01  0.98606394481E+01  0.51100000000E-03 0.  1.
         12    1    3    3    0    0  0.33803245759E+01 -0.15433140776E+02 -0.31349748650E+02  0.35105771162E+02  0.00000000000E+00 0. -1.
</event>
<event>
 7    1  0.3981356E-008  0.4614232E+02  0.7816164E-02  0.1320468E+00
        -11   -1    0    0    0    0  0.00000000000E+00  0.00000000000E+00  0.45593999997E+02  0.45594000000E+02  0.51100000000E-03 0. -1.
         11   -1    0    0    0    0 -0.00000000000E+00 -0.00000000000E+00 -0.45593999997E+02  0.45594000000E+02  0.51100000000E-03 0.  1.
    9900012    2    1    2    0    0 -0.28986547674E+02 -0.17870759343E+02  0.29487786576E+02  0.46142317158E+02  0.99999944997E+01 0.  0.
        -12    1    1    2    0    0  0.28986547674E+02  0.17870759343E+02 -0.29487786576E+02  0.45045682842E+02  0.00000000000E+00 0.  1.
         11    1    3    3    0    0 -0.43724817394E+01 -0.19013435730E+01  0.19537734474E+01  0.51527599293E+01  0.51100000000E-03 0. -1.
        -11    1    3    3    0    0 -0.14683571145E+02 -0.52809841303E+01  0.12054817110E+02  0.19718384082E+02  0.51100000000E-03 0.  1.
        -12    1    3    3    0    0 -0.99304947891E+01 -0.10688431639E+02  0.15479196019E+02  0.21271173147E+02  0.00000000000E+00 0.  1.
</event>
<event>
 7    1  0.3981356E-008  0.4614232E+02  0.7816164E-02  0.1320468E+00
        -11   -1    0    0    0    0  0.00000000000E+00  0.00000000000E+00  0.45593999997E+02  0.45594000000E+02  0.51100000000E-03 0.  1.
         11   -1    0    0    0    0 -0.00000000000E+00 -0.00000000000E+00 -0.45593999997E+02  0.45594000000E+02  0.51100000000E-03 0. -1.
    9900012    2    1    2    0    0  0.13311876742E+02  0.26062287510E+02 -0.34244190734E+02  0.46142317724E+02  0.99999996655E+01 0.  0.
        -12    1    1    2    0    0 -0.13311876742E+02 -0.26062287510E+02  0.34244190734E+02  0.45045682276E+02  0.00000000000E+00 0.  1.
         11    1    3    3    0    0  0.22504625524E+00  0.38151602729E+01 -0.50815294634E+01  0.63583044653E+01  0.51100000000E-03 0. -1.
        -11    1    3    3    0    0  0.10197081370E+00  0.63957283582E+01 -0.51141680755E+01  0.81896553434E+01  0.51100000000E-03 0.  1.
         12    1    3    3    0    0  0.12984859673E+02  0.15851398879E+02 -0.24048493195E+02  0.31594357916E+02  0.00000000000E+00 0. -1.
</event>
<event>
 7    1  0.3981356E-008  0.4614232E+02  0.7816164E-02  0.1320468E+00
        -11   -1    0    0    0    0  0.00000000000E+00  0.00000000000E+00  0.45593999997E+02  0.45594000000E+02  0.51100000000E-03 0.  1.
         11   -1    0    0    0    0 -0.00000000000E+00 -0.00000000000E+00 -0.45593999997E+02  0.45594000000E+02  0.51100000000E-03 0. -1.
    9900012    2    1    2    0    0 -0.39562039420E+02  0.19859053651E+01 -0.21447951466E+02  0.46142318683E+02  0.10000008411E+02 0.  0.
        -12    1    1    2    0    0  0.39562039420E+02 -0.19859053651E+01  0.21447951466E+02  0.45045681317E+02  0.00000000000E+00 0.  1.
         11    1    3    3    0    0 -0.21927405741E+01  0.20783904379E+01 -0.17752246724E+00  0.30264389181E+01  0.51100000000E-03 0. -1.
        -11    1    3    3    0    0 -0.23281515033E+02 -0.15800692064E+01 -0.13490309293E+02  0.26953923759E+02  0.51100000000E-03 0.  1.
         12    1    3    3    0    0 -0.14087783813E+02  0.14875841337E+01 -0.77801197054E+01  0.16161956006E+02  0.00000000000E+00 0. -1.
</event>
<event>
 7    1  0.3981356E-008  0.4614232E+02  0.7816164E-02  0.1320468E+00
        -11   -1    0    0    0    0  0.00000000000E+00  0.00000000000E+00  0.45593999997E+02  0.45594000000E+02  0.51100000000E-03 0.  1.
         11   -1    0    0    0    0 -0.00000000000E+00 -0.00000000000E+00 -0.45593999997E+02  0.45594000000E+02  0.51100000000E-03 0. -1.
    9900012    2    1    2    0    0 -0.27616665499E+02 -0.28060603684E+02 -0.21886885517E+02  0.46142318187E+02  0.10000003882E+02 0.  0.
        -12    1    1    2    0    0  0.27616665499E+02  0.28060603684E+02  0.21886885517E+02  0.45045681813E+02  0.00000000000E+00 0.  1.
         11    1    3    3    0    0 -0.48149970462E+01 -0.47374137558E+01 -0.10167943822E+01  0.68308972123E+01  0.51100000000E-03 0. -1.
        -11    1    3    3    0    0  0.16608331657E+00  0.32924501631E-01  0.27463875168E+00  0.32263663136E+00  0.51100000000E-03 0.  1.
         12    1    3    3    0    0 -0.22967751769E+02 -0.23356114430E+02 -0.21144729886E+02  0.38988784343E+02  0.00000000000E+00 0. -1.
</event>
<event>
 7    1  0.3981356E-008  0.4614232E+02  0.7816164E-02  0.1320468E+00
        -11   -1    0    0    0    0  0.00000000000E+00  0.00000000000E+00  0.45593999997E+02  0.45594000000E+02  0.51100000000E-03 0. -1.
         11   -1    0    0    0    0 -0.00000000000E+00 -0.00000000000E+00 -0.45593999997E+02  0.45594000000E+02  0.51100000000E-03 0.  1.
    9900012    2    1    2    0    0 -0.26661017059E+02 -0.15248667144E+02  0.32951203021E+02  0.46142318067E+02  0.10000002787E+02 0.  0.
        -12    1    1    2    0    0  0.26661017059E+02  0.15248667144E+02 -0.32951203021E+02  0.45045681933E+02  0.00000000000E+00 0.  1.
         11    1    3    3    0    0 -0.20677936858E+01 -0.36434808519E+01  0.26656271807E+01  0.49655102430E+01  0.51100000000E-03 0. -1.
        -11    1    3    3    0    0 -0.12963883462E+01  0.85197642740E-01  0.38020612641E+01  0.40179038689E+01  0.51100000000E-03 0.  1.
         12    1    3    3    0    0 -0.23296835027E+02 -0.11690383935E+02  0.26483514576E+02  0.37158903955E+02  0.00000000000E+00 0. -1.
</event>
<event>
 7    1  0.3981356E-008  0.4614232E+02  0.7816164E-02  0.1320468E+00
        -11   -1    0    0    0    0  0.00000000000E+00  0.00000000000E+00  0.45593999997E+02  0.45594000000E+02  0.51100000000E-03 0.  1.
         11   -1    0    0    0    0 -0.00000000000E+00 -0.00000000000E+00 -0.45593999997E+02  0.45594000000E+02  0.51100000000E-03 0. -1.
    9900012    2    1    2    0    0 -0.44890211265E+01 -0.18753296316E+02 -0.40709655885E+02  0.46142317458E+02  0.99999972383E+01 0.  0.
        -12    1    1    2    0    0  0.44890211265E+01  0.18753296316E+02  0.40709655885E+02  0.45045682542E+02  0.00000000000E+00 0.  1.
         11    1    3    3    0    0 -0.82028067508E+00 -0.65874439948E+01 -0.87033933134E+01  0.10946064781E+02  0.51100000000E-03 0. -1.
        -11    1    3    3    0    0  0.23150856066E+00  0.48406541467E+00 -0.59123151787E+01  0.59366140663E+01  0.51100000000E-03 0.  1.
        -12    1    3    3    0    0 -0.39002490120E+01 -0.12649917736E+02 -0.26093947393E+02  0.29259638611E+02  0.00000000000E+00 0.  1.
</event>
<event>
 7    1  0.3981356E-008  0.4614232E+02  0.7816164E-02  0.1320468E+00
        -11   -1    0    0    0    0  0.00000000000E+00  0.00000000000E+00  0.45593999997E+02  0.45594000000E+02  0.51100000000E-03 0. -1.
         11   -1    0    0    0    0 -0.00000000000E+00 -0.00000000000E+00 -0.45593999997E+02  0.45594000000E+02  0.51100000000E-03 0.  1.
    9900012    2    1    2    0    0 -0.26224804589E+02  0.32656965152E+02  0.16579981326E+02  0.46142317305E+02  0.99999958399E+01 0.  0.
        -12    1    1    2    0    0  0.26224804589E+02 -0.32656965152E+02 -0.16579981326E+02  0.45045682695E+02  0.00000000000E+00 0.  1.
         11    1    3    3    0    0 -0.99892058509E+01  0.86309183832E+01  0.42566261790E+01  0.13870683197E+02  0.51100000000E-03 0. -1.
        -11    1    3    3    0    0 -0.15399843575E+02  0.22993336858E+02  0.13219351952E+02  0.30669202603E+02  0.51100000000E-03 0.  1.
        -12    1    3    3    0    0 -0.83575516311E+00  0.10327099114E+01 -0.89599680497E+00  0.16024315050E+01  0.00000000000E+00 0.  1.
</event>
<event>
 7    1  0.3981356E-008  0.4614232E+02  0.7816164E-02  0.1320468E+00
        -11   -1    0    0    0    0  0.00000000000E+00  0.00000000000E+00  0.45593999997E+02  0.45594000000E+02  0.51100000000E-03 0. -1.
         11   -1    0    0    0    0 -0.00000000000E+00 -0.00000000000E+00 -0.45593999997E+02  0.45594000000E+02  0.51100000000E-03 0.  1.
    9900012    2    1    2    0    0 -0.17787442477E+02  0.27600884639E+02  0.30836854474E+02  0.46142317226E+02  0.99999951203E+01 0.  0.
        -12    1    1    2    0    0  0.17787442477E+02 -0.27600884639E+02 -0.30836854474E+02  0.45045682774E+02  0.00000000000E+00 0.  1.
         11    1    3    3    0    0 -0.31525917411E+01  0.12048831301E+02  0.10024199126E+02  0.15987424395E+02  0.51100000000E-03 0. -1.
        -11    1    3    3    0    0 -0.14481454877E+02  0.14382370333E+02  0.18445329480E+02  0.27509912606E+02  0.51100000000E-03 0.  1.
        -12    1    3    3    0    0 -0.15339585882E+00  0.11696830059E+01  0.23673258683E+01  0.26449802249E+01  0.00000000000E+00 0.  1.
</event>
<event>
 7    1  0.3981356E-008  0.4614232E+02  0.7816164E-02  0.1320468E+00
        -11   -1    0    0    0    0  0.00000000000E+00  0.00000000000E+00  0.45593999997E+02  0.45594000000E+02  0.51100000000E-03 0.  1.
         11   -1    0    0    0    0 -0.00000000000E+00 -0.00000000000E+00 -0.45593999997E+02  0.45594000000E+02  0.51100000000E-03 0. -1.
    9900012    2    1    2    0    0  0.16982808549E+02 -0.48080579281E+01 -0.41443700200E+02  0.46142317704E+02  0.99999994808E+01 0.  0.
        -12    1    1    2    0    0 -0.16982808549E+02  0.48080579281E+01  0.41443700200E+02  0.45045682296E+02  0.00000000000E+00 0.  1.
         11    1    3    3    0    0 -0.26358163313E+00  0.21444027375E+00 -0.95278674052E+00  0.10115645023E+01  0.51100000000E-03 0. -1.
        -11    1    3    3    0    0 -0.60433407586E+00  0.52827750794E+00 -0.45362557774E+01  0.46067248170E+01  0.51100000000E-03 0.  1.
         12    1    3    3    0    0  0.17850724258E+02 -0.55507757098E+01 -0.35954657682E+02  0.40524028385E+02  0.00000000000E+00 0. -1.
</event>
<event>
 7    1  0.3981356E-008  0.4614232E+02  0.7816164E-02  0.1320468E+00
        -11   -1    0    0    0    0  0.00000000000E+00  0.00000000000E+00  0.45593999997E+02  0.45594000000E+02  0.51100000000E-03 0.  1.
         11   -1    0    0    0    0 -0.00000000000E+00 -0.00000000000E+00 -0.45593999997E+02  0.45594000000E+02  0.51100000000E-03 0. -1.
    9900012    2    1    2    0    0  0.27338724530E+02 -0.30728091339E+02 -0.18370957907E+02  0.46142317070E+02  0.99999936957E+01 0.  0.
        -12    1    1    2    0    0 -0.27338724530E+02  0.30728091339E+02  0.18370957907E+02  0.45045682930E+02  0.00000000000E+00 0.  1.
         11    1    3    3    0    0  0.17988442377E+02 -0.20738945558E+02 -0.11518750872E+02  0.29771959020E+02  0.51100000000E-03 0.  1.
        -11    1    3    3    0    0  0.75852837308E+01 -0.54438395886E+01 -0.21171771524E+01  0.95736282620E+01  0.51100000000E-03 0. -1.
        -12    1    3    3    0    0  0.17649984216E+01 -0.45453061925E+01 -0.47350298828E+01  0.67967297874E+01  0.00000000000E+00 0.  1.
</event>
<event>
 7    1  0.3981356E-008  0.4614231E+02  0.7816164E-02  0.1320468E+00
        -11   -1    0    0    0    0  0.00000000000E+00  0.00000000000E+00  0.45593999997E+02  0.45594000000E+02  0.51100000000E-03 0.  1.
         11   -1    0    0    0    0 -0.00000000000E+00 -0.00000000000E+00 -0.45593999997E+02  0.45594000000E+02  0.51100000000E-03 0. -1.
    9900012    2    1    2    0    0 -0.17424618003E+02 -0.41513645715E+02 -0.14539389851E+01  0.46142311731E+02  0.99999450129E+01 0.  0.
        -12    1    1    2    0    0  0.17424618003E+02  0.41513645715E+02  0.14539389851E+01  0.45045688269E+02  0.00000000000E+00 0.  1.
         11    1    3    3    0    0 -0.68052333630E+01 -0.18567564380E+02 -0.10907197502E+01  0.19805436576E+02  0.51100000000E-03 0. -1.
        -11    1    3    3    0    0 -0.97013637778E-01 -0.49392457695E+01  0.20363615263E+01  0.53434379331E+01  0.51100000000E-03 0.  1.
         12    1    3    3    0    0 -0.10522371002E+02 -0.18006835565E+02 -0.23995807612E+01  0.20993437222E+02  0.00000000000E+00 0. -1.
</event>
<event>
 7    1  0.3981356E-008  0.4614232E+02  0.7816164E-02  0.1320468E+00
        -11   -1    0    0    0    0  0.00000000000E+00  0.00000000000E+00  0.45593999997E+02  0.45594000000E+02  0.51100000000E-03 0. -1.
         11   -1    0    0    0    0 -0.00000000000E+00 -0.00000000000E+00 -0.45593999997E+02  0.45594000000E+02  0.51100000000E-03 0.  1.
    9900012    2    1    2    0    0 -0.19819182938E+02 -0.46490341400E+01  0.40183328821E+02  0.46142318232E+02  0.10000004296E+02 0.  0.
        -12    1    1    2    0    0  0.19819182938E+02  0.46490341400E+01 -0.40183328821E+02  0.45045681768E+02  0.00000000000E+00 0.  1.
         11    1    3    3    0    0 -0.64998119437E+01  0.32733550650E+00  0.22496080303E+02  0.23418546776E+02  0.51100000000E-03 0. -1.
        -11    1    3    3    0    0 -0.72812993180E+01 -0.21620069358E+01  0.90154311083E+01  0.11788536469E+02  0.51100000000E-03 0.  1.
         12    1    3    3    0    0 -0.60380716767E+01 -0.28143627107E+01  0.86718174095E+01  0.10935234987E+02  0.00000000000E+00 0. -1.
</event>
<event>
 7    1  0.3981356E-008  0.4614232E+02  0.7816164E-02  0.1320468E+00
        -11   -1    0    0    0    0  0.00000000000E+00  0.00000000000E+00  0.45593999997E+02  0.45594000000E+02  0.51100000000E-03 0. -1.
         11   -1    0    0    0    0 -0.00000000000E+00 -0.00000000000E+00 -0.45593999997E+02  0.45594000000E+02  0.51100000000E-03 0.  1.
    9900012    2    1    2    0    0 -0.29031717372E+02 -0.22016677814E+02  0.26486576211E+02  0.46142318354E+02  0.10000005411E+02 0.  0.
        -12    1    1    2    0    0  0.29031717372E+02  0.22016677814E+02 -0.26486576211E+02  0.45045681646E+02  0.00000000000E+00 0.  1.
         11    1    3    3    0    0 -0.24149684338E+01 -0.47051843518E+01  0.27773234558E+01  0.59736386030E+01  0.51100000000E-03 0. -1.
        -11    1    3    3    0    0 -0.74050931805E+01 -0.23622926509E+01  0.34739530736E+01  0.85137642556E+01  0.51100000000E-03 0.  1.
         12    1    3    3    0    0 -0.19211655757E+02 -0.14949200812E+02  0.20235299682E+02  0.31654915496E+02  0.00000000000E+00 0. -1.
</event>
<event>
 7    1  0.3981356E-008  0.4614232E+02  0.7816164E-02  0.1320468E+00
        -11   -1    0    0    0    0  0.00000000000E+00  0.00000000000E+00  0.45593999997E+02  0.45594000000E+02  0.51100000000E-03 0.  1.
         11   -1    0    0    0    0 -0.00000000000E+00 -0.00000000000E+00 -0.45593999997E+02  0.45594000000E+02  0.51100000000E-03 0. -1.
    9900012    2    1    2    0    0  0.15255051133E+02  0.30273112234E+02 -0.29663706037E+02  0.46142319128E+02  0.10000012464E+02 0.  0.
        -12    1    1    2    0    0 -0.15255051133E+02 -0.30273112234E+02  0.29663706037E+02  0.45045680872E+02  0.00000000000E+00 0.  1.
         11    1    3    3    0    0  0.12930933516E+02  0.17232530949E+02 -0.17341584681E+02  0.27656820570E+02  0.51100000000E-03 0. -1.
        -11    1    3    3    0    0 -0.28415006522E+00  0.59986020482E+00 -0.20120209590E+01  0.21186793352E+01  0.51100000000E-03 0.  1.
         12    1    3    3    0    0  0.26082676816E+01  0.12440721080E+02 -0.10310100397E+02  0.16366819223E+02  0.00000000000E+00 0. -1.
</event>
<event>
 7    1  0.3981356E-008  0.4614232E+02  0.7816164E-02  0.1320468E+00
        -11   -1    0    0    0    0  0.00000000000E+00  0.00000000000E+00  0.45593999997E+02  0.45594000000E+02  0.51100000000E-03 0.  1.
         11   -1    0    0    0    0 -0.00000000000E+00 -0.00000000000E+00 -0.45593999997E+02  0.45594000000E+02  0.51100000000E-03 0. -1.
    9900012    2    1    2    0    0  0.37108796511E+02  0.14247684187E+00 -0.25534885942E+02  0.46142317874E+02  0.10000001029E+02 0.  0.
        -12    1    1    2    0    0 -0.37108796511E+02 -0.14247684187E+00  0.25534885942E+02  0.45045682126E+02  0.00000000000E+00 0.  1.
         11    1    3    3    0    0  0.89096627087E+01 -0.31735111636E+01 -0.65585109116E+01  0.11509445179E+02  0.51100000000E-03 0. -1.
        -11    1    3    3    0    0  0.12356057599E+02  0.14201496393E+01 -0.49432949537E+01  0.13383764405E+02  0.51100000000E-03 0.  1.
         12    1    3    3    0    0  0.15843076204E+02  0.18958383662E+01 -0.14033080077E+02  0.21249108290E+02  0.00000000000E+00 0. -1.
</event>
<event>
 7    1  0.3981356E-008  0.4614232E+02  0.7816164E-02  0.1320468E+00
        -11   -1    0    0    0    0  0.00000000000E+00  0.00000000000E+00  0.45593999997E+02  0.45594000000E+02  0.51100000000E-03 0. -1.
         11   -1    0    0    0    0 -0.00000000000E+00 -0.00000000000E+00 -0.45593999997E+02  0.45594000000E+02  0.51100000000E-03 0.  1.
    9900012    2    1    2    0    0 -0.14803714196E+02  0.42264739212E+02 -0.48636744387E+01  0.46142318035E+02  0.10000002495E+02 0.  0.
        -12    1    1    2    0    0  0.14803714196E+02 -0.42264739212E+02  0.48636744387E+01  0.45045681965E+02  0.00000000000E+00 0.  1.
         11    1    3    3    0    0 -0.34230909965E+01  0.78242947173E+01 -0.37985445258E+01  0.93469824312E+01  0.51100000000E-03 0. -1.
        -11    1    3    3    0    0  0.28284103362E+00  0.66143782544E-01  0.36687159106E+00  0.46794131653E+00  0.51100000000E-03 0.  1.
         12    1    3    3    0    0 -0.11663464233E+02  0.34374300712E+02 -0.14320015040E+01  0.36327394287E+02  0.00000000000E+00 0. -1.
</event>
<event>
 7    1  0.3981356E-008  0.4614232E+02  0.7816164E-02  0.1320468E+00
        -11   -1    0    0    0    0  0.00000000000E+00  0.00000000000E+00  0.45593999997E+02  0.45594000000E+02  0.51100000000E-03 0.  1.
         11   -1    0    0    0    0 -0.00000000000E+00 -0.00000000000E+00 -0.45593999997E+02  0.45594000000E+02  0.51100000000E-03 0. -1.
    9900012    2    1    2    0    0 -0.17597366281E+02 -0.33142981047E+01 -0.41333539157E+02  0.46142319506E+02  0.10000015909E+02 0.  0.
        -12    1    1    2    0    0  0.17597366281E+02  0.33142981047E+01  0.41333539157E+02  0.45045680494E+02  0.00000000000E+00 0.  1.
         11    1    3    3    0    0 -0.15946989455E+01  0.22279072525E+01 -0.79173119595E+01  0.83779749568E+01  0.51100000000E-03 0. -1.
        -11    1    3    3    0    0 -0.27227363018E+01 -0.30358303096E+01 -0.76475314316E+01  0.86668504023E+01  0.51100000000E-03 0.  1.
         12    1    3    3    0    0 -0.13279931034E+02 -0.25063750476E+01 -0.25768695766E+02  0.29097494147E+02  0.00000000000E+00 0. -1.
</event>
<event>
 7    1  0.3981356E-008  0.4614231E+02  0.7816164E-02  0.1320468E+00
        -11   -1    0    0    0    0  0.00000000000E+00  0.00000000000E+00  0.45593999997E+02  0.45594000000E+02  0.51100000000E-03 0. -1.
         11   -1    0    0    0    0 -0.00000000000E+00 -0.00000000000E+00 -0.45593999997E+02  0.45594000000E+02  0.51100000000E-03 0.  1.
    9900012    2    1    2    0    0 -0.31197101836E+02 -0.25922659490E+02 -0.19592616776E+02  0.46142311303E+02  0.99999411141E+01 0.  0.
        -12    1    1    2    0    0  0.31197101836E+02  0.25922659490E+02  0.19592616776E+02  0.45045688697E+02  0.00000000000E+00 0.  1.
         11    1    3    3    0    0 -0.60044361364E+01 -0.66716676773E+01 -0.47197781621E+01  0.10141040828E+02  0.51100000000E-03 0. -1.
        -11    1    3    3    0    0 -0.58774043219E+01 -0.77843812500E+01 -0.76820617234E+01  0.12415898904E+02  0.51100000000E-03 0.  1.
         12    1    3    3    0    0 -0.19315261377E+02 -0.11466610563E+02 -0.71907768909E+01  0.23585371572E+02  0.00000000000E+00 0. -1.
</event>
<event>
 7    1  0.3981356E-008  0.4614232E+02  0.7816164E-02  0.1320468E+00
        -11   -1    0    0    0    0  0.00000000000E+00  0.00000000000E+00  0.45593999997E+02  0.45594000000E+02  0.51100000000E-03 0.  1.
         11   -1    0    0    0    0 -0.00000000000E+00 -0.00000000000E+00 -0.45593999997E+02  0.45594000000E+02  0.51100000000E-03 0. -1.
    9900012    2    1    2    0    0  0.80994583464E+01  0.31689521093E+02 -0.30972350608E+02  0.46142317912E+02  0.10000001373E+02 0.  0.
        -12    1    1    2    0    0 -0.80994583464E+01 -0.31689521093E+02  0.30972350608E+02  0.45045682088E+02  0.00000000000E+00 0.  1.
         11    1    3    3    0    0  0.14556664116E+01  0.18040378362E+02 -0.16192914937E+02  0.24285483536E+02  0.51100000000E-03 0. -1.
        -11    1    3    3    0    0  0.19151880482E+01  0.78752626441E+01 -0.48840664217E+01  0.94626535414E+01  0.51100000000E-03 0.  1.
         12    1    3    3    0    0  0.47286038867E+01  0.57738800868E+01 -0.98953692495E+01  0.12394180835E+02  0.00000000000E+00 0. -1.
</event>
<event>
 7    1  0.3981356E-008  0.4614232E+02  0.7816164E-02  0.1320468E+00
        -11   -1    0    0    0    0  0.00000000000E+00  0.00000000000E+00  0.45593999997E+02  0.45594000000E+02  0.51100000000E-03 0.  1.
         11   -1    0    0    0    0 -0.00000000000E+00 -0.00000000000E+00 -0.45593999997E+02  0.45594000000E+02  0.51100000000E-03 0. -1.
    9900012    2    1    2    0    0 -0.26911116050E+02 -0.88837731940E+01 -0.35014053113E+02  0.46142317536E+02  0.99999979476E+01 0.  0.
        -12    1    1    2    0    0  0.26911116050E+02  0.88837731940E+01  0.35014053113E+02  0.45045682464E+02  0.00000000000E+00 0.  1.
         11    1    3    3    0    0 -0.60056142256E+01 -0.31714174025E+01 -0.12671353055E+02  0.14376664393E+02  0.51100000000E-03 0. -1.
        -11    1    3    3    0    0 -0.20188778570E+02 -0.40192886579E+01 -0.21422586271E+02  0.29709740226E+02  0.51100000000E-03 0.  1.
        -12    1    3    3    0    0 -0.71672325451E+00 -0.16930671336E+01 -0.92011378709E+00  0.20559129173E+01  0.00000000000E+00 0.  1.
</event>
<event>
 7    1  0.3981356E-008  0.4614232E+02  0.7816164E-02  0.1320468E+00
        -11   -1    0    0    0    0  0.00000000000E+00  0.00000000000E+00  0.45593999997E+02  0.45594000000E+02  0.51100000000E-03 0.  1.
         11   -1    0    0    0    0 -0.00000000000E+00 -0.00000000000E+00 -0.45593999997E+02  0.45594000000E+02  0.51100000000E-03 0. -1.
    9900012    2    1    2    0    0 -0.14568551881E+02 -0.29775098369E+02  0.30501053261E+02  0.46142318333E+02  0.10000005217E+02 0.  0.
        -12    1    1    2    0    0  0.14568551881E+02  0.29775098369E+02 -0.30501053261E+02  0.45045681667E+02  0.00000000000E+00 0.  1.
         11    1    3    3    0    0 -0.45371362510E+01 -0.98098542474E+01  0.11207305420E+02  0.15569924237E+02  0.51100000000E-03 0. -1.
        -11    1    3    3    0    0 -0.49529709226E+01 -0.91200916993E+01  0.14128523611E+02  0.17530635278E+02  0.51100000000E-03 0.  1.
        -12    1    3    3    0    0 -0.50784447077E+01 -0.10845152422E+02  0.51652242294E+01  0.13041758818E+02  0.00000000000E+00 0.  1.
</event>
<event>
 7    1  0.3981356E-008  0.4614232E+02  0.7816164E-02  0.1320468E+00
        -11   -1    0    0    0    0  0.00000000000E+00  0.00000000000E+00  0.45593999997E+02  0.45594000000E+02  0.51100000000E-03 0. -1.
         11   -1    0    0    0    0 -0.00000000000E+00 -0.00000000000E+00 -0.45593999997E+02  0.45594000000E+02  0.51100000000E-03 0.  1.
    9900012    2    1    2    0    0  0.14488482243E+02 -0.21586569636E+02  0.36786103164E+02  0.46142317717E+02  0.99999995986E+01 0.  0.
        -12    1    1    2    0    0 -0.14488482243E+02  0.21586569636E+02 -0.36786103164E+02  0.45045682283E+02  0.00000000000E+00 0.  1.
         11    1    3    3    0    0  0.54045911352E+00 -0.11028639746E+00  0.23475503829E+01  0.24114834032E+01  0.51100000000E-03 0. -1.
        -11    1    3    3    0    0  0.49661827377E+01 -0.17621123267E+01  0.73844759774E+01  0.90718518814E+01  0.51100000000E-03 0.  1.
         12    1    3    3    0    0  0.89818403921E+01 -0.19714170912E+02  0.27054076803E+02  0.34658982432E+02  0.00000000000E+00 0. -1.
</event>
<event>
 7    1  0.3981356E-008  0.4614232E+02  0.7816164E-02  0.1320468E+00
        -11   -1    0    0    0    0  0.00000000000E+00  0.00000000000E+00  0.45593999997E+02  0.45594000000E+02  0.51100000000E-03 0.  1.
         11   -1    0    0    0    0 -0.00000000000E+00 -0.00000000000E+00 -0.45593999997E+02  0.45594000000E+02  0.51100000000E-03 0. -1.
    9900012    2    1    2    0    0  0.10691233804E+02 -0.34994274985E+02 -0.26271880703E+02  0.46142317880E+02  0.10000001083E+02 0.  0.
        -12    1    1    2    0    0 -0.10691233804E+02  0.34994274985E+02  0.26271880703E+02  0.45045682120E+02  0.00000000000E+00 0.  1.
         11    1    3    3    0    0  0.10944560597E+02 -0.31865332383E+02 -0.25539147247E+02  0.42278018602E+02  0.51100000000E-03 0. -1.
        -11    1    3    3    0    0  0.27392652238E+00 -0.15136768225E+01  0.65359547589E+00  0.16713588991E+01  0.51100000000E-03 0.  1.
         12    1    3    3    0    0 -0.52725331538E+00 -0.16152657799E+01 -0.13863289321E+01  0.21929403791E+01  0.00000000000E+00 0. -1.
</event>
<event>
 7    1  0.3981356E-008  0.4614232E+02  0.7816164E-02  0.1320468E+00
        -11   -1    0    0    0    0  0.00000000000E+00  0.00000000000E+00  0.45593999997E+02  0.45594000000E+02  0.51100000000E-03 0.  1.
         11   -1    0    0    0    0 -0.00000000000E+00 -0.00000000000E+00 -0.45593999997E+02  0.45594000000E+02  0.51100000000E-03 0. -1.
    9900012    2    1    2    0    0  0.14460607281E+02  0.20001068125E+01 -0.42614596151E+02  0.46142318794E+02  0.10000009419E+02 0.  0.
        -12    1    1    2    0    0 -0.14460607281E+02 -0.20001068125E+01  0.42614596151E+02  0.45045681206E+02  0.00000000000E+00 0.  1.
         11    1    3    3    0    0  0.27456924706E+01  0.10703670442E+01 -0.22308766945E+02  0.22502568645E+02  0.51100000000E-03 0. -1.
        -11    1    3    3    0    0  0.35382462466E+01 -0.97270853130E+00 -0.53227144382E+01  0.64650319134E+01  0.51100000000E-03 0.  1.
         12    1    3    3    0    0  0.81766685633E+01  0.19024482997E+01 -0.14983114768E+02  0.17174718236E+02  0.00000000000E+00 0. -1.
</event>
<event>
 7    1  0.3981356E-008  0.4614232E+02  0.7816164E-02  0.1320468E+00
        -11   -1    0    0    0    0  0.00000000000E+00  0.00000000000E+00  0.45593999997E+02  0.45594000000E+02  0.51100000000E-03 0. -1.
         11   -1    0    0    0    0 -0.00000000000E+00 -0.00000000000E+00 -0.45593999997E+02  0.45594000000E+02  0.51100000000E-03 0.  1.
    9900012    2    1    2    0    0  0.19891116843E+02  0.26165353569E+02  0.30803104224E+02  0.46142317782E+02  0.10000000189E+02 0.  0.
        -12    1    1    2    0    0 -0.19891116843E+02 -0.26165353569E+02 -0.30803104224E+02  0.45045682218E+02  0.00000000000E+00 0.  1.
         11    1    3    3    0    0  0.37863181884E+01  0.22014731801E+01  0.42573850107E+01  0.61080288945E+01  0.51100000000E-03 0. -1.
        -11    1    3    3    0    0  0.10587832706E+02  0.93789087382E+01  0.15107229545E+02  0.20695277609E+02  0.51100000000E-03 0.  1.
         12    1    3    3    0    0  0.55169659490E+01  0.14584971650E+02  0.11438489669E+02  0.19339011279E+02  0.00000000000E+00 0. -1.
</event>
<event>
 7    1  0.3981356E-008  0.4614232E+02  0.7816164E-02  0.1320468E+00
        -11   -1    0    0    0    0  0.00000000000E+00  0.00000000000E+00  0.45593999997E+02  0.45594000000E+02  0.51100000000E-03 0.  1.
         11   -1    0    0    0    0 -0.00000000000E+00 -0.00000000000E+00 -0.45593999997E+02  0.45594000000E+02  0.51100000000E-03 0. -1.
    9900012    2    1    2    0    0 -0.11664259885E+02 -0.20652630387E+02 -0.38295268237E+02  0.46142315746E+02  0.99999816284E+01 0.  0.
        -12    1    1    2    0    0  0.11664259885E+02  0.20652630387E+02  0.38295268237E+02  0.45045684254E+02  0.00000000000E+00 0.  1.
         11    1    3    3    0    0 -0.59665413103E+01 -0.69793221256E+01 -0.16524310004E+02  0.18904057076E+02  0.51100000000E-03 0. -1.
        -11    1    3    3    0    0 -0.51968806064E+01 -0.65288719265E+01 -0.15981546373E+02  0.18028964513E+02  0.51100000000E-03 0.  1.
        -12    1    3    3    0    0 -0.50083796810E+00 -0.71444363345E+01 -0.57894118593E+01  0.92092941578E+01  0.00000000000E+00 0.  1.
</event>
<event>
 7    1  0.3981356E-008  0.4614232E+02  0.7816164E-02  0.1320468E+00
        -11   -1    0    0    0    0  0.00000000000E+00  0.00000000000E+00  0.45593999997E+02  0.45594000000E+02  0.51100000000E-03 0.  1.
         11   -1    0    0    0    0 -0.00000000000E+00 -0.00000000000E+00 -0.45593999997E+02  0.45594000000E+02  0.51100000000E-03 0. -1.
    9900012    2    1    2    0    0 -0.43247833795E+01 -0.17877526583E+02 -0.41119384176E+02  0.46142318042E+02  0.10000002565E+02 0.  0.
        -12    1    1    2    0    0  0.43247833795E+01  0.17877526583E+02  0.41119384176E+02  0.45045681958E+02  0.00000000000E+00 0.  1.
         11    1    3    3    0    0  0.10782886309E+00 -0.10022026804E+02 -0.27679836868E+02  0.29438512490E+02  0.51100000000E-03 0. -1.
        -11    1    3    3    0    0 -0.47288728629E+01 -0.74121487828E+01 -0.13556411392E+02  0.16157923079E+02  0.51100000000E-03 0.  1.
        -12    1    3    3    0    0  0.29626062030E+00 -0.44335099563E+00  0.11686408394E+00  0.54588247323E+00  0.00000000000E+00 0.  1.
</event>
<event>
 7    1  0.3981356E-008  0.4614232E+02  0.7816164E-02  0.1320468E+00
        -11   -1    0    0    0    0  0.00000000000E+00  0.00000000000E+00  0.45593999997E+02  0.45594000000E+02  0.51100000000E-03 0.  1.
         11   -1    0    0    0    0 -0.00000000000E+00 -0.00000000000E+00 -0.45593999997E+02  0.45594000000E+02  0.51100000000E-03 0. -1.
    9900012    2    1    2    0    0  0.21460814156E+02 -0.19475008601E+02 -0.34485807511E+02  0.46142318477E+02  0.10000006527E+02 0.  0.
        -12    1    1    2    0    0 -0.21460814156E+02  0.19475008601E+02  0.34485807511E+02  0.45045681523E+02  0.00000000000E+00 0.  1.
         11    1    3    3    0    0  0.81349225580E+01 -0.48479564547E+01 -0.80539499942E+01  0.12431643398E+02  0.51100000000E-03 0. -1.
        -11    1    3    3    0    0 -0.62662522931E+00 -0.20317514446E+01 -0.27020934862E+01  0.34383110069E+01  0.51100000000E-03 0.  1.
         12    1    3    3    0    0  0.13952516827E+02 -0.12595300701E+02 -0.23729764030E+02  0.30272364072E+02  0.00000000000E+00 0. -1.
</event>
<event>
 7    1  0.3981356E-008  0.4614232E+02  0.7816164E-02  0.1320468E+00
        -11   -1    0    0    0    0  0.00000000000E+00  0.00000000000E+00  0.45593999997E+02  0.45594000000E+02  0.51100000000E-03 0.  1.
         11   -1    0    0    0    0 -0.00000000000E+00 -0.00000000000E+00 -0.45593999997E+02  0.45594000000E+02  0.51100000000E-03 0. -1.
    9900012    2    1    2    0    0 -0.20456934133E+02  0.34891029164E+02 -0.19830365497E+02  0.46142318009E+02  0.10000002263E+02 0.  0.
        -12    1    1    2    0    0  0.20456934133E+02 -0.34891029164E+02  0.19830365497E+02  0.45045681991E+02  0.00000000000E+00 0.  1.
         11    1    3    3    0    0  0.15995688348E+00  0.34888188728E+01 -0.16355228310E+01  0.38564722900E+01  0.51100000000E-03 0. -1.
        -11    1    3    3    0    0 -0.86866984330E+01  0.12329920116E+02 -0.10997467559E+02  0.18666278491E+02  0.51100000000E-03 0.  1.
         12    1    3    3    0    0 -0.11930192584E+02  0.19072290175E+02 -0.71973751074E+01  0.23619567228E+02  0.00000000000E+00 0. -1.
</event>
<event>
 7    1  0.3981356E-008  0.4614232E+02  0.7816164E-02  0.1320468E+00
        -11   -1    0    0    0    0  0.00000000000E+00  0.00000000000E+00  0.45593999997E+02  0.45594000000E+02  0.51100000000E-03 0.  1.
         11   -1    0    0    0    0 -0.00000000000E+00 -0.00000000000E+00 -0.45593999997E+02  0.45594000000E+02  0.51100000000E-03 0. -1.
    9900012    2    1    2    0    0 -0.43177360297E+02  0.10037978992E+02  0.80042513176E+01  0.46142317592E+02  0.99999984542E+01 0.  0.
        -12    1    1    2    0    0  0.43177360297E+02 -0.10037978992E+02 -0.80042513176E+01  0.45045682408E+02  0.00000000000E+00 0.  1.
         11    1    3    3    0    0 -0.23380330840E+02  0.55005184449E+01  0.33423422011E+01  0.24250089175E+02  0.51100000000E-03 0. -1.
        -11    1    3    3    0    0 -0.91258946130E+01  0.24848415601E+01 -0.12187173912E+01  0.95363338033E+01  0.51100000000E-03 0.  1.
        -12    1    3    3    0    0 -0.10671134845E+02  0.20526189871E+01  0.58806265078E+01  0.12355894614E+02  0.00000000000E+00 0.  1.
</event>
<event>
 7    1  0.3981356E-008  0.4614232E+02  0.7816164E-02  0.1320468E+00
        -11   -1    0    0    0    0  0.00000000000E+00  0.00000000000E+00  0.45593999997E+02  0.45594000000E+02  0.51100000000E-03 0.  1.
         11   -1    0    0    0    0 -0.00000000000E+00 -0.00000000000E+00 -0.45593999997E+02  0.45594000000E+02  0.51100000000E-03 0. -1.
    9900012    2    1    2    0    0  0.37135907085E+02 -0.23927697955E+02 -0.88035636909E+01  0.46142322537E+02  0.10000043549E+02 0.  0.
        -12    1    1    2    0    0 -0.37135907085E+02  0.23927697955E+02  0.88035636909E+01  0.45045677463E+02  0.00000000000E+00 0.  1.
         11    1    3    3    0    0  0.24246912993E+02 -0.17934770486E+02 -0.30072750421E+01  0.30308620646E+02  0.51100000000E-03 0. -1.
        -11    1    3    3    0    0 -0.11263231780E+00 -0.49107416750E-01  0.27565934998E+00  0.30180443294E+00  0.51100000000E-03 0.  1.
        -12    1    3    3    0    0  0.13001626410E+02 -0.59438200522E+01 -0.60719479987E+01  0.15531897457E+02  0.00000000000E+00 0.  1.
</event>
<event>
 7    1  0.3981356E-008  0.4614232E+02  0.7816164E-02  0.1320468E+00
        -11   -1    0    0    0    0  0.00000000000E+00  0.00000000000E+00  0.45593999997E+02  0.45594000000E+02  0.51100000000E-03 0.  1.
         11   -1    0    0    0    0 -0.00000000000E+00 -0.00000000000E+00 -0.45593999997E+02  0.45594000000E+02  0.51100000000E-03 0. -1.
    9900012    2    1    2    0    0  0.34199422021E+02 -0.25588518418E+02 -0.14308764121E+02  0.46142317942E+02  0.10000001647E+02 0.  0.
        -12    1    1    2    0    0 -0.34199422021E+02  0.25588518418E+02  0.14308764121E+02  0.45045682058E+02  0.00000000000E+00 0.  1.
         11    1    3    3    0    0  0.25683751488E+02 -0.16738333168E+02 -0.99277905918E+01  0.32224026968E+02  0.51100000000E-03 0. -1.
        -11    1    3    3    0    0  0.70654504462E+00 -0.24783522914E+01  0.64389408353E+00  0.26563199793E+01  0.51100000000E-03 0.  1.
        -12    1    3    3    0    0  0.78091254884E+01 -0.63718329586E+01 -0.50248676132E+01  0.11261970994E+02  0.00000000000E+00 0.  1.
</event>
<event>
 7    1  0.3981356E-008  0.4614232E+02  0.7816164E-02  0.1320468E+00
        -11   -1    0    0    0    0  0.00000000000E+00  0.00000000000E+00  0.45593999997E+02  0.45594000000E+02  0.51100000000E-03 0. -1.
         11   -1    0    0    0    0 -0.00000000000E+00 -0.00000000000E+00 -0.45593999997E+02  0.45594000000E+02  0.51100000000E-03 0.  1.
    9900012    2    1    2    0    0 -0.37533913655E+02 -0.18868738881E+02  0.16256988390E+02  0.46142315937E+02  0.99999833662E+01 0.  0.
        -12    1    1    2    0    0  0.37533913655E+02  0.18868738881E+02 -0.16256988390E+02  0.45045684063E+02  0.00000000000E+00 0.  1.
         11    1    3    3    0    0 -0.10315938923E+02 -0.41698632166E+01  0.29284182829E+01  0.11505737221E+02  0.51100000000E-03 0. -1.
        -11    1    3    3    0    0 -0.15263592604E+02 -0.11017882945E+02  0.11325249123E+02  0.21968893275E+02  0.51100000000E-03 0.  1.
        -12    1    3    3    0    0 -0.11954382128E+02 -0.36809927194E+01  0.20033209839E+01  0.12667685441E+02  0.00000000000E+00 0.  1.
</event>
<event>
 7    1  0.3981356E-008  0.4614232E+02  0.7816164E-02  0.1320468E+00
        -11   -1    0    0    0    0  0.00000000000E+00  0.00000000000E+00  0.45593999997E+02  0.45594000000E+02  0.51100000000E-03 0.  1.
         11   -1    0    0    0    0 -0.00000000000E+00 -0.00000000000E+00 -0.45593999997E+02  0.45594000000E+02  0.51100000000E-03 0. -1.
    9900012    2    1    2    0    0 -0.22643838229E+02  0.35667106493E+02 -0.15627784108E+02  0.46142317283E+02  0.99999956423E+01 0.  0.
        -12    1    1    2    0    0  0.22643838229E+02 -0.35667106493E+02  0.15627784108E+02  0.45045682717E+02  0.00000000000E+00 0.  1.
         11    1    3    3    0    0 -0.81239717084E+01  0.72311680944E+01 -0.43027416494E+01  0.11696251292E+02  0.51100000000E-03 0. -1.
        -11    1    3    3    0    0 -0.25084430082E+01  0.18038019282E+01 -0.23540390733E+01  0.38842615696E+01  0.51100000000E-03 0.  1.
         12    1    3    3    0    0 -0.12011423512E+02  0.26632136470E+02 -0.89710033851E+01  0.30561804421E+02  0.00000000000E+00 0. -1.
</event>
<event>
 7    1  0.3981356E-008  0.4614232E+02  0.7816164E-02  0.1320468E+00
        -11   -1    0    0    0    0  0.00000000000E+00  0.00000000000E+00  0.45593999997E+02  0.45594000000E+02  0.51100000000E-03 0. -1.
         11   -1    0    0    0    0 -0.00000000000E+00 -0.00000000000E+00 -0.45593999997E+02  0.45594000000E+02  0.51100000000E-03 0.  1.
    9900012    2    1    2    0    0  0.43812628720E+02 -0.47142353639E+01 -0.93457300976E+01  0.46142321833E+02  0.10000037133E+02 0.  0.
        -12    1    1    2    0    0 -0.43812628720E+02  0.47142353639E+01  0.93457300976E+01  0.45045678167E+02  0.00000000000E+00 0.  1.
         11    1    3    3    0    0  0.15196871061E+02 -0.30864985539E+01 -0.47711822252E+01  0.16224535231E+02  0.51100000000E-03 0. -1.
        -11    1    3    3    0    0  0.47658767355E+01  0.19641581061E+01 -0.24446924961E+01  0.57050871847E+01  0.51100000000E-03 0.  1.
         12    1    3    3    0    0  0.23849880924E+02 -0.35918949161E+01 -0.21298553764E+01  0.24212699418E+02  0.00000000000E+00 0. -1.
</event>
<event>
 7    1  0.3981356E-008  0.4614232E+02  0.7816164E-02  0.1320468E+00
        -11   -1    0    0    0    0  0.00000000000E+00  0.00000000000E+00  0.45593999997E+02  0.45594000000E+02  0.51100000000E-03 0. -1.
         11   -1    0    0    0    0 -0.00000000000E+00 -0.00000000000E+00 -0.45593999997E+02  0.45594000000E+02  0.51100000000E-03 0.  1.
    9900012    2    1    2    0    0 -0.38911583227E+02 -0.21976710054E+02  0.56591848674E+01  0.46142317994E+02  0.10000002122E+02 0.  0.
        -12    1    1    2    0    0  0.38911583227E+02  0.21976710054E+02 -0.56591848674E+01  0.45045682006E+02  0.00000000000E+00 0.  1.
         11    1    3    3    0    0 -0.75572937268E+01 -0.71368911672E+01  0.11709164225E+01  0.10460351310E+02  0.51100000000E-03 0. -1.
        -11    1    3    3    0    0 -0.48332245293E+01 -0.56809438611E+00 -0.12464585799E+01  0.50235893378E+01  0.51100000000E-03 0.  1.
         12    1    3    3    0    0 -0.26521064971E+02 -0.14271724500E+02  0.57347270248E+01  0.30658377346E+02  0.00000000000E+00 0. -1.
</event>
<event>
 7    1  0.3981356E-008  0.4614232E+02  0.7816164E-02  0.1320468E+00
        -11   -1    0    0    0    0  0.00000000000E+00  0.00000000000E+00  0.45593999997E+02  0.45594000000E+02  0.51100000000E-03 0.  1.
         11   -1    0    0    0    0 -0.00000000000E+00 -0.00000000000E+00 -0.45593999997E+02  0.45594000000E+02  0.51100000000E-03 0. -1.
    9900012    2    1    2    0    0  0.34024246244E+02 -0.31093600221E+01 -0.29356362265E+02  0.46142318102E+02  0.10000003110E+02 0.  0.
        -12    1    1    2    0    0 -0.34024246244E+02  0.31093600221E+01  0.29356362265E+02  0.45045681898E+02  0.00000000000E+00 0.  1.
         11    1    3    3    0    0  0.37809787512E+01 -0.53436568472E+00 -0.50999748382E+01  0.63711137656E+01  0.51100000000E-03 0. -1.
        -11    1    3    3    0    0  0.22680453593E+02 -0.86997400272E+00 -0.22203316656E+02  0.31751332267E+02  0.51100000000E-03 0.  1.
         12    1    3    3    0    0  0.75628139000E+01 -0.17050203347E+01 -0.20530707709E+01  0.80198720699E+01  0.00000000000E+00 0. -1.
</event>
<event>
 7    1  0.3981356E-008  0.4614232E+02  0.7816164E-02  0.1320468E+00
        -11   -1    0    0    0    0  0.00000000000E+00  0.00000000000E+00  0.45593999997E+02  0.45594000000E+02  0.51100000000E-03 0. -1.
         11   -1    0    0    0    0 -0.00000000000E+00 -0.00000000000E+00 -0.45593999997E+02  0.45594000000E+02  0.51100000000E-03 0.  1.
    9900012    2    1    2    0    0 -0.35461614024E+02  0.26443913444E+02 -0.85033281964E+01  0.46142320764E+02  0.10000027382E+02 0.  0.
        -12    1    1    2    0    0  0.35461614024E+02 -0.26443913444E+02  0.85033281964E+01  0.45045679236E+02  0.00000000000E+00 0.  1.
         11    1    3    3    0    0 -0.10922730339E+02  0.84715236288E+01  0.14873181115E+00  0.13823706886E+02  0.51100000000E-03 0. -1.
        -11    1    3    3    0    0 -0.11125721260E+02  0.69678248552E+01 -0.70348473639E+01  0.14893667596E+02  0.51100000000E-03 0.  1.
        -12    1    3    3    0    0 -0.13413162425E+02  0.11004564960E+02 -0.16172126436E+01  0.17424946282E+02  0.00000000000E+00 0.  1.
</event>
<event>
 7    1  0.3981356E-008  0.4614232E+02  0.7816164E-02  0.1320468E+00
        -11   -1    0    0    0    0  0.00000000000E+00  0.00000000000E+00  0.45593999997E+02  0.45594000000E+02  0.51100000000E-03 0. -1.
         11   -1    0    0    0    0 -0.00000000000E+00 -0.00000000000E+00 -0.45593999997E+02  0.45594000000E+02  0.51100000000E-03 0.  1.
    9900012    2    1    2    0    0  0.28516810699E+02 -0.71432410964E+01  0.34130323451E+02  0.46142319134E+02  0.10000012524E+02 0.  0.
        -12    1    1    2    0    0 -0.28516810699E+02  0.71432410964E+01 -0.34130323451E+02  0.45045680866E+02  0.00000000000E+00 0.  1.
         11    1    3    3    0    0  0.12679853144E+00 -0.13883916606E+01  0.78234923426E+00  0.15986806611E+01  0.51100000000E-03 0. -1.
        -11    1    3    3    0    0  0.31389018932E+01  0.11504014266E+01  0.34331129986E+01  0.47919091874E+01  0.51100000000E-03 0.  1.
         12    1    3    3    0    0  0.25251110274E+02 -0.69052508624E+01  0.29914861218E+02  0.39751729286E+02  0.00000000000E+00 0. -1.
</event>
<event>
 7    1  0.3981356E-008  0.4614232E+02  0.7816164E-02  0.1320468E+00
        -11   -1    0    0    0    0  0.00000000000E+00  0.00000000000E+00  0.45593999997E+02  0.45594000000E+02  0.51100000000E-03 0. -1.
         11   -1    0    0    0    0 -0.00000000000E+00 -0.00000000000E+00 -0.45593999997E+02  0.45594000000E+02  0.51100000000E-03 0.  1.
    9900012    2    1    2    0    0  0.12849375069E+02  0.16784260301E+02  0.39778080532E+02  0.46142317362E+02  0.99999963643E+01 0.  0.
        -12    1    1    2    0    0 -0.12849375069E+02 -0.16784260301E+02 -0.39778080532E+02  0.45045682638E+02  0.00000000000E+00 0.  1.
         11    1    3    3    0    0  0.51557222135E+01  0.86447361693E+01  0.11604091708E+02  0.15361246031E+02  0.51100000000E-03 0. -1.
        -11    1    3    3    0    0  0.84167054678E+01  0.65971604863E+01  0.24342797158E+02  0.26588253631E+02  0.51100000000E-03 0.  1.
        -12    1    3    3    0    0 -0.72305261235E+00  0.15423636451E+01  0.38311916650E+01  0.41928177003E+01  0.00000000000E+00 0.  1.
</event>
<event>
 7    1  0.3981356E-008  0.4614232E+02  0.7816164E-02  0.1320468E+00
        -11   -1    0    0    0    0  0.00000000000E+00  0.00000000000E+00  0.45593999997E+02  0.45594000000E+02  0.51100000000E-03 0. -1.
         11   -1    0    0    0    0 -0.00000000000E+00 -0.00000000000E+00 -0.45593999997E+02  0.45594000000E+02  0.51100000000E-03 0.  1.
    9900012    2    1    2    0    0 -0.37168029773E+02  0.23083198213E+02  0.10715269497E+02  0.46142317884E+02  0.10000001116E+02 0.  0.
        -12    1    1    2    0    0  0.37168029773E+02 -0.23083198213E+02 -0.10715269497E+02  0.45045682116E+02  0.00000000000E+00 0.  1.
         11    1    3    3    0    0 -0.47220427953E+01  0.42512282403E+01  0.33542065593E+01  0.71847986482E+01  0.51100000000E-03 0. -1.
        -11    1    3    3    0    0 -0.24142728761E+01 -0.56787018638E+00  0.81368535571E+00  0.26102249305E+01  0.51100000000E-03 0.  1.
         12    1    3    3    0    0 -0.30031714102E+02  0.19399840159E+02  0.65473775820E+01  0.36347294305E+02  0.00000000000E+00 0. -1.
</event>
<event>
 7    1  0.3981356E-008  0.4614232E+02  0.7816164E-02  0.1320468E+00
        -11   -1    0    0    0    0  0.00000000000E+00  0.00000000000E+00  0.45593999997E+02  0.45594000000E+02  0.51100000000E-03 0. -1.
         11   -1    0    0    0    0 -0.00000000000E+00 -0.00000000000E+00 -0.45593999997E+02  0.45594000000E+02  0.51100000000E-03 0.  1.
    9900012    2    1    2    0    0  0.96313608438E+01 -0.33368641156E+02  0.28685956405E+02  0.46142318529E+02  0.10000007003E+02 0.  0.
        -12    1    1    2    0    0 -0.96313608438E+01  0.33368641156E+02 -0.28685956405E+02  0.45045681471E+02  0.00000000000E+00 0.  1.
         11    1    3    3    0    0  0.64040524191E+01 -0.17514905213E+02  0.95657839879E+01  0.20959198830E+02  0.51100000000E-03 0. -1.
        -11    1    3    3    0    0  0.20751783532E+00 -0.36609593155E+01  0.29429171317E+01  0.47017494900E+01  0.51100000000E-03 0.  1.
         12    1    3    3    0    0  0.30197905894E+01 -0.12192776627E+02  0.16177255285E+02  0.20481370209E+02  0.00000000000E+00 0. -1.
</event>
<event>
 7    1  0.3981356E-008  0.4614232E+02  0.7816164E-02  0.1320468E+00
        -11   -1    0    0    0    0  0.00000000000E+00  0.00000000000E+00  0.45593999997E+02  0.45594000000E+02  0.51100000000E-03 0. -1.
         11   -1    0    0    0    0 -0.00000000000E+00 -0.00000000000E+00 -0.45593999997E+02  0.45594000000E+02  0.51100000000E-03 0.  1.
    9900012    2    1    2    0    0 -0.29228977601E+01 -0.25261192001E+02  0.37181205599E+02  0.46142320935E+02  0.10000028938E+02 0.  0.
        -12    1    1    2    0    0  0.29228977601E+01  0.25261192001E+02 -0.37181205599E+02  0.45045679065E+02  0.00000000000E+00 0.  1.
         11    1    3    3    0    0  0.34799254961E+00 -0.16973725940E+02  0.18830146662E+02  0.25353557831E+02  0.51100000000E-03 0. -1.
        -11    1    3    3    0    0  0.85180127202E+00 -0.72953370333E+00  0.15871930508E+01  0.19434420169E+01  0.51100000000E-03 0.  1.
        -12    1    3    3    0    0 -0.41226915818E+01 -0.75579323578E+01  0.16763865886E+02  0.18845321087E+02  0.00000000000E+00 0.  1.
</event>
<event>
 7    1  0.3981356E-008  0.4614232E+02  0.7816164E-02  0.1320468E+00
        -11   -1    0    0    0    0  0.00000000000E+00  0.00000000000E+00  0.45593999997E+02  0.45594000000E+02  0.51100000000E-03 0. -1.
         11   -1    0    0    0    0 -0.00000000000E+00 -0.00000000000E+00 -0.45593999997E+02  0.45594000000E+02  0.51100000000E-03 0.  1.
    9900012    2    1    2    0    0 -0.38586452935E+02 -0.22243491556E+02 -0.67398948297E+01  0.46142318198E+02  0.10000003983E+02 0.  0.
        -12    1    1    2    0    0  0.38586452935E+02  0.22243491556E+02  0.67398948297E+01  0.45045681802E+02  0.00000000000E+00 0.  1.
         11    1    3    3    0    0 -0.33335644115E+02 -0.15317169424E+02 -0.43401687585E+01  0.36942088637E+02  0.51100000000E-03 0. -1.
        -11    1    3    3    0    0 -0.18301464668E+01 -0.27138809960E+01 -0.18139477223E+01  0.37423245116E+01  0.51100000000E-03 0.  1.
         12    1    3    3    0    0 -0.34206623537E+01 -0.42124411354E+01 -0.58577834897E+00  0.54579050496E+01  0.00000000000E+00 0. -1.
</event>
<event>
 7    1  0.3981356E-008  0.4614232E+02  0.7816164E-02  0.1320468E+00
        -11   -1    0    0    0    0  0.00000000000E+00  0.00000000000E+00  0.45593999997E+02  0.45594000000E+02  0.51100000000E-03 0.  1.
         11   -1    0    0    0    0 -0.00000000000E+00 -0.00000000000E+00 -0.45593999997E+02  0.45594000000E+02  0.51100000000E-03 0. -1.
    9900012    2    1    2    0    0  0.22429283934E+01  0.72633097425E+01 -0.44399629576E+02  0.46142317603E+02  0.99999985546E+01 0.  0.
        -12    1    1    2    0    0 -0.22429283934E+01 -0.72633097425E+01  0.44399629576E+02  0.45045682397E+02  0.00000000000E+00 0.  1.
         11    1    3    3    0    0  0.41097254710E+00  0.25527692203E+01 -0.20633282457E+02  0.20794659755E+02  0.51100000000E-03 0. -1.
        -11    1    3    3    0    0 -0.25059503889E+01  0.15497753505E+00 -0.73776629618E+01  0.77931839723E+01  0.51100000000E-03 0.  1.
        -12    1    3    3    0    0  0.43379062352E+01  0.45555629872E+01 -0.16388684157E+02  0.17554473875E+02  0.00000000000E+00 0.  1.
</event>
<event>
 7    1  0.3981356E-008  0.4614232E+02  0.7816164E-02  0.1320468E+00
        -11   -1    0    0    0    0  0.00000000000E+00  0.00000000000E+00  0.45593999997E+02  0.45594000000E+02  0.51100000000E-03 0.  1.
         11   -1    0    0    0    0 -0.00000000000E+00 -0.00000000000E+00 -0.45593999997E+02  0.45594000000E+02  0.51100000000E-03 0. -1.
    9900012    2    1    2    0    0 -0.31602334836E+02  0.51945334574E+01 -0.31676849291E+02  0.46142317344E+02  0.99999962006E+01 0.  0.
        -12    1    1    2    0    0  0.31602334836E+02 -0.51945334574E+01  0.31676849291E+02  0.45045682656E+02  0.00000000000E+00 0.  1.
         11    1    3    3    0    0 -0.24967105905E+01 -0.26266321217E+00 -0.53226526306E+01  0.58849967733E+01  0.51100000000E-03 0. -1.
        -11    1    3    3    0    0 -0.51079782727E+01  0.33010246530E+01 -0.33436203324E+01  0.69403172105E+01  0.51100000000E-03 0.  1.
         12    1    3    3    0    0 -0.23997645972E+02  0.21561720166E+01 -0.23010576328E+02  0.33317003361E+02  0.00000000000E+00 0. -1.
</event>
<event>
 7    1  0.3981356E-008  0.4614232E+02  0.7816164E-02  0.1320468E+00
        -11   -1    0    0    0    0  0.00000000000E+00  0.00000000000E+00  0.45593999997E+02  0.45594000000E+02  0.51100000000E-03 0. -1.
         11   -1    0    0    0    0 -0.00000000000E+00 -0.00000000000E+00 -0.45593999997E+02  0.45594000000E+02  0.51100000000E-03 0.  1.
    9900012    2    1    2    0    0 -0.23631343462E+02  0.17466055165E+02 -0.34141030564E+02  0.46142318245E+02  0.10000004408E+02 0.  0.
        -12    1    1    2    0    0  0.23631343462E+02 -0.17466055165E+02  0.34141030564E+02  0.45045681755E+02  0.00000000000E+00 0.  1.
         11    1    3    3    0    0 -0.14536792629E+02  0.83286023680E+01 -0.18216535005E+02  0.24749264740E+02  0.51100000000E-03 0. -1.
        -11    1    3    3    0    0 -0.44974567508E+00 -0.27053045978E+00  0.40228257169E+00  0.66127863305E+00  0.51100000000E-03 0.  1.
        -12    1    3    3    0    0 -0.86448051579E+01  0.94079832563E+01 -0.16326778131E+02  0.20731774871E+02  0.00000000000E+00 0.  1.
</event>
<event>
 7    1  0.3981356E-008  0.4614232E+02  0.7816164E-02  0.1320468E+00
        -11   -1    0    0    0    0  0.00000000000E+00  0.00000000000E+00  0.45593999997E+02  0.45594000000E+02  0.51100000000E-03 0.  1.
         11   -1    0    0    0    0 -0.00000000000E+00 -0.00000000000E+00 -0.45593999997E+02  0.45594000000E+02  0.51100000000E-03 0. -1.
    9900012    2    1    2    0    0  0.43163410074E+02  0.10474956419E+02 -0.75039218391E+01  0.46142317364E+02  0.99999963750E+01 0.  0.
        -12    1    1    2    0    0 -0.43163410074E+02 -0.10474956419E+02  0.75039218391E+01  0.45045682636E+02  0.00000000000E+00 0.  1.
         11    1    3    3    0    0  0.36044283591E+01  0.75130616627E+00 -0.61230651943E+00  0.37324635679E+01  0.51100000000E-03 0. -1.
        -11    1    3    3    0    0  0.87648026106E+01  0.13425674499E+01  0.23709743219E+01  0.91785495399E+01  0.51100000000E-03 0.  1.
        -12    1    3    3    0    0  0.30794179105E+02  0.83810828027E+01 -0.92625896415E+01  0.33231304256E+02  0.00000000000E+00 0.  1.
</event>
<event>
 7    1  0.3981356E-008  0.4614232E+02  0.7816164E-02  0.1320468E+00
        -11   -1    0    0    0    0  0.00000000000E+00  0.00000000000E+00  0.45593999997E+02  0.45594000000E+02  0.51100000000E-03 0.  1.
         11   -1    0    0    0    0 -0.00000000000E+00 -0.00000000000E+00 -0.45593999997E+02  0.45594000000E+02  0.51100000000E-03 0. -1.
    9900012    2    1    2    0    0 -0.22390512016E+02  0.16374639899E+01 -0.39052492498E+02  0.46142317777E+02  0.10000000143E+02 0.  0.
        -12    1    1    2    0    0  0.22390512016E+02 -0.16374639899E+01  0.39052492498E+02  0.45045682223E+02  0.00000000000E+00 0.  1.
         11    1    3    3    0    0 -0.19098252702E+02 -0.10501401822E+00 -0.32004122705E+02  0.37269533866E+02  0.51100000000E-03 0. -1.
        -11    1    3    3    0    0 -0.40711908555E+01  0.76983431521E+00 -0.53999400630E+01  0.68063641395E+01  0.51100000000E-03 0.  1.
        -12    1    3    3    0    0  0.77893154072E+00  0.97264369293E+00 -0.16484297295E+01  0.20664197714E+01  0.00000000000E+00 0.  1.
</event>
<event>
 7    1  0.3981356E-008  0.4614232E+02  0.7816164E-02  0.1320468E+00
        -11   -1    0    0    0    0  0.00000000000E+00  0.00000000000E+00  0.45593999997E+02  0.45594000000E+02  0.51100000000E-03 0.  1.
         11   -1    0    0    0    0 -0.00000000000E+00 -0.00000000000E+00 -0.45593999997E+02  0.45594000000E+02  0.51100000000E-03 0. -1.
    9900012    2    1    2    0    0 -0.21695983376E+02  0.37234121784E+02 -0.13115561569E+02  0.46142317910E+02  0.10000001361E+02 0.  0.
        -12    1    1    2    0    0  0.21695983376E+02 -0.37234121784E+02  0.13115561569E+02  0.45045682090E+02  0.00000000000E+00 0.  1.
         11    1    3    3    0    0 -0.93751363902E+01  0.14740766352E+02 -0.74942359081E+01  0.19009127994E+02  0.51100000000E-03 0. -1.
        -11    1    3    3    0    0 -0.65497572239E+01  0.17940659109E+02 -0.50782761272E+01  0.19762475999E+02  0.51100000000E-03 0.  1.
        -12    1    3    3    0    0 -0.57710897622E+01  0.45526963233E+01 -0.54304953365E+00  0.73707139174E+01  0.00000000000E+00 0.  1.
</event>
<event>
 7    1  0.3981356E-008  0.4614232E+02  0.7816164E-02  0.1320468E+00
        -11   -1    0    0    0    0  0.00000000000E+00  0.00000000000E+00  0.45593999997E+02  0.45594000000E+02  0.51100000000E-03 0.  1.
         11   -1    0    0    0    0 -0.00000000000E+00 -0.00000000000E+00 -0.45593999997E+02  0.45594000000E+02  0.51100000000E-03 0. -1.
    9900012    2    1    2    0    0  0.39677128820E+02  0.17565061817E+02  0.12095762052E+02  0.46142318657E+02  0.10000008168E+02 0.  0.
        -12    1    1    2    0    0 -0.39677128820E+02 -0.17565061817E+02 -0.12095762052E+02  0.45045681343E+02  0.00000000000E+00 0.  1.
         11    1    3    3    0    0  0.13332524947E+02  0.51502546710E+01  0.15729708443E+00  0.14293568038E+02  0.51100000000E-03 0. -1.
        -11    1    3    3    0    0  0.18182655528E+02  0.92037503196E+01  0.10616331245E+02  0.22978783069E+02  0.51100000000E-03 0.  1.
        -12    1    3    3    0    0  0.81619483458E+01  0.32110568268E+01  0.13221337228E+01  0.88699675493E+01  0.00000000000E+00 0.  1.
</event>
<event>
 7    1  0.3981356E-008  0.4614232E+02  0.7816164E-02  0.1320468E+00
        -11   -1    0    0    0    0  0.00000000000E+00  0.00000000000E+00  0.45593999997E+02  0.45594000000E+02  0.51100000000E-03 0.  1.
         11   -1    0    0    0    0 -0.00000000000E+00 -0.00000000000E+00 -0.45593999997E+02  0.45594000000E+02  0.51100000000E-03 0. -1.
    9900012    2    1    2    0    0  0.87256390804E+01  0.17200123652E+01 -0.44159011851E+02  0.46142317104E+02  0.99999940083E+01 0.  0.
        -12    1    1    2    0    0 -0.87256390804E+01 -0.17200123652E+01  0.44159011851E+02  0.45045682896E+02  0.00000000000E+00 0.  1.
         11    1    3    3    0    0  0.15850491051E+01 -0.12090704435E+01 -0.20566224015E+01  0.28642499833E+01  0.51100000000E-03 0. -1.
        -11    1    3    3    0    0  0.42621163508E+01  0.34381120943E+01 -0.14140044623E+02  0.15163347676E+02  0.51100000000E-03 0.  1.
         12    1    3    3    0    0  0.28784736244E+01 -0.50902928556E+00 -0.27962344827E+02  0.28114719445E+02  0.00000000000E+00 0. -1.
</event>
<event>
 7    1  0.3981356E-008  0.4614232E+02  0.7816164E-02  0.1320468E+00
        -11   -1    0    0    0    0  0.00000000000E+00  0.00000000000E+00  0.45593999997E+02  0.45594000000E+02  0.51100000000E-03 0. -1.
         11   -1    0    0    0    0 -0.00000000000E+00 -0.00000000000E+00 -0.45593999997E+02  0.45594000000E+02  0.51100000000E-03 0.  1.
    9900012    2    1    2    0    0  0.89454514659E+01  0.26844806521E+02  0.35049233259E+02  0.46142317730E+02  0.99999997184E+01 0.  0.
        -12    1    1    2    0    0 -0.89454514659E+01 -0.26844806521E+02 -0.35049233259E+02  0.45045682270E+02  0.00000000000E+00 0.  1.
         11    1    3    3    0    0  0.26386295565E+00 -0.44889880006E+00  0.15013747008E+01  0.15891066816E+01  0.51100000000E-03 0. -1.
        -11    1    3    3    0    0  0.91847898545E+00  0.58079862174E+01  0.36298394315E+01  0.69102852407E+01  0.51100000000E-03 0.  1.
        -12    1    3    3    0    0  0.77631095248E+01  0.21485719104E+02  0.29918019127E+02  0.37642925808E+02  0.00000000000E+00 0.  1.
</event>
<event>
 7    1  0.3981356E-008  0.4614232E+02  0.7816164E-02  0.1320468E+00
        -11   -1    0    0    0    0  0.00000000000E+00  0.00000000000E+00  0.45593999997E+02  0.45594000000E+02  0.51100000000E-03 0. -1.
         11   -1    0    0    0    0 -0.00000000000E+00 -0.00000000000E+00 -0.45593999997E+02  0.45594000000E+02  0.51100000000E-03 0.  1.
    9900012    2    1    2    0    0  0.19800448955E+01  0.43929448540E+02  0.97671107941E+01  0.46142317853E+02  0.10000000842E+02 0.  0.
        -12    1    1    2    0    0 -0.19800448955E+01 -0.43929448540E+02 -0.97671107941E+01  0.45045682147E+02  0.00000000000E+00 0.  1.
         11    1    3    3    0    0 -0.15560568955E+01  0.24363114431E+02  0.41783720635E+01  0.24767750225E+02  0.51100000000E-03 0. -1.
        -11    1    3    3    0    0  0.27191676718E+01  0.14857113624E+02  0.16738948177E+01  0.15196368717E+02  0.51100000000E-03 0.  1.
        -12    1    3    3    0    0  0.81693411913E+00  0.47092204843E+01  0.39148439129E+01  0.61781989113E+01  0.00000000000E+00 0.  1.
</event>
<event>
 7    1  0.3981356E-008  0.4614232E+02  0.7816164E-02  0.1320468E+00
        -11   -1    0    0    0    0  0.00000000000E+00  0.00000000000E+00  0.45593999997E+02  0.45594000000E+02  0.51100000000E-03 0.  1.
         11   -1    0    0    0    0 -0.00000000000E+00 -0.00000000000E+00 -0.45593999997E+02  0.45594000000E+02  0.51100000000E-03 0. -1.
    9900012    2    1    2    0    0 -0.38590251484E+02 -0.81624622125E+01  0.21755004593E+02  0.46142317368E+02  0.99999964129E+01 0.  0.
        -12    1    1    2    0    0  0.38590251484E+02  0.81624622125E+01 -0.21755004593E+02  0.45045682632E+02  0.00000000000E+00 0.  1.
         11    1    3    3    0    0 -0.13194921780E+02  0.13153899813E+00  0.58339153883E+01  0.14427675915E+02  0.51100000000E-03 0. -1.
        -11    1    3    3    0    0 -0.10630636131E+02 -0.66689589983E+01  0.79748194292E+01  0.14868866260E+02  0.51100000000E-03 0.  1.
        -12    1    3    3    0    0 -0.14764693573E+02 -0.16250422123E+01  0.79462697754E+01  0.16845775193E+02  0.00000000000E+00 0.  1.
</event>
<event>
 7    1  0.3981356E-008  0.4614232E+02  0.7816164E-02  0.1320468E+00
        -11   -1    0    0    0    0  0.00000000000E+00  0.00000000000E+00  0.45593999997E+02  0.45594000000E+02  0.51100000000E-03 0.  1.
         11   -1    0    0    0    0 -0.00000000000E+00 -0.00000000000E+00 -0.45593999997E+02  0.45594000000E+02  0.51100000000E-03 0. -1.
    9900012    2    1    2    0    0  0.39504410531E+02  0.88383381457E+01 -0.19758514380E+02  0.46142316931E+02  0.99999924349E+01 0.  0.
        -12    1    1    2    0    0 -0.39504410531E+02 -0.88383381457E+01  0.19758514380E+02  0.45045683069E+02  0.00000000000E+00 0.  1.
         11    1    3    3    0    0  0.41330303643E+01  0.98478263935E+00 -0.25715187874E+01  0.49663312389E+01  0.51100000000E-03 0. -1.
        -11    1    3    3    0    0  0.89000612864E+01  0.52290124088E+01 -0.19021986237E+01  0.10496286083E+02  0.51100000000E-03 0.  1.
        -12    1    3    3    0    0  0.26471318880E+02  0.26245430976E+01 -0.15284796969E+02  0.30679699610E+02  0.00000000000E+00 0.  1.
</event>
<event>
 7    1  0.3981356E-008  0.4614231E+02  0.7816164E-02  0.1320468E+00
        -11   -1    0    0    0    0  0.00000000000E+00  0.00000000000E+00  0.45593999997E+02  0.45594000000E+02  0.51100000000E-03 0. -1.
         11   -1    0    0    0    0 -0.00000000000E+00 -0.00000000000E+00 -0.45593999997E+02  0.45594000000E+02  0.51100000000E-03 0.  1.
    9900012    2    1    2    0    0  0.43235214809E+02  0.99289156107E+01  0.78260270136E+01  0.46142313596E+02  0.99999620207E+01 0.  0.
        -12    1    1    2    0    0 -0.43235214809E+02 -0.99289156107E+01 -0.78260270136E+01  0.45045686404E+02  0.00000000000E+00 0.  1.
         11    1    3    3    0    0  0.13510423470E+02  0.50219988792E+01  0.40063209746E+01  0.14960034194E+02  0.51100000000E-03 0. -1.
        -11    1    3    3    0    0  0.14532968548E+02 -0.32262384964E+00  0.41324108536E+01  0.15112514042E+02  0.51100000000E-03 0.  1.
        -12    1    3    3    0    0  0.15191822791E+02  0.52295405811E+01 -0.31270481461E+00  0.16069765360E+02  0.00000000000E+00 0.  1.
</event>
<event>
 7    1  0.3981356E-008  0.4614232E+02  0.7816164E-02  0.1320468E+00
        -11   -1    0    0    0    0  0.00000000000E+00  0.00000000000E+00  0.45593999997E+02  0.45594000000E+02  0.51100000000E-03 0. -1.
         11   -1    0    0    0    0 -0.00000000000E+00 -0.00000000000E+00 -0.45593999997E+02  0.45594000000E+02  0.51100000000E-03 0.  1.
    9900012    2    1    2    0    0 -0.31303832960E+02 -0.26271816220E+02  0.18946641255E+02  0.46142317629E+02  0.99999987931E+01 0.  0.
        -12    1    1    2    0    0  0.31303832960E+02  0.26271816220E+02 -0.18946641255E+02  0.45045682371E+02  0.00000000000E+00 0.  1.
         11    1    3    3    0    0 -0.14819651288E+02 -0.15572547152E+02  0.86287709610E+01  0.23164239199E+02  0.51100000000E-03 0. -1.
        -11    1    3    3    0    0 -0.59895936580E+00  0.74262039588E+00  0.50424843840E+00  0.10791219222E+01  0.51100000000E-03 0.  1.
         12    1    3    3    0    0 -0.15885222306E+02 -0.11441889463E+02  0.98136218555E+01  0.21898956507E+02  0.00000000000E+00 0. -1.
</event>
<event>
 7    1  0.3981356E-008  0.4614232E+02  0.7816164E-02  0.1320468E+00
        -11   -1    0    0    0    0  0.00000000000E+00  0.00000000000E+00  0.45593999997E+02  0.45594000000E+02  0.51100000000E-03 0.  1.
         11   -1    0    0    0    0 -0.00000000000E+00 -0.00000000000E+00 -0.45593999997E+02  0.45594000000E+02  0.51100000000E-03 0. -1.
    9900012    2    1    2    0    0 -0.21203998116E+02  0.19593042727E+02 -0.34577690110E+02  0.46142317490E+02  0.99999975276E+01 0.  0.
        -12    1    1    2    0    0  0.21203998116E+02 -0.19593042727E+02  0.34577690110E+02  0.45045682510E+02  0.00000000000E+00 0.  1.
         11    1    3    3    0    0 -0.13424765359E+01 -0.72366778887E-01 -0.22145394043E+01  0.25906881778E+01  0.51100000000E-03 0. -1.
        -11    1    3    3    0    0 -0.94903656318E+01  0.40125294494E+01 -0.10115097495E+02  0.14438927592E+02  0.51100000000E-03 0.  1.
         12    1    3    3    0    0 -0.10371155949E+02  0.15652880056E+02 -0.22248053211E+02  0.29112701720E+02  0.00000000000E+00 0. -1.
</event>
<event>
 7    1  0.3981356E-008  0.4614232E+02  0.7816164E-02  0.1320468E+00
        -11   -1    0    0    0    0  0.00000000000E+00  0.00000000000E+00  0.45593999997E+02  0.45594000000E+02  0.51100000000E-03 0.  1.
         11   -1    0    0    0    0 -0.00000000000E+00 -0.00000000000E+00 -0.45593999997E+02  0.45594000000E+02  0.51100000000E-03 0. -1.
    9900012    2    1    2    0    0  0.40919448663E+01 -0.42631477095E+02 -0.13961613758E+02  0.46142317512E+02  0.99999977266E+01 0.  0.
        -12    1    1    2    0    0 -0.40919448663E+01  0.42631477095E+02  0.13961613758E+02  0.45045682488E+02  0.00000000000E+00 0.  1.
         11    1    3    3    0    0  0.11449923484E+00 -0.15664377920E+02 -0.69577608725E+01  0.17140486642E+02  0.51100000000E-03 0. -1.
        -11    1    3    3    0    0  0.27406693958E+01 -0.80698529320E+01 -0.51876854042E+01  0.99772679224E+01  0.51100000000E-03 0.  1.
         12    1    3    3    0    0  0.12367762357E+01 -0.18897246243E+02 -0.18161674813E+01  0.19024562948E+02  0.00000000000E+00 0. -1.
</event>
<event>
 7    1  0.3981356E-008  0.4614232E+02  0.7816164E-02  0.1320468E+00
        -11   -1    0    0    0    0  0.00000000000E+00  0.00000000000E+00  0.45593999997E+02  0.45594000000E+02  0.51100000000E-03 0. -1.
         11   -1    0    0    0    0 -0.00000000000E+00 -0.00000000000E+00 -0.45593999997E+02  0.45594000000E+02  0.51100000000E-03 0.  1.
    9900012    2    1    2    0    0 -0.19031225468E+02 -0.12004161780E+02  0.39023403424E+02  0.46142318102E+02  0.10000003112E+02 0.  0.
        -12    1    1    2    0    0  0.19031225468E+02  0.12004161780E+02 -0.39023403424E+02  0.45045681898E+02  0.00000000000E+00 0.  1.
         11    1    3    3    0    0 -0.11423454825E+02 -0.34934086975E+01  0.16641824514E+02  0.20485349591E+02  0.51100000000E-03 0. -1.
        -11    1    3    3    0    0  0.54732323415E+00 -0.18471223753E+01  0.24763418961E+01  0.31374660540E+01  0.51100000000E-03 0.  1.
         12    1    3    3    0    0 -0.81550938776E+01 -0.66636307069E+01  0.19905237013E+02  0.22519502457E+02  0.00000000000E+00 0. -1.
</event>
<event>
 7    1  0.3981356E-008  0.4614232E+02  0.7816164E-02  0.1320468E+00
        -11   -1    0    0    0    0  0.00000000000E+00  0.00000000000E+00  0.45593999997E+02  0.45594000000E+02  0.51100000000E-03 0.  1.
         11   -1    0    0    0    0 -0.00000000000E+00 -0.00000000000E+00 -0.45593999997E+02  0.45594000000E+02  0.51100000000E-03 0. -1.
    9900012    2    1    2    0    0 -0.36701363882E+02  0.11301105553E+01 -0.26093026736E+02  0.46142319797E+02  0.10000018569E+02 0.  0.
        -12    1    1    2    0    0  0.36701363882E+02 -0.11301105553E+01  0.26093026736E+02  0.45045680203E+02  0.00000000000E+00 0.  1.
         11    1    3    3    0    0 -0.17366110415E+02  0.23014608078E+01 -0.15557007603E+02  0.23428593611E+02  0.51100000000E-03 0. -1.
        -11    1    3    3    0    0 -0.14471034277E+02  0.18546047974E+00 -0.10093690030E+02  0.17644483765E+02  0.51100000000E-03 0.  1.
        -12    1    3    3    0    0 -0.48642191903E+01 -0.13568107322E+01 -0.44232910306E+00  0.50692424216E+01  0.00000000000E+00 0.  1.
</event>
<event>
 7    1  0.3981356E-008  0.4614232E+02  0.7816164E-02  0.1320468E+00
        -11   -1    0    0    0    0  0.00000000000E+00  0.00000000000E+00  0.45593999997E+02  0.45594000000E+02  0.51100000000E-03 0. -1.
         11   -1    0    0    0    0 -0.00000000000E+00 -0.00000000000E+00 -0.45593999997E+02  0.45594000000E+02  0.51100000000E-03 0.  1.
    9900012    2    1    2    0    0  0.32166821441E+02 -0.73036860943E+01  0.30676786513E+02  0.46142318044E+02  0.10000002577E+02 0.  0.
        -12    1    1    2    0    0 -0.32166821441E+02  0.73036860943E+01 -0.30676786513E+02  0.45045681956E+02  0.00000000000E+00 0.  1.
         11    1    3    3    0    0  0.10099970578E+02 -0.32147893562E+01  0.10048612301E+02  0.14605440279E+02  0.51100000000E-03 0. -1.
        -11    1    3    3    0    0  0.53237219038E+01 -0.28960515786E+01  0.99256763236E+01  0.11629625118E+02  0.51100000000E-03 0.  1.
        -12    1    3    3    0    0  0.16743128959E+02 -0.11928451595E+01  0.10702497888E+02  0.19907252647E+02  0.00000000000E+00 0.  1.
</event>
<event>
 7    1  0.3981356E-008  0.4614232E+02  0.7816164E-02  0.1320468E+00
        -11   -1    0    0    0    0  0.00000000000E+00  0.00000000000E+00  0.45593999997E+02  0.45594000000E+02  0.51100000000E-03 0.  1.
         11   -1    0    0    0    0 -0.00000000000E+00 -0.00000000000E+00 -0.45593999997E+02  0.45594000000E+02  0.51100000000E-03 0. -1.
    9900012    2    1    2    0    0  0.35280076574E+02 -0.20649743950E+01 -0.27931444250E+02  0.46142317630E+02  0.99999988003E+01 0.  0.
        -12    1    1    2    0    0 -0.35280076574E+02  0.20649743950E+01  0.27931444250E+02  0.45045682370E+02  0.00000000000E+00 0.  1.
         11    1    3    3    0    0  0.87484240374E+01  0.21853865512E+01 -0.75087811406E+01  0.11734250381E+02  0.51100000000E-03 0. -1.
        -11    1    3    3    0    0  0.34464535986E+01 -0.24946200409E+01 -0.15142820832E+01  0.45159962405E+01  0.51100000000E-03 0.  1.
        -12    1    3    3    0    0  0.23085198938E+02 -0.17557409053E+01 -0.18908381026E+02  0.29892071008E+02  0.00000000000E+00 0.  1.
</event>
<event>
 7    1  0.3981356E-008  0.4614232E+02  0.7816164E-02  0.1320468E+00
        -11   -1    0    0    0    0  0.00000000000E+00  0.00000000000E+00  0.45593999997E+02  0.45594000000E+02  0.51100000000E-03 0.  1.
         11   -1    0    0    0    0 -0.00000000000E+00 -0.00000000000E+00 -0.45593999997E+02  0.45594000000E+02  0.51100000000E-03 0. -1.
    9900012    2    1    2    0    0  0.18687898831E+02 -0.32770356298E+02 -0.24616653311E+02  0.46142318356E+02  0.10000005420E+02 0.  0.
        -12    1    1    2    0    0 -0.18687898831E+02  0.32770356298E+02  0.24616653311E+02  0.45045681644E+02  0.00000000000E+00 0.  1.
         11    1    3    3    0    0  0.98072794086E+01 -0.12859426117E+02 -0.10946730225E+02  0.19528913752E+02  0.51100000000E-03 0. -1.
        -11    1    3    3    0    0  0.53611116681E+01 -0.16682241907E+02 -0.12938218480E+02  0.21781556672E+02  0.51100000000E-03 0.  1.
         12    1    3    3    0    0  0.35195077538E+01 -0.32286882743E+01 -0.73170460529E+00  0.48318479313E+01  0.00000000000E+00 0. -1.
</event>
<event>
 7    1  0.3981356E-008  0.4614232E+02  0.7816164E-02  0.1320468E+00
        -11   -1    0    0    0    0  0.00000000000E+00  0.00000000000E+00  0.45593999997E+02  0.45594000000E+02  0.51100000000E-03 0. -1.
         11   -1    0    0    0    0 -0.00000000000E+00 -0.00000000000E+00 -0.45593999997E+02  0.45594000000E+02  0.51100000000E-03 0.  1.
    9900012    2    1    2    0    0  0.13568696202E+02 -0.19674495483E+01  0.42908427598E+02  0.46142317263E+02  0.99999954578E+01 0.  0.
        -12    1    1    2    0    0 -0.13568696202E+02  0.19674495483E+01 -0.42908427598E+02  0.45045682737E+02  0.00000000000E+00 0.  1.
         11    1    3    3    0    0  0.17602607522E+01 -0.31060759847E+01  0.68875003242E+01  0.77578274611E+01  0.51100000000E-03 0. -1.
        -11    1    3    3    0    0  0.89165163312E+01  0.86737853137E+00  0.17734306511E+02  0.19868624429E+02  0.51100000000E-03 0.  1.
        -12    1    3    3    0    0  0.28919191186E+01  0.27124790503E+00  0.18286620762E+02  0.18515865373E+02  0.00000000000E+00 0.  1.
</event>
<event>
 7    1  0.3981356E-008  0.4614232E+02  0.7816164E-02  0.1320468E+00
        -11   -1    0    0    0    0  0.00000000000E+00  0.00000000000E+00  0.45593999997E+02  0.45594000000E+02  0.51100000000E-03 0.  1.
         11   -1    0    0    0    0 -0.00000000000E+00 -0.00000000000E+00 -0.45593999997E+02  0.45594000000E+02  0.51100000000E-03 0. -1.
    9900012    2    1    2    0    0 -0.12486440323E+02  0.49821268630E+01 -0.42992800488E+02  0.46142315702E+02  0.99999812253E+01 0.  0.
        -12    1    1    2    0    0  0.12486440323E+02 -0.49821268630E+01  0.42992800488E+02  0.45045684298E+02  0.00000000000E+00 0.  1.
         11    1    3    3    0    0 -0.73453410131E+01  0.31911286388E+01 -0.21683368113E+02  0.23115055474E+02  0.51100000000E-03 0. -1.
        -11    1    3    3    0    0 -0.27550288140E+01  0.56042325780E+00 -0.19694723795E+02  0.19894381208E+02  0.51100000000E-03 0.  1.
        -12    1    3    3    0    0 -0.23860704960E+01  0.12305749664E+01 -0.16147085803E+01  0.31328790208E+01  0.00000000000E+00 0.  1.
</event>
<event>
 7    1  0.3981356E-008  0.4614232E+02  0.7816164E-02  0.1320468E+00
        -11   -1    0    0    0    0  0.00000000000E+00  0.00000000000E+00  0.45593999997E+02  0.45594000000E+02  0.51100000000E-03 0. -1.
         11   -1    0    0    0    0 -0.00000000000E+00 -0.00000000000E+00 -0.45593999997E+02  0.45594000000E+02  0.51100000000E-03 0.  1.
    9900012    2    1    2    0    0  0.45033113741E+02  0.73885163717E+00 -0.76572268122E+00  0.46142316897E+02  0.99999921239E+01 0.  0.
        -12    1    1    2    0    0 -0.45033113741E+02 -0.73885163717E+00  0.76572268122E+00  0.45045683103E+02  0.00000000000E+00 0.  1.
         11    1    3    3    0    0  0.15492264149E+02  0.93265823090E-01  0.10691884108E+00  0.15492913828E+02  0.51100000000E-03 0. -1.
        -11    1    3    3    0    0  0.18345722310E+02 -0.32046944965E+00  0.33379821764E+01  0.18649674341E+02  0.51100000000E-03 0.  1.
        -12    1    3    3    0    0  0.11195127282E+02  0.96605526373E+00 -0.42106236987E+01  0.11999728729E+02  0.00000000000E+00 0.  1.
</event>
<event>
 7    1  0.3981356E-008  0.4614232E+02  0.7816164E-02  0.1320468E+00
        -11   -1    0    0    0    0  0.00000000000E+00  0.00000000000E+00  0.45593999997E+02  0.45594000000E+02  0.51100000000E-03 0.  1.
         11   -1    0    0    0    0 -0.00000000000E+00 -0.00000000000E+00 -0.45593999997E+02  0.45594000000E+02  0.51100000000E-03 0. -1.
    9900012    2    1    2    0    0  0.34332093762E+02 -0.25381967373E+02 -0.14358851117E+02  0.46142317241E+02  0.99999952578E+01 0.  0.
        -12    1    1    2    0    0 -0.34332093762E+02  0.25381967373E+02  0.14358851117E+02  0.45045682759E+02  0.00000000000E+00 0.  1.
         11    1    3    3    0    0  0.82603758527E+01 -0.67877735078E+01 -0.25273243246E+01  0.10986129752E+02  0.51100000000E-03 0. -1.
        -11    1    3    3    0    0  0.49773751052E+01 -0.73862911160E+01 -0.54099509732E+01  0.10421090595E+02  0.51100000000E-03 0.  1.
         12    1    3    3    0    0  0.21094342805E+02 -0.11207902749E+02 -0.64215758194E+01  0.24735096895E+02  0.00000000000E+00 0. -1.
</event>
<event>
 7    1  0.3981356E-008  0.4614232E+02  0.7816164E-02  0.1320468E+00
        -11   -1    0    0    0    0  0.00000000000E+00  0.00000000000E+00  0.45593999997E+02  0.45594000000E+02  0.51100000000E-03 0.  1.
         11   -1    0    0    0    0 -0.00000000000E+00 -0.00000000000E+00 -0.45593999997E+02  0.45594000000E+02  0.51100000000E-03 0. -1.
    9900012    2    1    2    0    0 -0.44886965682E+02 -0.32052703639E+01 -0.20000286368E+01  0.46142316957E+02  0.99999926694E+01 0.  0.
        -12    1    1    2    0    0  0.44886965682E+02  0.32052703639E+01  0.20000286368E+01  0.45045683043E+02  0.00000000000E+00 0.  1.
         11    1    3    3    0    0 -0.23963054436E+01  0.61565889542E-01 -0.49925363676E+00  0.24485351933E+01  0.51100000000E-03 0. -1.
        -11    1    3    3    0    0 -0.37970084915E+02 -0.61775069230E+00 -0.33850503617E+01  0.38125680723E+02  0.51100000000E-03 0.  1.
        -12    1    3    3    0    0 -0.45205753232E+01 -0.26490855611E+01  0.18842753616E+01  0.55681010408E+01  0.00000000000E+00 0.  1.
</event>
<event>
 7    1  0.3981356E-008  0.4614232E+02  0.7816164E-02  0.1320468E+00
        -11   -1    0    0    0    0  0.00000000000E+00  0.00000000000E+00  0.45593999997E+02  0.45594000000E+02  0.51100000000E-03 0.  1.
         11   -1    0    0    0    0 -0.00000000000E+00 -0.00000000000E+00 -0.45593999997E+02  0.45594000000E+02  0.51100000000E-03 0. -1.
    9900012    2    1    2    0    0  0.27520519847E+02  0.24529990701E+02  0.25884628511E+02  0.46142318191E+02  0.10000003920E+02 0.  0.
        -12    1    1    2    0    0 -0.27520519847E+02 -0.24529990701E+02 -0.25884628511E+02  0.45045681809E+02  0.00000000000E+00 0.  1.
         11    1    3    3    0    0  0.91253505987E+01  0.78127699724E+01  0.53337878884E+01  0.13143846153E+02  0.51100000000E-03 0. -1.
        -11    1    3    3    0    0  0.14958011773E+02  0.14649623026E+02  0.19991652135E+02  0.28948570368E+02  0.51100000000E-03 0.  1.
        -12    1    3    3    0    0  0.34371574752E+01  0.20675977030E+01  0.55918848767E+00  0.40499016699E+01  0.00000000000E+00 0.  1.
</event>
<event>
 7    1  0.3981356E-008  0.4614232E+02  0.7816164E-02  0.1320468E+00
        -11   -1    0    0    0    0  0.00000000000E+00  0.00000000000E+00  0.45593999997E+02  0.45594000000E+02  0.51100000000E-03 0.  1.
         11   -1    0    0    0    0 -0.00000000000E+00 -0.00000000000E+00 -0.45593999997E+02  0.45594000000E+02  0.51100000000E-03 0. -1.
    9900012    2    1    2    0    0  0.41412963496E+02 -0.12717496376E+02 -0.12342820830E+02  0.46142317791E+02  0.10000000273E+02 0.  0.
        -12    1    1    2    0    0 -0.41412963496E+02  0.12717496376E+02  0.12342820830E+02  0.45045682209E+02  0.00000000000E+00 0.  1.
         11    1    3    3    0    0  0.13282152119E+01  0.13722681264E+01 -0.30186866817E+00  0.19334943532E+01  0.51100000000E-03 0.  1.
        -11    1    3    3    0    0  0.75944873578E+01 -0.35250582194E+01 -0.23655702885E+01  0.87004710636E+01  0.51100000000E-03 0. -1.
        -12    1    3    3    0    0  0.32490260927E+02 -0.10564706283E+02 -0.96753818734E+01  0.35508352374E+02  0.00000000000E+00 0.  1.
</event>
<event>
 7    1  0.3981356E-008  0.4614232E+02  0.7816164E-02  0.1320468E+00
        -11   -1    0    0    0    0  0.00000000000E+00  0.00000000000E+00  0.45593999997E+02  0.45594000000E+02  0.51100000000E-03 0.  1.
         11   -1    0    0    0    0 -0.00000000000E+00 -0.00000000000E+00 -0.45593999997E+02  0.45594000000E+02  0.51100000000E-03 0. -1.
    9900012    2    1    2    0    0  0.82411139567E+01 -0.29930937503E+02 -0.32639492974E+02  0.46142317847E+02  0.10000000782E+02 0.  0.
        -12    1    1    2    0    0 -0.82411139567E+01  0.29930937503E+02  0.32639492974E+02  0.45045682153E+02  0.00000000000E+00 0.  1.
         11    1    3    3    0    0  0.26820288028E+01 -0.77763117819E+01 -0.34964287711E+01  0.89380824476E+01  0.51100000000E-03 0. -1.
        -11    1    3    3    0    0  0.14322459531E+01 -0.15906972923E+01 -0.23616095048E+01  0.31872944734E+01  0.51100000000E-03 0.  1.
        -12    1    3    3    0    0  0.41268392009E+01 -0.20563928428E+02 -0.26781454698E+02  0.34016940926E+02  0.00000000000E+00 0.  1.
</event>
<event>
 7    1  0.3981356E-008  0.4614232E+02  0.7816164E-02  0.1320468E+00
        -11   -1    0    0    0    0  0.00000000000E+00  0.00000000000E+00  0.45593999997E+02  0.45594000000E+02  0.51100000000E-03 0.  1.
         11   -1    0    0    0    0 -0.00000000000E+00 -0.00000000000E+00 -0.45593999997E+02  0.45594000000E+02  0.51100000000E-03 0. -1.
    9900012    2    1    2    0    0 -0.96974240028E+01  0.23831277007E+02 -0.36974906582E+02  0.46142317490E+02  0.99999975243E+01 0.  0.
        -12    1    1    2    0    0  0.96974240028E+01 -0.23831277007E+02  0.36974906582E+02  0.45045682510E+02  0.00000000000E+00 0.  1.
         11    1    3    3    0    0 -0.26558457895E+01  0.12856105891E+01 -0.15319753541E+01  0.33246443706E+01  0.51100000000E-03 0.  1.
        -11    1    3    3    0    0 -0.56369838729E+01  0.10772790786E+02 -0.17353943649E+02  0.21189336209E+02  0.51100000000E-03 0. -1.
        -12    1    3    3    0    0 -0.14045943404E+01  0.11772875631E+02 -0.18088987579E+02  0.21628336910E+02  0.00000000000E+00 0.  1.
</event>
<event>
 7    1  0.3981356E-008  0.4614232E+02  0.7816164E-02  0.1320468E+00
        -11   -1    0    0    0    0  0.00000000000E+00  0.00000000000E+00  0.45593999997E+02  0.45594000000E+02  0.51100000000E-03 0.  1.
         11   -1    0    0    0    0 -0.00000000000E+00 -0.00000000000E+00 -0.45593999997E+02  0.45594000000E+02  0.51100000000E-03 0. -1.
    9900012    2    1    2    0    0 -0.22784673308E+02  0.12337395503E+02 -0.36847805871E+02  0.46142318042E+02  0.10000002564E+02 0.  0.
        -12    1    1    2    0    0  0.22784673308E+02 -0.12337395503E+02  0.36847805871E+02  0.45045681958E+02  0.00000000000E+00 0.  1.
         11    1    3    3    0    0 -0.13869426159E+02  0.23926096316E+01 -0.17095375996E+02  0.22143564382E+02  0.51100000000E-03 0. -1.
        -11    1    3    3    0    0 -0.25521260641E+00  0.14219571018E+01 -0.26706642282E+01  0.30363700622E+01  0.51100000000E-03 0.  1.
         12    1    3    3    0    0 -0.86600345425E+01  0.85228287701E+01 -0.17081765647E+02  0.20962383598E+02  0.00000000000E+00 0. -1.
</event>
