<event>
 8    1  0.8828843E-009  0.9118800E+02  0.7816164E-02  0.1184000E+00
        -11   -1    0    0    0    0  0.00000000000E+00  0.00000000000E+00  0.45593999997E+02  0.45594000000E+02  0.51100000000E-03 0. -1.
         11   -1    0    0    0    0 -0.00000000000E+00 -0.00000000000E+00 -0.45593999997E+02  0.45594000000E+02  0.51100000000E-03 0.  1.
         23    2    1    2    0    0  0.88817841970E-15  0.00000000000E+00 -0.71054273576E-14  0.91188000000E+02  0.91188000000E+02 0.  0.
    9900012    2    3    3    0    0 -0.77239710142E+01 -0.28670762418E+02  0.33873899162E+02  0.46142318850E+02  0.10000009931E+02 0.  0.
        -12    1    3    3    0    0  0.77239710142E+01  0.28670762418E+02 -0.33873899162E+02  0.45045681150E+02  0.00000000000E+00 0.  1.
         11    1    4    4    0    0  0.70045076162E+00 -0.75415080255E+01  0.59955445292E+01  0.96597892851E+01  0.51100000000E-03 0. -1.
        -11    1    4    4    0    0 -0.66523974072E+01 -0.11747447980E+02  0.19862094540E+02  0.24015822390E+02  0.51100000000E-03 0.  1.
        -12    1    4    4    0    0 -0.17720243686E+01 -0.93818064120E+01  0.80162600928E+01  0.12466707175E+02  0.00000000000E+00 0.  1.
</event>
<event>
 8    1  0.8828843E-009  0.9118800E+02  0.7816164E-02  0.1184000E+00
        -11   -1    0    0    0    0  0.00000000000E+00  0.00000000000E+00  0.45593999997E+02  0.45594000000E+02  0.51100000000E-03 0.  1.
         11   -1    0    0    0    0 -0.00000000000E+00 -0.00000000000E+00 -0.45593999997E+02  0.45594000000E+02  0.51100000000E-03 0. -1.
         23    2    1    2    0    0  0.00000000000E+00  0.00000000000E+00 -0.11102230246E-15  0.91188000000E+02  0.91188000000E+02 0.  0.
    9900012    2    3    3    0    0 -0.16599102203E+02 -0.41871888265E+02 -0.57291995608E+00  0.46142318098E+02  0.10000003068E+02 0.  0.
         12    1    3    3    0    0  0.16599102203E+02  0.41871888265E+02  0.57291995608E+00  0.45045681902E+02  0.00000000000E+00 0. -1.
         11    1    4    4    0    0 -0.60889559247E+01 -0.13741527153E+02 -0.20025155640E+01  0.15162948975E+02  0.51100000000E-03 0. -1.
        -11    1    4    4    0    0 -0.13668335255E+01 -0.13677897937E+02 -0.58992189148E+00  0.13758674862E+02  0.51100000000E-03 0.  1.
        -12    1    4    4    0    0 -0.91433127528E+01 -0.14452463174E+02  0.20195174994E+01  0.17220694261E+02  0.00000000000E+00 0.  1.
</event>
<event>
 8    1  0.8828843E-009  0.9118800E+02  0.7816164E-02  0.1184000E+00
        -11   -1    0    0    0    0  0.00000000000E+00  0.00000000000E+00  0.45593999997E+02  0.45594000000E+02  0.51100000000E-03 0. -1.
         11   -1    0    0    0    0 -0.00000000000E+00 -0.00000000000E+00 -0.45593999997E+02  0.45594000000E+02  0.51100000000E-03 0.  1.
         23    2    1    2    0    0  0.00000000000E+00  0.00000000000E+00 -0.35527136788E-14  0.91188000000E+02  0.91188000000E+02 0.  0.
    9900012    2    3    3    0    0  0.28849922418E+02  0.24617975463E+02  0.24305366997E+02  0.46142316475E+02  0.99999882700E+01 0.  0.
        -12    1    3    3    0    0 -0.28849922418E+02 -0.24617975463E+02 -0.24305366997E+02  0.45045683525E+02  0.00000000000E+00 0.  1.
         11    1    4    4    0    0  0.56745907170E+00  0.51792775022E+00 -0.11391609248E+00  0.77668274717E+00  0.51100000000E-03 0. -1.
        -11    1    4    4    0    0  0.81302212792E+01  0.12474080971E+02  0.10950229527E+02  0.18482714116E+02  0.51100000000E-03 0.  1.
         12    1    4    4    0    0  0.20152242067E+02  0.11625966741E+02  0.13469053562E+02  0.26882919612E+02  0.00000000000E+00 0. -1.
</event>
<event>
 8    1  0.8828843E-009  0.9118800E+02  0.7816164E-02  0.1184000E+00
        -11   -1    0    0    0    0  0.00000000000E+00  0.00000000000E+00  0.45593999997E+02  0.45594000000E+02  0.51100000000E-03 0. -1.
         11   -1    0    0    0    0 -0.00000000000E+00 -0.00000000000E+00 -0.45593999997E+02  0.45594000000E+02  0.51100000000E-03 0.  1.
         23    2    1    2    0    0  0.00000000000E+00  0.00000000000E+00 -0.17763568394E-14  0.91188000000E+02  0.91188000000E+02 0.  0.
    9900012    2    3    3    0    0  0.43184280710E+02  0.46910264155E+01  0.11925857374E+02  0.46142313155E+02  0.99999579935E+01 0.  0.
        -12    1    3    3    0    0 -0.43184280710E+02 -0.46910264155E+01 -0.11925857374E+02  0.45045686845E+02  0.00000000000E+00 0.  1.
         11    1    4    4    0    0  0.25249093206E+02  0.17799644474E+01  0.52929572745E+01  0.25859241639E+02  0.51100000000E-03 0. -1.
        -11    1    4    4    0    0  0.12315564079E+02  0.21911897618E+01  0.14290838301E+01  0.12590342013E+02  0.51100000000E-03 0.  1.
         12    1    4    4    0    0  0.56196234254E+01  0.71987220628E+00  0.52038162698E+01  0.76927295031E+01  0.00000000000E+00 0. -1.
</event>
<event>
 8    1  0.8828843E-009  0.9118800E+02  0.7816164E-02  0.1184000E+00
        -11   -1    0    0    0    0  0.00000000000E+00  0.00000000000E+00  0.45593999997E+02  0.45594000000E+02  0.51100000000E-03 0. -1.
         11   -1    0    0    0    0 -0.00000000000E+00 -0.00000000000E+00 -0.45593999997E+02  0.45594000000E+02  0.51100000000E-03 0.  1.
         23    2    1    2    0    0  0.00000000000E+00  0.00000000000E+00  0.00000000000E+00  0.91188000000E+02  0.91188000000E+02 0.  0.
    9900012    2    3    3    0    0  0.81550740814E+01 -0.13542018930E+02  0.42180823791E+02  0.46142318679E+02  0.10000008369E+02 0.  0.
        -12    1    3    3    0    0 -0.81550740814E+01  0.13542018930E+02 -0.42180823791E+02  0.45045681321E+02  0.00000000000E+00 0.  1.
         11    1    4    4    0    0  0.71658756307E+01 -0.81125050768E+01  0.23046515216E+02  0.25461821931E+02  0.51100000000E-03 0. -1.
        -11    1    4    4    0    0 -0.46984511452E+00  0.10499259977E+01  0.37835858013E+01  0.39545696111E+01  0.51100000000E-03 0.  1.
         12    1    4    4    0    0  0.14590435652E+01 -0.64794398504E+01  0.15350722774E+02  0.16725927137E+02  0.00000000000E+00 0. -1.
</event>
<event>
 8    1  0.8828843E-009  0.9118800E+02  0.7816164E-02  0.1184000E+00
        -11   -1    0    0    0    0  0.00000000000E+00  0.00000000000E+00  0.45593999997E+02  0.45594000000E+02  0.51100000000E-03 0. -1.
         11   -1    0    0    0    0 -0.00000000000E+00 -0.00000000000E+00 -0.45593999997E+02  0.45594000000E+02  0.51100000000E-03 0.  1.
         23    2    1    2    0    0  0.00000000000E+00  0.00000000000E+00  0.00000000000E+00  0.91188000000E+02  0.91188000000E+02 0.  0.
    9900012    2    3    3    0    0  0.15041351821E+02  0.42077174836E+02 -0.56905807841E+01  0.46142316339E+02  0.99999870361E+01 0.  0.
         12    1    3    3    0    0 -0.15041351821E+02 -0.42077174836E+02  0.56905807841E+01  0.45045683661E+02  0.00000000000E+00 0. -1.
         11    1    4    4    0    0  0.15238089151E+00 -0.52532720619E+00 -0.38940489690E-01  0.54836596586E+00  0.51100000000E-03 0. -1.
        -11    1    4    4    0    0  0.78831989165E+00  0.44986146550E+01 -0.11957681654E+01  0.47211062085E+01  0.51100000000E-03 0.  1.
        -12    1    4    4    0    0  0.14100651038E+02  0.38103887387E+02 -0.44558721291E+01  0.40872844165E+02  0.00000000000E+00 0.  1.
</event>
<event>
 8    1  0.8828843E-009  0.9118800E+02  0.7816164E-02  0.1184000E+00
        -11   -1    0    0    0    0  0.00000000000E+00  0.00000000000E+00  0.45593999997E+02  0.45594000000E+02  0.51100000000E-03 0. -1.
         11   -1    0    0    0    0 -0.00000000000E+00 -0.00000000000E+00 -0.45593999997E+02  0.45594000000E+02  0.51100000000E-03 0.  1.
         23    2    1    2    0    0 -0.17763568394E-14 -0.35527136788E-14  0.00000000000E+00  0.91188000000E+02  0.91188000000E+02 0.  0.
    9900012    2    3    3    0    0  0.11911909942E+02  0.26670516836E+02  0.34291448304E+02  0.46142317703E+02  0.99999994727E+01 0.  0.
        -12    1    3    3    0    0 -0.11911909942E+02 -0.26670516836E+02 -0.34291448304E+02  0.45045682297E+02  0.00000000000E+00 0.  1.
         11    1    4    4    0    0  0.13123450591E+01  0.32115125270E+01  0.43844966190E+01  0.55910529535E+01  0.51100000000E-03 0. -1.
        -11    1    4    4    0    0  0.39479165734E+01  0.35196843034E+01  0.11311007709E+02  0.12486517470E+02  0.51100000000E-03 0.  1.
         12    1    4    4    0    0  0.66516483090E+01  0.19939320006E+02  0.18595943976E+02  0.28064747280E+02  0.00000000000E+00 0. -1.
</event>
<event>
 8    1  0.8828843E-009  0.9118800E+02  0.7816164E-02  0.1184000E+00
        -11   -1    0    0    0    0  0.00000000000E+00  0.00000000000E+00  0.45593999997E+02  0.45594000000E+02  0.51100000000E-03 0. -1.
         11   -1    0    0    0    0 -0.00000000000E+00 -0.00000000000E+00 -0.45593999997E+02  0.45594000000E+02  0.51100000000E-03 0.  1.
         23    2    1    2    0    0  0.00000000000E+00  0.00000000000E+00  0.00000000000E+00  0.91188000000E+02  0.91188000000E+02 0.  0.
    9900012    2    3    3    0    0 -0.14260077034E+02 -0.21272241312E+02 -0.37057462304E+02  0.46142316967E+02  0.99999927592E+01 0.  0.
         12    1    3    3    0    0  0.14260077034E+02  0.21272241312E+02  0.37057462304E+02  0.45045683033E+02  0.00000000000E+00 0. -1.
         11    1    4    4    0    0 -0.30247454234E+01 -0.53311053341E+01 -0.14452130325E+02  0.15698211368E+02  0.51100000000E-03 0. -1.
        -11    1    4    4    0    0 -0.89450860661E+01 -0.10735305421E+02 -0.19422052356E+02  0.23926501315E+02  0.51100000000E-03 0.  1.
         12    1    4    4    0    0 -0.22902455450E+01 -0.52058305569E+01 -0.31832796240E+01  0.65176042844E+01  0.00000000000E+00 0. -1.
</event>
<event>
 8    1  0.8828843E-009  0.9118800E+02  0.7816164E-02  0.1184000E+00
        -11   -1    0    0    0    0  0.00000000000E+00  0.00000000000E+00  0.45593999997E+02  0.45594000000E+02  0.51100000000E-03 0. -1.
         11   -1    0    0    0    0 -0.00000000000E+00 -0.00000000000E+00 -0.45593999997E+02  0.45594000000E+02  0.51100000000E-03 0.  1.
         23    2    1    2    0    0  0.00000000000E+00  0.00000000000E+00 -0.71054273576E-14  0.91188000000E+02  0.91188000000E+02 0.  0.
    9900012    2    3    3    0    0  0.14572794748E+02 -0.22333024384E+02  0.36304038724E+02  0.46142317048E+02  0.99999935008E+01 0.  0.
        -12    1    3    3    0    0 -0.14572794748E+02  0.22333024384E+02 -0.36304038724E+02  0.45045682952E+02  0.00000000000E+00 0.  1.
         11    1    4    4    0    0 -0.28024043057E+00  0.25170296209E-01  0.37042116193E+00  0.46516700342E+00  0.51100000000E-03 0. -1.
        -11    1    4    4    0    0 -0.11557687624E+01 -0.18410546695E+01  0.28921034465E+01  0.36179478070E+01  0.51100000000E-03 0.  1.
         12    1    4    4    0    0  0.16008803941E+02 -0.20517140011E+02  0.33041514116E+02  0.42059202238E+02  0.00000000000E+00 0. -1.
</event>
<event>
 8    1  0.8828843E-009  0.9118800E+02  0.7816164E-02  0.1184000E+00
        -11   -1    0    0    0    0  0.00000000000E+00  0.00000000000E+00  0.45593999997E+02  0.45594000000E+02  0.51100000000E-03 0. -1.
         11   -1    0    0    0    0 -0.00000000000E+00 -0.00000000000E+00 -0.45593999997E+02  0.45594000000E+02  0.51100000000E-03 0.  1.
         23    2    1    2    0    0  0.00000000000E+00  0.00000000000E+00  0.35527136788E-14  0.91188000000E+02  0.91188000000E+02 0.  0.
    9900012    2    3    3    0    0  0.22194408925E+01 -0.39070423812E+02 -0.22308956662E+02  0.46142317831E+02  0.10000000640E+02 0.  0.
         12    1    3    3    0    0 -0.22194408925E+01  0.39070423812E+02  0.22308956662E+02  0.45045682169E+02  0.00000000000E+00 0. -1.
         11    1    4    4    0    0 -0.12930597881E+01 -0.12404163724E+02 -0.81000484113E+01  0.14870980662E+02  0.51100000000E-03 0. -1.
        -11    1    4    4    0    0 -0.29547818125E+00 -0.42455294447E+01 -0.54179664043E+01  0.68895709475E+01  0.51100000000E-03 0.  1.
         12    1    4    4    0    0  0.38079788618E+01 -0.22420730643E+02 -0.87909418464E+01  0.24381766222E+02  0.00000000000E+00 0. -1.
</event>
<event>
 8    1  0.8828843E-009  0.9118800E+02  0.7816164E-02  0.1184000E+00
        -11   -1    0    0    0    0  0.00000000000E+00  0.00000000000E+00  0.45593999997E+02  0.45594000000E+02  0.51100000000E-03 0. -1.
         11   -1    0    0    0    0 -0.00000000000E+00 -0.00000000000E+00 -0.45593999997E+02  0.45594000000E+02  0.51100000000E-03 0.  1.
         23    2    1    2    0    0  0.00000000000E+00  0.00000000000E+00  0.00000000000E+00  0.91188000000E+02  0.91188000000E+02 0.  0.
    9900012    2    3    3    0    0 -0.97977005578E+01 -0.29075707207E+02  0.32980627434E+02  0.46142317946E+02  0.10000001681E+02 0.  0.
        -12    1    3    3    0    0  0.97977005578E+01  0.29075707207E+02 -0.32980627434E+02  0.45045682054E+02  0.00000000000E+00 0.  1.
         11    1    4    4    0    0 -0.27317231391E+01 -0.49011140759E+01  0.90635452122E+01  0.10659788111E+02  0.51100000000E-03 0. -1.
        -11    1    4    4    0    0 -0.79745309406E+01 -0.17608227650E+02  0.15552609735E+02  0.24809806418E+02  0.51100000000E-03 0.  1.
        -12    1    4    4    0    0  0.90855352188E+00 -0.65663654819E+01  0.83644724865E+01  0.10672723416E+02  0.00000000000E+00 0.  1.
</event>
<event>
 8    1  0.8828843E-009  0.9118800E+02  0.7816164E-02  0.1184000E+00
        -11   -1    0    0    0    0  0.00000000000E+00  0.00000000000E+00  0.45593999997E+02  0.45594000000E+02  0.51100000000E-03 0. -1.
         11   -1    0    0    0    0 -0.00000000000E+00 -0.00000000000E+00 -0.45593999997E+02  0.45594000000E+02  0.51100000000E-03 0.  1.
         23    2    1    2    0    0  0.00000000000E+00  0.00000000000E+00 -0.17763568394E-14  0.91188000000E+02  0.91188000000E+02 0.  0.
    9900012    2    3    3    0    0  0.38345577882E+02  0.19284745896E+02  0.13668527961E+02  0.46142318476E+02  0.10000006520E+02 0.  0.
        -12    1    3    3    0    0 -0.38345577882E+02 -0.19284745896E+02 -0.13668527961E+02  0.45045681524E+02  0.00000000000E+00 0.  1.
         11    1    4    4    0    0  0.25042485018E+02  0.10736205292E+02  0.85177049165E+01  0.28547214527E+02  0.51100000000E-03 0. -1.
        -11    1    4    4    0    0  0.48613702120E+01  0.31892712153E+01 -0.93591909223E+00  0.58889995781E+01  0.51100000000E-03 0.  1.
        -12    1    4    4    0    0  0.84417226517E+01  0.53592693886E+01  0.60867421367E+01  0.11706104371E+02  0.00000000000E+00 0.  1.
</event>
<event>
 8    1  0.8828843E-009  0.9118800E+02  0.7816164E-02  0.1184000E+00
        -11   -1    0    0    0    0  0.00000000000E+00  0.00000000000E+00  0.45593999997E+02  0.45594000000E+02  0.51100000000E-03 0. -1.
         11   -1    0    0    0    0 -0.00000000000E+00 -0.00000000000E+00 -0.45593999997E+02  0.45594000000E+02  0.51100000000E-03 0.  1.
         23    2    1    2    0    0 -0.71054273576E-14  0.00000000000E+00  0.00000000000E+00  0.91188000000E+02  0.91188000000E+02 0.  0.
    9900012    2    3    3    0    0 -0.35445836455E+02 -0.90645224489E+00  0.27782807610E+02  0.46142319004E+02  0.10000011338E+02 0.  0.
        -12    1    3    3    0    0  0.35445836455E+02  0.90645224489E+00 -0.27782807610E+02  0.45045680996E+02  0.00000000000E+00 0.  1.
         11    1    4    4    0    0 -0.22311883932E+02  0.27668517979E+01  0.16421658910E+02  0.27841453178E+02  0.51100000000E-03 0. -1.
        -11    1    4    4    0    0 -0.76933404452E+01 -0.26788541542E+01  0.39501382693E+01  0.90535815782E+01  0.51100000000E-03 0.  1.
        -12    1    4    4    0    0 -0.54406120784E+01 -0.99444988862E+00  0.74110104302E+01  0.92472842480E+01  0.00000000000E+00 0.  1.
</event>
<event>
 8    1  0.8828843E-009  0.9118800E+02  0.7816164E-02  0.1184000E+00
        -11   -1    0    0    0    0  0.00000000000E+00  0.00000000000E+00  0.45593999997E+02  0.45594000000E+02  0.51100000000E-03 0. -1.
         11   -1    0    0    0    0 -0.00000000000E+00 -0.00000000000E+00 -0.45593999997E+02  0.45594000000E+02  0.51100000000E-03 0.  1.
         23    2    1    2    0    0  0.00000000000E+00 -0.71054273576E-14  0.00000000000E+00  0.91188000000E+02  0.91188000000E+02 0.  0.
    9900012    2    3    3    0    0  0.23816168336E+02 -0.33083174449E+02  0.19167867656E+02  0.46142318117E+02  0.10000003249E+02 0.  0.
        -12    1    3    3    0    0 -0.23816168336E+02  0.33083174449E+02 -0.19167867656E+02  0.45045681883E+02  0.00000000000E+00 0.  1.
         11    1    4    4    0    0  0.61978695405E+01 -0.49295448083E+01  0.13548613599E+01  0.80342795833E+01  0.51100000000E-03 0. -1.
        -11    1    4    4    0    0  0.15530123968E+00 -0.18477206580E+01 -0.21835471862E-02  0.18542370760E+01  0.51100000000E-03 0.  1.
         12    1    4    4    0    0  0.17462997556E+02 -0.26305908982E+02  0.17815189843E+02  0.36253801458E+02  0.00000000000E+00 0. -1.
</event>
<event>
 8    1  0.8828843E-009  0.9118800E+02  0.7816164E-02  0.1184000E+00
        -11   -1    0    0    0    0  0.00000000000E+00  0.00000000000E+00  0.45593999997E+02  0.45594000000E+02  0.51100000000E-03 0. -1.
         11   -1    0    0    0    0 -0.00000000000E+00 -0.00000000000E+00 -0.45593999997E+02  0.45594000000E+02  0.51100000000E-03 0.  1.
         23    2    1    2    0    0  0.00000000000E+00  0.00000000000E+00  0.71054273576E-14  0.91188000000E+02  0.91188000000E+02 0.  0.
    9900012    2    3    3    0    0  0.27289845002E+02 -0.32615101851E+01  0.35689498927E+02  0.46142318491E+02  0.10000006658E+02 0.  0.
        -12    1    3    3    0    0 -0.27289845002E+02  0.32615101851E+01 -0.35689498927E+02  0.45045681509E+02  0.00000000000E+00 0.  1.
         11    1    4    4    0    0  0.69123937689E+01 -0.22428315969E+01  0.79475983761E+01  0.10769206164E+02  0.51100000000E-03 0.  1.
        -11    1    4    4    0    0  0.20117115531E+02 -0.15960515721E+01  0.28137720015E+02  0.34626247354E+02  0.51100000000E-03 0. -1.
         12    1    4    4    0    0  0.26033570229E+00  0.57737298385E+00 -0.39581946435E+00  0.74686497355E+00  0.00000000000E+00 0. -1.
</event>
<event>
 8    1  0.8828843E-009  0.9118800E+02  0.7816164E-02  0.1184000E+00
        -11   -1    0    0    0    0  0.00000000000E+00  0.00000000000E+00  0.45593999997E+02  0.45594000000E+02  0.51100000000E-03 0.  1.
         11   -1    0    0    0    0 -0.00000000000E+00 -0.00000000000E+00 -0.45593999997E+02  0.45594000000E+02  0.51100000000E-03 0. -1.
         23    2    1    2    0    0  0.00000000000E+00  0.00000000000E+00 -0.17763568394E-14  0.91188000000E+02  0.91188000000E+02 0.  0.
    9900012    2    3    3    0    0  0.36676844739E+02 -0.23419233459E+02  0.11638802781E+02  0.46142321340E+02  0.10000032635E+02 0.  0.
        -12    1    3    3    0    0 -0.36676844739E+02  0.23419233459E+02 -0.11638802781E+02  0.45045678660E+02  0.00000000000E+00 0.  1.
         11    1    4    4    0    0  0.13644540512E+01 -0.17218746471E+01  0.22975900777E+01  0.31789161021E+01  0.51100000000E-03 0. -1.
        -11    1    4    4    0    0  0.37158842438E+01 -0.18001100422E+01 -0.93940939692E+00  0.42344636206E+01  0.51100000000E-03 0.  1.
         12    1    4    4    0    0  0.31596506444E+02 -0.19897248770E+02  0.10280622100E+02  0.38728941617E+02  0.00000000000E+00 0. -1.
</event>
<event>
 8    1  0.8828843E-009  0.9118800E+02  0.7816164E-02  0.1184000E+00
        -11   -1    0    0    0    0  0.00000000000E+00  0.00000000000E+00  0.45593999997E+02  0.45594000000E+02  0.51100000000E-03 0. -1.
         11   -1    0    0    0    0 -0.00000000000E+00 -0.00000000000E+00 -0.45593999997E+02  0.45594000000E+02  0.51100000000E-03 0.  1.
         23    2    1    2    0    0  0.88817841970E-15  0.00000000000E+00  0.00000000000E+00  0.91188000000E+02  0.91188000000E+02 0.  0.
    9900012    2    3    3    0    0 -0.77763561830E+01  0.27186699649E+02  0.35064586374E+02  0.46142316845E+02  0.99999916498E+01 0.  0.
        -12    1    3    3    0    0  0.77763561830E+01 -0.27186699649E+02 -0.35064586374E+02  0.45045683155E+02  0.00000000000E+00 0.  1.
         11    1    4    4    0    0  0.16108935815E+01  0.56749383468E+01  0.69820435233E+01  0.91405052045E+01  0.51100000000E-03 0. -1.
        -11    1    4    4    0    0 -0.14821150841E+01  0.49533404426E+01  0.31817734047E+01  0.60709084100E+01  0.51100000000E-03 0.  1.
         12    1    4    4    0    0 -0.79051346804E+01  0.16558420859E+02  0.24900769446E+02  0.30930903231E+02  0.00000000000E+00 0. -1.
</event>
<event>
 8    1  0.8828843E-009  0.9118800E+02  0.7816164E-02  0.1184000E+00
        -11   -1    0    0    0    0  0.00000000000E+00  0.00000000000E+00  0.45593999997E+02  0.45594000000E+02  0.51100000000E-03 0. -1.
         11   -1    0    0    0    0 -0.00000000000E+00 -0.00000000000E+00 -0.45593999997E+02  0.45594000000E+02  0.51100000000E-03 0.  1.
         23    2    1    2    0    0  0.71054273576E-14  0.00000000000E+00  0.00000000000E+00  0.91188000000E+02  0.91188000000E+02 0.  0.
    9900012    2    3    3    0    0  0.33487073378E+02 -0.53018353530E+01 -0.29658387672E+02  0.46142317623E+02  0.99999987416E+01 0.  0.
         12    1    3    3    0    0 -0.33487073378E+02  0.53018353530E+01  0.29658387672E+02  0.45045682377E+02  0.00000000000E+00 0. -1.
         11    1    4    4    0    0  0.86800323577E+01 -0.45062458001E+00 -0.10298650163E+02  0.13476209396E+02  0.51100000000E-03 0.  1.
        -11    1    4    4    0    0  0.96572594876E+01 -0.22627163699E+01 -0.33403060658E+01  0.10466144995E+02  0.51100000000E-03 0. -1.
         12    1    4    4    0    0  0.15149781532E+02 -0.25884944030E+01 -0.16019431444E+02  0.22199963232E+02  0.00000000000E+00 0. -1.
</event>
<event>
 8    1  0.8828843E-009  0.9118800E+02  0.7816164E-02  0.1184000E+00
        -11   -1    0    0    0    0  0.00000000000E+00  0.00000000000E+00  0.45593999997E+02  0.45594000000E+02  0.51100000000E-03 0. -1.
         11   -1    0    0    0    0 -0.00000000000E+00 -0.00000000000E+00 -0.45593999997E+02  0.45594000000E+02  0.51100000000E-03 0.  1.
         23    2    1    2    0    0 -0.35527136788E-14  0.35527136788E-14  0.00000000000E+00  0.91188000000E+02  0.91188000000E+02 0.  0.
    9900012    2    3    3    0    0  0.31054063752E+02  0.22109739664E+02 -0.23998292635E+02  0.46142317488E+02  0.99999975138E+01 0.  0.
         12    1    3    3    0    0 -0.31054063752E+02 -0.22109739664E+02  0.23998292635E+02  0.45045682512E+02  0.00000000000E+00 0. -1.
         11    1    4    4    0    0  0.95063647444E+01  0.56685957918E+01 -0.40961896811E+01  0.11801809991E+02  0.51100000000E-03 0. -1.
        -11    1    4    4    0    0  0.18663345781E+02  0.10803848483E+02 -0.14208507182E+02  0.25824896793E+02  0.51100000000E-03 0.  1.
         12    1    4    4    0    0  0.28843532263E+01  0.56372953891E+01 -0.56935957728E+01  0.85156107040E+01  0.00000000000E+00 0. -1.
</event>
<event>
 8    1  0.8828843E-009  0.9118800E+02  0.7816164E-02  0.1184000E+00
        -11   -1    0    0    0    0  0.00000000000E+00  0.00000000000E+00  0.45593999997E+02  0.45594000000E+02  0.51100000000E-03 0.  1.
         11   -1    0    0    0    0 -0.00000000000E+00 -0.00000000000E+00 -0.45593999997E+02  0.45594000000E+02  0.51100000000E-03 0. -1.
         23    2    1    2    0    0  0.00000000000E+00  0.88817841970E-15  0.00000000000E+00  0.91188000000E+02  0.91188000000E+02 0.  0.
    9900012    2    3    3    0    0  0.42765202735E+02 -0.62168229952E+01  0.12712281912E+02  0.46142316916E+02  0.99999922920E+01 0.  0.
        -12    1    3    3    0    0 -0.42765202735E+02  0.62168229952E+01 -0.12712281912E+02  0.45045683084E+02  0.00000000000E+00 0.  1.
         11    1    4    4    0    0  0.18189314441E+00 -0.61265999135E+00 -0.74626699348E-01  0.64343359126E+00  0.51100000000E-03 0. -1.
        -11    1    4    4    0    0  0.10755862430E+02  0.93176246912E+00  0.58342433737E+01  0.12271721717E+02  0.51100000000E-03 0.  1.
         12    1    4    4    0    0  0.31827447161E+02 -0.65359254730E+01  0.69526652379E+01  0.33227161607E+02  0.00000000000E+00 0. -1.
</event>
<event>
 8    1  0.8828843E-009  0.9118800E+02  0.7816164E-02  0.1184000E+00
        -11   -1    0    0    0    0  0.00000000000E+00  0.00000000000E+00  0.45593999997E+02  0.45594000000E+02  0.51100000000E-03 0.  1.
         11   -1    0    0    0    0 -0.00000000000E+00 -0.00000000000E+00 -0.45593999997E+02  0.45594000000E+02  0.51100000000E-03 0. -1.
         23    2    1    2    0    0  0.00000000000E+00  0.00000000000E+00  0.00000000000E+00  0.91188000000E+02  0.91188000000E+02 0.  0.
    9900012    2    3    3    0    0 -0.43575949043E+02 -0.11343750413E+02 -0.12528686148E+01  0.46142315542E+02  0.99999797685E+01 0.  0.
         12    1    3    3    0    0  0.43575949043E+02  0.11343750413E+02  0.12528686148E+01  0.45045684458E+02  0.00000000000E+00 0. -1.
         11    1    4    4    0    0 -0.18540074617E+02 -0.43757640491E+00 -0.27613773527E+00  0.18547293393E+02  0.51100000000E-03 0. -1.
        -11    1    4    4    0    0 -0.50865924481E+01 -0.28407422655E+01  0.12609278176E+01  0.59609712778E+01  0.51100000000E-03 0.  1.
        -12    1    4    4    0    0 -0.19949281979E+02 -0.80654317431E+01 -0.22376586971E+01  0.21634050872E+02  0.00000000000E+00 0.  1.
</event>
<event>
 8    1  0.8828843E-009  0.9118800E+02  0.7816164E-02  0.1184000E+00
        -11   -1    0    0    0    0  0.00000000000E+00  0.00000000000E+00  0.45593999997E+02  0.45594000000E+02  0.51100000000E-03 0. -1.
         11   -1    0    0    0    0 -0.00000000000E+00 -0.00000000000E+00 -0.45593999997E+02  0.45594000000E+02  0.51100000000E-03 0.  1.
         23    2    1    2    0    0  0.00000000000E+00  0.00000000000E+00  0.71054273576E-14  0.91188000000E+02  0.91188000000E+02 0.  0.
    9900012    2    3    3    0    0  0.13764503450E+02  0.95305263402E+01  0.41818903252E+02  0.46142321442E+02  0.10000033564E+02 0.  0.
        -12    1    3    3    0    0 -0.13764503450E+02 -0.95305263402E+01 -0.41818903252E+02  0.45045678558E+02  0.00000000000E+00 0.  1.
         11    1    4    4    0    0  0.10746539297E+02  0.10918684434E+02  0.35932151839E+02  0.39061813996E+02  0.51100000000E-03 0. -1.
        -11    1    4    4    0    0  0.10236935987E+01  0.60024592988E-01  0.35094380226E+01  0.36561874995E+01  0.51100000000E-03 0.  1.
        -12    1    4    4    0    0  0.19942705540E+01 -0.14481826867E+01  0.23773133908E+01  0.34243199463E+01  0.00000000000E+00 0.  1.
</event>
<event>
 8    1  0.8828843E-009  0.9118800E+02  0.7816164E-02  0.1184000E+00
        -11   -1    0    0    0    0  0.00000000000E+00  0.00000000000E+00  0.45593999997E+02  0.45594000000E+02  0.51100000000E-03 0. -1.
         11   -1    0    0    0    0 -0.00000000000E+00 -0.00000000000E+00 -0.45593999997E+02  0.45594000000E+02  0.51100000000E-03 0.  1.
         23    2    1    2    0    0  0.00000000000E+00  0.00000000000E+00  0.00000000000E+00  0.91188000000E+02  0.91188000000E+02 0.  0.
    9900012    2    3    3    0    0  0.24813203767E+02  0.17642566129E+01 -0.37554038424E+02  0.46142317804E+02  0.10000000390E+02 0.  0.
         12    1    3    3    0    0 -0.24813203767E+02 -0.17642566129E+01  0.37554038424E+02  0.45045682196E+02  0.00000000000E+00 0. -1.
         11    1    4    4    0    0  0.63167889543E+01  0.35545851233E+01 -0.94846663544E+01  0.11937160224E+02  0.51100000000E-03 0. -1.
        -11    1    4    4    0    0  0.11776506003E+02  0.18121268783E+01 -0.16644907866E+02  0.20470047767E+02  0.51100000000E-03 0.  1.
         12    1    4    4    0    0  0.67199088102E+01 -0.36024553887E+01 -0.11424464204E+02  0.13735109814E+02  0.00000000000E+00 0. -1.
</event>
<event>
 8    1  0.1044447E-008  0.9118800E+02  0.7816164E-02  0.1184000E+00
        -11   -1    0    0    0    0  0.00000000000E+00  0.00000000000E+00  0.45593999997E+02  0.45594000000E+02  0.51100000000E-03 0. -1.
         11   -1    0    0    0    0 -0.00000000000E+00 -0.00000000000E+00 -0.45593999997E+02  0.45594000000E+02  0.51100000000E-03 0.  1.
         23    2    1    2    0    0  0.00000000000E+00  0.00000000000E+00  0.35527136788E-14  0.91188000000E+02  0.91188000000E+02 0.  0.
    9900012    2    3    3    0    0  0.34140764664E+02 -0.18001864669E+02  0.23226159584E+02  0.46142318382E+02  0.10000005664E+02 0.  0.
        -12    1    3    3    0    0 -0.34140764664E+02  0.18001864669E+02 -0.23226159584E+02  0.45045681618E+02  0.00000000000E+00 0.  1.
         11    1    4    4    0    0  0.17873396358E+02 -0.12121154044E+02  0.10356167953E+02  0.23950592637E+02  0.51100000000E-03 0. -1.
        -11    1    4    4    0    0  0.23121711527E+01 -0.28386097209E+01  0.15889213023E+01  0.39910539652E+01  0.51100000000E-03 0.  1.
        -12    1    4    4    0    0  0.13955197154E+02 -0.30421009041E+01  0.11281070328E+02  0.18200671780E+02  0.00000000000E+00 0.  1.
</event>
<event>
 8    1  0.8828843E-009  0.9118800E+02  0.7816164E-02  0.1184000E+00
        -11   -1    0    0    0    0  0.00000000000E+00  0.00000000000E+00  0.45593999997E+02  0.45594000000E+02  0.51100000000E-03 0. -1.
         11   -1    0    0    0    0 -0.00000000000E+00 -0.00000000000E+00 -0.45593999997E+02  0.45594000000E+02  0.51100000000E-03 0.  1.
         23    2    1    2    0    0  0.00000000000E+00  0.35527136788E-14 -0.35527136788E-14  0.91188000000E+02  0.91188000000E+02 0.  0.
    9900012    2    3    3    0    0  0.13178109472E+02 -0.29155863901E+02 -0.31707830380E+02  0.46142317893E+02  0.10000001204E+02 0.  0.
         12    1    3    3    0    0 -0.13178109472E+02  0.29155863901E+02  0.31707830380E+02  0.45045682107E+02  0.00000000000E+00 0. -1.
         11    1    4    4    0    0  0.52082860029E+00 -0.68449375928E+00 -0.40071413934E+00  0.94887629328E+00  0.51100000000E-03 0. -1.
        -11    1    4    4    0    0 -0.40991818398E+00 -0.92650276368E+01 -0.10477080349E+02  0.13992068572E+02  0.51100000000E-03 0.  1.
         12    1    4    4    0    0  0.13067199055E+02 -0.19206342505E+02 -0.20830035892E+02  0.31201373028E+02  0.00000000000E+00 0. -1.
</event>
<event>
 8    1  0.8828843E-009  0.9118800E+02  0.7816164E-02  0.1184000E+00
        -11   -1    0    0    0    0  0.00000000000E+00  0.00000000000E+00  0.45593999997E+02  0.45594000000E+02  0.51100000000E-03 0. -1.
         11   -1    0    0    0    0 -0.00000000000E+00 -0.00000000000E+00 -0.45593999997E+02  0.45594000000E+02  0.51100000000E-03 0.  1.
         23    2    1    2    0    0  0.00000000000E+00  0.00000000000E+00  0.00000000000E+00  0.91188000000E+02  0.91188000000E+02 0.  0.
    9900012    2    3    3    0    0  0.31485480396E+01  0.33130123903E+02  0.30357785116E+02  0.46142316725E+02  0.99999905510E+01 0.  0.
        -12    1    3    3    0    0 -0.31485480396E+01 -0.33130123903E+02 -0.30357785116E+02  0.45045683275E+02  0.00000000000E+00 0.  1.
         11    1    4    4    0    0  0.75447064876E+00 -0.25801895003E+00  0.13978783578E+01  0.16093054101E+01  0.51100000000E-03 0. -1.
        -11    1    4    4    0    0 -0.63659525859E+00  0.96083805590E+01  0.60397533099E+01  0.11366831168E+02  0.51100000000E-03 0.  1.
         12    1    4    4    0    0  0.30306726494E+01  0.23779762294E+02  0.22920153449E+02  0.33166180147E+02  0.00000000000E+00 0. -1.
</event>
<event>
 8    1  0.8828843E-009  0.9118800E+02  0.7816164E-02  0.1184000E+00
        -11   -1    0    0    0    0  0.00000000000E+00  0.00000000000E+00  0.45593999997E+02  0.45594000000E+02  0.51100000000E-03 0. -1.
         11   -1    0    0    0    0 -0.00000000000E+00 -0.00000000000E+00 -0.45593999997E+02  0.45594000000E+02  0.51100000000E-03 0.  1.
         23    2    1    2    0    0  0.35527136788E-14  0.35527136788E-14  0.00000000000E+00  0.91188000000E+02  0.91188000000E+02 0.  0.
    9900012    2    3    3    0    0 -0.23056069732E+02  0.29212916134E+02 -0.25379846113E+02  0.46142318639E+02  0.10000008004E+02 0.  0.
         12    1    3    3    0    0  0.23056069732E+02 -0.29212916134E+02  0.25379846113E+02  0.45045681361E+02  0.00000000000E+00 0. -1.
         11    1    4    4    0    0 -0.70502720918E+01  0.79122303703E+01 -0.11469124395E+02  0.15615714542E+02  0.51100000000E-03 0. -1.
        -11    1    4    4    0    0 -0.52388758652E+01  0.43945867913E+01 -0.55596497411E+01  0.88129404231E+01  0.51100000000E-03 0.  1.
         12    1    4    4    0    0 -0.10766921775E+02  0.16906098973E+02 -0.83510719775E+01  0.21713663674E+02  0.00000000000E+00 0. -1.
</event>
<event>
 8    1  0.8828843E-009  0.9118800E+02  0.7816164E-02  0.1184000E+00
        -11   -1    0    0    0    0  0.00000000000E+00  0.00000000000E+00  0.45593999997E+02  0.45594000000E+02  0.51100000000E-03 0. -1.
         11   -1    0    0    0    0 -0.00000000000E+00 -0.00000000000E+00 -0.45593999997E+02  0.45594000000E+02  0.51100000000E-03 0.  1.
         23    2    1    2    0    0  0.00000000000E+00  0.35527136788E-14  0.00000000000E+00  0.91188000000E+02  0.91188000000E+02 0.  0.
    9900012    2    3    3    0    0  0.50963838873E+01 -0.26228572481E+02 -0.36265731958E+02  0.46142307003E+02  0.99999019017E+01 0.  0.
         12    1    3    3    0    0 -0.50963838873E+01  0.26228572481E+02  0.36265731958E+02  0.45045692997E+02  0.00000000000E+00 0. -1.
         11    1    4    4    0    0 -0.23657929507E+01 -0.62643857143E+01 -0.82150580526E+01  0.10598428361E+02  0.51100000000E-03 0. -1.
        -11    1    4    4    0    0  0.35761582195E+01 -0.13027515554E+02 -0.20683021113E+02  0.24704097469E+02  0.51100000000E-03 0.  1.
        -12    1    4    4    0    0  0.38860186185E+01 -0.69366712131E+01 -0.73676527917E+01  0.10839781173E+02  0.00000000000E+00 0.  1.
</event>
<event>
 8    1  0.1348708E-008  0.9118800E+02  0.7816164E-02  0.1184000E+00
        -11   -1    0    0    0    0  0.00000000000E+00  0.00000000000E+00  0.45593999997E+02  0.45594000000E+02  0.51100000000E-03 0. -1.
         11   -1    0    0    0    0 -0.00000000000E+00 -0.00000000000E+00 -0.45593999997E+02  0.45594000000E+02  0.51100000000E-03 0.  1.
         23    2    1    2    0    0  0.00000000000E+00  0.00000000000E+00  0.00000000000E+00  0.91188000000E+02  0.91188000000E+02 0.  0.
    9900012    2    3    3    0    0 -0.12386333604E+02  0.17626493099E+02  0.39560069619E+02  0.46142316218E+02  0.99999859283E+01 0.  0.
        -12    1    3    3    0    0  0.12386333604E+02 -0.17626493099E+02 -0.39560069619E+02  0.45045683782E+02  0.00000000000E+00 0.  1.
         11    1    4    4    0    0 -0.42745819909E+01  0.58348497493E+01  0.12921657058E+02  0.14808333606E+02  0.51100000000E-03 0. -1.
        -11    1    4    4    0    0 -0.56399690684E+01  0.12545226977E+02  0.23851735521E+02  0.27533566035E+02  0.51100000000E-03 0.  1.
        -12    1    4    4    0    0 -0.24717825445E+01 -0.75358362744E+00  0.27866770401E+01  0.38004165767E+01  0.00000000000E+00 0.  1.
</event>
<event>
 8    1  0.8828843E-009  0.9118800E+02  0.7816164E-02  0.1184000E+00
        -11   -1    0    0    0    0  0.00000000000E+00  0.00000000000E+00  0.45593999997E+02  0.45594000000E+02  0.51100000000E-03 0. -1.
         11   -1    0    0    0    0 -0.00000000000E+00 -0.00000000000E+00 -0.45593999997E+02  0.45594000000E+02  0.51100000000E-03 0.  1.
         23    2    1    2    0    0 -0.17763568394E-14  0.00000000000E+00  0.35527136788E-14  0.91188000000E+02  0.91188000000E+02 0.  0.
    9900012    2    3    3    0    0 -0.85843241219E+01  0.32624823110E+02  0.29850355540E+02  0.46142318415E+02  0.10000005960E+02 0.  0.
        -12    1    3    3    0    0  0.85843241219E+01 -0.32624823110E+02 -0.29850355540E+02  0.45045681585E+02  0.00000000000E+00 0.  1.
         11    1    4    4    0    0  0.18677083752E+00 -0.17153672005E+00  0.11193936496E+00  0.27719825869E+00  0.51100000000E-03 0. -1.
        -11    1    4    4    0    0 -0.75645263804E+00  0.29502961991E+00 -0.32252654498E+00  0.87366280884E+00  0.51100000000E-03 0.  1.
         12    1    4    4    0    0 -0.80146423214E+01  0.32501330210E+02  0.30060942720E+02  0.44991457347E+02  0.00000000000E+00 0. -1.
</event>
<event>
 8    1  0.8828843E-009  0.9118800E+02  0.7816164E-02  0.1184000E+00
        -11   -1    0    0    0    0  0.00000000000E+00  0.00000000000E+00  0.45593999997E+02  0.45594000000E+02  0.51100000000E-03 0. -1.
         11   -1    0    0    0    0 -0.00000000000E+00 -0.00000000000E+00 -0.45593999997E+02  0.45594000000E+02  0.51100000000E-03 0.  1.
         23    2    1    2    0    0  0.44408920985E-15  0.00000000000E+00  0.00000000000E+00  0.91188000000E+02  0.91188000000E+02 0.  0.
    9900012    2    3    3    0    0 -0.37583818344E+01  0.21606326464E+02  0.39346597885E+02  0.46142317161E+02  0.99999945276E+01 0.  0.
        -12    1    3    3    0    0  0.37583818344E+01 -0.21606326464E+02 -0.39346597885E+02  0.45045682839E+02  0.00000000000E+00 0.  1.
         11    1    4    4    0    0 -0.22349537805E+01  0.37223773986E+01  0.11780626809E+02  0.12555249108E+02  0.51100000000E-03 0. -1.
        -11    1    4    4    0    0 -0.27787225120E+01  0.15929760675E+02  0.20266626123E+02  0.25927103745E+02  0.51100000000E-03 0.  1.
        -12    1    4    4    0    0  0.12552944581E+01  0.19541883911E+01  0.72993449531E+01  0.76599643073E+01  0.00000000000E+00 0.  1.
</event>
<event>
 8    1  0.8828843E-009  0.9118800E+02  0.7816164E-02  0.1184000E+00
        -11   -1    0    0    0    0  0.00000000000E+00  0.00000000000E+00  0.45593999997E+02  0.45594000000E+02  0.51100000000E-03 0. -1.
         11   -1    0    0    0    0 -0.00000000000E+00 -0.00000000000E+00 -0.45593999997E+02  0.45594000000E+02  0.51100000000E-03 0.  1.
         23    2    1    2    0    0  0.71054273576E-14  0.35527136788E-14 -0.35527136788E-14  0.91188000000E+02  0.91188000000E+02 0.  0.
    9900012    2    3    3    0    0  0.28300885232E+02  0.25908282711E+02 -0.23599453108E+02  0.46142318687E+02  0.10000008444E+02 0.  0.
         12    1    3    3    0    0 -0.28300885232E+02 -0.25908282711E+02  0.23599453108E+02  0.45045681313E+02  0.00000000000E+00 0. -1.
         11    1    4    4    0    0  0.18644475082E+02  0.15015733967E+02 -0.11277847053E+02  0.26462776727E+02  0.51100000000E-03 0. -1.
        -11    1    4    4    0    0  0.21181415430E+01  0.84712185290E+00 -0.31225751549E+00  0.23025299231E+01  0.51100000000E-03 0.  1.
        -12    1    4    4    0    0  0.75382686066E+01  0.10045426891E+02 -0.12009348539E+02  0.17377012037E+02  0.00000000000E+00 0.  1.
</event>
<event>
 8    1  0.8828843E-009  0.9118800E+02  0.7816164E-02  0.1184000E+00
        -11   -1    0    0    0    0  0.00000000000E+00  0.00000000000E+00  0.45593999997E+02  0.45594000000E+02  0.51100000000E-03 0. -1.
         11   -1    0    0    0    0 -0.00000000000E+00 -0.00000000000E+00 -0.45593999997E+02  0.45594000000E+02  0.51100000000E-03 0.  1.
         23    2    1    2    0    0  0.17763568394E-14 -0.71054273576E-14  0.00000000000E+00  0.91188000000E+02  0.91188000000E+02 0.  0.
    9900012    2    3    3    0    0 -0.12455109020E+02  0.33805394538E+02 -0.27040320681E+02  0.46142318929E+02  0.10000010651E+02 0.  0.
         12    1    3    3    0    0  0.12455109020E+02 -0.33805394538E+02  0.27040320681E+02  0.45045681071E+02  0.00000000000E+00 0. -1.
         11    1    4    4    0    0 -0.12205207081E+02  0.23659218675E+02 -0.21741542884E+02  0.34371796511E+02  0.51100000000E-03 0. -1.
        -11    1    4    4    0    0 -0.11229949493E+01  0.18268513074E+01 -0.10174597073E+01  0.23735475290E+01  0.51100000000E-03 0.  1.
        -12    1    4    4    0    0  0.87309300999E+00  0.83193245558E+01 -0.42813180905E+01  0.93969748888E+01  0.00000000000E+00 0.  1.
</event>
<event>
 8    1  0.8828843E-009  0.9118800E+02  0.7816164E-02  0.1184000E+00
        -11   -1    0    0    0    0  0.00000000000E+00  0.00000000000E+00  0.45593999997E+02  0.45594000000E+02  0.51100000000E-03 0. -1.
         11   -1    0    0    0    0 -0.00000000000E+00 -0.00000000000E+00 -0.45593999997E+02  0.45594000000E+02  0.51100000000E-03 0.  1.
         23    2    1    2    0    0 -0.88817841970E-15  0.88817841970E-15  0.00000000000E+00  0.91188000000E+02  0.91188000000E+02 0.  0.
    9900012    2    3    3    0    0  0.30239402174E+01  0.55111546145E+01 -0.44604893132E+02  0.46142317288E+02  0.99999956890E+01 0.  0.
         12    1    3    3    0    0 -0.30239402174E+01 -0.55111546145E+01  0.44604893132E+02  0.45045682712E+02  0.00000000000E+00 0. -1.
         11    1    4    4    0    0  0.37736018744E+01  0.22988467728E+00 -0.16576722565E+02  0.17002371874E+02  0.51100000000E-03 0. -1.
        -11    1    4    4    0    0 -0.12614106746E+01  0.14285551045E+01 -0.17870239944E+01  0.26125431277E+01  0.51100000000E-03 0.  1.
        -12    1    4    4    0    0  0.51174901769E+00  0.38527148328E+01 -0.26241146573E+02  0.26527402287E+02  0.00000000000E+00 0.  1.
</event>
<event>
 8    1  0.8828843E-009  0.9118800E+02  0.7816164E-02  0.1184000E+00
        -11   -1    0    0    0    0  0.00000000000E+00  0.00000000000E+00  0.45593999997E+02  0.45594000000E+02  0.51100000000E-03 0.  1.
         11   -1    0    0    0    0 -0.00000000000E+00 -0.00000000000E+00 -0.45593999997E+02  0.45594000000E+02  0.51100000000E-03 0. -1.
         23    2    1    2    0    0  0.71054273576E-14  0.00000000000E+00  0.19428902931E-15  0.91188000000E+02  0.91188000000E+02 0.  0.
    9900012    2    3    3    0    0 -0.44804690130E+02 -0.46513308308E+01 -0.13617950519E+00  0.46142315623E+02  0.99999805058E+01 0.  0.
         12    1    3    3    0    0  0.44804690130E+02  0.46513308308E+01  0.13617950519E+00  0.45045684377E+02  0.00000000000E+00 0. -1.
         11    1    4    4    0    0 -0.36793488285E+02 -0.28500840149E+01 -0.20292237483E+01  0.36959457631E+02  0.51100000000E-03 0.  1.
        -11    1    4    4    0    0 -0.67515875403E+01  0.43226930067E-01  0.13876107770E+01  0.68928417080E+01  0.51100000000E-03 0. -1.
        -12    1    4    4    0    0 -0.12596143043E+01 -0.18444737461E+01  0.50543346609E+00  0.22900162847E+01  0.00000000000E+00 0.  1.
</event>
<event>
 8    1  0.8828843E-009  0.9118800E+02  0.7816164E-02  0.1184000E+00
        -11   -1    0    0    0    0  0.00000000000E+00  0.00000000000E+00  0.45593999997E+02  0.45594000000E+02  0.51100000000E-03 0. -1.
         11   -1    0    0    0    0 -0.00000000000E+00 -0.00000000000E+00 -0.45593999997E+02  0.45594000000E+02  0.51100000000E-03 0.  1.
         23    2    1    2    0    0  0.71054273576E-14  0.00000000000E+00 -0.35527136788E-14  0.91188000000E+02  0.91188000000E+02 0.  0.
    9900012    2    3    3    0    0  0.33890679848E+02 -0.16624673455E+02 -0.24579572952E+02  0.46142319247E+02  0.10000013545E+02 0.  0.
         12    1    3    3    0    0 -0.33890679848E+02  0.16624673455E+02  0.24579572952E+02  0.45045680753E+02  0.00000000000E+00 0. -1.
         11    1    4    4    0    0  0.73882350412E+00 -0.54257411859E+00 -0.25099365512E+01  0.26720831941E+01  0.51100000000E-03 0. -1.
        -11    1    4    4    0    0  0.21008558774E+02 -0.11477241155E+02 -0.10748913986E+02  0.26241679794E+02  0.51100000000E-03 0.  1.
        -12    1    4    4    0    0  0.12143297569E+02 -0.46048581817E+01 -0.11320722415E+02  0.17228556258E+02  0.00000000000E+00 0.  1.
</event>
<event>
 8    1  0.8828843E-009  0.9118800E+02  0.7816164E-02  0.1184000E+00
        -11   -1    0    0    0    0  0.00000000000E+00  0.00000000000E+00  0.45593999997E+02  0.45594000000E+02  0.51100000000E-03 0. -1.
         11   -1    0    0    0    0 -0.00000000000E+00 -0.00000000000E+00 -0.45593999997E+02  0.45594000000E+02  0.51100000000E-03 0.  1.
         23    2    1    2    0    0  0.35527136788E-14 -0.17763568394E-14  0.00000000000E+00  0.91188000000E+02  0.91188000000E+02 0.  0.
    9900012    2    3    3    0    0  0.21345215487E+02  0.89983487259E+01  0.38633208981E+02  0.46142319406E+02  0.10000015003E+02 0.  0.
        -12    1    3    3    0    0 -0.21345215487E+02 -0.89983487259E+01 -0.38633208981E+02  0.45045680594E+02  0.00000000000E+00 0.  1.
         11    1    4    4    0    0  0.23516855710E+01  0.18371129578E+01  0.74598011028E+01  0.80345529931E+01  0.51100000000E-03 0. -1.
        -11    1    4    4    0    0  0.18626180038E+01  0.41096198505E+01  0.67810345083E+01  0.81449831435E+01  0.51100000000E-03 0.  1.
        -12    1    4    4    0    0  0.17130911913E+02  0.30516159175E+01  0.24392373370E+02  0.29962783270E+02  0.00000000000E+00 0.  1.
</event>
<event>
 8    1  0.8828843E-009  0.9118800E+02  0.7816164E-02  0.1184000E+00
        -11   -1    0    0    0    0  0.00000000000E+00  0.00000000000E+00  0.45593999997E+02  0.45594000000E+02  0.51100000000E-03 0. -1.
         11   -1    0    0    0    0 -0.00000000000E+00 -0.00000000000E+00 -0.45593999997E+02  0.45594000000E+02  0.51100000000E-03 0.  1.
         23    2    1    2    0    0  0.00000000000E+00  0.00000000000E+00  0.00000000000E+00  0.91188000000E+02  0.91188000000E+02 0.  0.
    9900012    2    3    3    0    0  0.18148290806E+02  0.19320171149E+02 -0.36420928573E+02  0.46142317515E+02  0.99999977578E+01 0.  0.
         12    1    3    3    0    0 -0.18148290806E+02 -0.19320171149E+02  0.36420928573E+02  0.45045682485E+02  0.00000000000E+00 0. -1.
         11    1    4    4    0    0  0.29071627299E+01  0.28843582421E+01 -0.11826971442E+02  0.12515924711E+02  0.51100000000E-03 0. -1.
        -11    1    4    4    0    0  0.67349115952E+01  0.39539246931E+01 -0.77677319995E+01  0.11014999562E+02  0.51100000000E-03 0.  1.
        -12    1    4    4    0    0  0.85062164810E+01  0.12481888214E+02 -0.16826225131E+02  0.22611393243E+02  0.00000000000E+00 0.  1.
</event>
<event>
 8    1  0.8828843E-009  0.9118800E+02  0.7816164E-02  0.1184000E+00
        -11   -1    0    0    0    0  0.00000000000E+00  0.00000000000E+00  0.45593999997E+02  0.45594000000E+02  0.51100000000E-03 0. -1.
         11   -1    0    0    0    0 -0.00000000000E+00 -0.00000000000E+00 -0.45593999997E+02  0.45594000000E+02  0.51100000000E-03 0.  1.
         23    2    1    2    0    0  0.00000000000E+00 -0.22204460493E-15  0.00000000000E+00  0.91188000000E+02  0.91188000000E+02 0.  0.
    9900012    2    3    3    0    0  0.24467540559E+02  0.18720173143E+01 -0.37774956277E+02  0.46142330824E+02  0.10000119113E+02 0.  0.
         12    1    3    3    0    0 -0.24467540559E+02 -0.18720173143E+01  0.37774956277E+02  0.45045669176E+02  0.00000000000E+00 0. -1.
         11    1    4    4    0    0  0.97323227245E+01  0.42870035828E-01 -0.11822240454E+02  0.15312913278E+02  0.51100000000E-03 0. -1.
        -11    1    4    4    0    0  0.12231991349E+02  0.27457333818E+01 -0.14960789526E+02  0.19518859794E+02  0.51100000000E-03 0.  1.
         12    1    4    4    0    0  0.25032264856E+01 -0.91658610334E+00 -0.10991926297E+02  0.11310557751E+02  0.00000000000E+00 0. -1.
</event>
<event>
 8    1  0.8828843E-009  0.9118800E+02  0.7816164E-02  0.1184000E+00
        -11   -1    0    0    0    0  0.00000000000E+00  0.00000000000E+00  0.45593999997E+02  0.45594000000E+02  0.51100000000E-03 0. -1.
         11   -1    0    0    0    0 -0.00000000000E+00 -0.00000000000E+00 -0.45593999997E+02  0.45594000000E+02  0.51100000000E-03 0.  1.
         23    2    1    2    0    0 -0.17763568394E-14 -0.35527136788E-14  0.00000000000E+00  0.91188000000E+02  0.91188000000E+02 0.  0.
    9900012    2    3    3    0    0  0.15834016146E+02  0.31809950186E+02 -0.27686178916E+02  0.46142317619E+02  0.99999987067E+01 0.  0.
         12    1    3    3    0    0 -0.15834016146E+02 -0.31809950186E+02  0.27686178916E+02  0.45045682381E+02  0.00000000000E+00 0. -1.
         11    1    4    4    0    0  0.58428862838E+01  0.62097596480E+01 -0.62118036013E+01  0.10549262498E+02  0.51100000000E-03 0.  1.
        -11    1    4    4    0    0  0.75514927367E+01  0.12110527067E+02 -0.79535940945E+01  0.16338591361E+02  0.51100000000E-03 0. -1.
        -12    1    4    4    0    0  0.24396371259E+01  0.13489663472E+02 -0.13520781220E+02  0.19254463760E+02  0.00000000000E+00 0.  1.
</event>
<event>
 8    1  0.8828843E-009  0.9118800E+02  0.7816164E-02  0.1184000E+00
        -11   -1    0    0    0    0  0.00000000000E+00  0.00000000000E+00  0.45593999997E+02  0.45594000000E+02  0.51100000000E-03 0. -1.
         11   -1    0    0    0    0 -0.00000000000E+00 -0.00000000000E+00 -0.45593999997E+02  0.45594000000E+02  0.51100000000E-03 0.  1.
         23    2    1    2    0    0  0.00000000000E+00 -0.17763568394E-14 -0.35527136788E-14  0.91188000000E+02  0.91188000000E+02 0.  0.
    9900012    2    3    3    0    0 -0.33535052311E+02  0.13738014183E+02  0.26754080430E+02  0.46142316668E+02  0.99999900317E+01 0.  0.
        -12    1    3    3    0    0  0.33535052311E+02 -0.13738014183E+02 -0.26754080430E+02  0.45045683332E+02  0.00000000000E+00 0.  1.
         11    1    4    4    0    0 -0.20781694910E+02  0.41039132040E+01  0.16712508054E+02  0.26982010167E+02  0.51100000000E-03 0. -1.
        -11    1    4    4    0    0 -0.60321763394E+01  0.26239970401E+01  0.35039384540E+01  0.74531937320E+01  0.51100000000E-03 0.  1.
        -12    1    4    4    0    0 -0.67211810620E+01  0.70101039386E+01  0.65376339217E+01  0.11707112769E+02  0.00000000000E+00 0.  1.
</event>
<event>
 8    1  0.8828843E-009  0.9118800E+02  0.7816164E-02  0.1184000E+00
        -11   -1    0    0    0    0  0.00000000000E+00  0.00000000000E+00  0.45593999997E+02  0.45594000000E+02  0.51100000000E-03 0. -1.
         11   -1    0    0    0    0 -0.00000000000E+00 -0.00000000000E+00 -0.45593999997E+02  0.45594000000E+02  0.51100000000E-03 0.  1.
         23    2    1    2    0    0 -0.35527136788E-14  0.00000000000E+00 -0.35527136788E-14  0.91188000000E+02  0.91188000000E+02 0.  0.
    9900012    2    3    3    0    0  0.27099107313E+02  0.25148785938E+02 -0.25735004686E+02  0.46142317438E+02  0.99999970505E+01 0.  0.
         12    1    3    3    0    0 -0.27099107313E+02 -0.25148785938E+02  0.25735004686E+02  0.45045682562E+02  0.00000000000E+00 0. -1.
         11    1    4    4    0    0  0.67289061300E+01  0.80136567276E+01 -0.89182293974E+01  0.13748879507E+02  0.51100000000E-03 0. -1.
        -11    1    4    4    0    0  0.17131338297E+01  0.52262202772E+01 -0.41638162526E+01  0.68982296244E+01  0.51100000000E-03 0.  1.
         12    1    4    4    0    0  0.18657067354E+02  0.11908908933E+02 -0.12652959036E+02  0.25495208306E+02  0.00000000000E+00 0. -1.
</event>
<event>
 8    1  0.8828843E-009  0.9118800E+02  0.7816164E-02  0.1184000E+00
        -11   -1    0    0    0    0  0.00000000000E+00  0.00000000000E+00  0.45593999997E+02  0.45594000000E+02  0.51100000000E-03 0. -1.
         11   -1    0    0    0    0 -0.00000000000E+00 -0.00000000000E+00 -0.45593999997E+02  0.45594000000E+02  0.51100000000E-03 0.  1.
         23    2    1    2    0    0  0.00000000000E+00  0.00000000000E+00  0.00000000000E+00  0.91188000000E+02  0.91188000000E+02 0.  0.
    9900012    2    3    3    0    0  0.19280701522E+02  0.17065097210E+02 -0.36961472596E+02  0.46142318182E+02  0.10000003839E+02 0.  0.
         12    1    3    3    0    0 -0.19280701522E+02 -0.17065097210E+02  0.36961472596E+02  0.45045681818E+02  0.00000000000E+00 0. -1.
         11    1    4    4    0    0  0.33442376480E+01  0.47161728112E+01 -0.62541201433E+01  0.85170552692E+01  0.51100000000E-03 0. -1.
        -11    1    4    4    0    0  0.17151694368E+00 -0.90744386747E+00 -0.46290648227E+00  0.10330319971E+01  0.51100000000E-03 0.  1.
        -12    1    4    4    0    0  0.15764946930E+02  0.13256368266E+02 -0.30244445971E+02  0.36592230916E+02  0.00000000000E+00 0.  1.
</event>
<event>
 8    1  0.8828843E-009  0.9118800E+02  0.7816164E-02  0.1184000E+00
        -11   -1    0    0    0    0  0.00000000000E+00  0.00000000000E+00  0.45593999997E+02  0.45594000000E+02  0.51100000000E-03 0. -1.
         11   -1    0    0    0    0 -0.00000000000E+00 -0.00000000000E+00 -0.45593999997E+02  0.45594000000E+02  0.51100000000E-03 0.  1.
         23    2    1    2    0    0 -0.35527136788E-14 -0.71054273576E-14  0.35527136788E-14  0.91188000000E+02  0.91188000000E+02 0.  0.
    9900012    2    3    3    0    0  0.27077334173E+02  0.29147614469E+02 -0.21126949864E+02  0.46142318013E+02  0.10000002295E+02 0.  0.
         12    1    3    3    0    0 -0.27077334173E+02 -0.29147614469E+02  0.21126949864E+02  0.45045681987E+02  0.00000000000E+00 0. -1.
         11    1    4    4    0    0  0.12706362822E+02  0.11850357981E+02 -0.11174120973E+02  0.20657773844E+02  0.51100000000E-03 0. -1.
        -11    1    4    4    0    0  0.12014802364E+02  0.17244576819E+02 -0.95827075204E+01  0.23098900173E+02  0.51100000000E-03 0.  1.
        -12    1    4    4    0    0  0.23561689873E+01  0.52679668894E-01 -0.37012137099E+00  0.23856439956E+01  0.00000000000E+00 0.  1.
</event>
<event>
 8    1  0.8828843E-009  0.9118800E+02  0.7816164E-02  0.1184000E+00
        -11   -1    0    0    0    0  0.00000000000E+00  0.00000000000E+00  0.45593999997E+02  0.45594000000E+02  0.51100000000E-03 0. -1.
         11   -1    0    0    0    0 -0.00000000000E+00 -0.00000000000E+00 -0.45593999997E+02  0.45594000000E+02  0.51100000000E-03 0.  1.
         23    2    1    2    0    0  0.00000000000E+00  0.00000000000E+00  0.00000000000E+00  0.91188000000E+02  0.91188000000E+02 0.  0.
    9900012    2    3    3    0    0  0.10278611396E+02  0.19077023911E+02 -0.39490894950E+02  0.46142317882E+02  0.10000001103E+02 0.  0.
         12    1    3    3    0    0 -0.10278611396E+02 -0.19077023911E+02  0.39490894950E+02  0.45045682118E+02  0.00000000000E+00 0. -1.
         11    1    4    4    0    0  0.26042899543E+00  0.63864139579E+01 -0.77790727638E+01  0.10068171623E+02  0.51100000000E-03 0. -1.
        -11    1    4    4    0    0  0.95290243235E+01  0.95630681334E+01 -0.21538598192E+02  0.25419791286E+02  0.51100000000E-03 0.  1.
        -12    1    4    4    0    0  0.48915807667E+00  0.31275418195E+01 -0.10173223994E+02  0.10654354973E+02  0.00000000000E+00 0.  1.
</event>
<event>
 8    1  0.8828843E-009  0.9118800E+02  0.7816164E-02  0.1184000E+00
        -11   -1    0    0    0    0  0.00000000000E+00  0.00000000000E+00  0.45593999997E+02  0.45594000000E+02  0.51100000000E-03 0. -1.
         11   -1    0    0    0    0 -0.00000000000E+00 -0.00000000000E+00 -0.45593999997E+02  0.45594000000E+02  0.51100000000E-03 0.  1.
         23    2    1    2    0    0  0.17763568394E-14  0.35527136788E-14  0.14210854715E-13  0.91188000000E+02  0.91188000000E+02 0.  0.
    9900012    2    3    3    0    0 -0.10591201466E+02 -0.11852435839E+02 -0.42148065986E+02  0.46142320405E+02  0.10000024106E+02 0.  0.
         12    1    3    3    0    0  0.10591201466E+02  0.11852435839E+02  0.42148065986E+02  0.45045679595E+02  0.00000000000E+00 0. -1.
         11    1    4    4    0    0 -0.18020941097E+01 -0.11351154663E+01 -0.90147489836E+01  0.92629223143E+01  0.51100000000E-03 0. -1.
        -11    1    4    4    0    0 -0.64561664918E+01 -0.10264850172E+02 -0.32050677383E+02  0.34267990251E+02  0.51100000000E-03 0.  1.
         12    1    4    4    0    0 -0.23329408645E+01 -0.45247020114E+00 -0.10826396194E+01  0.26114078398E+01  0.00000000000E+00 0. -1.
</event>
<event>
 8    1  0.8828843E-009  0.9118800E+02  0.7816164E-02  0.1184000E+00
        -11   -1    0    0    0    0  0.00000000000E+00  0.00000000000E+00  0.45593999997E+02  0.45594000000E+02  0.51100000000E-03 0. -1.
         11   -1    0    0    0    0 -0.00000000000E+00 -0.00000000000E+00 -0.45593999997E+02  0.45594000000E+02  0.51100000000E-03 0.  1.
         23    2    1    2    0    0  0.00000000000E+00  0.00000000000E+00 -0.35527136788E-14  0.91188000000E+02  0.91188000000E+02 0.  0.
    9900012    2    3    3    0    0  0.15241964135E+02  0.31980422037E+02 -0.27821728724E+02  0.46142318147E+02  0.10000003520E+02 0.  0.
         12    1    3    3    0    0 -0.15241964135E+02 -0.31980422037E+02  0.27821728724E+02  0.45045681853E+02  0.00000000000E+00 0. -1.
         11    1    4    4    0    0  0.13497925539E+01  0.90560537423E+00 -0.19742265604E+01  0.25572703818E+01  0.51100000000E-03 0. -1.
        -11    1    4    4    0    0  0.55842545079E+01  0.80366869233E+01 -0.11879537522E+02  0.15391414721E+02  0.51100000000E-03 0.  1.
        -12    1    4    4    0    0  0.83079170730E+01  0.23038129740E+02 -0.13967964642E+02  0.28193633044E+02  0.00000000000E+00 0.  1.
</event>
<event>
 8    1  0.8828843E-009  0.9118800E+02  0.7816164E-02  0.1184000E+00
        -11   -1    0    0    0    0  0.00000000000E+00  0.00000000000E+00  0.45593999997E+02  0.45594000000E+02  0.51100000000E-03 0. -1.
         11   -1    0    0    0    0 -0.00000000000E+00 -0.00000000000E+00 -0.45593999997E+02  0.45594000000E+02  0.51100000000E-03 0.  1.
         23    2    1    2    0    0 -0.17763568394E-14 -0.35527136788E-14  0.00000000000E+00  0.91188000000E+02  0.91188000000E+02 0.  0.
    9900012    2    3    3    0    0 -0.90090644722E+01 -0.20108769348E+02  0.39288517807E+02  0.46142317867E+02  0.10000000964E+02 0.  0.
        -12    1    3    3    0    0  0.90090644722E+01  0.20108769348E+02 -0.39288517807E+02  0.45045682133E+02  0.00000000000E+00 0.  1.
         11    1    4    4    0    0 -0.38098285231E+01 -0.58421747000E+01  0.10260614871E+02  0.12406692404E+02  0.51100000000E-03 0. -1.
        -11    1    4    4    0    0 -0.65865124043E+01 -0.87959552721E+01  0.14833183087E+02  0.18460073011E+02  0.51100000000E-03 0.  1.
         12    1    4    4    0    0  0.13872764553E+01 -0.54706393764E+01  0.14194719849E+02  0.15275552453E+02  0.00000000000E+00 0. -1.
</event>
<event>
 8    1  0.8828843E-009  0.9118800E+02  0.7816164E-02  0.1184000E+00
        -11   -1    0    0    0    0  0.00000000000E+00  0.00000000000E+00  0.45593999997E+02  0.45594000000E+02  0.51100000000E-03 0. -1.
         11   -1    0    0    0    0 -0.00000000000E+00 -0.00000000000E+00 -0.45593999997E+02  0.45594000000E+02  0.51100000000E-03 0.  1.
         23    2    1    2    0    0 -0.35527136788E-14 -0.35527136788E-14 -0.71054273576E-14  0.91188000000E+02  0.91188000000E+02 0.  0.
    9900012    2    3    3    0    0  0.24257298034E+02  0.24508212197E+02  0.28983519501E+02  0.46142319012E+02  0.10000011407E+02 0.  0.
        -12    1    3    3    0    0 -0.24257298034E+02 -0.24508212197E+02 -0.28983519501E+02  0.45045680988E+02  0.00000000000E+00 0.  1.
         11    1    4    4    0    0  0.15176736461E+02  0.19455881929E+02  0.24319351895E+02  0.34645281758E+02  0.51100000000E-03 0. -1.
        -11    1    4    4    0    0  0.85390600972E+01  0.50145979836E+01  0.46825662349E+01  0.10953911041E+02  0.51100000000E-03 0.  1.
         12    1    4    4    0    0  0.54150147620E+00  0.37732284475E-01 -0.18398629237E-01  0.54312621331E+00  0.00000000000E+00 0. -1.
</event>
<event>
 8    1  0.8828843E-009  0.9118800E+02  0.7816164E-02  0.1184000E+00
        -11   -1    0    0    0    0  0.00000000000E+00  0.00000000000E+00  0.45593999997E+02  0.45594000000E+02  0.51100000000E-03 0. -1.
         11   -1    0    0    0    0 -0.00000000000E+00 -0.00000000000E+00 -0.45593999997E+02  0.45594000000E+02  0.51100000000E-03 0.  1.
         23    2    1    2    0    0 -0.35527136788E-14  0.00000000000E+00  0.00000000000E+00  0.91188000000E+02  0.91188000000E+02 0.  0.
    9900012    2    3    3    0    0 -0.23400645997E+02  0.26356231201E+02  0.28051243549E+02  0.46142318511E+02  0.10000006837E+02 0.  0.
        -12    1    3    3    0    0  0.23400645997E+02 -0.26356231201E+02 -0.28051243549E+02  0.45045681489E+02  0.00000000000E+00 0.  1.
         11    1    4    4    0    0 -0.46254933965E+01  0.13324484825E+01  0.60921593073E+01  0.77643424323E+01  0.51100000000E-03 0. -1.
        -11    1    4    4    0    0  0.13894117390E+00  0.51520246652E-01  0.10903921113E+00  0.18398042370E+00  0.51100000000E-03 0.  1.
         12    1    4    4    0    0 -0.18914093774E+02  0.24972262472E+02  0.21850045030E+02  0.38193995655E+02  0.00000000000E+00 0. -1.
</event>
<event>
 8    1  0.8828843E-009  0.9118800E+02  0.7816164E-02  0.1184000E+00
        -11   -1    0    0    0    0  0.00000000000E+00  0.00000000000E+00  0.45593999997E+02  0.45594000000E+02  0.51100000000E-03 0. -1.
         11   -1    0    0    0    0 -0.00000000000E+00 -0.00000000000E+00 -0.45593999997E+02  0.45594000000E+02  0.51100000000E-03 0.  1.
         23    2    1    2    0    0  0.00000000000E+00  0.00000000000E+00  0.00000000000E+00  0.91188000000E+02  0.91188000000E+02 0.  0.
    9900012    2    3    3    0    0 -0.18707669046E+02 -0.33048187914E+02  0.24227130838E+02  0.46142317919E+02  0.10000001441E+02 0.  0.
        -12    1    3    3    0    0  0.18707669046E+02  0.33048187914E+02 -0.24227130838E+02  0.45045682081E+02  0.00000000000E+00 0.  1.
         11    1    4    4    0    0 -0.12405417498E+02 -0.22516899587E+02  0.18145911551E+02  0.31467113890E+02  0.51100000000E-03 0. -1.
        -11    1    4    4    0    0 -0.21847825497E+01 -0.72062338946E+01  0.15058459411E+01  0.76792352479E+01  0.51100000000E-03 0.  1.
         12    1    4    4    0    0 -0.41174689989E+01 -0.33250544314E+01  0.45753733457E+01  0.69959687808E+01  0.00000000000E+00 0. -1.
</event>
<event>
 8    1  0.8828843E-009  0.9118800E+02  0.7816164E-02  0.1184000E+00
        -11   -1    0    0    0    0  0.00000000000E+00  0.00000000000E+00  0.45593999997E+02  0.45594000000E+02  0.51100000000E-03 0. -1.
         11   -1    0    0    0    0 -0.00000000000E+00 -0.00000000000E+00 -0.45593999997E+02  0.45594000000E+02  0.51100000000E-03 0.  1.
         23    2    1    2    0    0 -0.88817841970E-15 -0.71054273576E-14 -0.35527136788E-14  0.91188000000E+02  0.91188000000E+02 0.  0.
    9900012    2    3    3    0    0 -0.52982873444E+01 -0.34349100847E+02 -0.28656254569E+02  0.46142317591E+02  0.99999984484E+01 0.  0.
         12    1    3    3    0    0  0.52982873444E+01  0.34349100847E+02  0.28656254569E+02  0.45045682409E+02  0.00000000000E+00 0. -1.
         11    1    4    4    0    0 -0.21483628650E+01 -0.28406567355E+01 -0.61738405967E+01  0.71274891556E+01  0.51100000000E-03 0. -1.
        -11    1    4    4    0    0 -0.19032382602E+01 -0.20948118029E+02 -0.17033813011E+02  0.27066524542E+02  0.51100000000E-03 0.  1.
         12    1    4    4    0    0 -0.12466862191E+01 -0.10560326082E+02 -0.54486009621E+01  0.11948303894E+02  0.00000000000E+00 0. -1.
</event>
<event>
 8    1  0.8828843E-009  0.9118800E+02  0.7816164E-02  0.1184000E+00
        -11   -1    0    0    0    0  0.00000000000E+00  0.00000000000E+00  0.45593999997E+02  0.45594000000E+02  0.51100000000E-03 0. -1.
         11   -1    0    0    0    0 -0.00000000000E+00 -0.00000000000E+00 -0.45593999997E+02  0.45594000000E+02  0.51100000000E-03 0.  1.
         23    2    1    2    0    0  0.00000000000E+00  0.00000000000E+00 -0.71054273576E-14  0.91188000000E+02  0.91188000000E+02 0.  0.
    9900012    2    3    3    0    0  0.64258839308E+01 -0.25199636813E+02 -0.36780428318E+02  0.46142316666E+02  0.99999900157E+01 0.  0.
         12    1    3    3    0    0 -0.64258839308E+01  0.25199636813E+02  0.36780428318E+02  0.45045683334E+02  0.00000000000E+00 0. -1.
         11    1    4    4    0    0  0.76683051910E+00 -0.35590880861E+01 -0.16544218650E+01  0.39990310099E+01  0.51100000000E-03 0. -1.
        -11    1    4    4    0    0  0.59942433518E+01 -0.10258664832E+02 -0.17124965873E+02  0.20843119102E+02  0.51100000000E-03 0.  1.
        -12    1    4    4    0    0 -0.33518994003E+00 -0.11381883894E+02 -0.18001040580E+02  0.21300166554E+02  0.00000000000E+00 0.  1.
</event>
<event>
 8    1  0.8828843E-009  0.9118800E+02  0.7816164E-02  0.1184000E+00
        -11   -1    0    0    0    0  0.00000000000E+00  0.00000000000E+00  0.45593999997E+02  0.45594000000E+02  0.51100000000E-03 0. -1.
         11   -1    0    0    0    0 -0.00000000000E+00 -0.00000000000E+00 -0.45593999997E+02  0.45594000000E+02  0.51100000000E-03 0.  1.
         23    2    1    2    0    0  0.00000000000E+00  0.35527136788E-14  0.71054273576E-14  0.91188000000E+02  0.91188000000E+02 0.  0.
    9900012    2    3    3    0    0 -0.84276615930E+01 -0.20967706100E+02  0.38967204132E+02  0.46142321219E+02  0.10000031532E+02 0.  0.
        -12    1    3    3    0    0  0.84276615930E+01  0.20967706100E+02 -0.38967204132E+02  0.45045678781E+02  0.00000000000E+00 0.  1.
         11    1    4    4    0    0 -0.48643068908E-02 -0.70514622672E+00  0.51271784909E+01  0.51754434014E+01  0.51100000000E-03 0. -1.
        -11    1    4    4    0    0  0.54949895581E+00  0.31488890565E+00  0.76308647036E+00  0.99166796243E+00  0.51100000000E-03 0.  1.
        -12    1    4    4    0    0 -0.89722962420E+01 -0.20577448778E+02  0.33076939170E+02  0.39975209855E+02  0.00000000000E+00 0.  1.
</event>
<event>
 8    1  0.8828843E-009  0.9118800E+02  0.7816164E-02  0.1184000E+00
        -11   -1    0    0    0    0  0.00000000000E+00  0.00000000000E+00  0.45593999997E+02  0.45594000000E+02  0.51100000000E-03 0. -1.
         11   -1    0    0    0    0 -0.00000000000E+00 -0.00000000000E+00 -0.45593999997E+02  0.45594000000E+02  0.51100000000E-03 0.  1.
         23    2    1    2    0    0  0.00000000000E+00  0.22204460493E-15 -0.71054273576E-14  0.91188000000E+02  0.91188000000E+02 0.  0.
    9900012    2    3    3    0    0 -0.24294304386E+02  0.94420288322E+00 -0.37921085457E+02  0.46142317999E+02  0.10000002172E+02 0.  0.
         12    1    3    3    0    0  0.24294304386E+02 -0.94420288322E+00  0.37921085457E+02  0.45045682001E+02  0.00000000000E+00 0. -1.
         11    1    4    4    0    0 -0.51635252863E+01 -0.38618675231E+01 -0.93054251821E+01  0.11321084410E+02  0.51100000000E-03 0. -1.
        -11    1    4    4    0    0 -0.99485563442E+01  0.29279715432E+01 -0.16751279057E+02  0.19701577120E+02  0.51100000000E-03 0.  1.
         12    1    4    4    0    0 -0.91822227553E+01  0.18780988631E+01 -0.11864381218E+02  0.15119656469E+02  0.00000000000E+00 0. -1.
</event>
<event>
 8    1  0.8828843E-009  0.9118800E+02  0.7816164E-02  0.1184000E+00
        -11   -1    0    0    0    0  0.00000000000E+00  0.00000000000E+00  0.45593999997E+02  0.45594000000E+02  0.51100000000E-03 0. -1.
         11   -1    0    0    0    0 -0.00000000000E+00 -0.00000000000E+00 -0.45593999997E+02  0.45594000000E+02  0.51100000000E-03 0.  1.
         23    2    1    2    0    0  0.00000000000E+00  0.00000000000E+00 -0.71054273576E-14  0.91188000000E+02  0.91188000000E+02 0.  0.
    9900012    2    3    3    0    0  0.20559686585E+02  0.18827493799E+02  0.35382728097E+02  0.46142326702E+02  0.10000081534E+02 0.  0.
        -12    1    3    3    0    0 -0.20559686585E+02 -0.18827493799E+02 -0.35382728097E+02  0.45045673298E+02  0.00000000000E+00 0.  1.
         11    1    4    4    0    0  0.54790927697E+01  0.23706311048E+01  0.37850728594E+01  0.70687429028E+01  0.51100000000E-03 0. -1.
        -11    1    4    4    0    0  0.34653014312E+01  0.93808630178E+00  0.45039277299E+01  0.57596601615E+01  0.51100000000E-03 0.  1.
         12    1    4    4    0    0  0.11615292384E+02  0.15518776392E+02  0.27093727508E+02  0.33313923638E+02  0.00000000000E+00 0. -1.
</event>
<event>
 8    1  0.8828843E-009  0.9118800E+02  0.7816164E-02  0.1184000E+00
        -11   -1    0    0    0    0  0.00000000000E+00  0.00000000000E+00  0.45593999997E+02  0.45594000000E+02  0.51100000000E-03 0. -1.
         11   -1    0    0    0    0 -0.00000000000E+00 -0.00000000000E+00 -0.45593999997E+02  0.45594000000E+02  0.51100000000E-03 0.  1.
         23    2    1    2    0    0  0.00000000000E+00  0.00000000000E+00  0.00000000000E+00  0.91188000000E+02  0.91188000000E+02 0.  0.
    9900012    2    3    3    0    0 -0.36823531638E+01 -0.42485400135E+01 -0.44693438464E+02  0.46142320309E+02  0.10000023234E+02 0.  0.
         12    1    3    3    0    0  0.36823531638E+01  0.42485400135E+01  0.44693438464E+02  0.45045679691E+02  0.00000000000E+00 0. -1.
         11    1    4    4    0    0 -0.11272266362E+01 -0.90275559231E+00 -0.88924243880E+00  0.16959834684E+01  0.51100000000E-03 0. -1.
        -11    1    4    4    0    0  0.11577532170E+01 -0.24681579632E+01 -0.30031331581E+02  0.30154818404E+02  0.51100000000E-03 0.  1.
         12    1    4    4    0    0 -0.37128797445E+01 -0.87762645806E+00 -0.13772864445E+02  0.14291518436E+02  0.00000000000E+00 0. -1.
</event>
<event>
 8    1  0.8828843E-009  0.9118800E+02  0.7816164E-02  0.1184000E+00
        -11   -1    0    0    0    0  0.00000000000E+00  0.00000000000E+00  0.45593999997E+02  0.45594000000E+02  0.51100000000E-03 0. -1.
         11   -1    0    0    0    0 -0.00000000000E+00 -0.00000000000E+00 -0.45593999997E+02  0.45594000000E+02  0.51100000000E-03 0.  1.
         23    2    1    2    0    0  0.35527136788E-14  0.88817841970E-15  0.00000000000E+00  0.91188000000E+02  0.91188000000E+02 0.  0.
    9900012    2    3    3    0    0  0.30025684985E+02  0.50486303647E+01 -0.33197635952E+02  0.46142318074E+02  0.10000002851E+02 0.  0.
         12    1    3    3    0    0 -0.30025684985E+02 -0.50486303647E+01  0.33197635952E+02  0.45045681926E+02  0.00000000000E+00 0. -1.
         11    1    4    4    0    0  0.17159748215E+02  0.17362427856E+01 -0.20246801619E+02  0.26597076416E+02  0.51100000000E-03 0.  1.
        -11    1    4    4    0    0  0.13511753280E+02  0.30367251323E+01 -0.11786009706E+02  0.18185136824E+02  0.51100000000E-03 0. -1.
         12    1    4    4    0    0 -0.64581650994E+00  0.27566244681E+00 -0.11648246269E+01  0.13601048344E+01  0.00000000000E+00 0. -1.
</event>
<event>
 8    1  0.8828843E-009  0.9118800E+02  0.7816164E-02  0.1184000E+00
        -11   -1    0    0    0    0  0.00000000000E+00  0.00000000000E+00  0.45593999997E+02  0.45594000000E+02  0.51100000000E-03 0. -1.
         11   -1    0    0    0    0 -0.00000000000E+00 -0.00000000000E+00 -0.45593999997E+02  0.45594000000E+02  0.51100000000E-03 0.  1.
         23    2    1    2    0    0  0.00000000000E+00 -0.88817841970E-15 -0.71054273576E-14  0.91188000000E+02  0.91188000000E+02 0.  0.
    9900012    2    3    3    0    0 -0.12315402631E+02  0.57794968189E+01  0.42942306316E+02  0.46142318773E+02  0.10000009225E+02 0.  0.
        -12    1    3    3    0    0  0.12315402631E+02 -0.57794968189E+01 -0.42942306316E+02  0.45045681227E+02  0.00000000000E+00 0.  1.
         11    1    4    4    0    0  0.12082541674E+01  0.40802213528E+00  0.20799937592E+01  0.24398226360E+01  0.51100000000E-03 0. -1.
        -11    1    4    4    0    0 -0.13197549930E+01 -0.73433696937E+00  0.19480114641E+01  0.24649042479E+01  0.51100000000E-03 0.  1.
         12    1    4    4    0    0 -0.12203901805E+02  0.61058116530E+01  0.38914301093E+02  0.41237591889E+02  0.00000000000E+00 0. -1.
</event>
<event>
 8    1  0.8828843E-009  0.9118800E+02  0.7816164E-02  0.1184000E+00
        -11   -1    0    0    0    0  0.00000000000E+00  0.00000000000E+00  0.45593999997E+02  0.45594000000E+02  0.51100000000E-03 0. -1.
         11   -1    0    0    0    0 -0.00000000000E+00 -0.00000000000E+00 -0.45593999997E+02  0.45594000000E+02  0.51100000000E-03 0.  1.
         23    2    1    2    0    0 -0.35527136788E-14  0.17763568394E-14  0.00000000000E+00  0.91188000000E+02  0.91188000000E+02 0.  0.
    9900012    2    3    3    0    0 -0.25401934916E+02  0.95287543400E+01 -0.35959120809E+02  0.46142314013E+02  0.99999658176E+01 0.  0.
         12    1    3    3    0    0  0.25401934916E+02 -0.95287543400E+01  0.35959120809E+02  0.45045685987E+02  0.00000000000E+00 0. -1.
         11    1    4    4    0    0  0.58388148612E+00  0.78970749769E+00 -0.29212197048E+00  0.10246419026E+01  0.51100000000E-03 0. -1.
        -11    1    4    4    0    0 -0.69061934500E+01  0.38986604057E+01 -0.95515177295E+01  0.12414771529E+02  0.51100000000E-03 0.  1.
        -12    1    4    4    0    0 -0.19079622952E+02  0.48403864366E+01 -0.26115481109E+02  0.32702900581E+02  0.00000000000E+00 0.  1.
</event>
<event>
 8    1  0.8828843E-009  0.9118800E+02  0.7816164E-02  0.1184000E+00
        -11   -1    0    0    0    0  0.00000000000E+00  0.00000000000E+00  0.45593999997E+02  0.45594000000E+02  0.51100000000E-03 0. -1.
         11   -1    0    0    0    0 -0.00000000000E+00 -0.00000000000E+00 -0.45593999997E+02  0.45594000000E+02  0.51100000000E-03 0.  1.
         23    2    1    2    0    0  0.00000000000E+00 -0.17763568394E-14  0.00000000000E+00  0.91188000000E+02  0.91188000000E+02 0.  0.
    9900012    2    3    3    0    0 -0.17129572289E+02  0.15974841016E+02 -0.38477209377E+02  0.46142318368E+02  0.10000005530E+02 0.  0.
         12    1    3    3    0    0  0.17129572289E+02 -0.15974841016E+02  0.38477209377E+02  0.45045681632E+02  0.00000000000E+00 0. -1.
         11    1    4    4    0    0 -0.71401387230E+00  0.27520805182E+01 -0.64349725810E+01  0.70351002386E+01  0.51100000000E-03 0. -1.
        -11    1    4    4    0    0 -0.97919326298E+01  0.88715351506E+01 -0.25917665576E+02  0.29091432927E+02  0.51100000000E-03 0.  1.
        -12    1    4    4    0    0 -0.66236257873E+01  0.43512253472E+01 -0.61245712199E+01  0.10015785202E+02  0.00000000000E+00 0.  1.
</event>
<event>
 8    1  0.8828843E-009  0.9118800E+02  0.7816164E-02  0.1184000E+00
        -11   -1    0    0    0    0  0.00000000000E+00  0.00000000000E+00  0.45593999997E+02  0.45594000000E+02  0.51100000000E-03 0. -1.
         11   -1    0    0    0    0 -0.00000000000E+00 -0.00000000000E+00 -0.45593999997E+02  0.45594000000E+02  0.51100000000E-03 0.  1.
         23    2    1    2    0    0  0.88817841970E-15 -0.71054273576E-14 -0.35527136788E-14  0.91188000000E+02  0.91188000000E+02 0.  0.
    9900012    2    3    3    0    0  0.49273261882E+01 -0.33018984868E+02 -0.30242049977E+02  0.46142317722E+02  0.99999996470E+01 0.  0.
         12    1    3    3    0    0 -0.49273261882E+01  0.33018984868E+02  0.30242049977E+02  0.45045682278E+02  0.00000000000E+00 0. -1.
         11    1    4    4    0    0  0.51158066836E+01 -0.24466484431E+02 -0.21987564839E+02  0.33290138875E+02  0.51100000000E-03 0. -1.
        -11    1    4    4    0    0  0.13493790377E+01 -0.53604367059E+01 -0.73477235973E+01  0.91947891650E+01  0.51100000000E-03 0.  1.
         12    1    4    4    0    0 -0.15378595330E+01 -0.31920637303E+01 -0.90676154009E+00  0.36573896829E+01  0.00000000000E+00 0. -1.
</event>
<event>
 8    1  0.8828843E-009  0.9118800E+02  0.7816164E-02  0.1184000E+00
        -11   -1    0    0    0    0  0.00000000000E+00  0.00000000000E+00  0.45593999997E+02  0.45594000000E+02  0.51100000000E-03 0.  1.
         11   -1    0    0    0    0 -0.00000000000E+00 -0.00000000000E+00 -0.45593999997E+02  0.45594000000E+02  0.51100000000E-03 0. -1.
         23    2    1    2    0    0  0.00000000000E+00  0.00000000000E+00  0.00000000000E+00  0.91188000000E+02  0.91188000000E+02 0.  0.
    9900012    2    3    3    0    0  0.36018704661E+02 -0.22092289600E+02 -0.15610802530E+02  0.46142317623E+02  0.99999987417E+01 0.  0.
         12    1    3    3    0    0 -0.36018704661E+02  0.22092289600E+02  0.15610802530E+02  0.45045682377E+02  0.00000000000E+00 0. -1.
         11    1    4    4    0    0  0.42498082568E+01 -0.33469902520E-01 -0.78581000581E+00  0.43219773345E+01  0.51100000000E-03 0. -1.
        -11    1    4    4    0    0  0.25958236575E+02 -0.19380857295E+02 -0.10334366963E+02  0.34003629459E+02  0.51100000000E-03 0.  1.
        -12    1    4    4    0    0  0.58106598292E+01 -0.26779624020E+01 -0.44906255605E+01  0.78167108301E+01  0.00000000000E+00 0.  1.
</event>
<event>
 8    1  0.8828843E-009  0.9118800E+02  0.7816164E-02  0.1184000E+00
        -11   -1    0    0    0    0  0.00000000000E+00  0.00000000000E+00  0.45593999997E+02  0.45594000000E+02  0.51100000000E-03 0. -1.
         11   -1    0    0    0    0 -0.00000000000E+00 -0.00000000000E+00 -0.45593999997E+02  0.45594000000E+02  0.51100000000E-03 0.  1.
         23    2    1    2    0    0 -0.22204460493E-15  0.00000000000E+00  0.00000000000E+00  0.91188000000E+02  0.91188000000E+02 0.  0.
    9900012    2    3    3    0    0  0.12899377914E+01  0.36390688444E+02 -0.26517302917E+02  0.46142317644E+02  0.99999989310E+01 0.  0.
         12    1    3    3    0    0 -0.12899377914E+01 -0.36390688444E+02  0.26517302917E+02  0.45045682356E+02  0.00000000000E+00 0. -1.
         11    1    4    4    0    0  0.18036472088E+01  0.44578524509E+01 -0.43529643067E+01  0.64864389494E+01  0.51100000000E-03 0. -1.
        -11    1    4    4    0    0 -0.32241733591E+01  0.20592065439E+02 -0.11253219688E+02  0.23686777039E+02  0.51100000000E-03 0.  1.
        -12    1    4    4    0    0  0.27104639418E+01  0.11340770554E+02 -0.10911118923E+02  0.15969101656E+02  0.00000000000E+00 0.  1.
</event>
<event>
 8    1  0.8828843E-009  0.9118800E+02  0.7816164E-02  0.1184000E+00
        -11   -1    0    0    0    0  0.00000000000E+00  0.00000000000E+00  0.45593999997E+02  0.45594000000E+02  0.51100000000E-03 0. -1.
         11   -1    0    0    0    0 -0.00000000000E+00 -0.00000000000E+00 -0.45593999997E+02  0.45594000000E+02  0.51100000000E-03 0.  1.
         23    2    1    2    0    0  0.00000000000E+00  0.00000000000E+00  0.00000000000E+00  0.91188000000E+02  0.91188000000E+02 0.  0.
    9900012    2    3    3    0    0  0.32842892370E+02 -0.28013921008E+02 -0.12871606417E+02  0.46142316509E+02  0.99999885779E+01 0.  0.
         12    1    3    3    0    0 -0.32842892370E+02  0.28013921008E+02  0.12871606417E+02  0.45045683491E+02  0.00000000000E+00 0. -1.
         11    1    4    4    0    0  0.17113063279E+02 -0.15248877459E+02 -0.10331087873E+02  0.25141928635E+02  0.51100000000E-03 0. -1.
        -11    1    4    4    0    0  0.10045553831E+02 -0.10669752599E+02 -0.28712496062E+01  0.14933212878E+02  0.51100000000E-03 0.  1.
         12    1    4    4    0    0  0.56842752603E+01 -0.20952909495E+01  0.33073106281E+00  0.60671749961E+01  0.00000000000E+00 0. -1.
</event>
<event>
 8    1  0.8828843E-009  0.9118800E+02  0.7816164E-02  0.1184000E+00
        -11   -1    0    0    0    0  0.00000000000E+00  0.00000000000E+00  0.45593999997E+02  0.45594000000E+02  0.51100000000E-03 0. -1.
         11   -1    0    0    0    0 -0.00000000000E+00 -0.00000000000E+00 -0.45593999997E+02  0.45594000000E+02  0.51100000000E-03 0.  1.
         23    2    1    2    0    0 -0.17763568394E-14  0.00000000000E+00  0.00000000000E+00  0.91188000000E+02  0.91188000000E+02 0.  0.
    9900012    2    3    3    0    0 -0.94893667906E+01  0.40795333081E+02  0.16577280656E+02  0.46142317441E+02  0.99999970821E+01 0.  0.
        -12    1    3    3    0    0  0.94893667906E+01 -0.40795333081E+02 -0.16577280656E+02  0.45045682559E+02  0.00000000000E+00 0.  1.
         11    1    4    4    0    0 -0.35098134961E+01  0.77242118202E+01  0.43885720245E+01  0.95520575635E+01  0.51100000000E-03 0. -1.
        -11    1    4    4    0    0 -0.57080001745E+01  0.11351888927E+02  0.56564577823E+01  0.13908348684E+02  0.51100000000E-03 0.  1.
         12    1    4    4    0    0 -0.27155312007E+00  0.21719232334E+02  0.65322508488E+01  0.22681911194E+02  0.00000000000E+00 0. -1.
</event>
<event>
 8    1  0.8828843E-009  0.9118800E+02  0.7816164E-02  0.1184000E+00
        -11   -1    0    0    0    0  0.00000000000E+00  0.00000000000E+00  0.45593999997E+02  0.45594000000E+02  0.51100000000E-03 0. -1.
         11   -1    0    0    0    0 -0.00000000000E+00 -0.00000000000E+00 -0.45593999997E+02  0.45594000000E+02  0.51100000000E-03 0.  1.
         23    2    1    2    0    0  0.00000000000E+00  0.00000000000E+00  0.35527136788E-14  0.91188000000E+02  0.91188000000E+02 0.  0.
    9900012    2    3    3    0    0 -0.27065304973E+02  0.17270149869E+02 -0.31596276008E+02  0.46142317995E+02  0.10000002130E+02 0.  0.
         12    1    3    3    0    0  0.27065304973E+02 -0.17270149869E+02  0.31596276008E+02  0.45045682005E+02  0.00000000000E+00 0. -1.
         11    1    4    4    0    0 -0.87537717091E+01  0.63033501028E+01 -0.74758906592E+01  0.13124392674E+02  0.51100000000E-03 0. -1.
        -11    1    4    4    0    0 -0.48528610932E+01  0.66883015435E+01 -0.70427217260E+01  0.10857419947E+02  0.51100000000E-03 0.  1.
         12    1    4    4    0    0 -0.13458672170E+02  0.42784982230E+01 -0.17077663622E+02  0.22160505374E+02  0.00000000000E+00 0. -1.
</event>
<event>
 8    1  0.8828843E-009  0.9118800E+02  0.7816164E-02  0.1184000E+00
        -11   -1    0    0    0    0  0.00000000000E+00  0.00000000000E+00  0.45593999997E+02  0.45594000000E+02  0.51100000000E-03 0. -1.
         11   -1    0    0    0    0 -0.00000000000E+00 -0.00000000000E+00 -0.45593999997E+02  0.45594000000E+02  0.51100000000E-03 0.  1.
         23    2    1    2    0    0  0.00000000000E+00  0.00000000000E+00  0.00000000000E+00  0.91188000000E+02  0.91188000000E+02 0.  0.
    9900012    2    3    3    0    0 -0.25426277666E+02  0.87827223039E+01  0.36131451083E+02  0.46142316917E+02  0.99999923039E+01 0.  0.
        -12    1    3    3    0    0  0.25426277666E+02 -0.87827223039E+01 -0.36131451083E+02  0.45045683083E+02  0.00000000000E+00 0.  1.
         11    1    4    4    0    0 -0.12383696492E+02  0.63105150815E+01  0.20453259805E+02  0.24728816718E+02  0.51100000000E-03 0. -1.
        -11    1    4    4    0    0 -0.59863934170E+01 -0.51194158698E+00  0.10716583390E+02  0.12285933019E+02  0.51100000000E-03 0.  1.
         12    1    4    4    0    0 -0.70561877573E+01  0.29841488094E+01  0.49616078890E+01  0.91275671801E+01  0.00000000000E+00 0. -1.
</event>
<event>
 8    1  0.8828843E-009  0.9118800E+02  0.7816164E-02  0.1184000E+00
        -11   -1    0    0    0    0  0.00000000000E+00  0.00000000000E+00  0.45593999997E+02  0.45594000000E+02  0.51100000000E-03 0. -1.
         11   -1    0    0    0    0 -0.00000000000E+00 -0.00000000000E+00 -0.45593999997E+02  0.45594000000E+02  0.51100000000E-03 0.  1.
         23    2    1    2    0    0  0.00000000000E+00 -0.17763568394E-14  0.00000000000E+00  0.91188000000E+02  0.91188000000E+02 0.  0.
    9900012    2    3    3    0    0 -0.34097265745E+02 -0.14858517318E+02 -0.25410912237E+02  0.46142317312E+02  0.99999959034E+01 0.  0.
         12    1    3    3    0    0  0.34097265745E+02  0.14858517318E+02  0.25410912237E+02  0.45045682688E+02  0.00000000000E+00 0. -1.
         11    1    4    4    0    0 -0.85098693291E+01 -0.43229983374E+01 -0.81317371759E+01  0.12539192174E+02  0.51100000000E-03 0. -1.
        -11    1    4    4    0    0 -0.24879878102E+02 -0.86399966708E+01 -0.14207810335E+02  0.29925236033E+02  0.51100000000E-03 0.  1.
         12    1    4    4    0    0 -0.70751831378E+00 -0.18955223094E+01 -0.30713647258E+01  0.36778891050E+01  0.00000000000E+00 0. -1.
</event>
<event>
 8    1  0.8828843E-009  0.9118800E+02  0.7816164E-02  0.1184000E+00
        -11   -1    0    0    0    0  0.00000000000E+00  0.00000000000E+00  0.45593999997E+02  0.45594000000E+02  0.51100000000E-03 0. -1.
         11   -1    0    0    0    0 -0.00000000000E+00 -0.00000000000E+00 -0.45593999997E+02  0.45594000000E+02  0.51100000000E-03 0.  1.
         23    2    1    2    0    0 -0.35527136788E-14 -0.35527136788E-14  0.00000000000E+00  0.91188000000E+02  0.91188000000E+02 0.  0.
    9900012    2    3    3    0    0  0.22766565335E+02  0.26661006956E+02 -0.28284051184E+02  0.46142319403E+02  0.10000014971E+02 0.  0.
         12    1    3    3    0    0 -0.22766565335E+02 -0.26661006956E+02  0.28284051184E+02  0.45045680597E+02  0.00000000000E+00 0. -1.
         11    1    4    4    0    0  0.20846960456E+01  0.79695698260E+01 -0.61961895882E+01  0.10307898258E+02  0.51100000000E-03 0. -1.
        -11    1    4    4    0    0  0.16890756980E+02  0.15766112813E+02 -0.16073022320E+02  0.28146225880E+02  0.51100000000E-03 0.  1.
         12    1    4    4    0    0  0.37911123097E+01  0.29253243174E+01 -0.60148392766E+01  0.76881952648E+01  0.00000000000E+00 0. -1.
</event>
<event>
 8    1  0.8828843E-009  0.9118800E+02  0.7816164E-02  0.1184000E+00
        -11   -1    0    0    0    0  0.00000000000E+00  0.00000000000E+00  0.45593999997E+02  0.45594000000E+02  0.51100000000E-03 0. -1.
         11   -1    0    0    0    0 -0.00000000000E+00 -0.00000000000E+00 -0.45593999997E+02  0.45594000000E+02  0.51100000000E-03 0.  1.
         23    2    1    2    0    0  0.00000000000E+00 -0.13322676296E-14  0.71054273576E-14  0.91188000000E+02  0.91188000000E+02 0.  0.
    9900012    2    3    3    0    0  0.31236315048E+02 -0.37919285375E+01  0.32233948302E+02  0.46142317377E+02  0.99999965015E+01 0.  0.
        -12    1    3    3    0    0 -0.31236315048E+02  0.37919285375E+01 -0.32233948302E+02  0.45045682623E+02  0.00000000000E+00 0.  1.
         11    1    4    4    0    0  0.14410812556E+02  0.24422595052E+00  0.16713587774E+02  0.22069779822E+02  0.51100000000E-03 0. -1.
        -11    1    4    4    0    0  0.47908687091E+01 -0.16144112714E+01  0.86120627581E+01  0.99863092257E+01  0.51100000000E-03 0.  1.
         12    1    4    4    0    0  0.12034633782E+02 -0.24217432166E+01  0.69082977699E+01  0.14086228330E+02  0.00000000000E+00 0. -1.
</event>
<event>
 8    1  0.8828843E-009  0.9118800E+02  0.7816164E-02  0.1184000E+00
        -11   -1    0    0    0    0  0.00000000000E+00  0.00000000000E+00  0.45593999997E+02  0.45594000000E+02  0.51100000000E-03 0.  1.
         11   -1    0    0    0    0 -0.00000000000E+00 -0.00000000000E+00 -0.45593999997E+02  0.45594000000E+02  0.51100000000E-03 0. -1.
         23    2    1    2    0    0 -0.71054273576E-14  0.00000000000E+00  0.00000000000E+00  0.91188000000E+02  0.91188000000E+02 0.  0.
    9900012    2    3    3    0    0  0.43319581895E+02  0.99282784626E+01 -0.73455163382E+01  0.46142317643E+02  0.99999989200E+01 0.  0.
        -12    1    3    3    0    0 -0.43319581895E+02 -0.99282784626E+01  0.73455163382E+01  0.45045682357E+02  0.00000000000E+00 0.  1.
         11    1    4    4    0    0  0.12139617443E+02  0.26657348962E+01 -0.54875905955E+01  0.13586394113E+02  0.51100000000E-03 0. -1.
        -11    1    4    4    0    0  0.25371635863E+02  0.39486585428E+01 -0.26881367628E+01  0.25817395109E+02  0.51100000000E-03 0.  1.
         12    1    4    4    0    0  0.58083285881E+01  0.33138850236E+01  0.83021102013E+00  0.67385284206E+01  0.00000000000E+00 0. -1.
</event>
<event>
 8    1  0.8828843E-009  0.9118800E+02  0.7816164E-02  0.1184000E+00
        -11   -1    0    0    0    0  0.00000000000E+00  0.00000000000E+00  0.45593999997E+02  0.45594000000E+02  0.51100000000E-03 0. -1.
         11   -1    0    0    0    0 -0.00000000000E+00 -0.00000000000E+00 -0.45593999997E+02  0.45594000000E+02  0.51100000000E-03 0.  1.
         23    2    1    2    0    0  0.55511151231E-16  0.00000000000E+00  0.11102230246E-15  0.91188000000E+02  0.91188000000E+02 0.  0.
    9900012    2    3    3    0    0 -0.45923044596E+00 -0.45034895208E+02  0.87215310215E+00  0.46142319519E+02  0.10000016028E+02 0.  0.
        -12    1    3    3    0    0  0.45923044596E+00  0.45034895208E+02 -0.87215310215E+00  0.45045680481E+02  0.00000000000E+00 0.  1.
         11    1    4    4    0    0  0.41625851693E+00 -0.24053549588E+00 -0.10829002030E+00  0.49280368029E+00  0.51100000000E-03 0. -1.
        -11    1    4    4    0    0 -0.83082065089E+00 -0.46381376036E+01 -0.25155033591E+01  0.53413800458E+01  0.51100000000E-03 0.  1.
         12    1    4    4    0    0 -0.44668312000E-01 -0.40156222108E+02  0.34959464815E+01  0.40308135793E+02  0.00000000000E+00 0. -1.
</event>
<event>
 8    1  0.8828843E-009  0.9118800E+02  0.7816164E-02  0.1184000E+00
        -11   -1    0    0    0    0  0.00000000000E+00  0.00000000000E+00  0.45593999997E+02  0.45594000000E+02  0.51100000000E-03 0. -1.
         11   -1    0    0    0    0 -0.00000000000E+00 -0.00000000000E+00 -0.45593999997E+02  0.45594000000E+02  0.51100000000E-03 0.  1.
         23    2    1    2    0    0  0.88817841970E-15  0.00000000000E+00  0.00000000000E+00  0.91188000000E+02  0.91188000000E+02 0.  0.
    9900012    2    3    3    0    0  0.57864110030E+01  0.16388840471E+01 -0.44642412604E+02  0.46142317673E+02  0.99999991925E+01 0.  0.
         12    1    3    3    0    0 -0.57864110030E+01 -0.16388840471E+01  0.44642412604E+02  0.45045682327E+02  0.00000000000E+00 0. -1.
         11    1    4    4    0    0  0.26760266951E+01 -0.21171520298E+01 -0.49368421695E+01  0.60013217259E+01  0.51100000000E-03 0. -1.
        -11    1    4    4    0    0  0.61539621931E+00  0.81608772303E-01 -0.16647291703E+02  0.16658862320E+02  0.51100000000E-03 0.  1.
        -12    1    4    4    0    0  0.24949880886E+01  0.36744273045E+01 -0.23058278732E+02  0.23482133626E+02  0.00000000000E+00 0.  1.
</event>
<event>
 8    1  0.8828843E-009  0.9118800E+02  0.7816164E-02  0.1184000E+00
        -11   -1    0    0    0    0  0.00000000000E+00  0.00000000000E+00  0.45593999997E+02  0.45594000000E+02  0.51100000000E-03 0.  1.
         11   -1    0    0    0    0 -0.00000000000E+00 -0.00000000000E+00 -0.45593999997E+02  0.45594000000E+02  0.51100000000E-03 0. -1.
         23    2    1    2    0    0  0.35527136788E-14  0.71054273576E-14  0.00000000000E+00  0.91188000000E+02  0.91188000000E+02 0.  0.
    9900012    2    3    3    0    0  0.20097020187E+02  0.36458365012E+02 -0.17204964028E+02  0.46142318887E+02  0.10000010265E+02 0.  0.
        -12    1    3    3    0    0 -0.20097020187E+02 -0.36458365012E+02  0.17204964028E+02  0.45045681113E+02  0.00000000000E+00 0.  1.
         11    1    4    4    0    0  0.24979148474E+01  0.27746167924E+01 -0.29636604376E+01  0.47666928137E+01  0.51100000000E-03 0. -1.
        -11    1    4    4    0    0  0.50690836892E+00 -0.16596405373E+00  0.46095256717E+00  0.70496644737E+00  0.51100000000E-03 0.  1.
         12    1    4    4    0    0  0.17092196971E+02  0.33849712273E+02 -0.14702256157E+02  0.40670659626E+02  0.00000000000E+00 0. -1.
</event>
<event>
 8    1  0.8828843E-009  0.9118800E+02  0.7816164E-02  0.1184000E+00
        -11   -1    0    0    0    0  0.00000000000E+00  0.00000000000E+00  0.45593999997E+02  0.45594000000E+02  0.51100000000E-03 0. -1.
         11   -1    0    0    0    0 -0.00000000000E+00 -0.00000000000E+00 -0.45593999997E+02  0.45594000000E+02  0.51100000000E-03 0.  1.
         23    2    1    2    0    0 -0.22204460493E-15  0.00000000000E+00  0.00000000000E+00  0.91188000000E+02  0.91188000000E+02 0.  0.
    9900012    2    3    3    0    0 -0.17543396870E+01 -0.14791510553E+02  0.42511727914E+02  0.46142317606E+02  0.99999985837E+01 0.  0.
        -12    1    3    3    0    0  0.17543396870E+01  0.14791510553E+02 -0.42511727914E+02  0.45045682394E+02  0.00000000000E+00 0.  1.
         11    1    4    4    0    0 -0.19317366354E+01 -0.85550699828E+01  0.16128409295E+02  0.18358823913E+02  0.51100000000E-03 0. -1.
        -11    1    4    4    0    0  0.21236094672E+01 -0.43516152392E+01  0.92839296091E+01  0.10470798518E+02  0.51100000000E-03 0.  1.
         12    1    4    4    0    0 -0.19462125189E+01 -0.18848253306E+01  0.17099389010E+02  0.17312695175E+02  0.00000000000E+00 0. -1.
</event>
<event>
 8    1  0.8828843E-009  0.9118800E+02  0.7816164E-02  0.1184000E+00
        -11   -1    0    0    0    0  0.00000000000E+00  0.00000000000E+00  0.45593999997E+02  0.45594000000E+02  0.51100000000E-03 0. -1.
         11   -1    0    0    0    0 -0.00000000000E+00 -0.00000000000E+00 -0.45593999997E+02  0.45594000000E+02  0.51100000000E-03 0.  1.
         23    2    1    2    0    0 -0.35527136788E-14 -0.35527136788E-14 -0.35527136788E-14  0.91188000000E+02  0.91188000000E+02 0.  0.
    9900012    2    3    3    0    0 -0.26872533561E+02 -0.25338378304E+02 -0.25786566351E+02  0.46142317862E+02  0.10000000921E+02 0.  0.
         12    1    3    3    0    0  0.26872533561E+02  0.25338378304E+02  0.25786566351E+02  0.45045682138E+02  0.00000000000E+00 0. -1.
         11    1    4    4    0    0 -0.13838867747E+02 -0.15222613592E+02 -0.97243659530E+01  0.22755340440E+02  0.51100000000E-03 0. -1.
        -11    1    4    4    0    0 -0.94179817660E+01 -0.93130603354E+01 -0.11784343947E+02  0.17728571174E+02  0.51100000000E-03 0.  1.
         12    1    4    4    0    0 -0.36156840480E+01 -0.80270437732E+00 -0.42778564518E+01  0.56584062486E+01  0.00000000000E+00 0. -1.
</event>
<event>
 8    1  0.9836067E-009  0.9118800E+02  0.7816164E-02  0.1184000E+00
        -11   -1    0    0    0    0  0.00000000000E+00  0.00000000000E+00  0.45593999997E+02  0.45594000000E+02  0.51100000000E-03 0. -1.
         11   -1    0    0    0    0 -0.00000000000E+00 -0.00000000000E+00 -0.45593999997E+02  0.45594000000E+02  0.51100000000E-03 0.  1.
         23    2    1    2    0    0  0.00000000000E+00  0.00000000000E+00  0.00000000000E+00  0.91188000000E+02  0.91188000000E+02 0.  0.
    9900012    2    3    3    0    0 -0.20647785203E+02 -0.17560831337E+02  0.35977766322E+02  0.46142317626E+02  0.99999987643E+01 0.  0.
        -12    1    3    3    0    0  0.20647785203E+02  0.17560831337E+02 -0.35977766322E+02  0.45045682374E+02  0.00000000000E+00 0.  1.
         11    1    4    4    0    0 -0.35345067624E+01 -0.62008123784E+01  0.13280712734E+02  0.15077139755E+02  0.51100000000E-03 0. -1.
        -11    1    4    4    0    0  0.20721242603E+00  0.66250825144E-01  0.10770600954E+01  0.10988106623E+01  0.51100000000E-03 0.  1.
        -12    1    4    4    0    0 -0.17320490867E+02 -0.11426269783E+02  0.21619993493E+02  0.29966367208E+02  0.00000000000E+00 0.  1.
</event>
<event>
 8    1  0.8828843E-009  0.9118800E+02  0.7816164E-02  0.1184000E+00
        -11   -1    0    0    0    0  0.00000000000E+00  0.00000000000E+00  0.45593999997E+02  0.45594000000E+02  0.51100000000E-03 0. -1.
         11   -1    0    0    0    0 -0.00000000000E+00 -0.00000000000E+00 -0.45593999997E+02  0.45594000000E+02  0.51100000000E-03 0.  1.
         23    2    1    2    0    0  0.00000000000E+00  0.00000000000E+00 -0.35527136788E-14  0.91188000000E+02  0.91188000000E+02 0.  0.
    9900012    2    3    3    0    0  0.12538632210E+02  0.33797236379E+02  0.27011905329E+02  0.46142317476E+02  0.99999974005E+01 0.  0.
        -12    1    3    3    0    0 -0.12538632210E+02 -0.33797236379E+02 -0.27011905329E+02  0.45045682524E+02  0.00000000000E+00 0.  1.
         11    1    4    4    0    0  0.52677987618E+01  0.96386162251E+01  0.98170794588E+01  0.14731859214E+02  0.51100000000E-03 0. -1.
        -11    1    4    4    0    0 -0.96051127964E+00  0.88651774461E+01  0.59662013463E+01  0.10728910095E+02  0.51100000000E-03 0.  1.
        -12    1    4    4    0    0  0.82313447283E+01  0.15293442708E+02  0.11228624523E+02  0.20681548167E+02  0.00000000000E+00 0.  1.
</event>
<event>
 8    1  0.8828843E-009  0.9118800E+02  0.7816164E-02  0.1184000E+00
        -11   -1    0    0    0    0  0.00000000000E+00  0.00000000000E+00  0.45593999997E+02  0.45594000000E+02  0.51100000000E-03 0. -1.
         11   -1    0    0    0    0 -0.00000000000E+00 -0.00000000000E+00 -0.45593999997E+02  0.45594000000E+02  0.51100000000E-03 0.  1.
         23    2    1    2    0    0  0.00000000000E+00  0.00000000000E+00  0.00000000000E+00  0.91188000000E+02  0.91188000000E+02 0.  0.
    9900012    2    3    3    0    0 -0.36203171504E+02 -0.23533727177E+01 -0.26700289286E+02  0.46142318319E+02  0.10000005092E+02 0.  0.
         12    1    3    3    0    0  0.36203171504E+02  0.23533727177E+01  0.26700289286E+02  0.45045681681E+02  0.00000000000E+00 0. -1.
         11    1    4    4    0    0  0.39207305730E-01  0.16497803428E+00  0.32557000772E+00  0.36708453476E+00  0.51100000000E-03 0. -1.
        -11    1    4    4    0    0 -0.16404577172E+02 -0.43697689996E+01 -0.11311069478E+02  0.20399640347E+02  0.51100000000E-03 0.  1.
        -12    1    4    4    0    0 -0.19837801638E+02  0.18514182476E+01 -0.15714789815E+02  0.25375593438E+02  0.00000000000E+00 0.  1.
</event>
<event>
 8    1  0.8828843E-009  0.9118800E+02  0.7816164E-02  0.1184000E+00
        -11   -1    0    0    0    0  0.00000000000E+00  0.00000000000E+00  0.45593999997E+02  0.45594000000E+02  0.51100000000E-03 0. -1.
         11   -1    0    0    0    0 -0.00000000000E+00 -0.00000000000E+00 -0.45593999997E+02  0.45594000000E+02  0.51100000000E-03 0.  1.
         23    2    1    2    0    0  0.00000000000E+00  0.35527136788E-14  0.71054273576E-14  0.91188000000E+02  0.91188000000E+02 0.  0.
    9900012    2    3    3    0    0  0.11821651887E+02  0.19045658548E+02  0.39072047733E+02  0.46142317888E+02  0.10000001161E+02 0.  0.
        -12    1    3    3    0    0 -0.11821651887E+02 -0.19045658548E+02 -0.39072047733E+02  0.45045682112E+02  0.00000000000E+00 0.  1.
         11    1    4    4    0    0  0.66199464225E+01  0.88156146670E+01  0.15868483302E+02  0.19322202648E+02  0.51100000000E-03 0.  1.
        -11    1    4    4    0    0  0.41823458073E+00 -0.42852038009E+00  0.59695374015E+01  0.59994938895E+01  0.51100000000E-03 0. -1.
         12    1    4    4    0    0  0.47834708839E+01  0.10658564261E+02  0.17234027029E+02  0.20820621351E+02  0.00000000000E+00 0. -1.
</event>
<event>
 8    1  0.8828843E-009  0.9118800E+02  0.7816164E-02  0.1184000E+00
        -11   -1    0    0    0    0  0.00000000000E+00  0.00000000000E+00  0.45593999997E+02  0.45594000000E+02  0.51100000000E-03 0. -1.
         11   -1    0    0    0    0 -0.00000000000E+00 -0.00000000000E+00 -0.45593999997E+02  0.45594000000E+02  0.51100000000E-03 0.  1.
         23    2    1    2    0    0  0.00000000000E+00  0.00000000000E+00  0.00000000000E+00  0.91188000000E+02  0.91188000000E+02 0.  0.
    9900012    2    3    3    0    0  0.19715850360E+02 -0.19296141217E+02  0.35609797906E+02  0.46142317319E+02  0.99999959670E+01 0.  0.
        -12    1    3    3    0    0 -0.19715850360E+02  0.19296141217E+02 -0.35609797906E+02  0.45045682681E+02  0.00000000000E+00 0.  1.
         11    1    4    4    0    0  0.17903633167E+01 -0.65150949368E+01  0.56431925886E+01  0.88032656267E+01  0.51100000000E-03 0.  1.
        -11    1    4    4    0    0  0.74480055868E+01 -0.73862695390E+01  0.13901936259E+02  0.17415326495E+02  0.51100000000E-03 0. -1.
        -12    1    4    4    0    0  0.10477481456E+02 -0.53947767414E+01  0.16064669059E+02  0.19923725197E+02  0.00000000000E+00 0.  1.
</event>
<event>
 8    1  0.8828843E-009  0.9118800E+02  0.7816164E-02  0.1184000E+00
        -11   -1    0    0    0    0  0.00000000000E+00  0.00000000000E+00  0.45593999997E+02  0.45594000000E+02  0.51100000000E-03 0. -1.
         11   -1    0    0    0    0 -0.00000000000E+00 -0.00000000000E+00 -0.45593999997E+02  0.45594000000E+02  0.51100000000E-03 0.  1.
         23    2    1    2    0    0 -0.35527136788E-14  0.00000000000E+00  0.00000000000E+00  0.91188000000E+02  0.91188000000E+02 0.  0.
    9900012    2    3    3    0    0 -0.27660912489E+02  0.41871878186E+01  0.35305167944E+02  0.46142317575E+02  0.99999983054E+01 0.  0.
        -12    1    3    3    0    0  0.27660912489E+02 -0.41871878186E+01 -0.35305167944E+02  0.45045682425E+02  0.00000000000E+00 0.  1.
         11    1    4    4    0    0 -0.47133285882E+01  0.62104560034E+00  0.10099095975E+02  0.11162119145E+02  0.51100000000E-03 0. -1.
        -11    1    4    4    0    0 -0.60328925686E+01  0.35157887307E+01  0.10245193134E+02  0.12398409001E+02  0.51100000000E-03 0.  1.
         12    1    4    4    0    0 -0.16914691333E+02  0.50353487597E-01  0.14960878835E+02  0.22581789430E+02  0.00000000000E+00 0. -1.
</event>
<event>
 8    1  0.8828843E-009  0.9118800E+02  0.7816164E-02  0.1184000E+00
        -11   -1    0    0    0    0  0.00000000000E+00  0.00000000000E+00  0.45593999997E+02  0.45594000000E+02  0.51100000000E-03 0.  1.
         11   -1    0    0    0    0 -0.00000000000E+00 -0.00000000000E+00 -0.45593999997E+02  0.45594000000E+02  0.51100000000E-03 0. -1.
         23    2    1    2    0    0  0.00000000000E+00 -0.17763568394E-14  0.35527136788E-14  0.91188000000E+02  0.91188000000E+02 0.  0.
    9900012    2    3    3    0    0  0.38339915566E+02 -0.11880038142E+02  0.20445786198E+02  0.46142305365E+02  0.99998869619E+01 0.  0.
         12    1    3    3    0    0 -0.38339915566E+02  0.11880038142E+02 -0.20445786198E+02  0.45045694635E+02  0.00000000000E+00 0. -1.
         11    1    4    4    0    0  0.14210653092E+02 -0.72017251327E+01  0.76272201324E+01  0.17663012013E+02  0.51100000000E-03 0. -1.
        -11    1    4    4    0    0  0.71859079456E+01 -0.44844420820E+01  0.37912263181E+01  0.92801342149E+01  0.51100000000E-03 0.  1.
        -12    1    4    4    0    0  0.16943354529E+02 -0.19387092696E+00  0.90273397477E+01  0.19199159137E+02  0.00000000000E+00 0.  1.
</event>
<event>
 8    1  0.8828843E-009  0.9118800E+02  0.7816164E-02  0.1184000E+00
        -11   -1    0    0    0    0  0.00000000000E+00  0.00000000000E+00  0.45593999997E+02  0.45594000000E+02  0.51100000000E-03 0. -1.
         11   -1    0    0    0    0 -0.00000000000E+00 -0.00000000000E+00 -0.45593999997E+02  0.45594000000E+02  0.51100000000E-03 0.  1.
         23    2    1    2    0    0  0.00000000000E+00  0.88817841970E-15  0.71054273576E-14  0.91188000000E+02  0.91188000000E+02 0.  0.
    9900012    2    3    3    0    0 -0.54155497538E+01 -0.66643514095E+01 -0.44219584020E+02  0.46142319078E+02  0.10000012008E+02 0.  0.
         12    1    3    3    0    0  0.54155497538E+01  0.66643514095E+01  0.44219584020E+02  0.45045680922E+02  0.00000000000E+00 0. -1.
         11    1    4    4    0    0  0.11928188354E+01  0.92055735246E+00 -0.36425494280E+01  0.39418788934E+01  0.51100000000E-03 0. -1.
        -11    1    4    4    0    0 -0.50084303650E+01 -0.72725868945E+01 -0.24532902954E+02  0.26073707494E+02  0.51100000000E-03 0.  1.
         12    1    4    4    0    0 -0.15999382242E+01 -0.31232186743E+00 -0.16044131638E+02  0.16126732691E+02  0.00000000000E+00 0. -1.
</event>
<event>
 8    1  0.8828843E-009  0.9118800E+02  0.7816164E-02  0.1184000E+00
        -11   -1    0    0    0    0  0.00000000000E+00  0.00000000000E+00  0.45593999997E+02  0.45594000000E+02  0.51100000000E-03 0. -1.
         11   -1    0    0    0    0 -0.00000000000E+00 -0.00000000000E+00 -0.45593999997E+02  0.45594000000E+02  0.51100000000E-03 0.  1.
         23    2    1    2    0    0 -0.44408920985E-15  0.00000000000E+00  0.00000000000E+00  0.91188000000E+02  0.91188000000E+02 0.  0.
    9900012    2    3    3    0    0  0.33927337953E+01  0.82866283329E+01  0.44146740037E+02  0.46142317547E+02  0.99999980484E+01 0.  0.
        -12    1    3    3    0    0 -0.33927337953E+01 -0.82866283329E+01 -0.44146740037E+02  0.45045682453E+02  0.00000000000E+00 0.  1.
         11    1    4    4    0    0 -0.18760490690E+01  0.14037505641E+01  0.51493275861E+01  0.56573536751E+01  0.51100000000E-03 0. -1.
        -11    1    4    4    0    0  0.22177093465E+01 -0.68689846941E+00  0.13936679876E+02  0.14128733506E+02  0.51100000000E-03 0.  1.
         12    1    4    4    0    0  0.30510735177E+01  0.75697762382E+01  0.25060732575E+02  0.26356230366E+02  0.00000000000E+00 0. -1.
</event>
<event>
 8    1  0.8828843E-009  0.9118800E+02  0.7816164E-02  0.1184000E+00
        -11   -1    0    0    0    0  0.00000000000E+00  0.00000000000E+00  0.45593999997E+02  0.45594000000E+02  0.51100000000E-03 0.  1.
         11   -1    0    0    0    0 -0.00000000000E+00 -0.00000000000E+00 -0.45593999997E+02  0.45594000000E+02  0.51100000000E-03 0. -1.
         23    2    1    2    0    0  0.35527136788E-14  0.71054273576E-14  0.00000000000E+00  0.91188000000E+02  0.91188000000E+02 0.  0.
    9900012    2    3    3    0    0 -0.27945322292E+02 -0.35153323006E+02 -0.35236797030E+01  0.46142317910E+02  0.10000001354E+02 0.  0.
        -12    1    3    3    0    0  0.27945322292E+02  0.35153323006E+02  0.35236797030E+01  0.45045682090E+02  0.00000000000E+00 0.  1.
         11    1    4    4    0    0 -0.28725127250E+01 -0.23479774798E+01  0.16079290436E+01  0.40434841005E+01  0.51100000000E-03 0. -1.
        -11    1    4    4    0    0 -0.12363627901E+02 -0.18172690192E+02  0.26101844186E+00  0.21981221408E+02  0.51100000000E-03 0.  1.
         12    1    4    4    0    0 -0.12709181665E+02 -0.14632655334E+02 -0.53926271885E+01  0.20117612401E+02  0.00000000000E+00 0. -1.
</event>
<event>
 8    1  0.8828843E-009  0.9118800E+02  0.7816164E-02  0.1184000E+00
        -11   -1    0    0    0    0  0.00000000000E+00  0.00000000000E+00  0.45593999997E+02  0.45594000000E+02  0.51100000000E-03 0. -1.
         11   -1    0    0    0    0 -0.00000000000E+00 -0.00000000000E+00 -0.45593999997E+02  0.45594000000E+02  0.51100000000E-03 0.  1.
         23    2    1    2    0    0  0.00000000000E+00  0.71054273576E-14  0.35527136788E-14  0.91188000000E+02  0.91188000000E+02 0.  0.
    9900012    2    3    3    0    0 -0.10175672675E+02  0.40516071287E+02  0.16852806595E+02  0.46142318331E+02  0.10000005194E+02 0.  0.
        -12    1    3    3    0    0  0.10175672675E+02 -0.40516071287E+02 -0.16852806595E+02  0.45045681669E+02  0.00000000000E+00 0.  1.
         11    1    4    4    0    0 -0.52570854336E+01  0.17257859716E+02  0.39656391123E+01  0.18471517616E+02  0.51100000000E-03 0.  1.
        -11    1    4    4    0    0 -0.57973184551E+01  0.13646617806E+02  0.74602034338E+01  0.16598003324E+02  0.51100000000E-03 0. -1.
         12    1    4    4    0    0  0.87873121364E+00  0.96115937651E+01  0.54269640490E+01  0.11072797390E+02  0.00000000000E+00 0. -1.
</event>
<event>
 8    1  0.8828843E-009  0.9118800E+02  0.7816164E-02  0.1184000E+00
        -11   -1    0    0    0    0  0.00000000000E+00  0.00000000000E+00  0.45593999997E+02  0.45594000000E+02  0.51100000000E-03 0. -1.
         11   -1    0    0    0    0 -0.00000000000E+00 -0.00000000000E+00 -0.45593999997E+02  0.45594000000E+02  0.51100000000E-03 0.  1.
         23    2    1    2    0    0  0.17763568394E-14  0.00000000000E+00  0.35527136788E-14  0.91188000000E+02  0.91188000000E+02 0.  0.
    9900012    2    3    3    0    0  0.12206331802E+02 -0.34442017045E+02  0.26341342842E+02  0.46142318555E+02  0.10000007236E+02 0.  0.
        -12    1    3    3    0    0 -0.12206331802E+02  0.34442017045E+02 -0.26341342842E+02  0.45045681445E+02  0.00000000000E+00 0.  1.
         11    1    4    4    0    0  0.10734165444E+02 -0.30149434497E+02  0.21361901707E+02  0.38477805981E+02  0.51100000000E-03 0. -1.
        -11    1    4    4    0    0 -0.52678198649E+00 -0.33951173461E+01  0.39751423083E+01  0.52541486168E+01  0.51100000000E-03 0.  1.
        -12    1    4    4    0    0  0.19989483451E+01 -0.89746520153E+00  0.10042988263E+01  0.24103639573E+01  0.00000000000E+00 0.  1.
</event>
<event>
 8    1  0.8828843E-009  0.9118800E+02  0.7816164E-02  0.1184000E+00
        -11   -1    0    0    0    0  0.00000000000E+00  0.00000000000E+00  0.45593999997E+02  0.45594000000E+02  0.51100000000E-03 0. -1.
         11   -1    0    0    0    0 -0.00000000000E+00 -0.00000000000E+00 -0.45593999997E+02  0.45594000000E+02  0.51100000000E-03 0.  1.
         23    2    1    2    0    0  0.00000000000E+00  0.00000000000E+00  0.00000000000E+00  0.91188000000E+02  0.91188000000E+02 0.  0.
    9900012    2    3    3    0    0  0.10818219748E+02  0.23188130834E+01 -0.43665804617E+02  0.46142320235E+02  0.10000022559E+02 0.  0.
         12    1    3    3    0    0 -0.10818219748E+02 -0.23188130834E+01  0.43665804617E+02  0.45045679765E+02  0.00000000000E+00 0. -1.
         11    1    4    4    0    0  0.72823546946E+01  0.19183709004E+01 -0.12973936676E+02  0.15001195617E+02  0.51100000000E-03 0. -1.
        -11    1    4    4    0    0  0.15035189082E+00  0.14196933750E+01 -0.14368024001E+02  0.14438775880E+02  0.51100000000E-03 0.  1.
         12    1    4    4    0    0  0.33855131626E+01 -0.10192511919E+01 -0.16323843940E+02  0.16702348737E+02  0.00000000000E+00 0. -1.
</event>
<event>
 8    1  0.8828843E-009  0.9118800E+02  0.7816164E-02  0.1184000E+00
        -11   -1    0    0    0    0  0.00000000000E+00  0.00000000000E+00  0.45593999997E+02  0.45594000000E+02  0.51100000000E-03 0. -1.
         11   -1    0    0    0    0 -0.00000000000E+00 -0.00000000000E+00 -0.45593999997E+02  0.45594000000E+02  0.51100000000E-03 0.  1.
         23    2    1    2    0    0  0.35527136788E-14  0.00000000000E+00  0.00000000000E+00  0.91188000000E+02  0.91188000000E+02 0.  0.
    9900012    2    3    3    0    0  0.24772890876E+02  0.10709632793E+02 -0.36065515112E+02  0.46142314999E+02  0.99999748118E+01 0.  0.
         12    1    3    3    0    0 -0.24772890876E+02 -0.10709632793E+02  0.36065515112E+02  0.45045685001E+02  0.00000000000E+00 0. -1.
         11    1    4    4    0    0  0.66267516719E+00  0.35704283486E+01 -0.43541959039E+01  0.56697547743E+01  0.51100000000E-03 0. -1.
        -11    1    4    4    0    0  0.19515650988E+01  0.62970613153E+00 -0.24380682330E+01  0.31857986623E+01  0.51100000000E-03 0.  1.
         12    1    4    4    0    0  0.22158650610E+02  0.65094983129E+01 -0.29273250975E+02  0.37286761562E+02  0.00000000000E+00 0. -1.
</event>
<event>
 8    1  0.8828843E-009  0.9118800E+02  0.7816164E-02  0.1184000E+00
        -11   -1    0    0    0    0  0.00000000000E+00  0.00000000000E+00  0.45593999997E+02  0.45594000000E+02  0.51100000000E-03 0. -1.
         11   -1    0    0    0    0 -0.00000000000E+00 -0.00000000000E+00 -0.45593999997E+02  0.45594000000E+02  0.51100000000E-03 0.  1.
         23    2    1    2    0    0 -0.17763568394E-14 -0.17763568394E-14 -0.71054273576E-14  0.91188000000E+02  0.91188000000E+02 0.  0.
    9900012    2    3    3    0    0  0.10893747169E+02  0.12157086436E+02  0.41983866233E+02  0.46142317611E+02  0.99999986307E+01 0.  0.
        -12    1    3    3    0    0 -0.10893747169E+02 -0.12157086436E+02 -0.41983866233E+02  0.45045682389E+02  0.00000000000E+00 0.  1.
         11    1    4    4    0    0 -0.89078710445E+00  0.25623188064E+01  0.74553590089E+01  0.79335589456E+01  0.51100000000E-03 0. -1.
        -11    1    4    4    0    0  0.37674435488E+01  0.24942907751E+01  0.47163242859E+01  0.65313729334E+01  0.51100000000E-03 0.  1.
        -12    1    4    4    0    0  0.80170907247E+01  0.71004768546E+01  0.29812182938E+02  0.31677385732E+02  0.00000000000E+00 0.  1.
</event>
<event>
 8    1  0.8828843E-009  0.9118800E+02  0.7816164E-02  0.1184000E+00
        -11   -1    0    0    0    0  0.00000000000E+00  0.00000000000E+00  0.45593999997E+02  0.45594000000E+02  0.51100000000E-03 0. -1.
         11   -1    0    0    0    0 -0.00000000000E+00 -0.00000000000E+00 -0.45593999997E+02  0.45594000000E+02  0.51100000000E-03 0.  1.
         23    2    1    2    0    0  0.35527136788E-14  0.17763568394E-14  0.71054273576E-14  0.91188000000E+02  0.91188000000E+02 0.  0.
    9900012    2    3    3    0    0 -0.23151675815E+02  0.89728088911E+01  0.37584599810E+02  0.46142317240E+02  0.99999952512E+01 0.  0.
        -12    1    3    3    0    0  0.23151675815E+02 -0.89728088911E+01 -0.37584599810E+02  0.45045682760E+02  0.00000000000E+00 0.  1.
         11    1    4    4    0    0 -0.24193473749E+01  0.26867189306E+01  0.16532682320E+01  0.39755498288E+01  0.51100000000E-03 0.  1.
        -11    1    4    4    0    0 -0.13433314457E+02  0.60218869359E+01  0.25223414259E+02  0.29205096930E+02  0.51100000000E-03 0. -1.
         12    1    4    4    0    0 -0.72990139828E+01  0.26420302461E+00  0.10707917319E+02  0.12961670481E+02  0.00000000000E+00 0. -1.
</event>
<event>
 8    1  0.8828843E-009  0.9118800E+02  0.7816164E-02  0.1184000E+00
        -11   -1    0    0    0    0  0.00000000000E+00  0.00000000000E+00  0.45593999997E+02  0.45594000000E+02  0.51100000000E-03 0. -1.
         11   -1    0    0    0    0 -0.00000000000E+00 -0.00000000000E+00 -0.45593999997E+02  0.45594000000E+02  0.51100000000E-03 0.  1.
         23    2    1    2    0    0 -0.71054273576E-14  0.00000000000E+00  0.00000000000E+00  0.91188000000E+02  0.91188000000E+02 0.  0.
    9900012    2    3    3    0    0 -0.37564040338E+02  0.99861904040E+01  0.22766911494E+02  0.46142318917E+02  0.10000010537E+02 0.  0.
        -12    1    3    3    0    0  0.37564040338E+02 -0.99861904040E+01 -0.22766911494E+02  0.45045681083E+02  0.00000000000E+00 0.  1.
         11    1    4    4    0    0 -0.97510550613E+01  0.20475532301E+00  0.26761817697E+01  0.10113701038E+02  0.51100000000E-03 0. -1.
        -11    1    4    4    0    0 -0.59499857817E+01  0.16157516025E+00  0.30574155623E+01  0.66915041296E+01  0.51100000000E-03 0.  1.
         12    1    4    4    0    0 -0.21862999495E+02  0.96198599207E+01  0.17033314162E+02  0.29337113749E+02  0.00000000000E+00 0. -1.
</event>
<event>
 8    1  0.8828843E-009  0.9118800E+02  0.7816164E-02  0.1184000E+00
        -11   -1    0    0    0    0  0.00000000000E+00  0.00000000000E+00  0.45593999997E+02  0.45594000000E+02  0.51100000000E-03 0. -1.
         11   -1    0    0    0    0 -0.00000000000E+00 -0.00000000000E+00 -0.45593999997E+02  0.45594000000E+02  0.51100000000E-03 0.  1.
         23    2    1    2    0    0 -0.35527136788E-14  0.35527136788E-14  0.00000000000E+00  0.91188000000E+02  0.91188000000E+02 0.  0.
    9900012    2    3    3    0    0  0.17175941388E+02 -0.21022558920E+02  0.35946524676E+02  0.46142316717E+02  0.99999904824E+01 0.  0.
        -12    1    3    3    0    0 -0.17175941388E+02  0.21022558920E+02 -0.35946524676E+02  0.45045683283E+02  0.00000000000E+00 0.  1.
         11    1    4    4    0    0  0.37433935807E+01 -0.19780127913E+01  0.73443427855E+01  0.84773168700E+01  0.51100000000E-03 0. -1.
        -11    1    4    4    0    0  0.12964037166E+02 -0.12713626785E+02  0.21301228381E+02  0.27990085681E+02  0.51100000000E-03 0.  1.
        -12    1    4    4    0    0  0.46851064084E+00 -0.63309193444E+01  0.73009535097E+01  0.96749141659E+01  0.00000000000E+00 0.  1.
</event>
<event>
 8    1  0.8828843E-009  0.9118800E+02  0.7816164E-02  0.1184000E+00
        -11   -1    0    0    0    0  0.00000000000E+00  0.00000000000E+00  0.45593999997E+02  0.45594000000E+02  0.51100000000E-03 0. -1.
         11   -1    0    0    0    0 -0.00000000000E+00 -0.00000000000E+00 -0.45593999997E+02  0.45594000000E+02  0.51100000000E-03 0.  1.
         23    2    1    2    0    0  0.00000000000E+00  0.00000000000E+00  0.00000000000E+00  0.91188000000E+02  0.91188000000E+02 0.  0.
    9900012    2    3    3    0    0 -0.11505277463E+02  0.17953488536E+02  0.39678890167E+02  0.46142317798E+02  0.10000000336E+02 0.  0.
        -12    1    3    3    0    0  0.11505277463E+02 -0.17953488536E+02 -0.39678890167E+02  0.45045682202E+02  0.00000000000E+00 0.  1.
         11    1    4    4    0    0 -0.64367976215E+01  0.10208149072E+02  0.16233461065E+02  0.20227800907E+02  0.51100000000E-03 0. -1.
        -11    1    4    4    0    0  0.11094008805E+01  0.25221653665E+01  0.82767249832E+01  0.87233173253E+01  0.51100000000E-03 0.  1.
         12    1    4    4    0    0 -0.61778807222E+01  0.52231740976E+01  0.15168704119E+02  0.17191199566E+02  0.00000000000E+00 0. -1.
</event>
<event>
 8    1  0.8828843E-009  0.9118800E+02  0.7816164E-02  0.1184000E+00
        -11   -1    0    0    0    0  0.00000000000E+00  0.00000000000E+00  0.45593999997E+02  0.45594000000E+02  0.51100000000E-03 0. -1.
         11   -1    0    0    0    0 -0.00000000000E+00 -0.00000000000E+00 -0.45593999997E+02  0.45594000000E+02  0.51100000000E-03 0.  1.
         23    2    1    2    0    0 -0.66613381478E-15  0.35527136788E-14  0.14210854715E-13  0.91188000000E+02  0.91188000000E+02 0.  0.
    9900012    2    3    3    0    0 -0.88771707989E+00  0.18439864454E+02  0.41088889734E+02  0.46142317607E+02  0.99999985967E+01 0.  0.
        -12    1    3    3    0    0  0.88771707989E+00 -0.18439864454E+02 -0.41088889734E+02  0.45045682393E+02  0.00000000000E+00 0.  1.
         11    1    4    4    0    0  0.40457287990E+00  0.53468051559E+00 -0.15408359923E+00  0.68797128252E+00  0.51100000000E-03 0.  1.
        -11    1    4    4    0    0  0.26716878454E+01  0.68065434416E+01  0.15061439412E+02  0.16742577669E+02  0.51100000000E-03 0. -1.
         12    1    4    4    0    0 -0.39639778052E+01  0.11098640496E+02  0.26181533921E+02  0.28711768656E+02  0.00000000000E+00 0. -1.
</event>
<event>
 8    1  0.8828843E-009  0.9118800E+02  0.7816164E-02  0.1184000E+00
        -11   -1    0    0    0    0  0.00000000000E+00  0.00000000000E+00  0.45593999997E+02  0.45594000000E+02  0.51100000000E-03 0.  1.
         11   -1    0    0    0    0 -0.00000000000E+00 -0.00000000000E+00 -0.45593999997E+02  0.45594000000E+02  0.51100000000E-03 0. -1.
         23    2    1    2    0    0 -0.71054273576E-14  0.00000000000E+00  0.00000000000E+00  0.91188000000E+02  0.91188000000E+02 0.  0.
    9900012    2    3    3    0    0 -0.27232739920E+02 -0.35467511233E+02 -0.54357124171E+01  0.46142318231E+02  0.10000004282E+02 0.  0.
        -12    1    3    3    0    0  0.27232739920E+02  0.35467511233E+02  0.54357124171E+01  0.45045681769E+02  0.00000000000E+00 0.  1.
         11    1    4    4    0    0 -0.41732698044E+01 -0.11391998088E+02 -0.24717272527E+01  0.12381568446E+02  0.51100000000E-03 0. -1.
        -11    1    4    4    0    0 -0.14810319179E+00 -0.81909459982E+00 -0.60528980891E+00  0.10291873167E+01  0.51100000000E-03 0.  1.
        -12    1    4    4    0    0 -0.22911366924E+02 -0.23256418545E+02 -0.23586953555E+01  0.32731562468E+02  0.00000000000E+00 0.  1.
</event>
<event>
 8    1  0.1043092E-008  0.9118800E+02  0.7816164E-02  0.1184000E+00
        -11   -1    0    0    0    0  0.00000000000E+00  0.00000000000E+00  0.45593999997E+02  0.45594000000E+02  0.51100000000E-03 0. -1.
         11   -1    0    0    0    0 -0.00000000000E+00 -0.00000000000E+00 -0.45593999997E+02  0.45594000000E+02  0.51100000000E-03 0.  1.
         23    2    1    2    0    0  0.00000000000E+00  0.00000000000E+00  0.00000000000E+00  0.91188000000E+02  0.91188000000E+02 0.  0.
    9900012    2    3    3    0    0  0.17522073430E+02 -0.66256432008E+01  0.40965733401E+02  0.46142317430E+02  0.99999969830E+01 0.  0.
        -12    1    3    3    0    0 -0.17522073430E+02  0.66256432008E+01 -0.40965733401E+02  0.45045682570E+02  0.00000000000E+00 0.  1.
         11    1    4    4    0    0  0.29640412247E+01 -0.38326156901E+01  0.10482695260E+02  0.11548219932E+02  0.51100000000E-03 0. -1.
        -11    1    4    4    0    0  0.13473992361E+02 -0.42750711726E+01  0.23976049785E+02  0.27832996016E+02  0.51100000000E-03 0.  1.
        -12    1    4    4    0    0  0.10840398447E+01  0.14820436619E+01  0.65069883552E+01  0.67611014824E+01  0.00000000000E+00 0.  1.
</event>
<event>
 8    1  0.8828843E-009  0.9118800E+02  0.7816164E-02  0.1184000E+00
        -11   -1    0    0    0    0  0.00000000000E+00  0.00000000000E+00  0.45593999997E+02  0.45594000000E+02  0.51100000000E-03 0. -1.
         11   -1    0    0    0    0 -0.00000000000E+00 -0.00000000000E+00 -0.45593999997E+02  0.45594000000E+02  0.51100000000E-03 0.  1.
         23    2    1    2    0    0  0.17763568394E-14 -0.88817841970E-15  0.00000000000E+00  0.91188000000E+02  0.91188000000E+02 0.  0.
    9900012    2    3    3    0    0  0.15623300778E+02 -0.36212685580E+01 -0.42094089446E+02  0.46142317860E+02  0.10000000903E+02 0.  0.
         12    1    3    3    0    0 -0.15623300778E+02  0.36212685580E+01  0.42094089446E+02  0.45045682140E+02  0.00000000000E+00 0. -1.
         11    1    4    4    0    0  0.55554265999E+01 -0.59890121558E+01 -0.19991956336E+02  0.21596512443E+02  0.51100000000E-03 0. -1.
        -11    1    4    4    0    0  0.63050261777E+01  0.15149421415E+01 -0.16636337403E+02  0.17855422908E+02  0.51100000000E-03 0.  1.
         12    1    4    4    0    0  0.37628480007E+01  0.85280145629E+00 -0.54657957070E+01  0.66903825086E+01  0.00000000000E+00 0. -1.
</event>
<event>
 8    1  0.8828843E-009  0.9118800E+02  0.7816164E-02  0.1184000E+00
        -11   -1    0    0    0    0  0.00000000000E+00  0.00000000000E+00  0.45593999997E+02  0.45594000000E+02  0.51100000000E-03 0. -1.
         11   -1    0    0    0    0 -0.00000000000E+00 -0.00000000000E+00 -0.45593999997E+02  0.45594000000E+02  0.51100000000E-03 0.  1.
         23    2    1    2    0    0 -0.88817841970E-15  0.00000000000E+00  0.71054273576E-14  0.91188000000E+02  0.91188000000E+02 0.  0.
    9900012    2    3    3    0    0 -0.61309270762E+01  0.52621698689E+01  0.44315177268E+02  0.46142316136E+02  0.99999851787E+01 0.  0.
        -12    1    3    3    0    0  0.61309270762E+01 -0.52621698689E+01 -0.44315177268E+02  0.45045683864E+02  0.00000000000E+00 0.  1.
         11    1    4    4    0    0 -0.19325082391E+01  0.97684596107E+00  0.83351809786E+01  0.86118556846E+01  0.51100000000E-03 0. -1.
        -11    1    4    4    0    0  0.12566278790E+00 -0.23713567910E+01  0.47913965665E+01  0.53475794043E+01  0.51100000000E-03 0.  1.
        -12    1    4    4    0    0 -0.43240816249E+01  0.66566806989E+01  0.31188599722E+02  0.32182881047E+02  0.00000000000E+00 0.  1.
</event>
<event>
 8    1  0.8828843E-009  0.9118800E+02  0.7816164E-02  0.1184000E+00
        -11   -1    0    0    0    0  0.00000000000E+00  0.00000000000E+00  0.45593999997E+02  0.45594000000E+02  0.51100000000E-03 0. -1.
         11   -1    0    0    0    0 -0.00000000000E+00 -0.00000000000E+00 -0.45593999997E+02  0.45594000000E+02  0.51100000000E-03 0.  1.
         23    2    1    2    0    0 -0.71054273576E-14 -0.44408920985E-15  0.00000000000E+00  0.91188000000E+02  0.91188000000E+02 0.  0.
    9900012    2    3    3    0    0 -0.32003785949E+02  0.16515352637E+01  0.31656651641E+02  0.46142317888E+02  0.10000001158E+02 0.  0.
        -12    1    3    3    0    0  0.32003785949E+02 -0.16515352637E+01 -0.31656651641E+02  0.45045682112E+02  0.00000000000E+00 0.  1.
         11    1    4    4    0    0 -0.19109492377E+02  0.81595689792E+00  0.18840710233E+02  0.26847920719E+02  0.51100000000E-03 0. -1.
        -11    1    4    4    0    0 -0.99794666894E+01 -0.92665704737E+00  0.12272878266E+02  0.15845251336E+02  0.51100000000E-03 0.  1.
        -12    1    4    4    0    0 -0.29148268824E+01  0.17622354132E+01  0.54306314174E+00  0.34491458337E+01  0.00000000000E+00 0.  1.
</event>
<event>
 8    1  0.8828843E-009  0.9118800E+02  0.7816164E-02  0.1184000E+00
        -11   -1    0    0    0    0  0.00000000000E+00  0.00000000000E+00  0.45593999997E+02  0.45594000000E+02  0.51100000000E-03 0.  1.
         11   -1    0    0    0    0 -0.00000000000E+00 -0.00000000000E+00 -0.45593999997E+02  0.45594000000E+02  0.51100000000E-03 0. -1.
         23    2    1    2    0    0 -0.35527136788E-14  0.00000000000E+00  0.00000000000E+00  0.91188000000E+02  0.91188000000E+02 0.  0.
    9900012    2    3    3    0    0 -0.22802250717E+02  0.37927438678E+02 -0.84071569453E+01  0.46142317295E+02  0.99999957500E+01 0.  0.
         12    1    3    3    0    0  0.22802250717E+02 -0.37927438678E+02  0.84071569453E+01  0.45045682705E+02  0.00000000000E+00 0. -1.
         11    1    4    4    0    0 -0.25952653767E+01  0.53390830014E+01 -0.47594156316E+01  0.76087612058E+01  0.51100000000E-03 0. -1.
        -11    1    4    4    0    0 -0.96279847826E+01  0.15890899095E+02 -0.22840275991E+01  0.18719923808E+02  0.51100000000E-03 0.  1.
         12    1    4    4    0    0 -0.10579000558E+02  0.16697456582E+02 -0.13637137146E+01  0.19813632282E+02  0.00000000000E+00 0. -1.
</event>
<event>
 8    1  0.8828843E-009  0.9118800E+02  0.7816164E-02  0.1184000E+00
        -11   -1    0    0    0    0  0.00000000000E+00  0.00000000000E+00  0.45593999997E+02  0.45594000000E+02  0.51100000000E-03 0.  1.
         11   -1    0    0    0    0 -0.00000000000E+00 -0.00000000000E+00 -0.45593999997E+02  0.45594000000E+02  0.51100000000E-03 0. -1.
         23    2    1    2    0    0  0.00000000000E+00 -0.35527136788E-14  0.55511151231E-15  0.91188000000E+02  0.91188000000E+02 0.  0.
    9900012    2    3    3    0    0 -0.40729606841E+02 -0.19217762451E+02  0.94358288038E+00  0.46142316347E+02  0.99999871090E+01 0.  0.
         12    1    3    3    0    0  0.40729606841E+02  0.19217762451E+02 -0.94358288038E+00  0.45045683653E+02  0.00000000000E+00 0. -1.
         11    1    4    4    0    0 -0.17612244778E+02 -0.95920622424E+01 -0.35299396133E+01  0.20363184871E+02  0.51100000000E-03 0. -1.
        -11    1    4    4    0    0 -0.12369552116E+02 -0.73742802618E+01  0.22596865620E+01  0.14577105767E+02  0.51100000000E-03 0.  1.
         12    1    4    4    0    0 -0.10747809948E+02 -0.22514199467E+01  0.22138359317E+01  0.11202025709E+02  0.00000000000E+00 0. -1.
</event>
<event>
 8    1  0.8828843E-009  0.9118800E+02  0.7816164E-02  0.1184000E+00
        -11   -1    0    0    0    0  0.00000000000E+00  0.00000000000E+00  0.45593999997E+02  0.45594000000E+02  0.51100000000E-03 0. -1.
         11   -1    0    0    0    0 -0.00000000000E+00 -0.00000000000E+00 -0.45593999997E+02  0.45594000000E+02  0.51100000000E-03 0.  1.
         23    2    1    2    0    0 -0.44408920985E-15  0.00000000000E+00  0.71054273576E-14  0.91188000000E+02  0.91188000000E+02 0.  0.
    9900012    2    3    3    0    0 -0.14023881242E+01  0.51409321884E+01 -0.44729381244E+02  0.46142318490E+02  0.10000006651E+02 0.  0.
         12    1    3    3    0    0  0.14023881242E+01 -0.51409321884E+01  0.44729381244E+02  0.45045681510E+02  0.00000000000E+00 0. -1.
         11    1    4    4    0    0  0.19043751067E+01  0.40560355211E+01 -0.30734744181E+02  0.31059661441E+02  0.51100000000E-03 0.  1.
        -11    1    4    4    0    0  0.76806460493E+00 -0.81426301976E+00 -0.24514295488E+01  0.26948941717E+01  0.51100000000E-03 0. -1.
        -12    1    4    4    0    0 -0.40748278359E+01  0.18991596871E+01 -0.11543207513E+02  0.12387762877E+02  0.00000000000E+00 0.  1.
</event>
<event>
 8    1  0.8828843E-009  0.9118800E+02  0.7816164E-02  0.1184000E+00
        -11   -1    0    0    0    0  0.00000000000E+00  0.00000000000E+00  0.45593999997E+02  0.45594000000E+02  0.51100000000E-03 0.  1.
         11   -1    0    0    0    0 -0.00000000000E+00 -0.00000000000E+00 -0.45593999997E+02  0.45594000000E+02  0.51100000000E-03 0. -1.
         23    2    1    2    0    0  0.00000000000E+00  0.71054273576E-14  0.88817841970E-15  0.91188000000E+02  0.91188000000E+02 0.  0.
    9900012    2    3    3    0    0  0.30830550761E+02  0.32114033838E+02  0.68760004092E+01  0.46142318618E+02  0.10000007813E+02 0.  0.
         12    1    3    3    0    0 -0.30830550761E+02 -0.32114033838E+02 -0.68760004092E+01  0.45045681382E+02  0.00000000000E+00 0. -1.
         11    1    4    4    0    0  0.38297674662E+01  0.55768969307E+01  0.17261251042E+01  0.69820058979E+01  0.51100000000E-03 0. -1.
        -11    1    4    4    0    0  0.11631191671E+01  0.49354438876E+01  0.14833531455E+01  0.52831609270E+01  0.51100000000E-03 0.  1.
         12    1    4    4    0    0  0.25837664127E+02  0.21601693019E+02  0.36665221594E+01  0.33877151793E+02  0.00000000000E+00 0. -1.
</event>
<event>
 8    1  0.8828843E-009  0.9118800E+02  0.7816164E-02  0.1184000E+00
        -11   -1    0    0    0    0  0.00000000000E+00  0.00000000000E+00  0.45593999997E+02  0.45594000000E+02  0.51100000000E-03 0. -1.
         11   -1    0    0    0    0 -0.00000000000E+00 -0.00000000000E+00 -0.45593999997E+02  0.45594000000E+02  0.51100000000E-03 0.  1.
         23    2    1    2    0    0  0.00000000000E+00  0.71054273576E-14  0.00000000000E+00  0.91188000000E+02  0.91188000000E+02 0.  0.
    9900012    2    3    3    0    0  0.11285021008E+02 -0.32731475222E+02 -0.28816869634E+02  0.46142321574E+02  0.10000034769E+02 0.  0.
         12    1    3    3    0    0 -0.11285021008E+02  0.32731475222E+02  0.28816869634E+02  0.45045678426E+02  0.00000000000E+00 0. -1.
         11    1    4    4    0    0  0.10191028721E+01 -0.58624906326E+01 -0.18319281721E+01  0.62260202513E+01  0.51100000000E-03 0. -1.
        -11    1    4    4    0    0  0.51969102096E+01 -0.19142980785E+02 -0.21106146498E+02  0.28964305780E+02  0.51100000000E-03 0.  1.
        -12    1    4    4    0    0  0.50690079260E+01 -0.77260038046E+01 -0.58787949636E+01  0.10951995543E+02  0.00000000000E+00 0.  1.
</event>
<event>
 8    1  0.8828843E-009  0.9118800E+02  0.7816164E-02  0.1184000E+00
        -11   -1    0    0    0    0  0.00000000000E+00  0.00000000000E+00  0.45593999997E+02  0.45594000000E+02  0.51100000000E-03 0. -1.
         11   -1    0    0    0    0 -0.00000000000E+00 -0.00000000000E+00 -0.45593999997E+02  0.45594000000E+02  0.51100000000E-03 0.  1.
         23    2    1    2    0    0  0.00000000000E+00  0.00000000000E+00  0.00000000000E+00  0.91188000000E+02  0.91188000000E+02 0.  0.
    9900012    2    3    3    0    0 -0.17694756138E+02  0.24928644169E+02 -0.33084317164E+02  0.46142315001E+02  0.99999748289E+01 0.  0.
         12    1    3    3    0    0  0.17694756138E+02 -0.24928644169E+02  0.33084317164E+02  0.45045684999E+02  0.00000000000E+00 0. -1.
         11    1    4    4    0    0 -0.12957026863E+01  0.10276907317E+01 -0.49991029010E+01  0.52655506613E+01  0.51100000000E-03 0. -1.
        -11    1    4    4    0    0 -0.96502400965E+01  0.88838699946E+01 -0.14290279720E+02  0.19397483721E+02  0.51100000000E-03 0.  1.
        -12    1    4    4    0    0 -0.67488133553E+01  0.15017083442E+02 -0.13794934543E+02  0.21479280618E+02  0.00000000000E+00 0.  1.
</event>
<event>
 8    1  0.8828843E-009  0.9118800E+02  0.7816164E-02  0.1184000E+00
        -11   -1    0    0    0    0  0.00000000000E+00  0.00000000000E+00  0.45593999997E+02  0.45594000000E+02  0.51100000000E-03 0. -1.
         11   -1    0    0    0    0 -0.00000000000E+00 -0.00000000000E+00 -0.45593999997E+02  0.45594000000E+02  0.51100000000E-03 0.  1.
         23    2    1    2    0    0  0.00000000000E+00  0.00000000000E+00  0.71054273576E-14  0.91188000000E+02  0.91188000000E+02 0.  0.
    9900012    2    3    3    0    0 -0.17316813699E+02  0.22294354340E+01 -0.41524343584E+02  0.46142317309E+02  0.99999958768E+01 0.  0.
         12    1    3    3    0    0  0.17316813699E+02 -0.22294354340E+01  0.41524343584E+02  0.45045682691E+02  0.00000000000E+00 0. -1.
         11    1    4    4    0    0  0.30278884615E+00 -0.13631629081E+01 -0.21616092381E+01  0.25734119295E+01  0.51100000000E-03 0. -1.
        -11    1    4    4    0    0 -0.60319940731E+01 -0.71211447509E+00 -0.98526559128E+01  0.11574406608E+02  0.51100000000E-03 0.  1.
         12    1    4    4    0    0 -0.11587608472E+02  0.43047128172E+01 -0.29510078433E+02  0.31994498772E+02  0.00000000000E+00 0. -1.
</event>
<event>
 8    1  0.8828843E-009  0.9118800E+02  0.7816164E-02  0.1184000E+00
        -11   -1    0    0    0    0  0.00000000000E+00  0.00000000000E+00  0.45593999997E+02  0.45594000000E+02  0.51100000000E-03 0. -1.
         11   -1    0    0    0    0 -0.00000000000E+00 -0.00000000000E+00 -0.45593999997E+02  0.45594000000E+02  0.51100000000E-03 0.  1.
         23    2    1    2    0    0  0.00000000000E+00  0.88817841970E-15 -0.35527136788E-14  0.91188000000E+02  0.91188000000E+02 0.  0.
    9900012    2    3    3    0    0 -0.37615258731E+02 -0.61266327207E+01  0.24013957441E+02  0.46142317967E+02  0.10000001874E+02 0.  0.
        -12    1    3    3    0    0  0.37615258731E+02  0.61266327207E+01 -0.24013957441E+02  0.45045682033E+02  0.00000000000E+00 0.  1.
         11    1    4    4    0    0 -0.20814968202E+02 -0.51638516890E-01  0.13353138782E+02  0.24729979446E+02  0.51100000000E-03 0. -1.
        -11    1    4    4    0    0  0.52356155403E-01  0.32991527728E+00  0.79136094481E+00  0.85897477453E+00  0.51100000000E-03 0.  1.
         12    1    4    4    0    0 -0.16852646684E+02 -0.64049094811E+01  0.98694577139E+01  0.20553363746E+02  0.00000000000E+00 0. -1.
</event>
<event>
 8    1  0.8828843E-009  0.9118800E+02  0.7816164E-02  0.1184000E+00
        -11   -1    0    0    0    0  0.00000000000E+00  0.00000000000E+00  0.45593999997E+02  0.45594000000E+02  0.51100000000E-03 0. -1.
         11   -1    0    0    0    0 -0.00000000000E+00 -0.00000000000E+00 -0.45593999997E+02  0.45594000000E+02  0.51100000000E-03 0.  1.
         23    2    1    2    0    0  0.00000000000E+00  0.35527136788E-14  0.00000000000E+00  0.91188000000E+02  0.91188000000E+02 0.  0.
    9900012    2    3    3    0    0  0.25519497374E+01  0.26249282403E+02  0.36518162197E+02  0.46142318249E+02  0.10000004447E+02 0.  0.
        -12    1    3    3    0    0 -0.25519497374E+01 -0.26249282403E+02 -0.36518162197E+02  0.45045681751E+02  0.00000000000E+00 0.  1.
         11    1    4    4    0    0  0.43052599111E+01  0.82947091793E+01  0.14376203696E+02  0.17146798426E+02  0.51100000000E-03 0. -1.
        -11    1    4    4    0    0 -0.27688958506E+00  0.16637480605E+02  0.20636388276E+02  0.26509299313E+02  0.51100000000E-03 0.  1.
        -12    1    4    4    0    0 -0.14764205887E+01  0.13170926188E+01  0.15055702253E+01  0.24862205100E+01  0.00000000000E+00 0.  1.
</event>
<event>
 8    1  0.9273517E-009  0.9118800E+02  0.7816164E-02  0.1184000E+00
        -11   -1    0    0    0    0  0.00000000000E+00  0.00000000000E+00  0.45593999997E+02  0.45594000000E+02  0.51100000000E-03 0. -1.
         11   -1    0    0    0    0 -0.00000000000E+00 -0.00000000000E+00 -0.45593999997E+02  0.45594000000E+02  0.51100000000E-03 0.  1.
         23    2    1    2    0    0 -0.17763568394E-14  0.71054273576E-14  0.00000000000E+00  0.91188000000E+02  0.91188000000E+02 0.  0.
    9900012    2    3    3    0    0 -0.15331662852E+02  0.22458321216E+02  0.35912079097E+02  0.46142317602E+02  0.99999985483E+01 0.  0.
        -12    1    3    3    0    0  0.15331662852E+02 -0.22458321216E+02 -0.35912079097E+02  0.45045682398E+02  0.00000000000E+00 0.  1.
         11    1    4    4    0    0 -0.52335275592E+01  0.10062337712E+02  0.17968824462E+02  0.21248978887E+02  0.51100000000E-03 0. -1.
        -11    1    4    4    0    0 -0.87139457948E+00  0.58728171647E+01  0.67208935816E+01  0.89677043194E+01  0.51100000000E-03 0.  1.
        -12    1    4    4    0    0 -0.92267407135E+01  0.65231663397E+01  0.11222361053E+02  0.15925634395E+02  0.00000000000E+00 0.  1.
</event>
<event>
 8    1  0.8828843E-009  0.9118800E+02  0.7816164E-02  0.1184000E+00
        -11   -1    0    0    0    0  0.00000000000E+00  0.00000000000E+00  0.45593999997E+02  0.45594000000E+02  0.51100000000E-03 0. -1.
         11   -1    0    0    0    0 -0.00000000000E+00 -0.00000000000E+00 -0.45593999997E+02  0.45594000000E+02  0.51100000000E-03 0.  1.
         23    2    1    2    0    0  0.00000000000E+00  0.00000000000E+00 -0.71054273576E-14  0.91188000000E+02  0.91188000000E+02 0.  0.
    9900012    2    3    3    0    0 -0.58634901973E+01  0.93645340592E+01 -0.43669652284E+02  0.46142317121E+02  0.99999941619E+01 0.  0.
         12    1    3    3    0    0  0.58634901973E+01 -0.93645340592E+01  0.43669652284E+02  0.45045682879E+02  0.00000000000E+00 0. -1.
         11    1    4    4    0    0 -0.13570772646E+01  0.10280696070E+01 -0.64328259277E+01  0.66543095432E+01  0.51100000000E-03 0. -1.
        -11    1    4    4    0    0 -0.58858642060E+00  0.23894888735E+01 -0.26438561633E+02  0.26552846035E+02  0.51100000000E-03 0.  1.
         12    1    4    4    0    0 -0.39178265121E+01  0.59469755787E+01 -0.10798264723E+02  0.12935161543E+02  0.00000000000E+00 0. -1.
</event>
<event>
 8    1  0.8828843E-009  0.9118800E+02  0.7816164E-02  0.1184000E+00
        -11   -1    0    0    0    0  0.00000000000E+00  0.00000000000E+00  0.45593999997E+02  0.45594000000E+02  0.51100000000E-03 0. -1.
         11   -1    0    0    0    0 -0.00000000000E+00 -0.00000000000E+00 -0.45593999997E+02  0.45594000000E+02  0.51100000000E-03 0.  1.
         23    2    1    2    0    0  0.35527136788E-14  0.00000000000E+00  0.35527136788E-14  0.91188000000E+02  0.91188000000E+02 0.  0.
    9900012    2    3    3    0    0 -0.23336403872E+02  0.29486380477E+02 -0.24800794320E+02  0.46142314544E+02  0.99999706637E+01 0.  0.
         12    1    3    3    0    0  0.23336403872E+02 -0.29486380477E+02  0.24800794320E+02  0.45045685456E+02  0.00000000000E+00 0. -1.
         11    1    4    4    0    0 -0.47938143376E+00  0.23758335252E+01 -0.14520188484E+01  0.28253761689E+01  0.51100000000E-03 0. -1.
        -11    1    4    4    0    0 -0.50700298143E+01  0.45626751088E+01 -0.93054258927E+00  0.68839753223E+01  0.51100000000E-03 0.  1.
         12    1    4    4    0    0 -0.17786992624E+02  0.22547871843E+02 -0.22418232882E+02  0.36432963053E+02  0.00000000000E+00 0. -1.
</event>
<event>
 8    1  0.8828843E-009  0.9118800E+02  0.7816164E-02  0.1184000E+00
        -11   -1    0    0    0    0  0.00000000000E+00  0.00000000000E+00  0.45593999997E+02  0.45594000000E+02  0.51100000000E-03 0.  1.
         11   -1    0    0    0    0 -0.00000000000E+00 -0.00000000000E+00 -0.45593999997E+02  0.45594000000E+02  0.51100000000E-03 0. -1.
         23    2    1    2    0    0  0.00000000000E+00  0.35527136788E-14 -0.71054273576E-14  0.91188000000E+02  0.91188000000E+02 0.  0.
    9900012    2    3    3    0    0  0.17549288648E+02  0.26047977431E+02 -0.32289918197E+02  0.46142317882E+02  0.10000001104E+02 0.  0.
         12    1    3    3    0    0 -0.17549288648E+02 -0.26047977431E+02  0.32289918197E+02  0.45045682118E+02  0.00000000000E+00 0. -1.
         11    1    4    4    0    0  0.24163670960E+01  0.42212701400E+01 -0.77010919467E+01  0.91084998199E+01  0.51100000000E-03 0. -1.
        -11    1    4    4    0    0  0.14119504919E+02  0.15858399941E+02 -0.21576562536E+02  0.30272055083E+02  0.51100000000E-03 0.  1.
         12    1    4    4    0    0  0.10134166334E+01  0.59683073502E+01 -0.30122637141E+01  0.67617629789E+01  0.00000000000E+00 0. -1.
</event>
<event>
 8    1  0.8828843E-009  0.9118800E+02  0.7816164E-02  0.1184000E+00
        -11   -1    0    0    0    0  0.00000000000E+00  0.00000000000E+00  0.45593999997E+02  0.45594000000E+02  0.51100000000E-03 0.  1.
         11   -1    0    0    0    0 -0.00000000000E+00 -0.00000000000E+00 -0.45593999997E+02  0.45594000000E+02  0.51100000000E-03 0. -1.
         23    2    1    2    0    0  0.00000000000E+00  0.88817841970E-15 -0.35527136788E-14  0.91188000000E+02  0.91188000000E+02 0.  0.
    9900012    2    3    3    0    0  0.34658076686E+02 -0.49448558114E+01  0.28345714122E+02  0.46142318879E+02  0.10000010192E+02 0.  0.
        -12    1    3    3    0    0 -0.34658076686E+02  0.49448558114E+01 -0.28345714122E+02  0.45045681121E+02  0.00000000000E+00 0.  1.
         11    1    4    4    0    0  0.25052315228E+02 -0.10999649189E+01  0.21329329968E+02  0.32920643041E+02  0.51100000000E-03 0. -1.
        -11    1    4    4    0    0  0.69671551344E+01 -0.97156457816E+00  0.30786568510E+01  0.76787574948E+01  0.51100000000E-03 0.  1.
        -12    1    4    4    0    0  0.26386063237E+01 -0.28733263144E+01  0.39377273039E+01  0.55429183432E+01  0.00000000000E+00 0.  1.
</event>
<event>
 8    1  0.8828843E-009  0.9118800E+02  0.7816164E-02  0.1184000E+00
        -11   -1    0    0    0    0  0.00000000000E+00  0.00000000000E+00  0.45593999997E+02  0.45594000000E+02  0.51100000000E-03 0. -1.
         11   -1    0    0    0    0 -0.00000000000E+00 -0.00000000000E+00 -0.45593999997E+02  0.45594000000E+02  0.51100000000E-03 0.  1.
         23    2    1    2    0    0  0.00000000000E+00  0.88817841970E-15  0.00000000000E+00  0.91188000000E+02  0.91188000000E+02 0.  0.
    9900012    2    3    3    0    0  0.32177540457E+02 -0.64961593444E+01 -0.30846706155E+02  0.46142317891E+02  0.10000001182E+02 0.  0.
         12    1    3    3    0    0 -0.32177540457E+02  0.64961593444E+01  0.30846706155E+02  0.45045682109E+02  0.00000000000E+00 0. -1.
         11    1    4    4    0    0  0.35197786991E+01 -0.15345891878E+01 -0.14481906321E+01  0.41037863533E+01  0.51100000000E-03 0. -1.
        -11    1    4    4    0    0  0.25381912818E+02 -0.41741624138E+01 -0.28803147436E+02  0.38617177947E+02  0.51100000000E-03 0.  1.
        -12    1    4    4    0    0  0.32758489397E+01 -0.78740774285E+00 -0.59536808744E+00  0.34213535902E+01  0.00000000000E+00 0.  1.
</event>
<event>
 8    1  0.8828843E-009  0.9118800E+02  0.7816164E-02  0.1184000E+00
        -11   -1    0    0    0    0  0.00000000000E+00  0.00000000000E+00  0.45593999997E+02  0.45594000000E+02  0.51100000000E-03 0. -1.
         11   -1    0    0    0    0 -0.00000000000E+00 -0.00000000000E+00 -0.45593999997E+02  0.45594000000E+02  0.51100000000E-03 0.  1.
         23    2    1    2    0    0  0.00000000000E+00 -0.35527136788E-14  0.00000000000E+00  0.91188000000E+02  0.91188000000E+02 0.  0.
    9900012    2    3    3    0    0 -0.81860673997E+01 -0.18281446141E+02  0.40347125182E+02  0.46142317822E+02  0.10000000551E+02 0.  0.
        -12    1    3    3    0    0  0.81860673997E+01  0.18281446141E+02 -0.40347125182E+02  0.45045682178E+02  0.00000000000E+00 0.  1.
         11    1    4    4    0    0 -0.25942424228E+01 -0.32596732792E+01  0.17732146887E+02  0.18214955315E+02  0.51100000000E-03 0. -1.
        -11    1    4    4    0    0 -0.26392165625E+01 -0.29508174987E+01  0.55330361383E+01  0.68034753724E+01  0.51100000000E-03 0.  1.
         12    1    4    4    0    0 -0.29526084145E+01 -0.12070955363E+02  0.17081942157E+02  0.21123887134E+02  0.00000000000E+00 0. -1.
</event>
<event>
 8    1  0.8828843E-009  0.9118800E+02  0.7816164E-02  0.1184000E+00
        -11   -1    0    0    0    0  0.00000000000E+00  0.00000000000E+00  0.45593999997E+02  0.45594000000E+02  0.51100000000E-03 0. -1.
         11   -1    0    0    0    0 -0.00000000000E+00 -0.00000000000E+00 -0.45593999997E+02  0.45594000000E+02  0.51100000000E-03 0.  1.
         23    2    1    2    0    0  0.00000000000E+00 -0.17763568394E-14  0.00000000000E+00  0.91188000000E+02  0.91188000000E+02 0.  0.
    9900012    2    3    3    0    0 -0.28439140328E+02  0.10094830035E+02  0.33442834146E+02  0.46142318168E+02  0.10000003706E+02 0.  0.
        -12    1    3    3    0    0  0.28439140328E+02 -0.10094830035E+02 -0.33442834146E+02  0.45045681832E+02  0.00000000000E+00 0.  1.
         11    1    4    4    0    0 -0.12398064463E+02  0.77040148420E+01  0.12642548685E+02  0.19310564068E+02  0.51100000000E-03 0. -1.
        -11    1    4    4    0    0 -0.35234154128E+01  0.24199237391E+01  0.37944646534E+01  0.57156320160E+01  0.51100000000E-03 0.  1.
        -12    1    4    4    0    0 -0.12517660453E+02 -0.29108546245E-01  0.17005820808E+02  0.21116122084E+02  0.00000000000E+00 0.  1.
</event>
<event>
 8    1  0.8828843E-009  0.9118800E+02  0.7816164E-02  0.1184000E+00
        -11   -1    0    0    0    0  0.00000000000E+00  0.00000000000E+00  0.45593999997E+02  0.45594000000E+02  0.51100000000E-03 0. -1.
         11   -1    0    0    0    0 -0.00000000000E+00 -0.00000000000E+00 -0.45593999997E+02  0.45594000000E+02  0.51100000000E-03 0.  1.
         23    2    1    2    0    0  0.88817841970E-15  0.00000000000E+00  0.00000000000E+00  0.91188000000E+02  0.91188000000E+02 0.  0.
    9900012    2    3    3    0    0 -0.59226537419E+01 -0.29905523228E+02  0.33161655311E+02  0.46142317301E+02  0.99999958009E+01 0.  0.
        -12    1    3    3    0    0  0.59226537419E+01  0.29905523228E+02 -0.33161655311E+02  0.45045682699E+02  0.00000000000E+00 0.  1.
         11    1    4    4    0    0 -0.68920510483E+01 -0.26624275378E+02  0.25864920522E+02  0.37753761679E+02  0.51100000000E-03 0. -1.
        -11    1    4    4    0    0  0.20105349682E+00 -0.20874692460E+01  0.63368122250E+01  0.66748138399E+01  0.51100000000E-03 0.  1.
         12    1    4    4    0    0  0.76834380950E+00 -0.11937786039E+01  0.95992256377E+00  0.17137417814E+01  0.00000000000E+00 0. -1.
</event>
<event>
 8    1  0.8828843E-009  0.9118800E+02  0.7816164E-02  0.1184000E+00
        -11   -1    0    0    0    0  0.00000000000E+00  0.00000000000E+00  0.45593999997E+02  0.45594000000E+02  0.51100000000E-03 0. -1.
         11   -1    0    0    0    0 -0.00000000000E+00 -0.00000000000E+00 -0.45593999997E+02  0.45594000000E+02  0.51100000000E-03 0.  1.
         23    2    1    2    0    0  0.00000000000E+00  0.00000000000E+00  0.00000000000E+00  0.91188000000E+02  0.91188000000E+02 0.  0.
    9900012    2    3    3    0    0 -0.74007301855E+01 -0.34744963511E+02  0.27697114215E+02  0.46142318381E+02  0.10000005652E+02 0.  0.
        -12    1    3    3    0    0  0.74007301855E+01  0.34744963511E+02 -0.27697114215E+02  0.45045681619E+02  0.00000000000E+00 0.  1.
         11    1    4    4    0    0 -0.30686051590E+01 -0.41544914628E+01  0.61984133505E+01  0.80682380518E+01  0.51100000000E-03 0. -1.
        -11    1    4    4    0    0  0.14138690614E+01 -0.52360495789E+01  0.35258971386E+01  0.64689405476E+01  0.51100000000E-03 0.  1.
        -12    1    4    4    0    0 -0.57459940879E+01 -0.25354422470E+02  0.17972803726E+02  0.31605139782E+02  0.00000000000E+00 0.  1.
</event>
<event>
 8    1  0.8828843E-009  0.9118800E+02  0.7816164E-02  0.1184000E+00
        -11   -1    0    0    0    0  0.00000000000E+00  0.00000000000E+00  0.45593999997E+02  0.45594000000E+02  0.51100000000E-03 0. -1.
         11   -1    0    0    0    0 -0.00000000000E+00 -0.00000000000E+00 -0.45593999997E+02  0.45594000000E+02  0.51100000000E-03 0.  1.
         23    2    1    2    0    0 -0.17763568394E-14 -0.35527136788E-14  0.71054273576E-14  0.91188000000E+02  0.91188000000E+02 0.  0.
    9900012    2    3    3    0    0  0.13074726655E+02  0.25851371791E+02 -0.34494526807E+02  0.46142308972E+02  0.99999198502E+01 0.  0.
         12    1    3    3    0    0 -0.13074726655E+02 -0.25851371791E+02  0.34494526807E+02  0.45045691028E+02  0.00000000000E+00 0. -1.
         11    1    4    4    0    0  0.13595883884E+01  0.33674487470E+01 -0.10557727414E+01  0.37819106272E+01  0.51100000000E-03 0. -1.
        -11    1    4    4    0    0  0.25589455175E+01  0.26747436828E+01 -0.81898725994E+01  0.89875730531E+01  0.51100000000E-03 0.  1.
        -12    1    4    4    0    0  0.91561927491E+01  0.19809179362E+02 -0.25248881466E+02  0.33372825291E+02  0.00000000000E+00 0.  1.
</event>
<event>
 8    1  0.8828843E-009  0.9118800E+02  0.7816164E-02  0.1184000E+00
        -11   -1    0    0    0    0  0.00000000000E+00  0.00000000000E+00  0.45593999997E+02  0.45594000000E+02  0.51100000000E-03 0.  1.
         11   -1    0    0    0    0 -0.00000000000E+00 -0.00000000000E+00 -0.45593999997E+02  0.45594000000E+02  0.51100000000E-03 0. -1.
         23    2    1    2    0    0  0.00000000000E+00  0.00000000000E+00  0.00000000000E+00  0.91188000000E+02  0.91188000000E+02 0.  0.
    9900012    2    3    3    0    0 -0.27485231249E+02 -0.35225818155E+02  0.57286347169E+01  0.46142318107E+02  0.10000003154E+02 0.  0.
        -12    1    3    3    0    0  0.27485231249E+02  0.35225818155E+02 -0.57286347169E+01  0.45045681893E+02  0.00000000000E+00 0.  1.
         11    1    4    4    0    0 -0.37434852917E+01 -0.24819321257E+01  0.18059080814E+01  0.48409682364E+01  0.51100000000E-03 0. -1.
        -11    1    4    4    0    0 -0.98149814320E+01 -0.18081012000E+02  0.45445421605E+01  0.21069165128E+02  0.51100000000E-03 0.  1.
        -12    1    4    4    0    0 -0.13926764525E+02 -0.14662874029E+02 -0.62181552495E+00  0.20232184743E+02  0.00000000000E+00 0.  1.
</event>
<event>
 8    1  0.8828843E-009  0.9118800E+02  0.7816164E-02  0.1184000E+00
        -11   -1    0    0    0    0  0.00000000000E+00  0.00000000000E+00  0.45593999997E+02  0.45594000000E+02  0.51100000000E-03 0. -1.
         11   -1    0    0    0    0 -0.00000000000E+00 -0.00000000000E+00 -0.45593999997E+02  0.45594000000E+02  0.51100000000E-03 0.  1.
         23    2    1    2    0    0  0.35527136788E-14  0.00000000000E+00  0.00000000000E+00  0.91188000000E+02  0.91188000000E+02 0.  0.
    9900012    2    3    3    0    0  0.29114788639E+02  0.28366687186E+02 -0.19410656903E+02  0.46142318067E+02  0.10000002793E+02 0.  0.
         12    1    3    3    0    0 -0.29114788639E+02 -0.28366687186E+02  0.19410656903E+02  0.45045681933E+02  0.00000000000E+00 0. -1.
         11    1    4    4    0    0  0.34242160756E+01  0.41960476131E+01 -0.60897119271E+01  0.81496418891E+01  0.51100000000E-03 0. -1.
        -11    1    4    4    0    0  0.24250724304E+02  0.23544370060E+02 -0.13532593053E+02  0.36408324128E+02  0.51100000000E-03 0.  1.
         12    1    4    4    0    0  0.14398482588E+01  0.62626951296E+00  0.21164807738E+00  0.15843520505E+01  0.00000000000E+00 0. -1.
</event>
<event>
 8    1  0.8828843E-009  0.9118800E+02  0.7816164E-02  0.1184000E+00
        -11   -1    0    0    0    0  0.00000000000E+00  0.00000000000E+00  0.45593999997E+02  0.45594000000E+02  0.51100000000E-03 0. -1.
         11   -1    0    0    0    0 -0.00000000000E+00 -0.00000000000E+00 -0.45593999997E+02  0.45594000000E+02  0.51100000000E-03 0.  1.
         23    2    1    2    0    0  0.00000000000E+00 -0.35527136788E-14 -0.71054273576E-14  0.91188000000E+02  0.91188000000E+02 0.  0.
    9900012    2    3    3    0    0 -0.13367862182E+02 -0.16910523121E+02 -0.39553103289E+02  0.46142317506E+02  0.99999976719E+01 0.  0.
         12    1    3    3    0    0  0.13367862182E+02  0.16910523121E+02  0.39553103289E+02  0.45045682494E+02  0.00000000000E+00 0. -1.
         11    1    4    4    0    0 -0.90199927217E+01 -0.98594547061E+01 -0.16533452732E+02  0.21258508304E+02  0.51100000000E-03 0. -1.
        -11    1    4    4    0    0 -0.31907720891E+01 -0.36519000504E+01 -0.73333260167E+01  0.87917615544E+01  0.51100000000E-03 0.  1.
         12    1    4    4    0    0 -0.11570973712E+01 -0.33991683650E+01 -0.15686324540E+02  0.16092047647E+02  0.00000000000E+00 0. -1.
</event>
<event>
 8    1  0.8828843E-009  0.9118800E+02  0.7816164E-02  0.1184000E+00
        -11   -1    0    0    0    0  0.00000000000E+00  0.00000000000E+00  0.45593999997E+02  0.45594000000E+02  0.51100000000E-03 0. -1.
         11   -1    0    0    0    0 -0.00000000000E+00 -0.00000000000E+00 -0.45593999997E+02  0.45594000000E+02  0.51100000000E-03 0.  1.
         23    2    1    2    0    0  0.00000000000E+00  0.17763568394E-14  0.71054273576E-14  0.91188000000E+02  0.91188000000E+02 0.  0.
    9900012    2    3    3    0    0 -0.13387201204E+02  0.10610537228E+02  0.41681084704E+02  0.46142317871E+02  0.10000001005E+02 0.  0.
        -12    1    3    3    0    0  0.13387201204E+02 -0.10610537228E+02 -0.41681084704E+02  0.45045682129E+02  0.00000000000E+00 0.  1.
         11    1    4    4    0    0 -0.47226692375E+01  0.67241237572E+01  0.25416343527E+02  0.26711569845E+02  0.51100000000E-03 0. -1.
        -11    1    4    4    0    0 -0.74636174696E+01  0.45856603949E+01  0.15597996880E+02  0.17889420726E+02  0.51100000000E-03 0.  1.
        -12    1    4    4    0    0 -0.12009144968E+01 -0.69924692385E+00  0.66674429700E+00  0.15413273004E+01  0.00000000000E+00 0.  1.
</event>
<event>
 8    1  0.8828843E-009  0.9118800E+02  0.7816164E-02  0.1184000E+00
        -11   -1    0    0    0    0  0.00000000000E+00  0.00000000000E+00  0.45593999997E+02  0.45594000000E+02  0.51100000000E-03 0. -1.
         11   -1    0    0    0    0 -0.00000000000E+00 -0.00000000000E+00 -0.45593999997E+02  0.45594000000E+02  0.51100000000E-03 0.  1.
         23    2    1    2    0    0  0.00000000000E+00  0.88817841970E-15  0.00000000000E+00  0.91188000000E+02  0.91188000000E+02 0.  0.
    9900012    2    3    3    0    0 -0.12466705326E+02  0.79123280154E+01  0.42556900738E+02  0.46142317890E+02  0.10000001176E+02 0.  0.
        -12    1    3    3    0    0  0.12466705326E+02 -0.79123280154E+01 -0.42556900738E+02  0.45045682110E+02  0.00000000000E+00 0.  1.
         11    1    4    4    0    0 -0.46441714568E+01  0.31242127535E+00  0.22573638072E+02  0.23048537300E+02  0.51100000000E-03 0. -1.
        -11    1    4    4    0    0 -0.43032752624E+01  0.22583986468E+01  0.60335745169E+01  0.77474230647E+01  0.51100000000E-03 0.  1.
        -12    1    4    4    0    0 -0.35192586067E+01  0.53415080933E+01  0.13949688149E+02  0.15346357526E+02  0.00000000000E+00 0.  1.
</event>
<event>
 8    1  0.8828843E-009  0.9118800E+02  0.7816164E-02  0.1184000E+00
        -11   -1    0    0    0    0  0.00000000000E+00  0.00000000000E+00  0.45593999997E+02  0.45594000000E+02  0.51100000000E-03 0. -1.
         11   -1    0    0    0    0 -0.00000000000E+00 -0.00000000000E+00 -0.45593999997E+02  0.45594000000E+02  0.51100000000E-03 0.  1.
         23    2    1    2    0    0 -0.17763568394E-14  0.00000000000E+00  0.00000000000E+00  0.91188000000E+02  0.91188000000E+02 0.  0.
    9900012    2    3    3    0    0  0.15922081187E+02  0.12907935649E+02  0.40112166883E+02  0.46142318697E+02  0.10000008533E+02 0.  0.
        -12    1    3    3    0    0 -0.15922081187E+02 -0.12907935649E+02 -0.40112166883E+02  0.45045681303E+02  0.00000000000E+00 0.  1.
         11    1    4    4    0    0  0.69482787843E+01  0.57418757102E+01  0.15585745471E+02  0.18004532121E+02  0.51100000000E-03 0. -1.
        -11    1    4    4    0    0 -0.25363118700E+00  0.17828597762E+01  0.96873119576E+01  0.98532700656E+01  0.51100000000E-03 0.  1.
         12    1    4    4    0    0  0.92274335893E+01  0.53832001627E+01  0.14839109454E+02  0.18284516510E+02  0.00000000000E+00 0. -1.
</event>
<event>
 8    1  0.8828843E-009  0.9118800E+02  0.7816164E-02  0.1184000E+00
        -11   -1    0    0    0    0  0.00000000000E+00  0.00000000000E+00  0.45593999997E+02  0.45594000000E+02  0.51100000000E-03 0. -1.
         11   -1    0    0    0    0 -0.00000000000E+00 -0.00000000000E+00 -0.45593999997E+02  0.45594000000E+02  0.51100000000E-03 0.  1.
         23    2    1    2    0    0  0.00000000000E+00  0.35527136788E-14  0.71054273576E-14  0.91188000000E+02  0.91188000000E+02 0.  0.
    9900012    2    3    3    0    0 -0.13057870793E+02 -0.23315809058E+02 -0.36262633678E+02  0.46142317155E+02  0.99999944729E+01 0.  0.
         12    1    3    3    0    0  0.13057870793E+02  0.23315809058E+02  0.36262633678E+02  0.45045682845E+02  0.00000000000E+00 0. -1.
         11    1    4    4    0    0 -0.57810290939E+01 -0.25053670289E+01 -0.90839328804E+01  0.11055089243E+02  0.51100000000E-03 0. -1.
        -11    1    4    4    0    0 -0.52180121000E+01 -0.12036129581E+02 -0.14833794040E+02  0.19802462257E+02  0.51100000000E-03 0.  1.
         12    1    4    4    0    0 -0.20588295987E+01 -0.87743124488E+01 -0.12344906758E+02  0.15284765655E+02  0.00000000000E+00 0. -1.
</event>
<event>
 8    1  0.8828843E-009  0.9118800E+02  0.7816164E-02  0.1184000E+00
        -11   -1    0    0    0    0  0.00000000000E+00  0.00000000000E+00  0.45593999997E+02  0.45594000000E+02  0.51100000000E-03 0. -1.
         11   -1    0    0    0    0 -0.00000000000E+00 -0.00000000000E+00 -0.45593999997E+02  0.45594000000E+02  0.51100000000E-03 0.  1.
         23    2    1    2    0    0 -0.71054273576E-14  0.00000000000E+00  0.00000000000E+00  0.91188000000E+02  0.91188000000E+02 0.  0.
    9900012    2    3    3    0    0 -0.41619614841E+02  0.51724570653E+01 -0.16436755986E+02  0.46142316534E+02  0.99999888060E+01 0.  0.
         12    1    3    3    0    0  0.41619614841E+02 -0.51724570653E+01  0.16436755986E+02  0.45045683466E+02  0.00000000000E+00 0. -1.
         11    1    4    4    0    0 -0.92406394843E+00 -0.11854173829E+01  0.45497333034E+00  0.15703851581E+01  0.51100000000E-03 0. -1.
        -11    1    4    4    0    0 -0.91371954777E+01  0.51667919598E+00 -0.36214609614E+01  0.98422699793E+01  0.51100000000E-03 0.  1.
        -12    1    4    4    0    0 -0.31558355415E+02  0.58411952522E+01 -0.13270268355E+02  0.34729661396E+02  0.00000000000E+00 0.  1.
</event>
<event>
 8    1  0.8828843E-009  0.9118800E+02  0.7816164E-02  0.1184000E+00
        -11   -1    0    0    0    0  0.00000000000E+00  0.00000000000E+00  0.45593999997E+02  0.45594000000E+02  0.51100000000E-03 0. -1.
         11   -1    0    0    0    0 -0.00000000000E+00 -0.00000000000E+00 -0.45593999997E+02  0.45594000000E+02  0.51100000000E-03 0.  1.
         23    2    1    2    0    0  0.00000000000E+00  0.00000000000E+00 -0.35527136788E-14  0.91188000000E+02  0.91188000000E+02 0.  0.
    9900012    2    3    3    0    0 -0.30453088783E+02 -0.11434964206E+02  0.31160303185E+02  0.46142317438E+02  0.99999970579E+01 0.  0.
        -12    1    3    3    0    0  0.30453088783E+02  0.11434964206E+02 -0.31160303185E+02  0.45045682562E+02  0.00000000000E+00 0.  1.
         11    1    4    4    0    0 -0.19552900793E+02 -0.62349311982E+01  0.14541023577E+02  0.25152170153E+02  0.51100000000E-03 0. -1.
        -11    1    4    4    0    0 -0.27233731444E+01  0.17869701350E+00  0.57430209814E+01  0.63585363221E+01  0.51100000000E-03 0.  1.
         12    1    4    4    0    0 -0.81768148456E+01 -0.53787300216E+01  0.10876258627E+02  0.14631610963E+02  0.00000000000E+00 0. -1.
</event>
<event>
 8    1  0.8828843E-009  0.9118800E+02  0.7816164E-02  0.1184000E+00
        -11   -1    0    0    0    0  0.00000000000E+00  0.00000000000E+00  0.45593999997E+02  0.45594000000E+02  0.51100000000E-03 0. -1.
         11   -1    0    0    0    0 -0.00000000000E+00 -0.00000000000E+00 -0.45593999997E+02  0.45594000000E+02  0.51100000000E-03 0.  1.
         23    2    1    2    0    0 -0.35527136788E-14 -0.17763568394E-14  0.00000000000E+00  0.91188000000E+02  0.91188000000E+02 0.  0.
    9900012    2    3    3    0    0  0.15841359602E+02  0.12701080177E+02  0.40210041144E+02  0.46142317404E+02  0.99999967431E+01 0.  0.
        -12    1    3    3    0    0 -0.15841359602E+02 -0.12701080177E+02 -0.40210041144E+02  0.45045682596E+02  0.00000000000E+00 0.  1.
         11    1    4    4    0    0  0.65892656186E+01  0.51771321865E+01  0.11414818674E+02  0.14160480384E+02  0.51100000000E-03 0. -1.
        -11    1    4    4    0    0 -0.98003787271E+00  0.31557728241E+00  0.76052900684E+00  0.12800265171E+01  0.51100000000E-03 0.  1.
         12    1    4    4    0    0  0.10232131856E+02  0.72083707081E+01  0.28034693464E+02  0.30701810503E+02  0.00000000000E+00 0. -1.
</event>
<event>
 8    1  0.8828843E-009  0.9118800E+02  0.7816164E-02  0.1184000E+00
        -11   -1    0    0    0    0  0.00000000000E+00  0.00000000000E+00  0.45593999997E+02  0.45594000000E+02  0.51100000000E-03 0. -1.
         11   -1    0    0    0    0 -0.00000000000E+00 -0.00000000000E+00 -0.45593999997E+02  0.45594000000E+02  0.51100000000E-03 0.  1.
         23    2    1    2    0    0  0.00000000000E+00  0.00000000000E+00  0.71054273576E-14  0.91188000000E+02  0.91188000000E+02 0.  0.
    9900012    2    3    3    0    0 -0.30053281886E+02 -0.20844173958E+01  0.33489833355E+02  0.46142317786E+02  0.10000000224E+02 0.  0.
        -12    1    3    3    0    0  0.30053281886E+02  0.20844173958E+01 -0.33489833355E+02  0.45045682214E+02  0.00000000000E+00 0.  1.
         11    1    4    4    0    0 -0.12410698296E+02  0.67759860046E-01  0.12519889630E+02  0.17628887095E+02  0.51100000000E-03 0. -1.
        -11    1    4    4    0    0 -0.39035008776E+01 -0.33363217016E+01  0.33187602420E+01  0.61141255632E+01  0.51100000000E-03 0.  1.
        -12    1    4    4    0    0 -0.13739082712E+02  0.11841444457E+01  0.17651183483E+02  0.22399305128E+02  0.00000000000E+00 0.  1.
</event>
<event>
 8    1  0.8828843E-009  0.9118800E+02  0.7816164E-02  0.1184000E+00
        -11   -1    0    0    0    0  0.00000000000E+00  0.00000000000E+00  0.45593999997E+02  0.45594000000E+02  0.51100000000E-03 0. -1.
         11   -1    0    0    0    0 -0.00000000000E+00 -0.00000000000E+00 -0.45593999997E+02  0.45594000000E+02  0.51100000000E-03 0.  1.
         23    2    1    2    0    0  0.00000000000E+00  0.00000000000E+00  0.00000000000E+00  0.91188000000E+02  0.91188000000E+02 0.  0.
    9900012    2    3    3    0    0  0.79315831213E+01  0.23701699683E+02  0.37475764256E+02  0.46142317796E+02  0.10000000318E+02 0.  0.
        -12    1    3    3    0    0 -0.79315831213E+01 -0.23701699683E+02 -0.37475764256E+02  0.45045682204E+02  0.00000000000E+00 0.  1.
         11    1    4    4    0    0  0.80809964624E+01  0.18799965351E+02  0.34671531376E+02  0.40259859529E+02  0.51100000000E-03 0. -1.
        -11    1    4    4    0    0  0.63356058681E+00  0.24321202053E+01  0.90954648175E+00  0.26728042902E+01  0.51100000000E-03 0.  1.
         12    1    4    4    0    0 -0.78297392791E+00  0.24696141268E+01  0.18946863976E+01  0.32096539771E+01  0.00000000000E+00 0. -1.
</event>
<event>
 8    1  0.8828843E-009  0.9118800E+02  0.7816164E-02  0.1184000E+00
        -11   -1    0    0    0    0  0.00000000000E+00  0.00000000000E+00  0.45593999997E+02  0.45594000000E+02  0.51100000000E-03 0. -1.
         11   -1    0    0    0    0 -0.00000000000E+00 -0.00000000000E+00 -0.45593999997E+02  0.45594000000E+02  0.51100000000E-03 0.  1.
         23    2    1    2    0    0  0.00000000000E+00  0.00000000000E+00  0.00000000000E+00  0.91188000000E+02  0.91188000000E+02 0.  0.
    9900012    2    3    3    0    0 -0.32963321532E+02 -0.69811334348E+01 -0.29896432344E+02  0.46142318105E+02  0.10000003133E+02 0.  0.
         12    1    3    3    0    0  0.32963321532E+02  0.69811334348E+01  0.29896432344E+02  0.45045681895E+02  0.00000000000E+00 0. -1.
         11    1    4    4    0    0 -0.51874162709E+00  0.34606802022E-01  0.26206291854E+00  0.58220936167E+00  0.51100000000E-03 0. -1.
        -11    1    4    4    0    0 -0.47769785598E+01  0.14111074149E+01 -0.26373574950E+01  0.56361691879E+01  0.51100000000E-03 0.  1.
        -12    1    4    4    0    0 -0.27667601345E+02 -0.84268476516E+01 -0.27521137768E+02  0.39923939555E+02  0.00000000000E+00 0.  1.
</event>
<event>
 8    1  0.8828843E-009  0.9118800E+02  0.7816164E-02  0.1184000E+00
        -11   -1    0    0    0    0  0.00000000000E+00  0.00000000000E+00  0.45593999997E+02  0.45594000000E+02  0.51100000000E-03 0. -1.
         11   -1    0    0    0    0 -0.00000000000E+00 -0.00000000000E+00 -0.45593999997E+02  0.45594000000E+02  0.51100000000E-03 0.  1.
         23    2    1    2    0    0  0.00000000000E+00  0.00000000000E+00  0.00000000000E+00  0.91188000000E+02  0.91188000000E+02 0.  0.
    9900012    2    3    3    0    0  0.14305246482E+02 -0.24189742226E+02 -0.35204111837E+02  0.46142321005E+02  0.10000029582E+02 0.  0.
         12    1    3    3    0    0 -0.14305246482E+02  0.24189742226E+02  0.35204111837E+02  0.45045678995E+02  0.00000000000E+00 0. -1.
         11    1    4    4    0    0  0.78252208004E+01 -0.13067912398E+02 -0.18957736815E+02  0.24318721192E+02  0.51100000000E-03 0.  1.
        -11    1    4    4    0    0  0.73401414352E+01 -0.89727115297E+01 -0.15570601383E+02  0.19412131675E+02  0.51100000000E-03 0. -1.
         12    1    4    4    0    0 -0.86011575340E+00 -0.21491182980E+01 -0.67577363886E+00  0.24114681377E+01  0.00000000000E+00 0. -1.
</event>
<event>
 8    1  0.8828843E-009  0.9118800E+02  0.7816164E-02  0.1184000E+00
        -11   -1    0    0    0    0  0.00000000000E+00  0.00000000000E+00  0.45593999997E+02  0.45594000000E+02  0.51100000000E-03 0. -1.
         11   -1    0    0    0    0 -0.00000000000E+00 -0.00000000000E+00 -0.45593999997E+02  0.45594000000E+02  0.51100000000E-03 0.  1.
         23    2    1    2    0    0  0.00000000000E+00  0.35527136788E-14  0.00000000000E+00  0.91188000000E+02  0.91188000000E+02 0.  0.
    9900012    2    3    3    0    0  0.21043932555E+02 -0.24824715184E+02  0.31144821630E+02  0.46142317680E+02  0.99999992592E+01 0.  0.
        -12    1    3    3    0    0 -0.21043932555E+02  0.24824715184E+02 -0.31144821630E+02  0.45045682320E+02  0.00000000000E+00 0.  1.
         11    1    4    4    0    0  0.12621851453E+02 -0.18239848173E+02  0.26046192248E+02  0.34211216382E+02  0.51100000000E-03 0. -1.
        -11    1    4    4    0    0  0.28715898088E+01 -0.14625320814E+01  0.17772872432E+01  0.36801872677E+01  0.51100000000E-03 0.  1.
         12    1    4    4    0    0  0.55504912937E+01 -0.51223349291E+01  0.33213421385E+01  0.82509140298E+01  0.00000000000E+00 0. -1.
</event>
<event>
 8    1  0.8828843E-009  0.9118800E+02  0.7816164E-02  0.1184000E+00
        -11   -1    0    0    0    0  0.00000000000E+00  0.00000000000E+00  0.45593999997E+02  0.45594000000E+02  0.51100000000E-03 0.  1.
         11   -1    0    0    0    0 -0.00000000000E+00 -0.00000000000E+00 -0.45593999997E+02  0.45594000000E+02  0.51100000000E-03 0. -1.
         23    2    1    2    0    0 -0.71054273576E-14 -0.44408920985E-15  0.00000000000E+00  0.91188000000E+02  0.91188000000E+02 0.  0.
    9900012    2    3    3    0    0 -0.36958018703E+02  0.27605825195E+01  0.25604639561E+02  0.46142317306E+02  0.99999958517E+01 0.  0.
        -12    1    3    3    0    0  0.36958018703E+02 -0.27605825195E+01 -0.25604639561E+02  0.45045682694E+02  0.00000000000E+00 0.  1.
         11    1    4    4    0    0 -0.26116858955E+02 -0.16879609214E+01  0.17582051234E+02  0.31528844882E+02  0.51100000000E-03 0. -1.
        -11    1    4    4    0    0 -0.93322847796E+01  0.27826872370E+01  0.53142355058E+01  0.11093961724E+02  0.51100000000E-03 0.  1.
         12    1    4    4    0    0 -0.15088749685E+01  0.16658562039E+01  0.27083528209E+01  0.35195106997E+01  0.00000000000E+00 0. -1.
</event>
<event>
 8    1  0.8828843E-009  0.9118800E+02  0.7816164E-02  0.1184000E+00
        -11   -1    0    0    0    0  0.00000000000E+00  0.00000000000E+00  0.45593999997E+02  0.45594000000E+02  0.51100000000E-03 0. -1.
         11   -1    0    0    0    0 -0.00000000000E+00 -0.00000000000E+00 -0.45593999997E+02  0.45594000000E+02  0.51100000000E-03 0.  1.
         23    2    1    2    0    0  0.00000000000E+00  0.00000000000E+00  0.00000000000E+00  0.91188000000E+02  0.91188000000E+02 0.  0.
    9900012    2    3    3    0    0 -0.35519920616E+02 -0.57403451483E+01 -0.27101608956E+02  0.46142317288E+02  0.99999956859E+01 0.  0.
         12    1    3    3    0    0  0.35519920616E+02  0.57403451483E+01  0.27101608956E+02  0.45045682712E+02  0.00000000000E+00 0. -1.
         11    1    4    4    0    0 -0.20406307341E+01 -0.10514470813E+01 -0.17642161196E+01  0.28951983586E+01  0.51100000000E-03 0. -1.
        -11    1    4    4    0    0 -0.14637298716E+02 -0.66410367257E+01 -0.10721816752E+02  0.19321263862E+02  0.51100000000E-03 0.  1.
         12    1    4    4    0    0 -0.18841991166E+02  0.19521386587E+01 -0.14615576084E+02  0.23925855068E+02  0.00000000000E+00 0. -1.
</event>
<event>
 8    1  0.8828843E-009  0.9118800E+02  0.7816164E-02  0.1184000E+00
        -11   -1    0    0    0    0  0.00000000000E+00  0.00000000000E+00  0.45593999997E+02  0.45594000000E+02  0.51100000000E-03 0. -1.
         11   -1    0    0    0    0 -0.00000000000E+00 -0.00000000000E+00 -0.45593999997E+02  0.45594000000E+02  0.51100000000E-03 0.  1.
         23    2    1    2    0    0 -0.35527136788E-14  0.00000000000E+00  0.00000000000E+00  0.91188000000E+02  0.91188000000E+02 0.  0.
    9900012    2    3    3    0    0  0.30944585679E+02  0.32732528580E+02  0.35764413266E+00  0.46142315197E+02  0.99999766178E+01 0.  0.
        -12    1    3    3    0    0 -0.30944585679E+02 -0.32732528580E+02 -0.35764413266E+00  0.45045684803E+02  0.00000000000E+00 0.  1.
         11    1    4    4    0    0  0.39671687277E+01  0.41664295701E+01  0.97600176196E+00  0.58352500184E+01  0.51100000000E-03 0. -1.
        -11    1    4    4    0    0  0.53646657332E+01  0.13270341554E+01 -0.28425413821E+00  0.55336659417E+01  0.51100000000E-03 0.  1.
        -12    1    4    4    0    0  0.21612751218E+02  0.27239064854E+02 -0.33410349108E+00  0.34773399237E+02  0.00000000000E+00 0.  1.
</event>
<event>
 8    1  0.8828843E-009  0.9118800E+02  0.7816164E-02  0.1184000E+00
        -11   -1    0    0    0    0  0.00000000000E+00  0.00000000000E+00  0.45593999997E+02  0.45594000000E+02  0.51100000000E-03 0.  1.
         11   -1    0    0    0    0 -0.00000000000E+00 -0.00000000000E+00 -0.45593999997E+02  0.45594000000E+02  0.51100000000E-03 0. -1.
         23    2    1    2    0    0  0.00000000000E+00  0.00000000000E+00  0.00000000000E+00  0.91188000000E+02  0.91188000000E+02 0.  0.
    9900012    2    3    3    0    0 -0.35608463058E+02 -0.27296702364E+02 -0.40051107205E+01  0.46142317485E+02  0.99999974865E+01 0.  0.
        -12    1    3    3    0    0  0.35608463058E+02  0.27296702364E+02  0.40051107205E+01  0.45045682515E+02  0.00000000000E+00 0.  1.
         11    1    4    4    0    0 -0.16209082518E+02 -0.98077448755E+01 -0.55133143918E+01  0.19731265836E+02  0.51100000000E-03 0. -1.
        -11    1    4    4    0    0 -0.78448604500E+01 -0.76234293940E+01 -0.11055935662E+01  0.10994582693E+02  0.51100000000E-03 0.  1.
        -12    1    4    4    0    0 -0.11554520090E+02 -0.98655280949E+01  0.26137972375E+01  0.15416468957E+02  0.00000000000E+00 0.  1.
</event>
<event>
 8    1  0.8828843E-009  0.9118800E+02  0.7816164E-02  0.1184000E+00
        -11   -1    0    0    0    0  0.00000000000E+00  0.00000000000E+00  0.45593999997E+02  0.45594000000E+02  0.51100000000E-03 0. -1.
         11   -1    0    0    0    0 -0.00000000000E+00 -0.00000000000E+00 -0.45593999997E+02  0.45594000000E+02  0.51100000000E-03 0.  1.
         23    2    1    2    0    0  0.17763568394E-14  0.14210854715E-13  0.00000000000E+00  0.91188000000E+02  0.91188000000E+02 0.  0.
    9900012    2    3    3    0    0 -0.99347809072E+01 -0.34472664555E+02 -0.27240576702E+02  0.46142317718E+02  0.99999996109E+01 0.  0.
         12    1    3    3    0    0  0.99347809072E+01  0.34472664555E+02  0.27240576702E+02  0.45045682282E+02  0.00000000000E+00 0. -1.
         11    1    4    4    0    0 -0.77428412297E-01 -0.10603538662E+02 -0.45195275402E+01  0.11526801671E+02  0.51100000000E-03 0. -1.
        -11    1    4    4    0    0 -0.29331202301E+01 -0.51148306367E+01 -0.71989844705E+01  0.93053782510E+01  0.51100000000E-03 0.  1.
        -12    1    4    4    0    0 -0.69242322648E+01 -0.18754295256E+02 -0.15522064691E+02  0.25310137797E+02  0.00000000000E+00 0.  1.
</event>
<event>
 8    1  0.8828843E-009  0.9118800E+02  0.7816164E-02  0.1184000E+00
        -11   -1    0    0    0    0  0.00000000000E+00  0.00000000000E+00  0.45593999997E+02  0.45594000000E+02  0.51100000000E-03 0. -1.
         11   -1    0    0    0    0 -0.00000000000E+00 -0.00000000000E+00 -0.45593999997E+02  0.45594000000E+02  0.51100000000E-03 0.  1.
         23    2    1    2    0    0  0.00000000000E+00  0.00000000000E+00  0.35527136788E-14  0.91188000000E+02  0.91188000000E+02 0.  0.
    9900012    2    3    3    0    0 -0.22374828698E+02 -0.31079989836E+02 -0.23717393743E+02  0.46142317705E+02  0.99999994873E+01 0.  0.
         12    1    3    3    0    0  0.22374828698E+02  0.31079989836E+02  0.23717393743E+02  0.45045682295E+02  0.00000000000E+00 0. -1.
         11    1    4    4    0    0 -0.10172727815E+02 -0.11660896152E+02 -0.75390346869E+01  0.17213306903E+02  0.51100000000E-03 0. -1.
        -11    1    4    4    0    0 -0.44770788521E+01 -0.70970700230E+01 -0.20176348427E+01  0.86303817168E+01  0.51100000000E-03 0.  1.
        -12    1    4    4    0    0 -0.77250220306E+01 -0.12322023661E+02 -0.14160724214E+02  0.20298629085E+02  0.00000000000E+00 0.  1.
</event>
<event>
 8    1  0.8828843E-009  0.9118800E+02  0.7816164E-02  0.1184000E+00
        -11   -1    0    0    0    0  0.00000000000E+00  0.00000000000E+00  0.45593999997E+02  0.45594000000E+02  0.51100000000E-03 0. -1.
         11   -1    0    0    0    0 -0.00000000000E+00 -0.00000000000E+00 -0.45593999997E+02  0.45594000000E+02  0.51100000000E-03 0.  1.
         23    2    1    2    0    0  0.00000000000E+00  0.00000000000E+00  0.17763568394E-14  0.91188000000E+02  0.91188000000E+02 0.  0.
    9900012    2    3    3    0    0 -0.41565310714E+02 -0.10732608268E+02  0.13647329781E+02  0.46142317131E+02  0.99999942503E+01 0.  0.
        -12    1    3    3    0    0  0.41565310714E+02  0.10732608268E+02 -0.13647329781E+02  0.45045682869E+02  0.00000000000E+00 0.  1.
         11    1    4    4    0    0 -0.10647334911E+02 -0.21428383598E+01  0.65057441771E+01  0.12660260838E+02  0.51100000000E-03 0. -1.
        -11    1    4    4    0    0 -0.15593060459E+02 -0.24588109777E+01  0.61666738628E+01  0.16947482193E+02  0.51100000000E-03 0.  1.
        -12    1    4    4    0    0 -0.15324915344E+02 -0.61309589307E+01  0.97491174147E+00  0.16534574099E+02  0.00000000000E+00 0.  1.
</event>
<event>
 8    1  0.8828843E-009  0.9118800E+02  0.7816164E-02  0.1184000E+00
        -11   -1    0    0    0    0  0.00000000000E+00  0.00000000000E+00  0.45593999997E+02  0.45594000000E+02  0.51100000000E-03 0.  1.
         11   -1    0    0    0    0 -0.00000000000E+00 -0.00000000000E+00 -0.45593999997E+02  0.45594000000E+02  0.51100000000E-03 0. -1.
         23    2    1    2    0    0  0.17763568394E-14  0.00000000000E+00  0.17763568394E-14  0.91188000000E+02  0.91188000000E+02 0.  0.
    9900012    2    3    3    0    0 -0.10781011579E+02  0.41433440916E+02  0.14005471732E+02  0.46142317907E+02  0.10000001333E+02 0.  0.
        -12    1    3    3    0    0  0.10781011579E+02 -0.41433440916E+02 -0.14005471732E+02  0.45045682093E+02  0.00000000000E+00 0.  1.
         11    1    4    4    0    0 -0.30853924057E+01  0.23110199315E+02  0.62260256630E+01  0.24132226472E+02  0.51100000000E-03 0. -1.
        -11    1    4    4    0    0 -0.51286009763E+01  0.16158536306E+02  0.50682495650E+01  0.17694292793E+02  0.51100000000E-03 0.  1.
        -12    1    4    4    0    0 -0.25670181972E+01  0.21647052937E+01  0.27111965037E+01  0.43157986417E+01  0.00000000000E+00 0.  1.
</event>
<event>
 8    1  0.8828843E-009  0.9118800E+02  0.7816164E-02  0.1184000E+00
        -11   -1    0    0    0    0  0.00000000000E+00  0.00000000000E+00  0.45593999997E+02  0.45594000000E+02  0.51100000000E-03 0.  1.
         11   -1    0    0    0    0 -0.00000000000E+00 -0.00000000000E+00 -0.45593999997E+02  0.45594000000E+02  0.51100000000E-03 0. -1.
         23    2    1    2    0    0  0.00000000000E+00  0.00000000000E+00  0.00000000000E+00  0.91188000000E+02  0.91188000000E+02 0.  0.
    9900012    2    3    3    0    0  0.19153951264E+02 -0.18745184114E+02 -0.36205766981E+02  0.46142319417E+02  0.10000015099E+02 0.  0.
         12    1    3    3    0    0 -0.19153951264E+02  0.18745184114E+02  0.36205766981E+02  0.45045680583E+02  0.00000000000E+00 0. -1.
         11    1    4    4    0    0  0.12909405265E+02 -0.13531564718E+02 -0.17851931011E+02  0.25854350294E+02  0.51100000000E-03 0. -1.
        -11    1    4    4    0    0  0.40863765180E+01 -0.32823679849E+01 -0.82239407590E+01  0.97522107496E+01  0.51100000000E-03 0.  1.
         12    1    4    4    0    0  0.21581694809E+01 -0.19312514111E+01 -0.10129895211E+02  0.10535758374E+02  0.00000000000E+00 0. -1.
</event>
<event>
 8    1  0.1048694E-008  0.9118800E+02  0.7816164E-02  0.1184000E+00
        -11   -1    0    0    0    0  0.00000000000E+00  0.00000000000E+00  0.45593999997E+02  0.45594000000E+02  0.51100000000E-03 0. -1.
         11   -1    0    0    0    0 -0.00000000000E+00 -0.00000000000E+00 -0.45593999997E+02  0.45594000000E+02  0.51100000000E-03 0.  1.
         23    2    1    2    0    0  0.00000000000E+00  0.88817841970E-15  0.00000000000E+00  0.91188000000E+02  0.91188000000E+02 0.  0.
    9900012    2    3    3    0    0 -0.85290557687E+01  0.73141582416E+01  0.43621918631E+02  0.46142317764E+02  0.10000000026E+02 0.  0.
        -12    1    3    3    0    0  0.85290557687E+01 -0.73141582416E+01 -0.43621918631E+02  0.45045682236E+02  0.00000000000E+00 0.  1.
         11    1    4    4    0    0 -0.50226122945E+01  0.50008194148E+00  0.11842005747E+02  0.12872832501E+02  0.51100000000E-03 0. -1.
        -11    1    4    4    0    0  0.10482792297E+01  0.41378779339E+00  0.10123123157E+01  0.15148881698E+01  0.51100000000E-03 0.  1.
         12    1    4    4    0    0 -0.45547227040E+01  0.64002885067E+01  0.30767600568E+02  0.31754597094E+02  0.00000000000E+00 0. -1.
</event>
<event>
 8    1  0.8828843E-009  0.9118800E+02  0.7816164E-02  0.1184000E+00
        -11   -1    0    0    0    0  0.00000000000E+00  0.00000000000E+00  0.45593999997E+02  0.45594000000E+02  0.51100000000E-03 0. -1.
         11   -1    0    0    0    0 -0.00000000000E+00 -0.00000000000E+00 -0.45593999997E+02  0.45594000000E+02  0.51100000000E-03 0.  1.
         23    2    1    2    0    0  0.88817841970E-15 -0.33306690739E-15  0.00000000000E+00  0.91188000000E+02  0.91188000000E+02 0.  0.
    9900012    2    3    3    0    0 -0.62159041969E+01  0.87905819453E+00 -0.44606089233E+02  0.46142318687E+02  0.10000008446E+02 0.  0.
         12    1    3    3    0    0  0.62159041969E+01 -0.87905819453E+00  0.44606089233E+02  0.45045681313E+02  0.00000000000E+00 0. -1.
         11    1    4    4    0    0 -0.34141238500E+00 -0.17371089485E+01 -0.37904012104E+01  0.41834497144E+01  0.51100000000E-03 0.  1.
        -11    1    4    4    0    0  0.15403220281E+01  0.30641105573E-01 -0.34717562633E+01  0.37982394133E+01  0.51100000000E-03 0. -1.
         12    1    4    4    0    0 -0.74148138400E+01  0.25855260375E+01 -0.37343931759E+02  0.38160629560E+02  0.00000000000E+00 0. -1.
</event>
<event>
 8    1  0.8828843E-009  0.9118800E+02  0.7816164E-02  0.1184000E+00
        -11   -1    0    0    0    0  0.00000000000E+00  0.00000000000E+00  0.45593999997E+02  0.45594000000E+02  0.51100000000E-03 0. -1.
         11   -1    0    0    0    0 -0.00000000000E+00 -0.00000000000E+00 -0.45593999997E+02  0.45594000000E+02  0.51100000000E-03 0.  1.
         23    2    1    2    0    0  0.00000000000E+00  0.00000000000E+00  0.00000000000E+00  0.91188000000E+02  0.91188000000E+02 0.  0.
    9900012    2    3    3    0    0  0.20764644911E+01  0.23278006052E+02 -0.38508910313E+02  0.46142318254E+02  0.10000004490E+02 0.  0.
         12    1    3    3    0    0 -0.20764644911E+01 -0.23278006052E+02  0.38508910313E+02  0.45045681746E+02  0.00000000000E+00 0. -1.
         11    1    4    4    0    0  0.31720101378E-01  0.75382289190E+01 -0.19217672852E+02  0.20643276182E+02  0.51100000000E-03 0. -1.
        -11    1    4    4    0    0  0.35402080739E+01  0.11388505497E+02 -0.12324419306E+02  0.17149998313E+02  0.51100000000E-03 0.  1.
        -12    1    4    4    0    0 -0.14954636842E+01  0.43512716364E+01 -0.69668181543E+01  0.83490437584E+01  0.00000000000E+00 0.  1.
</event>
<event>
 8    1  0.8828843E-009  0.9118800E+02  0.7816164E-02  0.1184000E+00
        -11   -1    0    0    0    0  0.00000000000E+00  0.00000000000E+00  0.45593999997E+02  0.45594000000E+02  0.51100000000E-03 0. -1.
         11   -1    0    0    0    0 -0.00000000000E+00 -0.00000000000E+00 -0.45593999997E+02  0.45594000000E+02  0.51100000000E-03 0.  1.
         23    2    1    2    0    0  0.00000000000E+00  0.00000000000E+00 -0.35527136788E-14  0.91188000000E+02  0.91188000000E+02 0.  0.
    9900012    2    3    3    0    0 -0.30481775790E+02 -0.18918089838E+02 -0.27241159389E+02  0.46142317152E+02  0.99999944443E+01 0.  0.
         12    1    3    3    0    0  0.30481775790E+02  0.18918089838E+02  0.27241159389E+02  0.45045682848E+02  0.00000000000E+00 0. -1.
         11    1    4    4    0    0 -0.90197444658E+01 -0.46991637365E+01 -0.12637625004E+02  0.16221821601E+02  0.51100000000E-03 0. -1.
        -11    1    4    4    0    0 -0.11625758425E+02 -0.56662762736E+01 -0.88583368615E+01  0.15675939461E+02  0.51100000000E-03 0.  1.
        -12    1    4    4    0    0 -0.98362728992E+01 -0.85526498278E+01 -0.57451975229E+01  0.14244556090E+02  0.00000000000E+00 0.  1.
</event>
<event>
 8    1  0.8828843E-009  0.9118800E+02  0.7816164E-02  0.1184000E+00
        -11   -1    0    0    0    0  0.00000000000E+00  0.00000000000E+00  0.45593999997E+02  0.45594000000E+02  0.51100000000E-03 0. -1.
         11   -1    0    0    0    0 -0.00000000000E+00 -0.00000000000E+00 -0.45593999997E+02  0.45594000000E+02  0.51100000000E-03 0.  1.
         23    2    1    2    0    0  0.00000000000E+00 -0.35527136788E-14  0.35527136788E-14  0.91188000000E+02  0.91188000000E+02 0.  0.
    9900012    2    3    3    0    0  0.32230830815E+02  0.21439430427E+02 -0.23035574862E+02  0.46142319394E+02  0.10000014889E+02 0.  0.
         12    1    3    3    0    0 -0.32230830815E+02 -0.21439430427E+02  0.23035574862E+02  0.45045680606E+02  0.00000000000E+00 0. -1.
         11    1    4    4    0    0  0.28494278565E+01  0.13862332554E+01 -0.35213907080E+01  0.47372011281E+01  0.51100000000E-03 0.  1.
        -11    1    4    4    0    0  0.16078228754E+02  0.12369931606E+02 -0.65911884590E+01  0.21329988593E+02  0.51100000000E-03 0. -1.
         12    1    4    4    0    0  0.13303174204E+02  0.76832655657E+01 -0.12922995695E+02  0.20075129673E+02  0.00000000000E+00 0. -1.
</event>
<event>
 8    1  0.8828843E-009  0.9118800E+02  0.7816164E-02  0.1184000E+00
        -11   -1    0    0    0    0  0.00000000000E+00  0.00000000000E+00  0.45593999997E+02  0.45594000000E+02  0.51100000000E-03 0.  1.
         11   -1    0    0    0    0 -0.00000000000E+00 -0.00000000000E+00 -0.45593999997E+02  0.45594000000E+02  0.51100000000E-03 0. -1.
         23    2    1    2    0    0 -0.35527136788E-14  0.00000000000E+00  0.00000000000E+00  0.91188000000E+02  0.91188000000E+02 0.  0.
    9900012    2    3    3    0    0  0.31070368399E+02  0.23310330945E+02  0.22811708450E+02  0.46142319146E+02  0.10000012626E+02 0.  0.
        -12    1    3    3    0    0 -0.31070368399E+02 -0.23310330945E+02 -0.22811708450E+02  0.45045680854E+02  0.00000000000E+00 0.  1.
         11    1    4    4    0    0  0.11610703417E+02  0.43966794706E+01  0.44045188705E+01  0.13173420624E+02  0.51100000000E-03 0. -1.
        -11    1    4    4    0    0  0.19059187519E+02  0.17507569355E+02  0.17617555436E+02  0.31307281476E+02  0.51100000000E-03 0.  1.
        -12    1    4    4    0    0  0.40047746268E+00  0.14060821193E+01  0.78963414350E+00  0.16616170452E+01  0.00000000000E+00 0.  1.
</event>
<event>
 8    1  0.8828843E-009  0.9118800E+02  0.7816164E-02  0.1184000E+00
        -11   -1    0    0    0    0  0.00000000000E+00  0.00000000000E+00  0.45593999997E+02  0.45594000000E+02  0.51100000000E-03 0. -1.
         11   -1    0    0    0    0 -0.00000000000E+00 -0.00000000000E+00 -0.45593999997E+02  0.45594000000E+02  0.51100000000E-03 0.  1.
         23    2    1    2    0    0  0.00000000000E+00  0.44408920985E-15  0.71054273576E-14  0.91188000000E+02  0.91188000000E+02 0.  0.
    9900012    2    3    3    0    0 -0.24930110666E+01  0.25280972328E+01 -0.44905537016E+02  0.46142316139E+02  0.99999852078E+01 0.  0.
         12    1    3    3    0    0  0.24930110666E+01 -0.25280972328E+01  0.44905537016E+02  0.45045683861E+02  0.00000000000E+00 0. -1.
         11    1    4    4    0    0 -0.24873656773E+01  0.19158806615E+01 -0.97955255973E+01  0.10286394349E+02  0.51100000000E-03 0.  1.
        -11    1    4    4    0    0  0.63795450244E-01 -0.27910359340E+01 -0.25662140341E+02  0.25813550678E+02  0.51100000000E-03 0. -1.
         12    1    4    4    0    0 -0.69440839552E-01  0.34032525053E+01 -0.94478710776E+01  0.10042371112E+02  0.00000000000E+00 0. -1.
</event>
<event>
 8    1  0.8828843E-009  0.9118800E+02  0.7816164E-02  0.1184000E+00
        -11   -1    0    0    0    0  0.00000000000E+00  0.00000000000E+00  0.45593999997E+02  0.45594000000E+02  0.51100000000E-03 0. -1.
         11   -1    0    0    0    0 -0.00000000000E+00 -0.00000000000E+00 -0.45593999997E+02  0.45594000000E+02  0.51100000000E-03 0.  1.
         23    2    1    2    0    0  0.35527136788E-14  0.44408920985E-15 -0.71054273576E-14  0.91188000000E+02  0.91188000000E+02 0.  0.
    9900012    2    3    3    0    0  0.31467360819E+02  0.37087107431E+01 -0.32018184304E+02  0.46142318093E+02  0.10000003028E+02 0.  0.
         12    1    3    3    0    0 -0.31467360819E+02 -0.37087107431E+01  0.32018184304E+02  0.45045681907E+02  0.00000000000E+00 0. -1.
         11    1    4    4    0    0  0.39809748657E+01 -0.21137447733E+01 -0.30946093088E+01  0.54674203134E+01  0.51100000000E-03 0. -1.
        -11    1    4    4    0    0  0.10614260081E+02  0.34484420737E+00 -0.83474465671E+01  0.13507823623E+02  0.51100000000E-03 0.  1.
         12    1    4    4    0    0  0.16872125873E+02  0.54776113090E+01 -0.20576128428E+02  0.27167074156E+02  0.00000000000E+00 0. -1.
</event>
<event>
 8    1  0.8828843E-009  0.9118800E+02  0.7816164E-02  0.1184000E+00
        -11   -1    0    0    0    0  0.00000000000E+00  0.00000000000E+00  0.45593999997E+02  0.45594000000E+02  0.51100000000E-03 0. -1.
         11   -1    0    0    0    0 -0.00000000000E+00 -0.00000000000E+00 -0.45593999997E+02  0.45594000000E+02  0.51100000000E-03 0.  1.
         23    2    1    2    0    0  0.00000000000E+00 -0.44408920985E-15 -0.71054273576E-14  0.91188000000E+02  0.91188000000E+02 0.  0.
    9900012    2    3    3    0    0 -0.20064781665E+02 -0.33668424701E+01  0.40189329741E+02  0.46142319669E+02  0.10000017396E+02 0.  0.
        -12    1    3    3    0    0  0.20064781665E+02  0.33668424701E+01 -0.40189329741E+02  0.45045680331E+02  0.00000000000E+00 0.  1.
         11    1    4    4    0    0 -0.91308009199E+01 -0.50221237557E+01  0.15630538438E+02  0.18785818710E+02  0.51100000000E-03 0. -1.
        -11    1    4    4    0    0 -0.54165858187E+01 -0.63701080147E+00  0.74388625502E+01  0.92239829247E+01  0.51100000000E-03 0.  1.
        -12    1    4    4    0    0 -0.55173949262E+01  0.22922920871E+01  0.17119928752E+02  0.18132518035E+02  0.00000000000E+00 0.  1.
</event>
<event>
 8    1  0.8828843E-009  0.9118800E+02  0.7816164E-02  0.1184000E+00
        -11   -1    0    0    0    0  0.00000000000E+00  0.00000000000E+00  0.45593999997E+02  0.45594000000E+02  0.51100000000E-03 0. -1.
         11   -1    0    0    0    0 -0.00000000000E+00 -0.00000000000E+00 -0.45593999997E+02  0.45594000000E+02  0.51100000000E-03 0.  1.
         23    2    1    2    0    0  0.00000000000E+00 -0.17763568394E-14 -0.35527136788E-14  0.91188000000E+02  0.91188000000E+02 0.  0.
    9900012    2    3    3    0    0  0.32727197126E+02  0.80604120264E+01  0.29884347540E+02  0.46142313174E+02  0.99999581712E+01 0.  0.
        -12    1    3    3    0    0 -0.32727197126E+02 -0.80604120264E+01 -0.29884347540E+02  0.45045686826E+02  0.00000000000E+00 0.  1.
         11    1    4    4    0    0  0.41064956645E+01  0.43802089414E+01  0.60508489229E+01  0.85242190236E+01  0.51100000000E-03 0. -1.
        -11    1    4    4    0    0  0.23258290278E+02  0.43936172160E+01  0.19998790644E+02  0.30987151634E+02  0.51100000000E-03 0.  1.
        -12    1    4    4    0    0  0.53624111831E+01 -0.71341413107E+00  0.38347079726E+01  0.66309425162E+01  0.00000000000E+00 0.  1.
</event>
<event>
 8    1  0.8828843E-009  0.9118800E+02  0.7816164E-02  0.1184000E+00
        -11   -1    0    0    0    0  0.00000000000E+00  0.00000000000E+00  0.45593999997E+02  0.45594000000E+02  0.51100000000E-03 0. -1.
         11   -1    0    0    0    0 -0.00000000000E+00 -0.00000000000E+00 -0.45593999997E+02  0.45594000000E+02  0.51100000000E-03 0.  1.
         23    2    1    2    0    0  0.35527136788E-14  0.71054273576E-14 -0.44408920985E-15  0.91188000000E+02  0.91188000000E+02 0.  0.
    9900012    2    3    3    0    0  0.23229732128E+02  0.38410363123E+02 -0.37598411760E+01  0.46142324784E+02  0.10000064040E+02 0.  0.
         12    1    3    3    0    0 -0.23229732128E+02 -0.38410363123E+02  0.37598411760E+01  0.45045675216E+02  0.00000000000E+00 0. -1.
         11    1    4    4    0    0  0.58866544171E+01  0.13675823861E+02 -0.35002426220E+01  0.15294853945E+02  0.51100000000E-03 0. -1.
        -11    1    4    4    0    0  0.95143796045E+01  0.12988747045E+02 -0.32329924644E+01  0.16422034271E+02  0.51100000000E-03 0.  1.
         12    1    4    4    0    0  0.78286981068E+01  0.11745792216E+02  0.29733939105E+01  0.14425436568E+02  0.00000000000E+00 0. -1.
</event>
<event>
 8    1  0.8828843E-009  0.9118800E+02  0.7816164E-02  0.1184000E+00
        -11   -1    0    0    0    0  0.00000000000E+00  0.00000000000E+00  0.45593999997E+02  0.45594000000E+02  0.51100000000E-03 0. -1.
         11   -1    0    0    0    0 -0.00000000000E+00 -0.00000000000E+00 -0.45593999997E+02  0.45594000000E+02  0.51100000000E-03 0.  1.
         23    2    1    2    0    0  0.35527136788E-14 -0.17763568394E-14  0.00000000000E+00  0.91188000000E+02  0.91188000000E+02 0.  0.
    9900012    2    3    3    0    0  0.24370720079E+02 -0.13623076729E+02  0.35349587747E+02  0.46142316848E+02  0.99999916721E+01 0.  0.
        -12    1    3    3    0    0 -0.24370720079E+02  0.13623076729E+02 -0.35349587747E+02  0.45045683152E+02  0.00000000000E+00 0.  1.
         11    1    4    4    0    0  0.15785341402E+02 -0.91501482203E+01  0.18459027071E+02  0.25954535178E+02  0.51100000000E-03 0. -1.
        -11    1    4    4    0    0  0.32733179623E+01  0.21228240833E+00  0.24185628587E+01  0.40754289180E+01  0.51100000000E-03 0.  1.
         12    1    4    4    0    0  0.53120607152E+01 -0.46852109171E+01  0.14471997817E+02  0.16112352752E+02  0.00000000000E+00 0. -1.
</event>
<event>
 8    1  0.8828843E-009  0.9118800E+02  0.7816164E-02  0.1184000E+00
        -11   -1    0    0    0    0  0.00000000000E+00  0.00000000000E+00  0.45593999997E+02  0.45594000000E+02  0.51100000000E-03 0. -1.
         11   -1    0    0    0    0 -0.00000000000E+00 -0.00000000000E+00 -0.45593999997E+02  0.45594000000E+02  0.51100000000E-03 0.  1.
         23    2    1    2    0    0  0.00000000000E+00  0.35527136788E-14 -0.35527136788E-14  0.91188000000E+02  0.91188000000E+02 0.  0.
    9900012    2    3    3    0    0 -0.22006230350E+02  0.26948730817E+02  0.28611276481E+02  0.46142318645E+02  0.10000008058E+02 0.  0.
        -12    1    3    3    0    0  0.22006230350E+02 -0.26948730817E+02 -0.28611276481E+02  0.45045681355E+02  0.00000000000E+00 0.  1.
         11    1    4    4    0    0 -0.18466788849E+00  0.12711516853E+01  0.11953495959E+01  0.17546480427E+01  0.51100000000E-03 0. -1.
        -11    1    4    4    0    0 -0.56298836033E+01  0.18632472898E+01  0.64818209164E+01  0.87852878441E+01  0.51100000000E-03 0.  1.
         12    1    4    4    0    0 -0.16191678858E+02  0.23814331842E+02  0.20934105969E+02  0.35602382758E+02  0.00000000000E+00 0. -1.
</event>
<event>
 8    1  0.8828843E-009  0.9118800E+02  0.7816164E-02  0.1184000E+00
        -11   -1    0    0    0    0  0.00000000000E+00  0.00000000000E+00  0.45593999997E+02  0.45594000000E+02  0.51100000000E-03 0. -1.
         11   -1    0    0    0    0 -0.00000000000E+00 -0.00000000000E+00 -0.45593999997E+02  0.45594000000E+02  0.51100000000E-03 0.  1.
         23    2    1    2    0    0  0.00000000000E+00  0.00000000000E+00  0.35527136788E-14  0.91188000000E+02  0.91188000000E+02 0.  0.
    9900012    2    3    3    0    0  0.32104886532E+02 -0.12246206351E+02 -0.29127653594E+02  0.46142317487E+02  0.99999974998E+01 0.  0.
         12    1    3    3    0    0 -0.32104886532E+02  0.12246206351E+02  0.29127653594E+02  0.45045682513E+02  0.00000000000E+00 0. -1.
         11    1    4    4    0    0  0.18058650697E+01 -0.14317777565E+01 -0.41775519276E+00  0.23421477016E+01  0.51100000000E-03 0. -1.
        -11    1    4    4    0    0  0.35398130587E+01 -0.39251288345E+01 -0.31121630412E+01  0.61337159956E+01  0.51100000000E-03 0.  1.
        -12    1    4    4    0    0  0.26759208403E+02 -0.68892997596E+01 -0.25597735360E+02  0.37666453790E+02  0.00000000000E+00 0.  1.
</event>
<event>
 8    1  0.8828843E-009  0.9118800E+02  0.7816164E-02  0.1184000E+00
        -11   -1    0    0    0    0  0.00000000000E+00  0.00000000000E+00  0.45593999997E+02  0.45594000000E+02  0.51100000000E-03 0. -1.
         11   -1    0    0    0    0 -0.00000000000E+00 -0.00000000000E+00 -0.45593999997E+02  0.45594000000E+02  0.51100000000E-03 0.  1.
         23    2    1    2    0    0  0.00000000000E+00  0.71054273576E-14  0.35527136788E-14  0.91188000000E+02  0.91188000000E+02 0.  0.
    9900012    2    3    3    0    0 -0.80386015203E+01 -0.33972104767E+02 -0.28467357483E+02  0.46142318090E+02  0.10000003001E+02 0.  0.
         12    1    3    3    0    0  0.80386015203E+01  0.33972104767E+02  0.28467357483E+02  0.45045681910E+02  0.00000000000E+00 0. -1.
         11    1    4    4    0    0  0.11548429928E+01 -0.39039508958E+01 -0.26960204039E+01  0.48829316209E+01  0.51100000000E-03 0. -1.
        -11    1    4    4    0    0 -0.90647307651E+01 -0.23959306389E+02 -0.23430690142E+02  0.34716205831E+02  0.51100000000E-03 0.  1.
        -12    1    4    4    0    0 -0.12871374798E+00 -0.61088474819E+01 -0.23406469363E+01  0.65431806384E+01  0.00000000000E+00 0.  1.
</event>
<event>
 8    1  0.8828843E-009  0.9118800E+02  0.7816164E-02  0.1184000E+00
        -11   -1    0    0    0    0  0.00000000000E+00  0.00000000000E+00  0.45593999997E+02  0.45594000000E+02  0.51100000000E-03 0.  1.
         11   -1    0    0    0    0 -0.00000000000E+00 -0.00000000000E+00 -0.45593999997E+02  0.45594000000E+02  0.51100000000E-03 0. -1.
         23    2    1    2    0    0  0.00000000000E+00  0.00000000000E+00 -0.88817841970E-15  0.91188000000E+02  0.91188000000E+02 0.  0.
    9900012    2    3    3    0    0  0.21931391909E+01  0.44384851487E+02  0.73680795895E+01  0.46142317656E+02  0.99999990379E+01 0.  0.
         12    1    3    3    0    0 -0.21931391909E+01 -0.44384851487E+02 -0.73680795895E+01  0.45045682344E+02  0.00000000000E+00 0. -1.
         11    1    4    4    0    0  0.33236499786E-01  0.33007686605E+00 -0.10269239096E+01  0.10791794937E+01  0.51100000000E-03 0. -1.
        -11    1    4    4    0    0  0.80705095669E+00  0.22285088270E+02  0.23127695194E+01  0.22419308499E+02  0.51100000000E-03 0.  1.
        -12    1    4    4    0    0  0.13528517345E+01  0.21769686351E+02  0.60822339797E+01  0.22643829663E+02  0.00000000000E+00 0.  1.
</event>
<event>
 8    1  0.8828843E-009  0.9118800E+02  0.7816164E-02  0.1184000E+00
        -11   -1    0    0    0    0  0.00000000000E+00  0.00000000000E+00  0.45593999997E+02  0.45594000000E+02  0.51100000000E-03 0. -1.
         11   -1    0    0    0    0 -0.00000000000E+00 -0.00000000000E+00 -0.45593999997E+02  0.45594000000E+02  0.51100000000E-03 0.  1.
         23    2    1    2    0    0  0.00000000000E+00  0.00000000000E+00  0.00000000000E+00  0.91188000000E+02  0.91188000000E+02 0.  0.
    9900012    2    3    3    0    0  0.10613555774E+02  0.43143020104E+02 -0.74260164142E+01  0.46142317969E+02  0.10000001897E+02 0.  0.
        -12    1    3    3    0    0 -0.10613555774E+02 -0.43143020104E+02  0.74260164142E+01  0.45045682031E+02  0.00000000000E+00 0.  1.
         11    1    4    4    0    0  0.73560406037E+01  0.34564684729E+02 -0.72986032899E+01  0.36084600234E+02  0.51100000000E-03 0. -1.
        -11    1    4    4    0    0  0.28260600759E+00  0.41557319675E+01  0.15889781673E+01  0.44581191346E+01  0.51100000000E-03 0.  1.
        -12    1    4    4    0    0  0.29749091629E+01  0.44226034070E+01 -0.17163912915E+01  0.55995986007E+01  0.00000000000E+00 0.  1.
</event>
<event>
 8    1  0.8828843E-009  0.9118800E+02  0.7816164E-02  0.1184000E+00
        -11   -1    0    0    0    0  0.00000000000E+00  0.00000000000E+00  0.45593999997E+02  0.45594000000E+02  0.51100000000E-03 0. -1.
         11   -1    0    0    0    0 -0.00000000000E+00 -0.00000000000E+00 -0.45593999997E+02  0.45594000000E+02  0.51100000000E-03 0.  1.
         23    2    1    2    0    0 -0.35527136788E-14 -0.35527136788E-14 -0.35527136788E-14  0.91188000000E+02  0.91188000000E+02 0.  0.
    9900012    2    3    3    0    0 -0.29446768919E+02 -0.17581246513E+02 -0.29204469480E+02  0.46142318006E+02  0.10000002235E+02 0.  0.
         12    1    3    3    0    0  0.29446768919E+02  0.17581246513E+02  0.29204469480E+02  0.45045681994E+02  0.00000000000E+00 0. -1.
         11    1    4    4    0    0 -0.11642814586E+02 -0.47765755156E+01 -0.11350046055E+02  0.16946809459E+02  0.51100000000E-03 0. -1.
        -11    1    4    4    0    0 -0.13123765884E+02 -0.53988571643E+01 -0.94080423539E+01  0.17026219511E+02  0.51100000000E-03 0.  1.
         12    1    4    4    0    0 -0.46801884495E+01 -0.74058138326E+01 -0.84463810707E+01  0.12169289036E+02  0.00000000000E+00 0. -1.
</event>
<event>
 8    1  0.8828843E-009  0.9118800E+02  0.7816164E-02  0.1184000E+00
        -11   -1    0    0    0    0  0.00000000000E+00  0.00000000000E+00  0.45593999997E+02  0.45594000000E+02  0.51100000000E-03 0. -1.
         11   -1    0    0    0    0 -0.00000000000E+00 -0.00000000000E+00 -0.45593999997E+02  0.45594000000E+02  0.51100000000E-03 0.  1.
         23    2    1    2    0    0  0.00000000000E+00  0.00000000000E+00  0.00000000000E+00  0.91188000000E+02  0.91188000000E+02 0.  0.
    9900012    2    3    3    0    0 -0.22102865651E+02 -0.37204203987E+02 -0.12506959935E+02  0.46142317509E+02  0.99999977003E+01 0.  0.
         12    1    3    3    0    0  0.22102865651E+02  0.37204203987E+02  0.12506959935E+02  0.45045682491E+02  0.00000000000E+00 0. -1.
         11    1    4    4    0    0 -0.11334488864E+01 -0.21987571065E+01 -0.15691924052E+01  0.29294375325E+01  0.51100000000E-03 0. -1.
        -11    1    4    4    0    0 -0.69375444647E+01 -0.12385346945E+02  0.58279248177E+00  0.14207955148E+02  0.51100000000E-03 0.  1.
        -12    1    4    4    0    0 -0.14031872300E+02 -0.22620099935E+02 -0.11520560012E+02  0.29004924828E+02  0.00000000000E+00 0.  1.
</event>
<event>
 8    1  0.8828843E-009  0.9118800E+02  0.7816164E-02  0.1184000E+00
        -11   -1    0    0    0    0  0.00000000000E+00  0.00000000000E+00  0.45593999997E+02  0.45594000000E+02  0.51100000000E-03 0. -1.
         11   -1    0    0    0    0 -0.00000000000E+00 -0.00000000000E+00 -0.45593999997E+02  0.45594000000E+02  0.51100000000E-03 0.  1.
         23    2    1    2    0    0 -0.22204460493E-15  0.00000000000E+00  0.00000000000E+00  0.91188000000E+02  0.91188000000E+02 0.  0.
    9900012    2    3    3    0    0 -0.10372275498E+01  0.44636473066E+02 -0.59684940850E+01  0.46142317738E+02  0.99999997922E+01 0.  0.
         12    1    3    3    0    0  0.10372275498E+01 -0.44636473066E+02  0.59684940850E+01  0.45045682262E+02  0.00000000000E+00 0. -1.
         11    1    4    4    0    0 -0.90348818780E+00  0.32405633819E+01 -0.28045019094E+01  0.43798142836E+01  0.51100000000E-03 0. -1.
        -11    1    4    4    0    0 -0.11146588541E+01  0.11056918706E+02  0.84028652511E+00  0.11144684712E+02  0.51100000000E-03 0.  1.
         12    1    4    4    0    0  0.98091949213E+00  0.30338990978E+02 -0.40042787007E+01  0.30617818742E+02  0.00000000000E+00 0. -1.
</event>
<event>
 8    1  0.8828843E-009  0.9118800E+02  0.7816164E-02  0.1184000E+00
        -11   -1    0    0    0    0  0.00000000000E+00  0.00000000000E+00  0.45593999997E+02  0.45594000000E+02  0.51100000000E-03 0. -1.
         11   -1    0    0    0    0 -0.00000000000E+00 -0.00000000000E+00 -0.45593999997E+02  0.45594000000E+02  0.51100000000E-03 0.  1.
         23    2    1    2    0    0  0.00000000000E+00 -0.17763568394E-14  0.00000000000E+00  0.91188000000E+02  0.91188000000E+02 0.  0.
    9900012    2    3    3    0    0  0.67993123084E+01  0.91378239886E+01 -0.43581911692E+02  0.46142317612E+02  0.99999986362E+01 0.  0.
         12    1    3    3    0    0 -0.67993123084E+01 -0.91378239886E+01  0.43581911692E+02  0.45045682388E+02  0.00000000000E+00 0. -1.
         11    1    4    4    0    0  0.25195635070E+00 -0.73456772070E+00 -0.55422448679E+00  0.95406330074E+00  0.51100000000E-03 0. -1.
        -11    1    4    4    0    0 -0.34620455137E+00 -0.46446300166E+00 -0.80240227401E+01  0.80449067531E+01  0.51100000000E-03 0.  1.
         12    1    4    4    0    0  0.68935605091E+01  0.10336854711E+02 -0.35003664465E+02  0.37143347558E+02  0.00000000000E+00 0. -1.
</event>
<event>
 8    1  0.8828843E-009  0.9118800E+02  0.7816164E-02  0.1184000E+00
        -11   -1    0    0    0    0  0.00000000000E+00  0.00000000000E+00  0.45593999997E+02  0.45594000000E+02  0.51100000000E-03 0. -1.
         11   -1    0    0    0    0 -0.00000000000E+00 -0.00000000000E+00 -0.45593999997E+02  0.45594000000E+02  0.51100000000E-03 0.  1.
         23    2    1    2    0    0  0.00000000000E+00  0.35527136788E-14  0.35527136788E-14  0.91188000000E+02  0.91188000000E+02 0.  0.
    9900012    2    3    3    0    0 -0.88081812246E+01  0.30839381082E+02  0.31630080839E+02  0.46142317677E+02  0.99999992370E+01 0.  0.
        -12    1    3    3    0    0  0.88081812246E+01 -0.30839381082E+02 -0.31630080839E+02  0.45045682323E+02  0.00000000000E+00 0.  1.
         11    1    4    4    0    0 -0.26244537745E+00  0.86700926665E+01  0.64897682255E+01  0.10833119417E+02  0.51100000000E-03 0. -1.
        -11    1    4    4    0    0 -0.17961225932E+01  0.11944537907E+02  0.15879145594E+02  0.19951072834E+02  0.51100000000E-03 0.  1.
         12    1    4    4    0    0 -0.67496132540E+01  0.10224750509E+02  0.92611670198E+01  0.15358125426E+02  0.00000000000E+00 0. -1.
</event>
<event>
 8    1  0.8828843E-009  0.9118800E+02  0.7816164E-02  0.1184000E+00
        -11   -1    0    0    0    0  0.00000000000E+00  0.00000000000E+00  0.45593999997E+02  0.45594000000E+02  0.51100000000E-03 0.  1.
         11   -1    0    0    0    0 -0.00000000000E+00 -0.00000000000E+00 -0.45593999997E+02  0.45594000000E+02  0.51100000000E-03 0. -1.
         23    2    1    2    0    0  0.00000000000E+00  0.00000000000E+00 -0.11102230246E-15  0.91188000000E+02  0.91188000000E+02 0.  0.
    9900012    2    3    3    0    0 -0.91986511832E+01 -0.44087468628E+02 -0.89075634345E+00  0.46142317404E+02  0.99999967457E+01 0.  0.
         12    1    3    3    0    0  0.91986511832E+01  0.44087468628E+02  0.89075634345E+00  0.45045682596E+02  0.00000000000E+00 0. -1.
         11    1    4    4    0    0 -0.50968298784E+01 -0.28410039380E+02  0.34527169884E-01  0.28863631178E+02  0.51100000000E-03 0.  1.
        -11    1    4    4    0    0 -0.22422084873E+01 -0.10732065052E+02  0.21396299563E+01  0.11170619311E+02  0.51100000000E-03 0. -1.
        -12    1    4    4    0    0 -0.18596128175E+01 -0.49453641964E+01 -0.30649134696E+01  0.61080669154E+01  0.00000000000E+00 0.  1.
</event>
<event>
 8    1  0.8828843E-009  0.9118800E+02  0.7816164E-02  0.1184000E+00
        -11   -1    0    0    0    0  0.00000000000E+00  0.00000000000E+00  0.45593999997E+02  0.45594000000E+02  0.51100000000E-03 0. -1.
         11   -1    0    0    0    0 -0.00000000000E+00 -0.00000000000E+00 -0.45593999997E+02  0.45594000000E+02  0.51100000000E-03 0.  1.
         23    2    1    2    0    0  0.00000000000E+00  0.00000000000E+00  0.00000000000E+00  0.91188000000E+02  0.91188000000E+02 0.  0.
    9900012    2    3    3    0    0 -0.38815520161E+02 -0.29705147077E+01 -0.22663733912E+02  0.46142318766E+02  0.10000009162E+02 0.  0.
         12    1    3    3    0    0  0.38815520161E+02  0.29705147077E+01  0.22663733912E+02  0.45045681234E+02  0.00000000000E+00 0. -1.
         11    1    4    4    0    0 -0.14069055751E+02 -0.15711027062E+01 -0.75059332289E+01  0.16023287033E+02  0.51100000000E-03 0. -1.
        -11    1    4    4    0    0 -0.24498982299E+02  0.41756843101E-01 -0.14767365883E+02  0.28605540944E+02  0.51100000000E-03 0.  1.
         12    1    4    4    0    0 -0.24748211072E+00 -0.14411688445E+01 -0.39043480006E+00  0.15134907884E+01  0.00000000000E+00 0. -1.
</event>
<event>
 8    1  0.9614126E-009  0.9118800E+02  0.7816164E-02  0.1184000E+00
        -11   -1    0    0    0    0  0.00000000000E+00  0.00000000000E+00  0.45593999997E+02  0.45594000000E+02  0.51100000000E-03 0. -1.
         11   -1    0    0    0    0 -0.00000000000E+00 -0.00000000000E+00 -0.45593999997E+02  0.45594000000E+02  0.51100000000E-03 0.  1.
         23    2    1    2    0    0 -0.22204460493E-15  0.00000000000E+00  0.00000000000E+00  0.91188000000E+02  0.91188000000E+02 0.  0.
    9900012    2    3    3    0    0  0.19949905421E+01 -0.94876330378E+01  0.43989981533E+02  0.46142316043E+02  0.99999843319E+01 0.  0.
        -12    1    3    3    0    0 -0.19949905421E+01  0.94876330378E+01 -0.43989981533E+02  0.45045683957E+02  0.00000000000E+00 0.  1.
         11    1    4    4    0    0  0.11550841327E+01 -0.31460817964E+01  0.82321024282E+01  0.88881697032E+01  0.51100000000E-03 0. -1.
        -11    1    4    4    0    0  0.37888762123E+01 -0.38078548271E+01  0.28680050175E+02  0.29178770015E+02  0.51100000000E-03 0.  1.
        -12    1    4    4    0    0 -0.29489698029E+01 -0.25336964142E+01  0.70778289299E+01  0.80753763243E+01  0.00000000000E+00 0.  1.
</event>
<event>
 8    1  0.8828843E-009  0.9118800E+02  0.7816164E-02  0.1184000E+00
        -11   -1    0    0    0    0  0.00000000000E+00  0.00000000000E+00  0.45593999997E+02  0.45594000000E+02  0.51100000000E-03 0. -1.
         11   -1    0    0    0    0 -0.00000000000E+00 -0.00000000000E+00 -0.45593999997E+02  0.45594000000E+02  0.51100000000E-03 0.  1.
         23    2    1    2    0    0  0.00000000000E+00  0.00000000000E+00  0.00000000000E+00  0.91188000000E+02  0.91188000000E+02 0.  0.
    9900012    2    3    3    0    0 -0.25414799118E+02  0.30672830241E+02 -0.21032809074E+02  0.46142316669E+02  0.99999900428E+01 0.  0.
         12    1    3    3    0    0  0.25414799118E+02 -0.30672830241E+02  0.21032809074E+02  0.45045683331E+02  0.00000000000E+00 0. -1.
         11    1    4    4    0    0 -0.94947184721E+01  0.78972397902E+01 -0.40663123425E+01  0.13001960294E+02  0.51100000000E-03 0. -1.
        -11    1    4    4    0    0 -0.12054300957E+02  0.17182918661E+02 -0.94908152955E+01  0.23035503912E+02  0.51100000000E-03 0.  1.
        -12    1    4    4    0    0 -0.38657796888E+01  0.55926717900E+01 -0.74756814359E+01  0.10104852462E+02  0.00000000000E+00 0.  1.
</event>
<event>
 8    1  0.8828843E-009  0.9118800E+02  0.7816164E-02  0.1184000E+00
        -11   -1    0    0    0    0  0.00000000000E+00  0.00000000000E+00  0.45593999997E+02  0.45594000000E+02  0.51100000000E-03 0. -1.
         11   -1    0    0    0    0 -0.00000000000E+00 -0.00000000000E+00 -0.45593999997E+02  0.45594000000E+02  0.51100000000E-03 0.  1.
         23    2    1    2    0    0  0.00000000000E+00 -0.35527136788E-14  0.00000000000E+00  0.91188000000E+02  0.91188000000E+02 0.  0.
    9900012    2    3    3    0    0 -0.31308688500E+02  0.27745720592E+02 -0.16704924412E+02  0.46142317783E+02  0.10000000203E+02 0.  0.
         12    1    3    3    0    0  0.31308688500E+02 -0.27745720592E+02  0.16704924412E+02  0.45045682217E+02  0.00000000000E+00 0. -1.
         11    1    4    4    0    0 -0.72366986920E+01  0.59839569352E+01 -0.10087595265E+01  0.94443181122E+01  0.51100000000E-03 0. -1.
        -11    1    4    4    0    0 -0.80214044607E+01  0.51237258491E+01 -0.76778575246E+01  0.12228859004E+02  0.51100000000E-03 0.  1.
        -12    1    4    4    0    0 -0.16050585347E+02  0.16638037808E+02 -0.80183073606E+01  0.24469140668E+02  0.00000000000E+00 0.  1.
</event>
<event>
 8    1  0.8828843E-009  0.9118800E+02  0.7816164E-02  0.1184000E+00
        -11   -1    0    0    0    0  0.00000000000E+00  0.00000000000E+00  0.45593999997E+02  0.45594000000E+02  0.51100000000E-03 0. -1.
         11   -1    0    0    0    0 -0.00000000000E+00 -0.00000000000E+00 -0.45593999997E+02  0.45594000000E+02  0.51100000000E-03 0.  1.
         23    2    1    2    0    0  0.00000000000E+00  0.00000000000E+00  0.17763568394E-14  0.91188000000E+02  0.91188000000E+02 0.  0.
    9900012    2    3    3    0    0  0.14599836234E+02 -0.40458264640E+02 -0.13382342817E+02  0.46142317688E+02  0.99999993321E+01 0.  0.
         12    1    3    3    0    0 -0.14599836234E+02  0.40458264640E+02  0.13382342817E+02  0.45045682312E+02  0.00000000000E+00 0. -1.
         11    1    4    4    0    0  0.28431614336E+01 -0.87028107341E+01 -0.68756263330E+01  0.11449747567E+02  0.51100000000E-03 0. -1.
        -11    1    4    4    0    0  0.64955638433E+00 -0.59103074628E+01 -0.11881733909E+01  0.60634490242E+01  0.51100000000E-03 0.  1.
         12    1    4    4    0    0  0.11107118416E+02 -0.25845146443E+02 -0.53185430931E+01  0.28629121097E+02  0.00000000000E+00 0. -1.
</event>
<event>
 8    1  0.8828843E-009  0.9118800E+02  0.7816164E-02  0.1184000E+00
        -11   -1    0    0    0    0  0.00000000000E+00  0.00000000000E+00  0.45593999997E+02  0.45594000000E+02  0.51100000000E-03 0. -1.
         11   -1    0    0    0    0 -0.00000000000E+00 -0.00000000000E+00 -0.45593999997E+02  0.45594000000E+02  0.51100000000E-03 0.  1.
         23    2    1    2    0    0  0.00000000000E+00  0.17763568394E-14  0.00000000000E+00  0.91188000000E+02  0.91188000000E+02 0.  0.
    9900012    2    3    3    0    0 -0.16976318724E+02 -0.10585765264E+02 -0.40359133116E+02  0.46142318192E+02  0.10000003928E+02 0.  0.
         12    1    3    3    0    0  0.16976318724E+02  0.10585765264E+02  0.40359133116E+02  0.45045681808E+02  0.00000000000E+00 0. -1.
         11    1    4    4    0    0 -0.55117954701E-01  0.54624143384E-01 -0.38039475065E+01  0.38047389765E+01  0.51100000000E-03 0. -1.
        -11    1    4    4    0    0 -0.22050162291E+01  0.10444665141E+01 -0.58558349127E+01  0.63438008839E+01  0.51100000000E-03 0.  1.
         12    1    4    4    0    0 -0.14716184540E+02 -0.11684855922E+02 -0.30699350697E+02  0.35993778331E+02  0.00000000000E+00 0. -1.
</event>
<event>
 8    1  0.8828843E-009  0.9118800E+02  0.7816164E-02  0.1184000E+00
        -11   -1    0    0    0    0  0.00000000000E+00  0.00000000000E+00  0.45593999997E+02  0.45594000000E+02  0.51100000000E-03 0. -1.
         11   -1    0    0    0    0 -0.00000000000E+00 -0.00000000000E+00 -0.45593999997E+02  0.45594000000E+02  0.51100000000E-03 0.  1.
         23    2    1    2    0    0 -0.17763568394E-14 -0.35527136788E-14  0.00000000000E+00  0.91188000000E+02  0.91188000000E+02 0.  0.
    9900012    2    3    3    0    0 -0.13540207539E+02 -0.24629573053E+02 -0.35201710003E+02  0.46142317897E+02  0.10000001241E+02 0.  0.
         12    1    3    3    0    0  0.13540207539E+02  0.24629573053E+02  0.35201710003E+02  0.45045682103E+02  0.00000000000E+00 0. -1.
         11    1    4    4    0    0  0.59382216709E-01 -0.15997902394E+01 -0.47607085459E+01  0.50226687306E+01  0.51100000000E-03 0.  1.
        -11    1    4    4    0    0 -0.68301283949E+01 -0.81438708796E+01 -0.16519586602E+02  0.19643574740E+02  0.51100000000E-03 0. -1.
         12    1    4    4    0    0 -0.67694613609E+01 -0.14885911934E+02 -0.13921414855E+02  0.21476074427E+02  0.00000000000E+00 0. -1.
</event>
<event>
 8    1  0.8828843E-009  0.9118800E+02  0.7816164E-02  0.1184000E+00
        -11   -1    0    0    0    0  0.00000000000E+00  0.00000000000E+00  0.45593999997E+02  0.45594000000E+02  0.51100000000E-03 0. -1.
         11   -1    0    0    0    0 -0.00000000000E+00 -0.00000000000E+00 -0.45593999997E+02  0.45594000000E+02  0.51100000000E-03 0.  1.
         23    2    1    2    0    0 -0.38857805862E-15  0.00000000000E+00  0.00000000000E+00  0.91188000000E+02  0.91188000000E+02 0.  0.
    9900012    2    3    3    0    0  0.27155806977E+00 -0.42077989871E+02  0.16077390255E+02  0.46142318156E+02  0.10000003605E+02 0.  0.
        -12    1    3    3    0    0 -0.27155806977E+00  0.42077989871E+02 -0.16077390255E+02  0.45045681844E+02  0.00000000000E+00 0.  1.
         11    1    4    4    0    0  0.12819373925E+01 -0.37843411871E+01  0.13011987996E+01  0.42021090271E+01  0.51100000000E-03 0. -1.
        -11    1    4    4    0    0  0.34683214796E+01 -0.11548363038E+02  0.33589572137E+01  0.12517049835E+02  0.51100000000E-03 0.  1.
         12    1    4    4    0    0 -0.44787008023E+01 -0.26745285645E+02  0.11417234242E+02  0.29423159294E+02  0.00000000000E+00 0. -1.
</event>
<event>
 8    1  0.8828843E-009  0.9118800E+02  0.7816164E-02  0.1184000E+00
        -11   -1    0    0    0    0  0.00000000000E+00  0.00000000000E+00  0.45593999997E+02  0.45594000000E+02  0.51100000000E-03 0. -1.
         11   -1    0    0    0    0 -0.00000000000E+00 -0.00000000000E+00 -0.45593999997E+02  0.45594000000E+02  0.51100000000E-03 0.  1.
         23    2    1    2    0    0 -0.35527136788E-14 -0.35527136788E-14 -0.17763568394E-14  0.91188000000E+02  0.91188000000E+02 0.  0.
    9900012    2    3    3    0    0 -0.30590711890E+02 -0.29940129245E+02 -0.14032491563E+02  0.46142314162E+02  0.99999671818E+01 0.  0.
         12    1    3    3    0    0  0.30590711890E+02  0.29940129245E+02  0.14032491563E+02  0.45045685838E+02  0.00000000000E+00 0. -1.
         11    1    4    4    0    0 -0.19456847688E+02 -0.17761018603E+02 -0.46174946636E+01  0.26745914846E+02  0.51100000000E-03 0. -1.
        -11    1    4    4    0    0 -0.81442921110E+01 -0.87633484182E+01 -0.47061072869E+01  0.12855863081E+02  0.51100000000E-03 0.  1.
         12    1    4    4    0    0 -0.29895720915E+01 -0.34157622239E+01 -0.47088896127E+01  0.65405362352E+01  0.00000000000E+00 0. -1.
</event>
<event>
 8    1  0.8828843E-009  0.9118800E+02  0.7816164E-02  0.1184000E+00
        -11   -1    0    0    0    0  0.00000000000E+00  0.00000000000E+00  0.45593999997E+02  0.45594000000E+02  0.51100000000E-03 0. -1.
         11   -1    0    0    0    0 -0.00000000000E+00 -0.00000000000E+00 -0.45593999997E+02  0.45594000000E+02  0.51100000000E-03 0.  1.
         23    2    1    2    0    0  0.00000000000E+00  0.00000000000E+00  0.71054273576E-14  0.91188000000E+02  0.91188000000E+02 0.  0.
    9900012    2    3    3    0    0  0.17751372924E+02 -0.34699470698E+02  0.22582049664E+02  0.46142317916E+02  0.10000001409E+02 0.  0.
        -12    1    3    3    0    0 -0.17751372924E+02  0.34699470698E+02 -0.22582049664E+02  0.45045682084E+02  0.00000000000E+00 0.  1.
         11    1    4    4    0    0  0.69439389571E+01 -0.12769710840E+02  0.60309370219E+01  0.15737090099E+02  0.51100000000E-03 0. -1.
        -11    1    4    4    0    0  0.80272953999E+00 -0.43114996657E+01  0.63608896547E+01  0.77262100374E+01  0.51100000000E-03 0.  1.
        -12    1    4    4    0    0  0.10004704427E+02 -0.17618260192E+02  0.10190222988E+02  0.22679017779E+02  0.00000000000E+00 0.  1.
</event>
<event>
 8    1  0.8828843E-009  0.9118800E+02  0.7816164E-02  0.1184000E+00
        -11   -1    0    0    0    0  0.00000000000E+00  0.00000000000E+00  0.45593999997E+02  0.45594000000E+02  0.51100000000E-03 0. -1.
         11   -1    0    0    0    0 -0.00000000000E+00 -0.00000000000E+00 -0.45593999997E+02  0.45594000000E+02  0.51100000000E-03 0.  1.
         23    2    1    2    0    0 -0.17763568394E-14  0.00000000000E+00 -0.71054273576E-14  0.91188000000E+02  0.91188000000E+02 0.  0.
    9900012    2    3    3    0    0 -0.15188769731E+02 -0.23885767776E+02 -0.35041189212E+02  0.46142316860E+02  0.99999917807E+01 0.  0.
         12    1    3    3    0    0  0.15188769731E+02  0.23885767776E+02  0.35041189212E+02  0.45045683140E+02  0.00000000000E+00 0. -1.
         11    1    4    4    0    0  0.23038070344E+00 -0.40813210601E+01 -0.35426822889E+01  0.54093303583E+01  0.51100000000E-03 0.  1.
        -11    1    4    4    0    0 -0.29206410117E+01 -0.11914768716E+01 -0.22240009828E+01  0.38595260963E+01  0.51100000000E-03 0. -1.
        -12    1    4    4    0    0 -0.12498509423E+02 -0.18612969844E+02 -0.29274505940E+02  0.36873460405E+02  0.00000000000E+00 0.  1.
</event>
<event>
 8    1  0.9098841E-009  0.9118800E+02  0.7816164E-02  0.1184000E+00
        -11   -1    0    0    0    0  0.00000000000E+00  0.00000000000E+00  0.45593999997E+02  0.45594000000E+02  0.51100000000E-03 0. -1.
         11   -1    0    0    0    0 -0.00000000000E+00 -0.00000000000E+00 -0.45593999997E+02  0.45594000000E+02  0.51100000000E-03 0.  1.
         23    2    1    2    0    0 -0.35527136788E-14  0.17763568394E-14  0.71054273576E-14  0.91188000000E+02  0.91188000000E+02 0.  0.
    9900012    2    3    3    0    0 -0.11503360858E+02  0.81657530724E+01  0.42779745990E+02  0.46142317618E+02  0.99999986969E+01 0.  0.
        -12    1    3    3    0    0  0.11503360858E+02 -0.81657530724E+01 -0.42779745990E+02  0.45045682382E+02  0.00000000000E+00 0.  1.
         11    1    4    4    0    0 -0.27705627385E+00 -0.21521342211E+00  0.41878171269E+01  0.42024861148E+01  0.51100000000E-03 0.  1.
        -11    1    4    4    0    0 -0.33731889267E+00  0.22874280857E+01  0.13826273365E+01  0.26940248506E+01  0.51100000000E-03 0. -1.
         12    1    4    4    0    0 -0.10888985691E+02  0.60935384088E+01  0.37209301527E+02  0.39245806653E+02  0.00000000000E+00 0. -1.
</event>
<event>
 8    1  0.8828843E-009  0.9118800E+02  0.7816164E-02  0.1184000E+00
        -11   -1    0    0    0    0  0.00000000000E+00  0.00000000000E+00  0.45593999997E+02  0.45594000000E+02  0.51100000000E-03 0. -1.
         11   -1    0    0    0    0 -0.00000000000E+00 -0.00000000000E+00 -0.45593999997E+02  0.45594000000E+02  0.51100000000E-03 0.  1.
         23    2    1    2    0    0  0.00000000000E+00  0.00000000000E+00 -0.71054273576E-14  0.91188000000E+02  0.91188000000E+02 0.  0.
    9900012    2    3    3    0    0  0.19338191685E+02  0.71579866212E+01  0.40048859375E+02  0.46142316884E+02  0.99999920011E+01 0.  0.
        -12    1    3    3    0    0 -0.19338191685E+02 -0.71579866212E+01 -0.40048859375E+02  0.45045683116E+02  0.00000000000E+00 0.  1.
         11    1    4    4    0    0  0.90714532368E+01  0.25415582076E+01  0.21592459332E+02  0.23558121364E+02  0.51100000000E-03 0. -1.
        -11    1    4    4    0    0  0.37363874343E+01  0.33421315307E+01  0.13152091424E+02  0.14075082355E+02  0.51100000000E-03 0.  1.
         12    1    4    4    0    0  0.65303510140E+01  0.12742968828E+01  0.53043086199E+01  0.85091131645E+01  0.00000000000E+00 0. -1.
</event>
<event>
 8    1  0.8828843E-009  0.9118800E+02  0.7816164E-02  0.1184000E+00
        -11   -1    0    0    0    0  0.00000000000E+00  0.00000000000E+00  0.45593999997E+02  0.45594000000E+02  0.51100000000E-03 0. -1.
         11   -1    0    0    0    0 -0.00000000000E+00 -0.00000000000E+00 -0.45593999997E+02  0.45594000000E+02  0.51100000000E-03 0.  1.
         23    2    1    2    0    0  0.00000000000E+00  0.00000000000E+00  0.00000000000E+00  0.91188000000E+02  0.91188000000E+02 0.  0.
    9900012    2    3    3    0    0  0.95109299618E+01  0.12327771579E+02  0.42269157891E+02  0.46142318191E+02  0.10000003917E+02 0.  0.
        -12    1    3    3    0    0 -0.95109299618E+01 -0.12327771579E+02 -0.42269157891E+02  0.45045681809E+02  0.00000000000E+00 0.  1.
         11    1    4    4    0    0  0.25720814722E+01  0.74577153616E+01  0.18928889335E+02  0.20506973770E+02  0.51100000000E-03 0. -1.
        -11    1    4    4    0    0  0.61269628258E+01  0.64237924032E+00  0.15705241143E+02  0.16870297098E+02  0.51100000000E-03 0.  1.
         12    1    4    4    0    0  0.81188566384E+00  0.42276769772E+01  0.76350274135E+01  0.87650473221E+01  0.00000000000E+00 0. -1.
</event>
<event>
 8    1  0.8828843E-009  0.9118800E+02  0.7816164E-02  0.1184000E+00
        -11   -1    0    0    0    0  0.00000000000E+00  0.00000000000E+00  0.45593999997E+02  0.45594000000E+02  0.51100000000E-03 0. -1.
         11   -1    0    0    0    0 -0.00000000000E+00 -0.00000000000E+00 -0.45593999997E+02  0.45594000000E+02  0.51100000000E-03 0.  1.
         23    2    1    2    0    0  0.71054273576E-14 -0.71054273576E-14 -0.88817841970E-15  0.91188000000E+02  0.91188000000E+02 0.  0.
    9900012    2    3    3    0    0  0.33005487721E+02 -0.29876540400E+02 -0.68661587952E+01  0.46142311832E+02  0.99999459324E+01 0.  0.
         12    1    3    3    0    0 -0.33005487721E+02  0.29876540400E+02  0.68661587952E+01  0.45045688168E+02  0.00000000000E+00 0. -1.
         11    1    4    4    0    0  0.49647421359E+01 -0.83853812687E+00 -0.20711949062E+01  0.54444154201E+01  0.51100000000E-03 0. -1.
        -11    1    4    4    0    0  0.54899699340E+01 -0.59732374751E+01 -0.20184142603E+00  0.81154221106E+01  0.51100000000E-03 0.  1.
         12    1    4    4    0    0  0.22550775651E+02 -0.23064764798E+02 -0.45931224629E+01  0.32582474301E+02  0.00000000000E+00 0. -1.
</event>
<event>
 8    1  0.8828843E-009  0.9118800E+02  0.7816164E-02  0.1184000E+00
        -11   -1    0    0    0    0  0.00000000000E+00  0.00000000000E+00  0.45593999997E+02  0.45594000000E+02  0.51100000000E-03 0. -1.
         11   -1    0    0    0    0 -0.00000000000E+00 -0.00000000000E+00 -0.45593999997E+02  0.45594000000E+02  0.51100000000E-03 0.  1.
         23    2    1    2    0    0  0.00000000000E+00  0.00000000000E+00  0.00000000000E+00  0.91188000000E+02  0.91188000000E+02 0.  0.
    9900012    2    3    3    0    0 -0.15388036988E+02  0.27894022709E+02  0.31847220973E+02  0.46142315757E+02  0.99999817231E+01 0.  0.
        -12    1    3    3    0    0  0.15388036988E+02 -0.27894022709E+02 -0.31847220973E+02  0.45045684243E+02  0.00000000000E+00 0.  1.
         11    1    4    4    0    0 -0.93254314605E+01  0.19615472941E+02  0.20998286877E+02  0.30210238375E+02  0.51100000000E-03 0. -1.
        -11    1    4    4    0    0 -0.61415874684E+01  0.75446184968E+01  0.69300694389E+01  0.11944296864E+02  0.51100000000E-03 0.  1.
         12    1    4    4    0    0  0.78981940821E-01  0.73393127109E+00  0.39188646568E+01  0.39877805175E+01  0.00000000000E+00 0. -1.
</event>
<event>
 8    1  0.8828843E-009  0.9118800E+02  0.7816164E-02  0.1184000E+00
        -11   -1    0    0    0    0  0.00000000000E+00  0.00000000000E+00  0.45593999997E+02  0.45594000000E+02  0.51100000000E-03 0.  1.
         11   -1    0    0    0    0 -0.00000000000E+00 -0.00000000000E+00 -0.45593999997E+02  0.45594000000E+02  0.51100000000E-03 0. -1.
         23    2    1    2    0    0  0.00000000000E+00  0.00000000000E+00  0.00000000000E+00  0.91188000000E+02  0.91188000000E+02 0.  0.
    9900012    2    3    3    0    0  0.42266576320E+02 -0.47619755920E+01 -0.14831509144E+02  0.46142317090E+02  0.99999938803E+01 0.  0.
         12    1    3    3    0    0 -0.42266576320E+02  0.47619755920E+01  0.14831509144E+02  0.45045682910E+02  0.00000000000E+00 0. -1.
         11    1    4    4    0    0  0.11564992362E+02 -0.47881413078E+01 -0.24027544488E+01  0.12745531559E+02  0.51100000000E-03 0. -1.
        -11    1    4    4    0    0  0.17922025524E+02 -0.15423832453E+01 -0.57041090103E+01  0.18871004340E+02  0.51100000000E-03 0.  1.
        -12    1    4    4    0    0  0.12779558434E+02  0.15685489611E+01 -0.67246456851E+01  0.14525781190E+02  0.00000000000E+00 0.  1.
</event>
<event>
 8    1  0.8828843E-009  0.9118800E+02  0.7816164E-02  0.1184000E+00
        -11   -1    0    0    0    0  0.00000000000E+00  0.00000000000E+00  0.45593999997E+02  0.45594000000E+02  0.51100000000E-03 0.  1.
         11   -1    0    0    0    0 -0.00000000000E+00 -0.00000000000E+00 -0.45593999997E+02  0.45594000000E+02  0.51100000000E-03 0. -1.
         23    2    1    2    0    0  0.00000000000E+00  0.00000000000E+00 -0.35527136788E-14  0.91188000000E+02  0.91188000000E+02 0.  0.
    9900012    2    3    3    0    0  0.39502456514E+02  0.10244885918E+02 -0.19071229953E+02  0.46142316854E+02  0.99999917320E+01 0.  0.
        -12    1    3    3    0    0 -0.39502456514E+02 -0.10244885918E+02  0.19071229953E+02  0.45045683146E+02  0.00000000000E+00 0.  1.
         11    1    4    4    0    0  0.14702300644E+02  0.40296649046E+01 -0.48463079789E+01  0.15996329102E+02  0.51100000000E-03 0. -1.
        -11    1    4    4    0    0  0.25404044712E+01  0.11595418083E+01  0.69263773534E+00  0.28771408335E+01  0.51100000000E-03 0.  1.
         12    1    4    4    0    0  0.22259751399E+02  0.50556792055E+01 -0.14917559709E+02  0.27268846919E+02  0.00000000000E+00 0. -1.
</event>
<event>
 8    1  0.8828843E-009  0.9118800E+02  0.7816164E-02  0.1184000E+00
        -11   -1    0    0    0    0  0.00000000000E+00  0.00000000000E+00  0.45593999997E+02  0.45594000000E+02  0.51100000000E-03 0. -1.
         11   -1    0    0    0    0 -0.00000000000E+00 -0.00000000000E+00 -0.45593999997E+02  0.45594000000E+02  0.51100000000E-03 0.  1.
         23    2    1    2    0    0  0.00000000000E+00  0.00000000000E+00  0.00000000000E+00  0.91188000000E+02  0.91188000000E+02 0.  0.
    9900012    2    3    3    0    0 -0.20458334998E+02  0.12208881650E+02  0.38229742062E+02  0.46142318296E+02  0.10000004878E+02 0.  0.
        -12    1    3    3    0    0  0.20458334998E+02 -0.12208881650E+02 -0.38229742062E+02  0.45045681704E+02  0.00000000000E+00 0.  1.
         11    1    4    4    0    0 -0.31198397983E+01  0.19620882015E+01  0.42886819562E+01  0.56547310864E+01  0.51100000000E-03 0. -1.
        -11    1    4    4    0    0 -0.18326834727E+02  0.89452509498E+01  0.32051577970E+02  0.37989393734E+02  0.51100000000E-03 0.  1.
        -12    1    4    4    0    0  0.98833952761E+00  0.13015424989E+01  0.18894821364E+01  0.24981934757E+01  0.00000000000E+00 0.  1.
</event>
<event>
 8    1  0.8828843E-009  0.9118800E+02  0.7816164E-02  0.1184000E+00
        -11   -1    0    0    0    0  0.00000000000E+00  0.00000000000E+00  0.45593999997E+02  0.45594000000E+02  0.51100000000E-03 0. -1.
         11   -1    0    0    0    0 -0.00000000000E+00 -0.00000000000E+00 -0.45593999997E+02  0.45594000000E+02  0.51100000000E-03 0.  1.
         23    2    1    2    0    0  0.71054273576E-14  0.17763568394E-14  0.00000000000E+00  0.91188000000E+02  0.91188000000E+02 0.  0.
    9900012    2    3    3    0    0 -0.27848875009E+02 -0.15928863455E+02 -0.31620007836E+02  0.46142318456E+02  0.10000006337E+02 0.  0.
         12    1    3    3    0    0  0.27848875009E+02  0.15928863455E+02  0.31620007836E+02  0.45045681544E+02  0.00000000000E+00 0. -1.
         11    1    4    4    0    0 -0.10985815798E+02 -0.51279597131E+01 -0.62049238394E+01  0.13619295124E+02  0.51100000000E-03 0. -1.
        -11    1    4    4    0    0 -0.52254199607E+01 -0.16306625733E+01 -0.66124164435E+01  0.85841788003E+01  0.51100000000E-03 0.  1.
         12    1    4    4    0    0 -0.11637639251E+02 -0.91702411683E+01 -0.18802667553E+02  0.23938844532E+02  0.00000000000E+00 0. -1.
</event>
<event>
 8    1  0.8828843E-009  0.9118800E+02  0.7816164E-02  0.1184000E+00
        -11   -1    0    0    0    0  0.00000000000E+00  0.00000000000E+00  0.45593999997E+02  0.45594000000E+02  0.51100000000E-03 0. -1.
         11   -1    0    0    0    0 -0.00000000000E+00 -0.00000000000E+00 -0.45593999997E+02  0.45594000000E+02  0.51100000000E-03 0.  1.
         23    2    1    2    0    0  0.00000000000E+00  0.00000000000E+00  0.00000000000E+00  0.91188000000E+02  0.91188000000E+02 0.  0.
    9900012    2    3    3    0    0  0.14421997667E+02 -0.20662877605E+02  0.37338517931E+02  0.46142318199E+02  0.10000003994E+02 0.  0.
        -12    1    3    3    0    0 -0.14421997667E+02  0.20662877605E+02 -0.37338517931E+02  0.45045681801E+02  0.00000000000E+00 0.  1.
         11    1    4    4    0    0  0.39517881165E+01 -0.43564155462E+01  0.45194497472E+01  0.74175745367E+01  0.51100000000E-03 0. -1.
        -11    1    4    4    0    0  0.31905623293E+01 -0.52776258135E+01  0.50470928082E+01  0.79690757482E+01  0.51100000000E-03 0.  1.
         12    1    4    4    0    0  0.72796472214E+01 -0.11028836245E+02  0.27771975375E+02  0.30755667914E+02  0.00000000000E+00 0. -1.
</event>
<event>
 8    1  0.8828843E-009  0.9118800E+02  0.7816164E-02  0.1184000E+00
        -11   -1    0    0    0    0  0.00000000000E+00  0.00000000000E+00  0.45593999997E+02  0.45594000000E+02  0.51100000000E-03 0. -1.
         11   -1    0    0    0    0 -0.00000000000E+00 -0.00000000000E+00 -0.45593999997E+02  0.45594000000E+02  0.51100000000E-03 0.  1.
         23    2    1    2    0    0  0.00000000000E+00  0.35527136788E-14  0.00000000000E+00  0.91188000000E+02  0.91188000000E+02 0.  0.
    9900012    2    3    3    0    0  0.68447042940E+01 -0.30838822693E+02  0.32112781101E+02  0.46142315723E+02  0.99999814140E+01 0.  0.
        -12    1    3    3    0    0 -0.68447042940E+01  0.30838822693E+02 -0.32112781101E+02  0.45045684277E+02  0.00000000000E+00 0.  1.
         11    1    4    4    0    0  0.23329179697E+01 -0.29706443223E+01  0.75841904091E+01  0.84727314584E+01  0.51100000000E-03 0.  1.
        -11    1    4    4    0    0  0.52711911365E+01 -0.20336520693E+02  0.18485175876E+02  0.27983231717E+02  0.51100000000E-03 0. -1.
         12    1    4    4    0    0 -0.75940481224E+00 -0.75316576775E+01  0.60434148163E+01  0.96863525478E+01  0.00000000000E+00 0. -1.
</event>
<event>
 8    1  0.8828843E-009  0.9118800E+02  0.7816164E-02  0.1184000E+00
        -11   -1    0    0    0    0  0.00000000000E+00  0.00000000000E+00  0.45593999997E+02  0.45594000000E+02  0.51100000000E-03 0. -1.
         11   -1    0    0    0    0 -0.00000000000E+00 -0.00000000000E+00 -0.45593999997E+02  0.45594000000E+02  0.51100000000E-03 0.  1.
         23    2    1    2    0    0  0.00000000000E+00  0.00000000000E+00  0.00000000000E+00  0.91188000000E+02  0.91188000000E+02 0.  0.
    9900012    2    3    3    0    0 -0.34556516143E+02 -0.16021815018E+02 -0.24047085821E+02  0.46142315402E+02  0.99999784896E+01 0.  0.
         12    1    3    3    0    0  0.34556516143E+02  0.16021815018E+02  0.24047085821E+02  0.45045684598E+02  0.00000000000E+00 0. -1.
         11    1    4    4    0    0 -0.18243276174E+02 -0.11836623070E+02 -0.15863809100E+02  0.26918083340E+02  0.51100000000E-03 0. -1.
        -11    1    4    4    0    0 -0.14787807727E+02 -0.46294697358E+01 -0.62167607787E+01  0.16696088232E+02  0.51100000000E-03 0.  1.
         12    1    4    4    0    0 -0.15254322420E+01  0.44427778781E+00 -0.19665159422E+01  0.25281438307E+01  0.00000000000E+00 0. -1.
</event>
<event>
 8    1  0.8828843E-009  0.9118800E+02  0.7816164E-02  0.1184000E+00
        -11   -1    0    0    0    0  0.00000000000E+00  0.00000000000E+00  0.45593999997E+02  0.45594000000E+02  0.51100000000E-03 0. -1.
         11   -1    0    0    0    0 -0.00000000000E+00 -0.00000000000E+00 -0.45593999997E+02  0.45594000000E+02  0.51100000000E-03 0.  1.
         23    2    1    2    0    0  0.00000000000E+00 -0.35527136788E-14  0.00000000000E+00  0.91188000000E+02  0.91188000000E+02 0.  0.
    9900012    2    3    3    0    0  0.29215080326E+00  0.28724954493E+02 -0.34697336289E+02  0.46142317540E+02  0.99999979818E+01 0.  0.
         12    1    3    3    0    0 -0.29215080326E+00 -0.28724954493E+02  0.34697336289E+02  0.45045682460E+02  0.00000000000E+00 0. -1.
         11    1    4    4    0    0  0.48937277348E+00  0.11631526259E+02 -0.15937070744E+02  0.19736314574E+02  0.51100000000E-03 0. -1.
        -11    1    4    4    0    0 -0.35907845216E+00  0.15953519081E+02 -0.19375273962E+02  0.25100696200E+02  0.51100000000E-03 0.  1.
         12    1    4    4    0    0  0.16185648194E+00  0.11399091539E+01  0.61500841599E+00  0.13053067653E+01  0.00000000000E+00 0. -1.
</event>
<event>
 8    1  0.8828843E-009  0.9118800E+02  0.7816164E-02  0.1184000E+00
        -11   -1    0    0    0    0  0.00000000000E+00  0.00000000000E+00  0.45593999997E+02  0.45594000000E+02  0.51100000000E-03 0. -1.
         11   -1    0    0    0    0 -0.00000000000E+00 -0.00000000000E+00 -0.45593999997E+02  0.45594000000E+02  0.51100000000E-03 0.  1.
         23    2    1    2    0    0  0.00000000000E+00 -0.44408920985E-15  0.71054273576E-14  0.91188000000E+02  0.91188000000E+02 0.  0.
    9900012    2    3    3    0    0  0.53183793762E+01  0.26765227396E+01 -0.44650470876E+02  0.46142317825E+02  0.10000000585E+02 0.  0.
         12    1    3    3    0    0 -0.53183793762E+01 -0.26765227396E+01  0.44650470876E+02  0.45045682175E+02  0.00000000000E+00 0. -1.
         11    1    4    4    0    0  0.18281321102E+01 -0.30373881182E+00 -0.41322029004E+01  0.45287333052E+01  0.51100000000E-03 0. -1.
        -11    1    4    4    0    0 -0.83803562006E+00 -0.24197456161E+01 -0.10453114959E+02  0.10762206333E+02  0.51100000000E-03 0.  1.
        -12    1    4    4    0    0  0.43282828861E+01  0.54000071675E+01 -0.30065153016E+02  0.30851378187E+02  0.00000000000E+00 0.  1.
</event>
<event>
 8    1  0.8828843E-009  0.9118800E+02  0.7816164E-02  0.1184000E+00
        -11   -1    0    0    0    0  0.00000000000E+00  0.00000000000E+00  0.45593999997E+02  0.45594000000E+02  0.51100000000E-03 0. -1.
         11   -1    0    0    0    0 -0.00000000000E+00 -0.00000000000E+00 -0.45593999997E+02  0.45594000000E+02  0.51100000000E-03 0.  1.
         23    2    1    2    0    0 -0.44408920985E-15  0.00000000000E+00  0.00000000000E+00  0.91188000000E+02  0.91188000000E+02 0.  0.
    9900012    2    3    3    0    0  0.24241036212E+01  0.16734667491E+02 -0.41751503488E+02  0.46142318543E+02  0.10000007131E+02 0.  0.
         12    1    3    3    0    0 -0.24241036212E+01 -0.16734667491E+02  0.41751503488E+02  0.45045681457E+02  0.00000000000E+00 0. -1.
         11    1    4    4    0    0  0.12419933781E+01  0.81514449330E+01 -0.14484935861E+02  0.16667392394E+02  0.51100000000E-03 0. -1.
        -11    1    4    4    0    0  0.27326071115E+01  0.90870970976E+01 -0.21931059083E+02  0.23895895632E+02  0.51100000000E-03 0.  1.
         12    1    4    4    0    0 -0.15504968684E+01 -0.50387453972E+00 -0.53355085439E+01  0.55790305173E+01  0.00000000000E+00 0. -1.
</event>
<event>
 8    1  0.8828843E-009  0.9118800E+02  0.7816164E-02  0.1184000E+00
        -11   -1    0    0    0    0  0.00000000000E+00  0.00000000000E+00  0.45593999997E+02  0.45594000000E+02  0.51100000000E-03 0. -1.
         11   -1    0    0    0    0 -0.00000000000E+00 -0.00000000000E+00 -0.45593999997E+02  0.45594000000E+02  0.51100000000E-03 0.  1.
         23    2    1    2    0    0  0.00000000000E+00 -0.88817841970E-15  0.00000000000E+00  0.91188000000E+02  0.91188000000E+02 0.  0.
    9900012    2    3    3    0    0 -0.29737619748E+01  0.78022647299E+01 -0.44265052451E+02  0.46142318035E+02  0.10000002496E+02 0.  0.
         12    1    3    3    0    0  0.29737619748E+01 -0.78022647299E+01  0.44265052451E+02  0.45045681965E+02  0.00000000000E+00 0. -1.
         11    1    4    4    0    0 -0.49362415201E+00 -0.26239744691E+00 -0.20942707947E+02  0.20950167866E+02  0.51100000000E-03 0. -1.
        -11    1    4    4    0    0 -0.36344521355E+01  0.47305911640E+01 -0.15610011450E+02  0.16711079942E+02  0.51100000000E-03 0.  1.
         12    1    4    4    0    0  0.11543143126E+01  0.33340710128E+01 -0.77123330544E+01  0.84810702269E+01  0.00000000000E+00 0. -1.
</event>
<event>
 8    1  0.8828843E-009  0.9118800E+02  0.7816164E-02  0.1184000E+00
        -11   -1    0    0    0    0  0.00000000000E+00  0.00000000000E+00  0.45593999997E+02  0.45594000000E+02  0.51100000000E-03 0.  1.
         11   -1    0    0    0    0 -0.00000000000E+00 -0.00000000000E+00 -0.45593999997E+02  0.45594000000E+02  0.51100000000E-03 0. -1.
         23    2    1    2    0    0  0.00000000000E+00  0.17763568394E-14  0.00000000000E+00  0.91188000000E+02  0.91188000000E+02 0.  0.
    9900012    2    3    3    0    0 -0.42085816451E+02  0.91310138135E+01  0.13210674834E+02  0.46142319972E+02  0.10000020158E+02 0.  0.
        -12    1    3    3    0    0  0.42085816451E+02 -0.91310138135E+01 -0.13210674834E+02  0.45045680028E+02  0.00000000000E+00 0.  1.
         11    1    4    4    0    0 -0.15483260824E+02  0.39244119598E+01  0.26738543301E+01  0.16195118778E+02  0.51100000000E-03 0. -1.
        -11    1    4    4    0    0 -0.22322664608E+02  0.21846894177E+01  0.10356486983E+02  0.24704878991E+02  0.51100000000E-03 0.  1.
        -12    1    4    4    0    0 -0.42798910189E+01  0.30219124360E+01  0.18033352116E+00  0.52423222033E+01  0.00000000000E+00 0.  1.
</event>
<event>
 8    1  0.8828843E-009  0.9118800E+02  0.7816164E-02  0.1184000E+00
        -11   -1    0    0    0    0  0.00000000000E+00  0.00000000000E+00  0.45593999997E+02  0.45594000000E+02  0.51100000000E-03 0.  1.
         11   -1    0    0    0    0 -0.00000000000E+00 -0.00000000000E+00 -0.45593999997E+02  0.45594000000E+02  0.51100000000E-03 0. -1.
         23    2    1    2    0    0  0.00000000000E+00 -0.35527136788E-14  0.00000000000E+00  0.91188000000E+02  0.91188000000E+02 0.  0.
    9900012    2    3    3    0    0 -0.38013415769E+02 -0.16952425466E+02 -0.17225246379E+02  0.46142316296E+02  0.99999866358E+01 0.  0.
        -12    1    3    3    0    0  0.38013415769E+02  0.16952425466E+02  0.17225246379E+02  0.45045683704E+02  0.00000000000E+00 0.  1.
         11    1    4    4    0    0 -0.28261965362E+02 -0.12913866167E+02 -0.11312213334E+02  0.33067700196E+02  0.51100000000E-03 0. -1.
        -11    1    4    4    0    0 -0.63788177600E+01 -0.17303709905E+01 -0.60853194718E+01  0.89841311831E+01  0.51100000000E-03 0.  1.
        -12    1    4    4    0    0 -0.33726326472E+01 -0.23081883085E+01  0.17228642644E+00  0.40904849166E+01  0.00000000000E+00 0.  1.
</event>
<event>
 8    1  0.8828843E-009  0.9118800E+02  0.7816164E-02  0.1184000E+00
        -11   -1    0    0    0    0  0.00000000000E+00  0.00000000000E+00  0.45593999997E+02  0.45594000000E+02  0.51100000000E-03 0. -1.
         11   -1    0    0    0    0 -0.00000000000E+00 -0.00000000000E+00 -0.45593999997E+02  0.45594000000E+02  0.51100000000E-03 0.  1.
         23    2    1    2    0    0  0.00000000000E+00  0.00000000000E+00  0.71054273576E-14  0.91188000000E+02  0.91188000000E+02 0.  0.
    9900012    2    3    3    0    0 -0.15046687405E+02 -0.27550619628E+01  0.42368860564E+02  0.46142317479E+02  0.99999974298E+01 0.  0.
        -12    1    3    3    0    0  0.15046687405E+02  0.27550619628E+01 -0.42368860564E+02  0.45045682521E+02  0.00000000000E+00 0.  1.
         11    1    4    4    0    0 -0.77864846708E+01 -0.24430824344E+01  0.31475526648E+02  0.32516253987E+02  0.51100000000E-03 0. -1.
        -11    1    4    4    0    0 -0.18052565074E-01 -0.90474122419E+00  0.96736881316E+00  0.13246453335E+01  0.51100000000E-03 0.  1.
        -12    1    4    4    0    0 -0.72421501690E+01  0.59276169577E+00  0.99259651027E+01  0.12301418159E+02  0.00000000000E+00 0.  1.
</event>
<event>
 8    1  0.8828843E-009  0.9118800E+02  0.7816164E-02  0.1184000E+00
        -11   -1    0    0    0    0  0.00000000000E+00  0.00000000000E+00  0.45593999997E+02  0.45594000000E+02  0.51100000000E-03 0. -1.
         11   -1    0    0    0    0 -0.00000000000E+00 -0.00000000000E+00 -0.45593999997E+02  0.45594000000E+02  0.51100000000E-03 0.  1.
         23    2    1    2    0    0 -0.14210854715E-13  0.00000000000E+00  0.00000000000E+00  0.91188000000E+02  0.91188000000E+02 0.  0.
    9900012    2    3    3    0    0 -0.38786624129E+02  0.17094880978E+02  0.15247183286E+02  0.46142314689E+02  0.99999719856E+01 0.  0.
        -12    1    3    3    0    0  0.38786624129E+02 -0.17094880978E+02 -0.15247183286E+02  0.45045685311E+02  0.00000000000E+00 0.  1.
         11    1    4    4    0    0 -0.45234205391E+01  0.29231122706E+01  0.28466625873E+00  0.53932322275E+01  0.51100000000E-03 0. -1.
        -11    1    4    4    0    0 -0.71181995541E+01  0.25549216296E+01  0.66610036651E+01  0.10077964056E+02  0.51100000000E-03 0.  1.
         12    1    4    4    0    0 -0.27145004036E+02  0.11616847078E+02  0.83015133620E+01  0.30671118405E+02  0.00000000000E+00 0. -1.
</event>
<event>
 8    1  0.8828843E-009  0.9118800E+02  0.7816164E-02  0.1184000E+00
        -11   -1    0    0    0    0  0.00000000000E+00  0.00000000000E+00  0.45593999997E+02  0.45594000000E+02  0.51100000000E-03 0. -1.
         11   -1    0    0    0    0 -0.00000000000E+00 -0.00000000000E+00 -0.45593999997E+02  0.45594000000E+02  0.51100000000E-03 0.  1.
         23    2    1    2    0    0 -0.88817841970E-15  0.00000000000E+00  0.00000000000E+00  0.91188000000E+02  0.91188000000E+02 0.  0.
    9900012    2    3    3    0    0  0.74131676547E+01 -0.36686292287E+02  0.25065399722E+02  0.46142319190E+02  0.10000013031E+02 0.  0.
        -12    1    3    3    0    0 -0.74131676547E+01  0.36686292287E+02 -0.25065399722E+02  0.45045680810E+02  0.00000000000E+00 0.  1.
         11    1    4    4    0    0  0.30407318119E+01 -0.19278568085E+02  0.15593595468E+02  0.24981382212E+02  0.51100000000E-03 0. -1.
        -11    1    4    4    0    0  0.36809838706E+01 -0.16912618420E+02  0.72202993092E+01  0.18754173574E+02  0.51100000000E-03 0.  1.
         12    1    4    4    0    0  0.69145197213E+00 -0.49510578148E+00  0.22515049446E+01  0.24067634035E+01  0.00000000000E+00 0. -1.
</event>
<event>
 8    1  0.8828843E-009  0.9118800E+02  0.7816164E-02  0.1184000E+00
        -11   -1    0    0    0    0  0.00000000000E+00  0.00000000000E+00  0.45593999997E+02  0.45594000000E+02  0.51100000000E-03 0. -1.
         11   -1    0    0    0    0 -0.00000000000E+00 -0.00000000000E+00 -0.45593999997E+02  0.45594000000E+02  0.51100000000E-03 0.  1.
         23    2    1    2    0    0  0.35527136788E-14  0.35527136788E-14  0.00000000000E+00  0.91188000000E+02  0.91188000000E+02 0.  0.
    9900012    2    3    3    0    0  0.16755655342E+02  0.26930438453E+02 -0.31986137375E+02  0.46142317795E+02  0.10000000306E+02 0.  0.
         12    1    3    3    0    0 -0.16755655342E+02 -0.26930438453E+02  0.31986137375E+02  0.45045682205E+02  0.00000000000E+00 0. -1.
         11    1    4    4    0    0  0.19915664407E+01  0.89892948697E+01 -0.57625873040E+01  0.10861913820E+02  0.51100000000E-03 0. -1.
        -11    1    4    4    0    0  0.93835086477E+01  0.14296766989E+02 -0.18806717696E+02  0.25419292115E+02  0.51100000000E-03 0.  1.
         12    1    4    4    0    0  0.53805802537E+01  0.36443765942E+01 -0.74168323744E+01  0.98611118590E+01  0.00000000000E+00 0. -1.
</event>
<event>
 8    1  0.8828843E-009  0.9118800E+02  0.7816164E-02  0.1184000E+00
        -11   -1    0    0    0    0  0.00000000000E+00  0.00000000000E+00  0.45593999997E+02  0.45594000000E+02  0.51100000000E-03 0. -1.
         11   -1    0    0    0    0 -0.00000000000E+00 -0.00000000000E+00 -0.45593999997E+02  0.45594000000E+02  0.51100000000E-03 0.  1.
         23    2    1    2    0    0  0.17763568394E-14 -0.71054273576E-14  0.35527136788E-14  0.91188000000E+02  0.91188000000E+02 0.  0.
    9900012    2    3    3    0    0 -0.99627017503E+01  0.32944758628E+02 -0.29060292681E+02  0.46142321430E+02  0.10000033451E+02 0.  0.
         12    1    3    3    0    0  0.99627017503E+01 -0.32944758628E+02  0.29060292681E+02  0.45045678570E+02  0.00000000000E+00 0. -1.
         11    1    4    4    0    0  0.39290466160E+00  0.10324405574E+02 -0.11226373224E+02  0.15257102627E+02  0.51100000000E-03 0. -1.
        -11    1    4    4    0    0 -0.53503319463E+01  0.15931405318E+02 -0.12867016862E+02  0.21165912466E+02  0.51100000000E-03 0.  1.
         12    1    4    4    0    0 -0.50052744656E+01  0.66889477357E+01 -0.49669025951E+01  0.97193063372E+01  0.00000000000E+00 0. -1.
</event>
<event>
 8    1  0.8828843E-009  0.9118800E+02  0.7816164E-02  0.1184000E+00
        -11   -1    0    0    0    0  0.00000000000E+00  0.00000000000E+00  0.45593999997E+02  0.45594000000E+02  0.51100000000E-03 0. -1.
         11   -1    0    0    0    0 -0.00000000000E+00 -0.00000000000E+00 -0.45593999997E+02  0.45594000000E+02  0.51100000000E-03 0.  1.
         23    2    1    2    0    0  0.17763568394E-14  0.00000000000E+00 -0.71054273576E-14  0.91188000000E+02  0.91188000000E+02 0.  0.
    9900012    2    3    3    0    0  0.13962069222E+02 -0.45879000610E+01  0.42580808761E+02  0.46142317869E+02  0.10000000980E+02 0.  0.
        -12    1    3    3    0    0 -0.13962069222E+02  0.45879000610E+01 -0.42580808761E+02  0.45045682131E+02  0.00000000000E+00 0.  1.
         11    1    4    4    0    0 -0.10544493266E+00  0.10838627876E+01  0.11247385732E+01  0.15655396180E+01  0.51100000000E-03 0. -1.
        -11    1    4    4    0    0  0.47016858807E+00 -0.70736915423E+00  0.89886725825E+01  0.90287133456E+01  0.51100000000E-03 0.  1.
         12    1    4    4    0    0  0.13597345567E+02 -0.49643936944E+01  0.32467397605E+02  0.35548064905E+02  0.00000000000E+00 0. -1.
</event>
<event>
 8    1  0.8828843E-009  0.9118800E+02  0.7816164E-02  0.1184000E+00
        -11   -1    0    0    0    0  0.00000000000E+00  0.00000000000E+00  0.45593999997E+02  0.45594000000E+02  0.51100000000E-03 0. -1.
         11   -1    0    0    0    0 -0.00000000000E+00 -0.00000000000E+00 -0.45593999997E+02  0.45594000000E+02  0.51100000000E-03 0.  1.
         23    2    1    2    0    0  0.00000000000E+00  0.00000000000E+00 -0.35527136788E-14  0.91188000000E+02  0.91188000000E+02 0.  0.
    9900012    2    3    3    0    0  0.34198292290E+02 -0.66566799269E+01 -0.28553091994E+02  0.46142316015E+02  0.99999840795E+01 0.  0.
         12    1    3    3    0    0 -0.34198292290E+02  0.66566799269E+01  0.28553091994E+02  0.45045683985E+02  0.00000000000E+00 0. -1.
         11    1    4    4    0    0  0.74383293242E+01 -0.23204607285E+01 -0.36353765763E+01  0.85982116885E+01  0.51100000000E-03 0. -1.
        -11    1    4    4    0    0  0.93015580156E+01  0.67147222028E+00 -0.49730132467E+01  0.10568856015E+02  0.51100000000E-03 0.  1.
        -12    1    4    4    0    0  0.17458404951E+02 -0.50076914187E+01 -0.19944702171E+02  0.26975248311E+02  0.00000000000E+00 0.  1.
</event>
<event>
 8    1  0.8828843E-009  0.9118800E+02  0.7816164E-02  0.1184000E+00
        -11   -1    0    0    0    0  0.00000000000E+00  0.00000000000E+00  0.45593999997E+02  0.45594000000E+02  0.51100000000E-03 0. -1.
         11   -1    0    0    0    0 -0.00000000000E+00 -0.00000000000E+00 -0.45593999997E+02  0.45594000000E+02  0.51100000000E-03 0.  1.
         23    2    1    2    0    0  0.00000000000E+00  0.17763568394E-14 -0.71054273576E-14  0.91188000000E+02  0.91188000000E+02 0.  0.
    9900012    2    3    3    0    0 -0.91225345418E+01 -0.14520010941E+02  0.41654076341E+02  0.46142318409E+02  0.10000005908E+02 0.  0.
        -12    1    3    3    0    0  0.91225345418E+01  0.14520010941E+02 -0.41654076341E+02  0.45045681591E+02  0.00000000000E+00 0.  1.
         11    1    4    4    0    0 -0.25876866198E+01 -0.10904974000E+02  0.19636184720E+02  0.22609607042E+02  0.51100000000E-03 0. -1.
        -11    1    4    4    0    0 -0.30605992528E+01 -0.31127143046E+01  0.83624231011E+01  0.94332591670E+01  0.51100000000E-03 0.  1.
         12    1    4    4    0    0 -0.34742486692E+01 -0.50232263656E+00  0.13655468520E+02  0.14099452200E+02  0.00000000000E+00 0. -1.
</event>
<event>
 8    1  0.8828843E-009  0.9118800E+02  0.7816164E-02  0.1184000E+00
        -11   -1    0    0    0    0  0.00000000000E+00  0.00000000000E+00  0.45593999997E+02  0.45594000000E+02  0.51100000000E-03 0. -1.
         11   -1    0    0    0    0 -0.00000000000E+00 -0.00000000000E+00 -0.45593999997E+02  0.45594000000E+02  0.51100000000E-03 0.  1.
         23    2    1    2    0    0 -0.71054273576E-14  0.35527136788E-14  0.35527136788E-14  0.91188000000E+02  0.91188000000E+02 0.  0.
    9900012    2    3    3    0    0 -0.31956742371E+02  0.17088067039E+02  0.26755899241E+02  0.46142316941E+02  0.99999925204E+01 0.  0.
        -12    1    3    3    0    0  0.31956742371E+02 -0.17088067039E+02 -0.26755899241E+02  0.45045683059E+02  0.00000000000E+00 0.  1.
         11    1    4    4    0    0 -0.37334496322E+01  0.47357600898E+01  0.61231348784E+01  0.85941172196E+01  0.51100000000E-03 0. -1.
        -11    1    4    4    0    0 -0.45970389618E+00  0.13620783828E+01  0.44634772007E+00  0.15052613532E+01  0.51100000000E-03 0.  1.
         12    1    4    4    0    0 -0.27763588842E+02  0.10990228567E+02  0.20186416642E+02  0.36042938368E+02  0.00000000000E+00 0. -1.
</event>
<event>
 8    1  0.8828843E-009  0.9118800E+02  0.7816164E-02  0.1184000E+00
        -11   -1    0    0    0    0  0.00000000000E+00  0.00000000000E+00  0.45593999997E+02  0.45594000000E+02  0.51100000000E-03 0. -1.
         11   -1    0    0    0    0 -0.00000000000E+00 -0.00000000000E+00 -0.45593999997E+02  0.45594000000E+02  0.51100000000E-03 0.  1.
         23    2    1    2    0    0  0.00000000000E+00 -0.44408920985E-15  0.00000000000E+00  0.91188000000E+02  0.91188000000E+02 0.  0.
    9900012    2    3    3    0    0 -0.32351828579E+02 -0.20252468427E+01 -0.31278922099E+02  0.46142318687E+02  0.10000008447E+02 0.  0.
         12    1    3    3    0    0  0.32351828579E+02  0.20252468427E+01  0.31278922099E+02  0.45045681313E+02  0.00000000000E+00 0. -1.
         11    1    4    4    0    0 -0.90077732265E+01 -0.43845148508E+01 -0.91625431445E+01  0.13576308265E+02  0.51100000000E-03 0. -1.
        -11    1    4    4    0    0 -0.14387503289E+02  0.25387886538E+01 -0.16279467311E+02  0.21873882941E+02  0.51100000000E-03 0.  1.
         12    1    4    4    0    0 -0.89565520644E+01 -0.17952064572E+00 -0.58369116440E+01  0.10692127482E+02  0.00000000000E+00 0. -1.
</event>
<event>
 8    1  0.8828843E-009  0.9118800E+02  0.7816164E-02  0.1184000E+00
        -11   -1    0    0    0    0  0.00000000000E+00  0.00000000000E+00  0.45593999997E+02  0.45594000000E+02  0.51100000000E-03 0. -1.
         11   -1    0    0    0    0 -0.00000000000E+00 -0.00000000000E+00 -0.45593999997E+02  0.45594000000E+02  0.51100000000E-03 0.  1.
         23    2    1    2    0    0  0.35527136788E-14 -0.35527136788E-14 -0.71054273576E-14  0.91188000000E+02  0.91188000000E+02 0.  0.
    9900012    2    3    3    0    0 -0.24413044615E+02  0.14658952687E+02  0.34903178379E+02  0.46142317607E+02  0.99999985985E+01 0.  0.
        -12    1    3    3    0    0  0.24413044615E+02 -0.14658952687E+02 -0.34903178379E+02  0.45045682393E+02  0.00000000000E+00 0.  1.
         11    1    4    4    0    0 -0.12003432519E+02  0.42334926040E+01  0.20369985176E+02  0.24019599252E+02  0.51100000000E-03 0. -1.
        -11    1    4    4    0    0 -0.17739735888E+01  0.11621002807E+01  0.39719852349E+01  0.45026799047E+01  0.51100000000E-03 0.  1.
        -12    1    4    4    0    0 -0.10635638507E+02  0.92633598018E+01  0.10561207968E+02  0.17620038451E+02  0.00000000000E+00 0.  1.
</event>
<event>
 8    1  0.8828843E-009  0.9118800E+02  0.7816164E-02  0.1184000E+00
        -11   -1    0    0    0    0  0.00000000000E+00  0.00000000000E+00  0.45593999997E+02  0.45594000000E+02  0.51100000000E-03 0. -1.
         11   -1    0    0    0    0 -0.00000000000E+00 -0.00000000000E+00 -0.45593999997E+02  0.45594000000E+02  0.51100000000E-03 0.  1.
         23    2    1    2    0    0  0.00000000000E+00  0.00000000000E+00  0.00000000000E+00  0.91188000000E+02  0.91188000000E+02 0.  0.
    9900012    2    3    3    0    0  0.10849945049E+02  0.25857356732E+01 -0.43642939054E+02  0.46142318011E+02  0.10000002281E+02 0.  0.
         12    1    3    3    0    0 -0.10849945049E+02 -0.25857356732E+01  0.43642939054E+02  0.45045681989E+02  0.00000000000E+00 0. -1.
         11    1    4    4    0    0  0.53856844567E+00  0.17750025304E+01 -0.12954498240E+02  0.13086623509E+02  0.51100000000E-03 0. -1.
        -11    1    4    4    0    0  0.69713558962E+01 -0.15467918346E+01 -0.25320750483E+02  0.26308416396E+02  0.51100000000E-03 0.  1.
         12    1    4    4    0    0  0.33400207070E+01  0.23575249775E+01 -0.53676903310E+01  0.67472781054E+01  0.00000000000E+00 0. -1.
</event>
<event>
 8    1  0.8828843E-009  0.9118800E+02  0.7816164E-02  0.1184000E+00
        -11   -1    0    0    0    0  0.00000000000E+00  0.00000000000E+00  0.45593999997E+02  0.45594000000E+02  0.51100000000E-03 0. -1.
         11   -1    0    0    0    0 -0.00000000000E+00 -0.00000000000E+00 -0.45593999997E+02  0.45594000000E+02  0.51100000000E-03 0.  1.
         23    2    1    2    0    0 -0.35527136788E-14  0.00000000000E+00  0.00000000000E+00  0.91188000000E+02  0.91188000000E+02 0.  0.
    9900012    2    3    3    0    0  0.30962439496E+02 -0.92166796047E+01 -0.31392571642E+02  0.46142318777E+02  0.10000009268E+02 0.  0.
         12    1    3    3    0    0 -0.30962439496E+02  0.92166796047E+01  0.31392571642E+02  0.45045681223E+02  0.00000000000E+00 0. -1.
         11    1    4    4    0    0  0.17409028196E+02 -0.65379610798E+01 -0.18277682339E+02  0.26074755411E+02  0.51100000000E-03 0. -1.
        -11    1    4    4    0    0  0.10061442520E+02 -0.16209450469E+01 -0.54001176856E+01  0.11533488618E+02  0.51100000000E-03 0.  1.
         12    1    4    4    0    0  0.34919687803E+01 -0.10577734780E+01 -0.77147716178E+01  0.85340747482E+01  0.00000000000E+00 0. -1.
</event>
<event>
 8    1  0.8828843E-009  0.9118800E+02  0.7816164E-02  0.1184000E+00
        -11   -1    0    0    0    0  0.00000000000E+00  0.00000000000E+00  0.45593999997E+02  0.45594000000E+02  0.51100000000E-03 0. -1.
         11   -1    0    0    0    0 -0.00000000000E+00 -0.00000000000E+00 -0.45593999997E+02  0.45594000000E+02  0.51100000000E-03 0.  1.
         23    2    1    2    0    0  0.17763568394E-14 -0.35527136788E-14  0.00000000000E+00  0.91188000000E+02  0.91188000000E+02 0.  0.
    9900012    2    3    3    0    0 -0.13847152186E+02  0.22051382771E+02 -0.36757397396E+02  0.46142319085E+02  0.10000012074E+02 0.  0.
         12    1    3    3    0    0  0.13847152186E+02 -0.22051382771E+02  0.36757397396E+02  0.45045680915E+02  0.00000000000E+00 0. -1.
         11    1    4    4    0    0 -0.44969887899E+01  0.87916516465E+01 -0.16407626533E+02  0.19150098056E+02  0.51100000000E-03 0. -1.
        -11    1    4    4    0    0 -0.80078651698E+00 -0.47332071102E+00  0.79676106551E-01  0.93361666884E+00  0.51100000000E-03 0.  1.
        -12    1    4    4    0    0 -0.85493768791E+01  0.13733051836E+02 -0.20429446970E+02  0.26058604361E+02  0.00000000000E+00 0.  1.
</event>
<event>
 8    1  0.8828843E-009  0.9118800E+02  0.7816164E-02  0.1184000E+00
        -11   -1    0    0    0    0  0.00000000000E+00  0.00000000000E+00  0.45593999997E+02  0.45594000000E+02  0.51100000000E-03 0.  1.
         11   -1    0    0    0    0 -0.00000000000E+00 -0.00000000000E+00 -0.45593999997E+02  0.45594000000E+02  0.51100000000E-03 0. -1.
         23    2    1    2    0    0  0.00000000000E+00  0.35527136788E-14  0.71054273576E-14  0.91188000000E+02  0.91188000000E+02 0.  0.
    9900012    2    3    3    0    0 -0.12094913648E+02  0.21835665743E+02  0.37497081166E+02  0.46142308413E+02  0.99999147545E+01 0.  0.
        -12    1    3    3    0    0  0.12094913648E+02 -0.21835665743E+02 -0.37497081166E+02  0.45045691587E+02  0.00000000000E+00 0.  1.
         11    1    4    4    0    0 -0.25064768091E+01  0.15378247432E+01  0.99624459899E+01  0.10387379905E+02  0.51100000000E-03 0. -1.
        -11    1    4    4    0    0 -0.52558432568E+01  0.67649324502E+01  0.11297049814E+02  0.14177853651E+02  0.51100000000E-03 0.  1.
        -12    1    4    4    0    0 -0.43325935821E+01  0.13532908549E+02  0.16237585362E+02  0.21577074856E+02  0.00000000000E+00 0.  1.
</event>
<event>
 8    1  0.8828843E-009  0.9118800E+02  0.7816164E-02  0.1184000E+00
        -11   -1    0    0    0    0  0.00000000000E+00  0.00000000000E+00  0.45593999997E+02  0.45594000000E+02  0.51100000000E-03 0. -1.
         11   -1    0    0    0    0 -0.00000000000E+00 -0.00000000000E+00 -0.45593999997E+02  0.45594000000E+02  0.51100000000E-03 0.  1.
         23    2    1    2    0    0  0.88817841970E-15  0.00000000000E+00  0.00000000000E+00  0.91188000000E+02  0.91188000000E+02 0.  0.
    9900012    2    3    3    0    0 -0.79316504810E+01  0.18687313347E+02 -0.40211775328E+02  0.46142316139E+02  0.99999852067E+01 0.  0.
         12    1    3    3    0    0  0.79316504810E+01 -0.18687313347E+02  0.40211775328E+02  0.45045683861E+02  0.00000000000E+00 0. -1.
         11    1    4    4    0    0 -0.10001198045E+01  0.11837935470E+01 -0.94192848134E+01  0.95459171085E+01  0.51100000000E-03 0. -1.
        -11    1    4    4    0    0 -0.68160394156E+01  0.91052517039E+01 -0.18067926899E+02  0.21349800575E+02  0.51100000000E-03 0.  1.
         12    1    4    4    0    0 -0.11549126102E+00  0.83982680963E+01 -0.12724563616E+02  0.15246598455E+02  0.00000000000E+00 0. -1.
</event>
<event>
 8    1  0.8828843E-009  0.9118800E+02  0.7816164E-02  0.1184000E+00
        -11   -1    0    0    0    0  0.00000000000E+00  0.00000000000E+00  0.45593999997E+02  0.45594000000E+02  0.51100000000E-03 0. -1.
         11   -1    0    0    0    0 -0.00000000000E+00 -0.00000000000E+00 -0.45593999997E+02  0.45594000000E+02  0.51100000000E-03 0.  1.
         23    2    1    2    0    0  0.71054273576E-14 -0.17763568394E-14 -0.35527136788E-14  0.91188000000E+02  0.91188000000E+02 0.  0.
    9900012    2    3    3    0    0  0.32894570326E+02  0.14489506693E+02 -0.27149862209E+02  0.46142316754E+02  0.99999908135E+01 0.  0.
         12    1    3    3    0    0 -0.32894570326E+02 -0.14489506693E+02  0.27149862209E+02  0.45045683246E+02  0.00000000000E+00 0. -1.
         11    1    4    4    0    0  0.10201048325E+02  0.50463061836E-01 -0.76755616240E+01  0.12766290767E+02  0.51100000000E-03 0. -1.
        -11    1    4    4    0    0  0.10209846364E+02  0.58601627765E+01 -0.10470443511E+02  0.15754766203E+02  0.51100000000E-03 0.  1.
         12    1    4    4    0    0  0.12483675638E+02  0.85788808547E+01 -0.90038570744E+01  0.17621259784E+02  0.00000000000E+00 0. -1.
</event>
<event>
 8    1  0.8828843E-009  0.9118800E+02  0.7816164E-02  0.1184000E+00
        -11   -1    0    0    0    0  0.00000000000E+00  0.00000000000E+00  0.45593999997E+02  0.45594000000E+02  0.51100000000E-03 0. -1.
         11   -1    0    0    0    0 -0.00000000000E+00 -0.00000000000E+00 -0.45593999997E+02  0.45594000000E+02  0.51100000000E-03 0.  1.
         23    2    1    2    0    0  0.00000000000E+00  0.00000000000E+00  0.00000000000E+00  0.91188000000E+02  0.91188000000E+02 0.  0.
    9900012    2    3    3    0    0 -0.31424765539E+01 -0.35475851565E+02  0.27580830371E+02  0.46142318663E+02  0.10000008227E+02 0.  0.
        -12    1    3    3    0    0  0.31424765539E+01  0.35475851565E+02 -0.27580830371E+02  0.45045681337E+02  0.00000000000E+00 0.  1.
         11    1    4    4    0    0  0.43517893967E+00 -0.15405124044E+02  0.84818543763E+01  0.17591164869E+02  0.51100000000E-03 0. -1.
        -11    1    4    4    0    0 -0.38752169081E+01 -0.17097182917E+02  0.13221797271E+02  0.21957843544E+02  0.51100000000E-03 0.  1.
        -12    1    4    4    0    0  0.29756141456E+00 -0.29735446040E+01  0.58771787236E+01  0.65933102503E+01  0.00000000000E+00 0.  1.
</event>
<event>
 8    1  0.8828843E-009  0.9118800E+02  0.7816164E-02  0.1184000E+00
        -11   -1    0    0    0    0  0.00000000000E+00  0.00000000000E+00  0.45593999997E+02  0.45594000000E+02  0.51100000000E-03 0. -1.
         11   -1    0    0    0    0 -0.00000000000E+00 -0.00000000000E+00 -0.45593999997E+02  0.45594000000E+02  0.51100000000E-03 0.  1.
         23    2    1    2    0    0  0.00000000000E+00  0.35527136788E-14  0.00000000000E+00  0.91188000000E+02  0.91188000000E+02 0.  0.
    9900012    2    3    3    0    0 -0.32782201586E+02 -0.22338444060E+02  0.21340918998E+02  0.46142315995E+02  0.99999838960E+01 0.  0.
        -12    1    3    3    0    0  0.32782201586E+02  0.22338444060E+02 -0.21340918998E+02  0.45045684005E+02  0.00000000000E+00 0.  1.
         11    1    4    4    0    0 -0.11415050371E+02 -0.73168761155E+01  0.54637457231E+01  0.14618227274E+02  0.51100000000E-03 0.  1.
        -11    1    4    4    0    0 -0.68698494181E+01 -0.18169455189E+01  0.16444531962E+01  0.72938569099E+01  0.51100000000E-03 0. -1.
        -12    1    4    4    0    0 -0.14497301797E+02 -0.13204622425E+02  0.14232720078E+02  0.24230231811E+02  0.00000000000E+00 0.  1.
</event>
<event>
 8    1  0.8828843E-009  0.9118800E+02  0.7816164E-02  0.1184000E+00
        -11   -1    0    0    0    0  0.00000000000E+00  0.00000000000E+00  0.45593999997E+02  0.45594000000E+02  0.51100000000E-03 0. -1.
         11   -1    0    0    0    0 -0.00000000000E+00 -0.00000000000E+00 -0.45593999997E+02  0.45594000000E+02  0.51100000000E-03 0.  1.
         23    2    1    2    0    0  0.00000000000E+00 -0.88817841970E-15  0.00000000000E+00  0.91188000000E+02  0.91188000000E+02 0.  0.
    9900012    2    3    3    0    0  0.14148677223E+02 -0.72496646838E+01 -0.42147013945E+02  0.46142317747E+02  0.99999998701E+01 0.  0.
         12    1    3    3    0    0 -0.14148677223E+02  0.72496646838E+01  0.42147013945E+02  0.45045682253E+02  0.00000000000E+00 0. -1.
         11    1    4    4    0    0  0.37437733652E+01 -0.31567784839E+01 -0.24628364295E+02  0.25110504127E+02  0.51100000000E-03 0. -1.
        -11    1    4    4    0    0  0.59062172295E+01 -0.38126160384E+01 -0.92965891021E+01  0.11655299748E+02  0.51100000000E-03 0.  1.
         12    1    4    4    0    0  0.44986866280E+01 -0.28027016141E+00 -0.82220605482E+01  0.93765138724E+01  0.00000000000E+00 0. -1.
</event>
<event>
 8    1  0.8828843E-009  0.9118800E+02  0.7816164E-02  0.1184000E+00
        -11   -1    0    0    0    0  0.00000000000E+00  0.00000000000E+00  0.45593999997E+02  0.45594000000E+02  0.51100000000E-03 0. -1.
         11   -1    0    0    0    0 -0.00000000000E+00 -0.00000000000E+00 -0.45593999997E+02  0.45594000000E+02  0.51100000000E-03 0.  1.
         23    2    1    2    0    0  0.35527136788E-14  0.00000000000E+00  0.00000000000E+00  0.91188000000E+02  0.91188000000E+02 0.  0.
    9900012    2    3    3    0    0  0.17415147418E+02  0.14003555256E+02 -0.39111719282E+02  0.46142317581E+02  0.99999983573E+01 0.  0.
         12    1    3    3    0    0 -0.17415147418E+02 -0.14003555256E+02  0.39111719282E+02  0.45045682419E+02  0.00000000000E+00 0. -1.
         11    1    4    4    0    0 -0.41051019142E+00  0.87689918376E+00  0.67054867808E-02  0.96825410942E+00  0.51100000000E-03 0. -1.
        -11    1    4    4    0    0  0.34131749805E+01  0.46824599263E+01 -0.11962242237E+02  0.13291743076E+02  0.51100000000E-03 0.  1.
         12    1    4    4    0    0  0.14412482629E+02  0.84441961455E+01 -0.27156182532E+02  0.31882320395E+02  0.00000000000E+00 0. -1.
</event>
<event>
 8    1  0.8828843E-009  0.9118800E+02  0.7816164E-02  0.1184000E+00
        -11   -1    0    0    0    0  0.00000000000E+00  0.00000000000E+00  0.45593999997E+02  0.45594000000E+02  0.51100000000E-03 0. -1.
         11   -1    0    0    0    0 -0.00000000000E+00 -0.00000000000E+00 -0.45593999997E+02  0.45594000000E+02  0.51100000000E-03 0.  1.
         23    2    1    2    0    0 -0.71054273576E-14 -0.35527136788E-14  0.35527136788E-14  0.91188000000E+02  0.91188000000E+02 0.  0.
    9900012    2    3    3    0    0 -0.40290437173E+02 -0.16672103211E+02  0.11306420475E+02  0.46142317665E+02  0.99999991218E+01 0.  0.
        -12    1    3    3    0    0  0.40290437173E+02  0.16672103211E+02 -0.11306420475E+02  0.45045682335E+02  0.00000000000E+00 0.  1.
         11    1    4    4    0    0 -0.15951398812E+02 -0.29878883035E+01  0.68497624461E+01  0.17615159562E+02  0.51100000000E-03 0. -1.
        -11    1    4    4    0    0 -0.12124318279E+02 -0.57419492679E+01  0.37978267791E+01  0.13942473369E+02  0.51100000000E-03 0.  1.
        -12    1    4    4    0    0 -0.12214720082E+02 -0.79422656396E+01  0.65883124977E+00  0.14584684734E+02  0.00000000000E+00 0.  1.
</event>
<event>
 8    1  0.8828843E-009  0.9118800E+02  0.7816164E-02  0.1184000E+00
        -11   -1    0    0    0    0  0.00000000000E+00  0.00000000000E+00  0.45593999997E+02  0.45594000000E+02  0.51100000000E-03 0. -1.
         11   -1    0    0    0    0 -0.00000000000E+00 -0.00000000000E+00 -0.45593999997E+02  0.45594000000E+02  0.51100000000E-03 0.  1.
         23    2    1    2    0    0  0.00000000000E+00  0.35527136788E-14  0.00000000000E+00  0.91188000000E+02  0.91188000000E+02 0.  0.
    9900012    2    3    3    0    0 -0.57067471585E+01  0.26093101258E+02  0.36272532294E+02  0.46142317683E+02  0.99999992861E+01 0.  0.
        -12    1    3    3    0    0  0.57067471585E+01 -0.26093101258E+02 -0.36272532294E+02  0.45045682317E+02  0.00000000000E+00 0.  1.
         11    1    4    4    0    0 -0.21452551373E+01  0.16219368643E+01  0.51906341911E+01  0.58459800173E+01  0.51100000000E-03 0. -1.
        -11    1    4    4    0    0 -0.14952552256E+01  0.36622324805E+01  0.18810867106E+01  0.43802080321E+01  0.51100000000E-03 0.  1.
        -12    1    4    4    0    0 -0.20662367956E+01  0.20808931913E+02  0.29200811393E+02  0.35916129633E+02  0.00000000000E+00 0.  1.
</event>
<event>
 8    1  0.8828843E-009  0.9118800E+02  0.7816164E-02  0.1184000E+00
        -11   -1    0    0    0    0  0.00000000000E+00  0.00000000000E+00  0.45593999997E+02  0.45594000000E+02  0.51100000000E-03 0. -1.
         11   -1    0    0    0    0 -0.00000000000E+00 -0.00000000000E+00 -0.45593999997E+02  0.45594000000E+02  0.51100000000E-03 0.  1.
         23    2    1    2    0    0  0.00000000000E+00  0.00000000000E+00  0.00000000000E+00  0.91188000000E+02  0.91188000000E+02 0.  0.
    9900012    2    3    3    0    0  0.43219145884E+01 -0.53625739505E+01 -0.44516034360E+02  0.46142318073E+02  0.10000002847E+02 0.  0.
         12    1    3    3    0    0 -0.43219145884E+01  0.53625739505E+01  0.44516034360E+02  0.45045681927E+02  0.00000000000E+00 0. -1.
         11    1    4    4    0    0 -0.70598843705E+00  0.11473864731E+00 -0.12933027138E+00  0.72685019821E+00  0.51100000000E-03 0. -1.
        -11    1    4    4    0    0 -0.97707281687E+00 -0.50383129292E+00 -0.14044245753E+02  0.14087205411E+02  0.51100000000E-03 0.  1.
         12    1    4    4    0    0  0.60049758423E+01 -0.49734813049E+01 -0.30342458336E+02  0.31328262464E+02  0.00000000000E+00 0. -1.
</event>
<event>
 8    1  0.8828843E-009  0.9118800E+02  0.7816164E-02  0.1184000E+00
        -11   -1    0    0    0    0  0.00000000000E+00  0.00000000000E+00  0.45593999997E+02  0.45594000000E+02  0.51100000000E-03 0.  1.
         11   -1    0    0    0    0 -0.00000000000E+00 -0.00000000000E+00 -0.45593999997E+02  0.45594000000E+02  0.51100000000E-03 0. -1.
         23    2    1    2    0    0 -0.22204460493E-15  0.71054273576E-14  0.44408920985E-15  0.91188000000E+02  0.91188000000E+02 0.  0.
    9900012    2    3    3    0    0 -0.17228563872E+01  0.44887929624E+02  0.33494630881E+01  0.46142319152E+02  0.10000012683E+02 0.  0.
         12    1    3    3    0    0  0.17228563872E+01 -0.44887929624E+02 -0.33494630881E+01  0.45045680848E+02  0.00000000000E+00 0. -1.
         11    1    4    4    0    0 -0.30962291306E+01  0.16884927420E+02  0.17730505105E+01  0.17257784249E+02  0.51100000000E-03 0. -1.
        -11    1    4    4    0    0 -0.20709992795E+01  0.20270970946E+02  0.10377050921E+01  0.20402895217E+02  0.51100000000E-03 0.  1.
        -12    1    4    4    0    0  0.34443720230E+01  0.77320312579E+01  0.53870748539E+00  0.84816396859E+01  0.00000000000E+00 0.  1.
</event>
<event>
 8    1  0.8828843E-009  0.9118800E+02  0.7816164E-02  0.1184000E+00
        -11   -1    0    0    0    0  0.00000000000E+00  0.00000000000E+00  0.45593999997E+02  0.45594000000E+02  0.51100000000E-03 0. -1.
         11   -1    0    0    0    0 -0.00000000000E+00 -0.00000000000E+00 -0.45593999997E+02  0.45594000000E+02  0.51100000000E-03 0.  1.
         23    2    1    2    0    0 -0.44408920985E-15  0.00000000000E+00  0.00000000000E+00  0.91188000000E+02  0.91188000000E+02 0.  0.
    9900012    2    3    3    0    0 -0.18537343983E+01 -0.34935288728E+02 -0.28376094101E+02  0.46142318229E+02  0.10000004269E+02 0.  0.
         12    1    3    3    0    0  0.18537343983E+01  0.34935288728E+02  0.28376094101E+02  0.45045681771E+02  0.00000000000E+00 0. -1.
         11    1    4    4    0    0  0.17140835106E+01 -0.52678823734E+01 -0.31469077464E+01  0.63711612448E+01  0.51100000000E-03 0. -1.
        -11    1    4    4    0    0  0.21088403421E+01 -0.11882998729E+02 -0.94767360447E+01  0.15344751308E+02  0.51100000000E-03 0.  1.
         12    1    4    4    0    0 -0.56766582511E+01 -0.17784407626E+02 -0.15752450310E+02  0.24426405677E+02  0.00000000000E+00 0. -1.
</event>
<event>
 8    1  0.8828843E-009  0.9118800E+02  0.7816164E-02  0.1184000E+00
        -11   -1    0    0    0    0  0.00000000000E+00  0.00000000000E+00  0.45593999997E+02  0.45594000000E+02  0.51100000000E-03 0. -1.
         11   -1    0    0    0    0 -0.00000000000E+00 -0.00000000000E+00 -0.45593999997E+02  0.45594000000E+02  0.51100000000E-03 0.  1.
         23    2    1    2    0    0  0.00000000000E+00  0.00000000000E+00  0.00000000000E+00  0.91188000000E+02  0.91188000000E+02 0.  0.
    9900012    2    3    3    0    0  0.22099271197E+02 -0.16589890095E+02 -0.35574025263E+02  0.46142317474E+02  0.99999973842E+01 0.  0.
         12    1    3    3    0    0 -0.22099271197E+02  0.16589890095E+02  0.35574025263E+02  0.45045682526E+02  0.00000000000E+00 0. -1.
         11    1    4    4    0    0 -0.74061217542E+00 -0.34086810601E+00 -0.25642598532E+00  0.85466485077E+00  0.51100000000E-03 0. -1.
        -11    1    4    4    0    0  0.16479244384E+02 -0.13904940374E+02 -0.26409903565E+02  0.34093927155E+02  0.51100000000E-03 0.  1.
        -12    1    4    4    0    0  0.63606389883E+01 -0.23440816154E+01 -0.89076957128E+01  0.11193725469E+02  0.00000000000E+00 0.  1.
</event>
<event>
 8    1  0.8828843E-009  0.9118800E+02  0.7816164E-02  0.1184000E+00
        -11   -1    0    0    0    0  0.00000000000E+00  0.00000000000E+00  0.45593999997E+02  0.45594000000E+02  0.51100000000E-03 0. -1.
         11   -1    0    0    0    0 -0.00000000000E+00 -0.00000000000E+00 -0.45593999997E+02  0.45594000000E+02  0.51100000000E-03 0.  1.
         23    2    1    2    0    0  0.00000000000E+00  0.17763568394E-14 -0.35527136788E-14  0.91188000000E+02  0.91188000000E+02 0.  0.
    9900012    2    3    3    0    0 -0.35347299456E+02 -0.91070586202E+01  0.26395899306E+02  0.46142316570E+02  0.99999891380E+01 0.  0.
        -12    1    3    3    0    0  0.35347299456E+02  0.91070586202E+01 -0.26395899306E+02  0.45045683430E+02  0.00000000000E+00 0.  1.
         11    1    4    4    0    0 -0.65741338369E+01 -0.39598230230E+01  0.81282361929E+01  0.11178893413E+02  0.51100000000E-03 0.  1.
        -11    1    4    4    0    0 -0.15246473036E+02  0.24171451364E+00  0.95755745437E+01  0.18005693378E+02  0.51100000000E-03 0. -1.
        -12    1    4    4    0    0 -0.13526692583E+02 -0.53889501109E+01  0.86920885690E+01  0.16957729778E+02  0.00000000000E+00 0.  1.
</event>
<event>
 8    1  0.8828843E-009  0.9118800E+02  0.7816164E-02  0.1184000E+00
        -11   -1    0    0    0    0  0.00000000000E+00  0.00000000000E+00  0.45593999997E+02  0.45594000000E+02  0.51100000000E-03 0. -1.
         11   -1    0    0    0    0 -0.00000000000E+00 -0.00000000000E+00 -0.45593999997E+02  0.45594000000E+02  0.51100000000E-03 0.  1.
         23    2    1    2    0    0  0.11102230246E-15  0.00000000000E+00  0.71054273576E-14  0.91188000000E+02  0.91188000000E+02 0.  0.
    9900012    2    3    3    0    0 -0.85999842827E+00 -0.27193711785E+02  0.35900919166E+02  0.46142317022E+02  0.99999932638E+01 0.  0.
        -12    1    3    3    0    0  0.85999842827E+00  0.27193711785E+02 -0.35900919166E+02  0.45045682978E+02  0.00000000000E+00 0.  1.
         11    1    4    4    0    0  0.13798761354E+01 -0.19769824043E+02  0.21925802835E+02  0.29554878295E+02  0.51100000000E-03 0. -1.
        -11    1    4    4    0    0 -0.18596098971E+01 -0.42139959336E+01  0.39959291158E+01  0.60978160400E+01  0.51100000000E-03 0.  1.
        -12    1    4    4    0    0 -0.38026466655E+00 -0.32098918087E+01  0.99791872151E+01  0.10489622687E+02  0.00000000000E+00 0.  1.
</event>
<event>
 8    1  0.8828843E-009  0.9118800E+02  0.7816164E-02  0.1184000E+00
        -11   -1    0    0    0    0  0.00000000000E+00  0.00000000000E+00  0.45593999997E+02  0.45594000000E+02  0.51100000000E-03 0. -1.
         11   -1    0    0    0    0 -0.00000000000E+00 -0.00000000000E+00 -0.45593999997E+02  0.45594000000E+02  0.51100000000E-03 0.  1.
         23    2    1    2    0    0  0.00000000000E+00  0.00000000000E+00  0.00000000000E+00  0.91188000000E+02  0.91188000000E+02 0.  0.
    9900012    2    3    3    0    0  0.27564568162E+02 -0.19380493999E+02  0.29894891423E+02  0.46142317646E+02  0.99999989468E+01 0.  0.
        -12    1    3    3    0    0 -0.27564568162E+02  0.19380493999E+02 -0.29894891423E+02  0.45045682354E+02  0.00000000000E+00 0.  1.
         11    1    4    4    0    0  0.14923148834E+01 -0.29894125199E+01  0.62946068402E+00  0.33999723438E+01  0.51100000000E-03 0. -1.
        -11    1    4    4    0    0  0.19015396425E+00 -0.10237459904E+01  0.79035911900E+00  0.13072422045E+01  0.51100000000E-03 0.  1.
         12    1    4    4    0    0  0.25882099314E+02 -0.15367335488E+02  0.28475071620E+02  0.41435103097E+02  0.00000000000E+00 0. -1.
</event>
<event>
 8    1  0.8828843E-009  0.9118800E+02  0.7816164E-02  0.1184000E+00
        -11   -1    0    0    0    0  0.00000000000E+00  0.00000000000E+00  0.45593999997E+02  0.45594000000E+02  0.51100000000E-03 0. -1.
         11   -1    0    0    0    0 -0.00000000000E+00 -0.00000000000E+00 -0.45593999997E+02  0.45594000000E+02  0.51100000000E-03 0.  1.
         23    2    1    2    0    0  0.71054273576E-14 -0.71054273576E-14 -0.35527136788E-14  0.91188000000E+02  0.91188000000E+02 0.  0.
    9900012    2    3    3    0    0  0.25423582245E+02 -0.33194327935E+02 -0.16759820016E+02  0.46142317541E+02  0.99999979915E+01 0.  0.
         12    1    3    3    0    0 -0.25423582245E+02  0.33194327935E+02  0.16759820016E+02  0.45045682459E+02  0.00000000000E+00 0. -1.
         11    1    4    4    0    0  0.39293476692E+01 -0.53594664090E+01 -0.40569126295E+00  0.66579455507E+01  0.51100000000E-03 0. -1.
        -11    1    4    4    0    0  0.17819159835E+02 -0.21680110310E+02 -0.96686501774E+01  0.29682190566E+02  0.51100000000E-03 0.  1.
        -12    1    4    4    0    0  0.36750747408E+01 -0.61547512161E+01 -0.66854785760E+01  0.98021814242E+01  0.00000000000E+00 0.  1.
</event>
<event>
 8    1  0.8828843E-009  0.9118800E+02  0.7816164E-02  0.1184000E+00
        -11   -1    0    0    0    0  0.00000000000E+00  0.00000000000E+00  0.45593999997E+02  0.45594000000E+02  0.51100000000E-03 0. -1.
         11   -1    0    0    0    0 -0.00000000000E+00 -0.00000000000E+00 -0.45593999997E+02  0.45594000000E+02  0.51100000000E-03 0.  1.
         23    2    1    2    0    0 -0.35527136788E-14  0.00000000000E+00  0.00000000000E+00  0.91188000000E+02  0.91188000000E+02 0.  0.
    9900012    2    3    3    0    0 -0.19793865482E+02  0.33478712744E+02 -0.22726464342E+02  0.46142317641E+02  0.99999989069E+01 0.  0.
         12    1    3    3    0    0  0.19793865482E+02 -0.33478712744E+02  0.22726464342E+02  0.45045682359E+02  0.00000000000E+00 0. -1.
         11    1    4    4    0    0 -0.28081908453E+01  0.58860110439E+01 -0.20627036581E+01  0.68400152393E+01  0.51100000000E-03 0. -1.
        -11    1    4    4    0    0 -0.11526317417E+02  0.24303572805E+02 -0.15129822804E+02  0.30861483804E+02  0.51100000000E-03 0.  1.
        -12    1    4    4    0    0 -0.54593572194E+01  0.32891288952E+01 -0.55339378798E+01  0.84408185975E+01  0.00000000000E+00 0.  1.
</event>
<event>
 8    1  0.8828843E-009  0.9118800E+02  0.7816164E-02  0.1184000E+00
        -11   -1    0    0    0    0  0.00000000000E+00  0.00000000000E+00  0.45593999997E+02  0.45594000000E+02  0.51100000000E-03 0.  1.
         11   -1    0    0    0    0 -0.00000000000E+00 -0.00000000000E+00 -0.45593999997E+02  0.45594000000E+02  0.51100000000E-03 0. -1.
         23    2    1    2    0    0  0.00000000000E+00  0.35527136788E-14  0.00000000000E+00  0.91188000000E+02  0.91188000000E+02 0.  0.
    9900012    2    3    3    0    0 -0.27414980353E+02 -0.24597742171E+02 -0.25932286607E+02  0.46142317007E+02  0.99999931201E+01 0.  0.
         12    1    3    3    0    0  0.27414980353E+02  0.24597742171E+02  0.25932286607E+02  0.45045682993E+02  0.00000000000E+00 0. -1.
         11    1    4    4    0    0 -0.15670610973E+02 -0.12201354997E+02 -0.14420915228E+02  0.24543917949E+02  0.51100000000E-03 0.  1.
        -11    1    4    4    0    0 -0.11914421045E+02 -0.10780910673E+02 -0.11816994542E+02  0.19945496335E+02  0.51100000000E-03 0. -1.
        -12    1    4    4    0    0  0.17005166426E+00 -0.16154765011E+01  0.30562316278E+00  0.16529027230E+01  0.00000000000E+00 0.  1.
</event>
<event>
 8    1  0.8828843E-009  0.9118800E+02  0.7816164E-02  0.1184000E+00
        -11   -1    0    0    0    0  0.00000000000E+00  0.00000000000E+00  0.45593999997E+02  0.45594000000E+02  0.51100000000E-03 0. -1.
         11   -1    0    0    0    0 -0.00000000000E+00 -0.00000000000E+00 -0.45593999997E+02  0.45594000000E+02  0.51100000000E-03 0.  1.
         23    2    1    2    0    0  0.11102230246E-15 -0.44408920985E-15  0.00000000000E+00  0.91188000000E+02  0.91188000000E+02 0.  0.
    9900012    2    3    3    0    0  0.97820941775E+00 -0.27222330008E+01 -0.44952709485E+02  0.46142317230E+02  0.99999951549E+01 0.  0.
         12    1    3    3    0    0 -0.97820941775E+00  0.27222330008E+01  0.44952709485E+02  0.45045682770E+02  0.00000000000E+00 0. -1.
         11    1    4    4    0    0  0.81544836151E+00 -0.60934275257E+01 -0.25600986690E+02  0.26328792885E+02  0.51100000000E-03 0. -1.
        -11    1    4    4    0    0 -0.41546306252E+00  0.31843446650E+00 -0.87563924406E+01  0.87720247891E+01  0.51100000000E-03 0.  1.
         12    1    4    4    0    0  0.57822411877E+00  0.30527600584E+01 -0.10595330355E+02  0.11041499555E+02  0.00000000000E+00 0. -1.
</event>
<event>
 8    1  0.8828843E-009  0.9118800E+02  0.7816164E-02  0.1184000E+00
        -11   -1    0    0    0    0  0.00000000000E+00  0.00000000000E+00  0.45593999997E+02  0.45594000000E+02  0.51100000000E-03 0. -1.
         11   -1    0    0    0    0 -0.00000000000E+00 -0.00000000000E+00 -0.45593999997E+02  0.45594000000E+02  0.51100000000E-03 0.  1.
         23    2    1    2    0    0  0.00000000000E+00 -0.17763568394E-14  0.00000000000E+00  0.91188000000E+02  0.91188000000E+02 0.  0.
    9900012    2    3    3    0    0  0.31914887277E+02  0.15728859502E+02  0.27625286220E+02  0.46142317744E+02  0.99999998448E+01 0.  0.
        -12    1    3    3    0    0 -0.31914887277E+02 -0.15728859502E+02 -0.27625286220E+02  0.45045682256E+02  0.00000000000E+00 0.  1.
         11    1    4    4    0    0  0.13412213583E+02  0.66566774810E+01  0.14581875113E+02  0.20900476319E+02  0.51100000000E-03 0. -1.
        -11    1    4    4    0    0  0.17230742058E+02  0.95821607274E+01  0.13384291630E+02  0.23829719654E+02  0.51100000000E-03 0.  1.
         12    1    4    4    0    0  0.12719316362E+01 -0.50997870616E+00 -0.34088052253E+00  0.14121217718E+01  0.00000000000E+00 0. -1.
</event>
<event>
 8    1  0.8828843E-009  0.9118800E+02  0.7816164E-02  0.1184000E+00
        -11   -1    0    0    0    0  0.00000000000E+00  0.00000000000E+00  0.45593999997E+02  0.45594000000E+02  0.51100000000E-03 0. -1.
         11   -1    0    0    0    0 -0.00000000000E+00 -0.00000000000E+00 -0.45593999997E+02  0.45594000000E+02  0.51100000000E-03 0.  1.
         23    2    1    2    0    0  0.00000000000E+00 -0.35527136788E-14  0.00000000000E+00  0.91188000000E+02  0.91188000000E+02 0.  0.
    9900012    2    3    3    0    0  0.19520346711E+02  0.28530995474E+02 -0.28879956700E+02  0.46142317216E+02  0.99999950302E+01 0.  0.
         12    1    3    3    0    0 -0.19520346711E+02 -0.28530995474E+02  0.28879956700E+02  0.45045682784E+02  0.00000000000E+00 0. -1.
         11    1    4    4    0    0  0.74473476785E+01  0.13362006021E+02 -0.73996003573E+01  0.16992947892E+02  0.51100000000E-03 0. -1.
        -11    1    4    4    0    0  0.89989252724E+01  0.12758967363E+02 -0.15456400423E+02  0.21969802423E+02  0.51100000000E-03 0.  1.
         12    1    4    4    0    0  0.30740737599E+01  0.24100220904E+01 -0.60239559195E+01  0.71795669004E+01  0.00000000000E+00 0. -1.
</event>
<event>
 8    1  0.8828843E-009  0.9118800E+02  0.7816164E-02  0.1184000E+00
        -11   -1    0    0    0    0  0.00000000000E+00  0.00000000000E+00  0.45593999997E+02  0.45594000000E+02  0.51100000000E-03 0. -1.
         11   -1    0    0    0    0 -0.00000000000E+00 -0.00000000000E+00 -0.45593999997E+02  0.45594000000E+02  0.51100000000E-03 0.  1.
         23    2    1    2    0    0  0.00000000000E+00  0.00000000000E+00 -0.35527136788E-14  0.91188000000E+02  0.91188000000E+02 0.  0.
    9900012    2    3    3    0    0 -0.34926721179E+02  0.50135863752E+01 -0.28001815334E+02  0.46142316936E+02  0.99999924778E+01 0.  0.
         12    1    3    3    0    0  0.34926721179E+02 -0.50135863752E+01  0.28001815334E+02  0.45045683064E+02  0.00000000000E+00 0. -1.
         11    1    4    4    0    0 -0.35038126317E+01 -0.11815910691E+01 -0.38730827385E+00  0.37179118296E+01  0.51100000000E-03 0. -1.
        -11    1    4    4    0    0 -0.14460677368E+02  0.41626755886E+01 -0.14382411978E+02  0.20815687175E+02  0.51100000000E-03 0.  1.
         12    1    4    4    0    0 -0.16962231180E+02  0.20325018557E+01 -0.13232095082E+02  0.21608717932E+02  0.00000000000E+00 0. -1.
</event>
<event>
 8    1  0.1006783E-008  0.9118800E+02  0.7816164E-02  0.1184000E+00
        -11   -1    0    0    0    0  0.00000000000E+00  0.00000000000E+00  0.45593999997E+02  0.45594000000E+02  0.51100000000E-03 0. -1.
         11   -1    0    0    0    0 -0.00000000000E+00 -0.00000000000E+00 -0.45593999997E+02  0.45594000000E+02  0.51100000000E-03 0.  1.
         23    2    1    2    0    0  0.35527136788E-14  0.00000000000E+00  0.00000000000E+00  0.91188000000E+02  0.91188000000E+02 0.  0.
    9900012    2    3    3    0    0  0.18256957350E+02 -0.12007425285E+02  0.39390590322E+02  0.46142319191E+02  0.10000013035E+02 0.  0.
        -12    1    3    3    0    0 -0.18256957350E+02  0.12007425285E+02 -0.39390590322E+02  0.45045680809E+02  0.00000000000E+00 0.  1.
         11    1    4    4    0    0  0.10802735583E+02 -0.93146444732E+01  0.17993851002E+02  0.22961715351E+02  0.51100000000E-03 0. -1.
        -11    1    4    4    0    0  0.19759807228E+01 -0.21276223575E+01  0.40696372290E+01  0.49993223691E+01  0.51100000000E-03 0.  1.
        -12    1    4    4    0    0  0.54782410451E+01 -0.56515845410E+00  0.17327102091E+02  0.18181281470E+02  0.00000000000E+00 0.  1.
</event>
<event>
 8    1  0.8828843E-009  0.9118800E+02  0.7816164E-02  0.1184000E+00
        -11   -1    0    0    0    0  0.00000000000E+00  0.00000000000E+00  0.45593999997E+02  0.45594000000E+02  0.51100000000E-03 0. -1.
         11   -1    0    0    0    0 -0.00000000000E+00 -0.00000000000E+00 -0.45593999997E+02  0.45594000000E+02  0.51100000000E-03 0.  1.
         23    2    1    2    0    0  0.17763568394E-14 -0.17763568394E-14  0.00000000000E+00  0.91188000000E+02  0.91188000000E+02 0.  0.
    9900012    2    3    3    0    0 -0.14667628504E+02  0.14375983223E+02 -0.40091211448E+02  0.46142318133E+02  0.10000003387E+02 0.  0.
         12    1    3    3    0    0  0.14667628504E+02 -0.14375983223E+02  0.40091211448E+02  0.45045681867E+02  0.00000000000E+00 0. -1.
         11    1    4    4    0    0 -0.28471394868E+01  0.10544770044E+01 -0.57742761505E+01  0.65238324882E+01  0.51100000000E-03 0. -1.
        -11    1    4    4    0    0 -0.22633260323E+01 -0.79010993030E+00 -0.21725048116E+01  0.32352273255E+01  0.51100000000E-03 0.  1.
        -12    1    4    4    0    0 -0.95571629844E+01  0.14111616149E+02 -0.32144430486E+02  0.36383258319E+02  0.00000000000E+00 0.  1.
</event>
<event>
 8    1  0.8828843E-009  0.9118800E+02  0.7816164E-02  0.1184000E+00
        -11   -1    0    0    0    0  0.00000000000E+00  0.00000000000E+00  0.45593999997E+02  0.45594000000E+02  0.51100000000E-03 0. -1.
         11   -1    0    0    0    0 -0.00000000000E+00 -0.00000000000E+00 -0.45593999997E+02  0.45594000000E+02  0.51100000000E-03 0.  1.
         23    2    1    2    0    0  0.00000000000E+00 -0.88817841970E-15 -0.71054273576E-14  0.91188000000E+02  0.91188000000E+02 0.  0.
    9900012    2    3    3    0    0 -0.24221620793E+02  0.64087683268E+01  0.37434665688E+02  0.46142318515E+02  0.10000006872E+02 0.  0.
        -12    1    3    3    0    0  0.24221620793E+02 -0.64087683268E+01 -0.37434665688E+02  0.45045681485E+02  0.00000000000E+00 0.  1.
         11    1    4    4    0    0 -0.16273853008E+02  0.72589759937E+01  0.23918683937E+02  0.29826740783E+02  0.51100000000E-03 0. -1.
        -11    1    4    4    0    0 -0.67172147259E+00  0.50681335884E+00  0.48346864794E+01  0.49073682491E+01  0.51100000000E-03 0.  1.
        -12    1    4    4    0    0 -0.72760463127E+01 -0.13570210258E+01  0.86812952713E+01  0.11408209483E+02  0.00000000000E+00 0.  1.
</event>
<event>
 8    1  0.8828843E-009  0.9118800E+02  0.7816164E-02  0.1184000E+00
        -11   -1    0    0    0    0  0.00000000000E+00  0.00000000000E+00  0.45593999997E+02  0.45594000000E+02  0.51100000000E-03 0.  1.
         11   -1    0    0    0    0 -0.00000000000E+00 -0.00000000000E+00 -0.45593999997E+02  0.45594000000E+02  0.51100000000E-03 0. -1.
         23    2    1    2    0    0  0.00000000000E+00  0.00000000000E+00  0.00000000000E+00  0.91188000000E+02  0.91188000000E+02 0.  0.
    9900012    2    3    3    0    0 -0.41565342296E+02 -0.11083177184E+02  0.13364086783E+02  0.46142319717E+02  0.10000017834E+02 0.  0.
        -12    1    3    3    0    0  0.41565342296E+02  0.11083177184E+02 -0.13364086783E+02  0.45045680283E+02  0.00000000000E+00 0.  1.
         11    1    4    4    0    0 -0.76619503862E+01  0.13295919393E+01  0.23531249000E+01  0.81246843324E+01  0.51100000000E-03 0. -1.
        -11    1    4    4    0    0 -0.51059201147E+00 -0.32314407759E+00 -0.38927842571E+00  0.71879360800E+00  0.51100000000E-03 0.  1.
         12    1    4    4    0    0 -0.33392799898E+02 -0.12089625046E+02  0.11400240308E+02  0.37298841776E+02  0.00000000000E+00 0. -1.
</event>
<event>
 8    1  0.8828843E-009  0.9118800E+02  0.7816164E-02  0.1184000E+00
        -11   -1    0    0    0    0  0.00000000000E+00  0.00000000000E+00  0.45593999997E+02  0.45594000000E+02  0.51100000000E-03 0. -1.
         11   -1    0    0    0    0 -0.00000000000E+00 -0.00000000000E+00 -0.45593999997E+02  0.45594000000E+02  0.51100000000E-03 0.  1.
         23    2    1    2    0    0  0.16653345369E-15 -0.44408920985E-15  0.00000000000E+00  0.91188000000E+02  0.91188000000E+02 0.  0.
    9900012    2    3    3    0    0 -0.17318393548E+00  0.30544838309E+01 -0.44941667065E+02  0.46142319822E+02  0.10000018789E+02 0.  0.
         12    1    3    3    0    0  0.17318393548E+00 -0.30544838309E+01  0.44941667065E+02  0.45045680178E+02  0.00000000000E+00 0. -1.
         11    1    4    4    0    0 -0.32510814100E+01  0.29116322816E+01 -0.21317764857E+02  0.21759922602E+02  0.51100000000E-03 0. -1.
        -11    1    4    4    0    0  0.23269071134E+01  0.22322929611E+01 -0.18767674651E+02  0.19042668948E+02  0.51100000000E-03 0.  1.
         12    1    4    4    0    0  0.75099036111E+00 -0.20894414118E+01 -0.48562275566E+01  0.53397282719E+01  0.00000000000E+00 0. -1.
</event>
<event>
 8    1  0.8828843E-009  0.9118800E+02  0.7816164E-02  0.1184000E+00
        -11   -1    0    0    0    0  0.00000000000E+00  0.00000000000E+00  0.45593999997E+02  0.45594000000E+02  0.51100000000E-03 0. -1.
         11   -1    0    0    0    0 -0.00000000000E+00 -0.00000000000E+00 -0.45593999997E+02  0.45594000000E+02  0.51100000000E-03 0.  1.
         23    2    1    2    0    0  0.00000000000E+00  0.00000000000E+00  0.00000000000E+00  0.91188000000E+02  0.91188000000E+02 0.  0.
    9900012    2    3    3    0    0  0.12410244945E+02 -0.95347188199E+01 -0.42239654523E+02  0.46142318112E+02  0.10000003197E+02 0.  0.
         12    1    3    3    0    0 -0.12410244945E+02  0.95347188199E+01  0.42239654523E+02  0.45045681888E+02  0.00000000000E+00 0. -1.
         11    1    4    4    0    0  0.57040792866E+01 -0.64415319332E+00 -0.66871318985E+01  0.88130123757E+01  0.51100000000E-03 0. -1.
        -11    1    4    4    0    0  0.41507571783E+01 -0.45707325265E+01 -0.16204486159E+02  0.17340869440E+02  0.51100000000E-03 0.  1.
         12    1    4    4    0    0  0.25554084798E+01 -0.43198331001E+01 -0.19348036465E+02  0.19988436296E+02  0.00000000000E+00 0. -1.
</event>
<event>
 8    1  0.8828843E-009  0.9118800E+02  0.7816164E-02  0.1184000E+00
        -11   -1    0    0    0    0  0.00000000000E+00  0.00000000000E+00  0.45593999997E+02  0.45594000000E+02  0.51100000000E-03 0. -1.
         11   -1    0    0    0    0 -0.00000000000E+00 -0.00000000000E+00 -0.45593999997E+02  0.45594000000E+02  0.51100000000E-03 0.  1.
         23    2    1    2    0    0  0.00000000000E+00  0.00000000000E+00  0.00000000000E+00  0.91188000000E+02  0.91188000000E+02 0.  0.
    9900012    2    3    3    0    0  0.33487303680E+02  0.14596504184E+02  0.26356304649E+02  0.46142331653E+02  0.10000126673E+02 0.  0.
        -12    1    3    3    0    0 -0.33487303680E+02 -0.14596504184E+02 -0.26356304649E+02  0.45045668347E+02  0.00000000000E+00 0.  1.
         11    1    4    4    0    0  0.19056071561E+01  0.10969058563E+01  0.39018957799E+00  0.22331120122E+01  0.51100000000E-03 0.  1.
        -11    1    4    4    0    0  0.23441712647E+02  0.64916830262E+01  0.15096834657E+02  0.28628137509E+02  0.51100000000E-03 0. -1.
         12    1    4    4    0    0  0.81399838770E+01  0.70079153012E+01  0.10869280414E+02  0.15281082131E+02  0.00000000000E+00 0. -1.
</event>
<event>
 8    1  0.8828843E-009  0.9118800E+02  0.7816164E-02  0.1184000E+00
        -11   -1    0    0    0    0  0.00000000000E+00  0.00000000000E+00  0.45593999997E+02  0.45594000000E+02  0.51100000000E-03 0.  1.
         11   -1    0    0    0    0 -0.00000000000E+00 -0.00000000000E+00 -0.45593999997E+02  0.45594000000E+02  0.51100000000E-03 0. -1.
         23    2    1    2    0    0  0.00000000000E+00 -0.71054273576E-14  0.00000000000E+00  0.91188000000E+02  0.91188000000E+02 0.  0.
    9900012    2    3    3    0    0  0.17495642445E+02 -0.36973908736E+02 -0.18866532057E+02  0.46142318036E+02  0.10000002503E+02 0.  0.
         12    1    3    3    0    0 -0.17495642445E+02  0.36973908736E+02  0.18866532057E+02  0.45045681964E+02  0.00000000000E+00 0. -1.
         11    1    4    4    0    0  0.16769467947E+01 -0.32809351447E+00 -0.12952286778E+01  0.21441579922E+01  0.51100000000E-03 0. -1.
        -11    1    4    4    0    0  0.15518544778E+02 -0.31106578920E+02 -0.14588487567E+02  0.37699714241E+02  0.51100000000E-03 0.  1.
         12    1    4    4    0    0  0.30015087223E+00 -0.55392363012E+01 -0.29828158129E+01  0.62984458020E+01  0.00000000000E+00 0. -1.
</event>
<event>
 8    1  0.8828843E-009  0.9118800E+02  0.7816164E-02  0.1184000E+00
        -11   -1    0    0    0    0  0.00000000000E+00  0.00000000000E+00  0.45593999997E+02  0.45594000000E+02  0.51100000000E-03 0. -1.
         11   -1    0    0    0    0 -0.00000000000E+00 -0.00000000000E+00 -0.45593999997E+02  0.45594000000E+02  0.51100000000E-03 0.  1.
         23    2    1    2    0    0  0.00000000000E+00  0.00000000000E+00  0.00000000000E+00  0.91188000000E+02  0.91188000000E+02 0.  0.
    9900012    2    3    3    0    0 -0.10475574209E+02  0.27403329002E+02  0.34182355067E+02  0.46142317706E+02  0.99999994944E+01 0.  0.
        -12    1    3    3    0    0  0.10475574209E+02 -0.27403329002E+02 -0.34182355067E+02  0.45045682294E+02  0.00000000000E+00 0.  1.
         11    1    4    4    0    0 -0.12624465467E+01  0.58916217405E+01  0.30954388978E+01  0.67739737412E+01  0.51100000000E-03 0.  1.
        -11    1    4    4    0    0 -0.70763445245E+01  0.17099870147E+02  0.20013491268E+02  0.27258394008E+02  0.51100000000E-03 0. -1.
         12    1    4    4    0    0 -0.21367831378E+01  0.44118371144E+01  0.11073424902E+02  0.12109949957E+02  0.00000000000E+00 0. -1.
</event>
<event>
 8    1  0.8828843E-009  0.9118800E+02  0.7816164E-02  0.1184000E+00
        -11   -1    0    0    0    0  0.00000000000E+00  0.00000000000E+00  0.45593999997E+02  0.45594000000E+02  0.51100000000E-03 0. -1.
         11   -1    0    0    0    0 -0.00000000000E+00 -0.00000000000E+00 -0.45593999997E+02  0.45594000000E+02  0.51100000000E-03 0.  1.
         23    2    1    2    0    0  0.88817841970E-15 -0.35527136788E-14  0.71054273576E-14  0.91188000000E+02  0.91188000000E+02 0.  0.
    9900012    2    3    3    0    0 -0.32097110312E+01  0.28206846790E+02 -0.34974063082E+02  0.46142317197E+02  0.99999948562E+01 0.  0.
         12    1    3    3    0    0  0.32097110312E+01 -0.28206846790E+02  0.34974063082E+02  0.45045682803E+02  0.00000000000E+00 0. -1.
         11    1    4    4    0    0 -0.55342063359E+01  0.11671367017E+02 -0.14455885367E+02  0.19386099912E+02  0.51100000000E-03 0. -1.
        -11    1    4    4    0    0 -0.53563818687E+00  0.39567928189E+01 -0.70818586579E+01  0.81299348085E+01  0.51100000000E-03 0.  1.
         12    1    4    4    0    0  0.28601334915E+01  0.12578686954E+02 -0.13436319057E+02  0.18626282476E+02  0.00000000000E+00 0. -1.
</event>
<event>
 8    1  0.8828843E-009  0.9118800E+02  0.7816164E-02  0.1184000E+00
        -11   -1    0    0    0    0  0.00000000000E+00  0.00000000000E+00  0.45593999997E+02  0.45594000000E+02  0.51100000000E-03 0. -1.
         11   -1    0    0    0    0 -0.00000000000E+00 -0.00000000000E+00 -0.45593999997E+02  0.45594000000E+02  0.51100000000E-03 0.  1.
         23    2    1    2    0    0  0.00000000000E+00 -0.22204460493E-15  0.00000000000E+00  0.91188000000E+02  0.91188000000E+02 0.  0.
    9900012    2    3    3    0    0  0.32742791355E+02  0.18547294236E+01 -0.30880140506E+02  0.46142317803E+02  0.10000000385E+02 0.  0.
         12    1    3    3    0    0 -0.32742791355E+02 -0.18547294236E+01  0.30880140506E+02  0.45045682197E+02  0.00000000000E+00 0. -1.
         11    1    4    4    0    0  0.58299212166E+01  0.24983028937E+01 -0.72166602957E+01  0.96077929217E+01  0.51100000000E-03 0. -1.
        -11    1    4    4    0    0  0.11751100999E+02 -0.47544580974E+00 -0.15036011137E+02  0.19089160657E+02  0.51100000000E-03 0.  1.
         12    1    4    4    0    0  0.15161769139E+02 -0.16812766034E+00 -0.86274690727E+01  0.17445364225E+02  0.00000000000E+00 0. -1.
</event>
<event>
 8    1  0.8828843E-009  0.9118800E+02  0.7816164E-02  0.1184000E+00
        -11   -1    0    0    0    0  0.00000000000E+00  0.00000000000E+00  0.45593999997E+02  0.45594000000E+02  0.51100000000E-03 0. -1.
         11   -1    0    0    0    0 -0.00000000000E+00 -0.00000000000E+00 -0.45593999997E+02  0.45594000000E+02  0.51100000000E-03 0.  1.
         23    2    1    2    0    0 -0.22204460493E-15 -0.88817841970E-15  0.00000000000E+00  0.91188000000E+02  0.91188000000E+02 0.  0.
    9900012    2    3    3    0    0  0.12345479222E+01 -0.69112075291E+01 -0.44495219831E+02  0.46142317789E+02  0.10000000251E+02 0.  0.
         12    1    3    3    0    0 -0.12345479222E+01  0.69112075291E+01  0.44495219831E+02  0.45045682211E+02  0.00000000000E+00 0. -1.
         11    1    4    4    0    0  0.16375210788E+01 -0.56210054891E+00 -0.27610581484E+02  0.27664808737E+02  0.51100000000E-03 0. -1.
        -11    1    4    4    0    0  0.16749423903E+01 -0.25175524545E+01 -0.53286938696E+01  0.61268655109E+01  0.51100000000E-03 0.  1.
         12    1    4    4    0    0 -0.20779155469E+01 -0.38315545256E+01 -0.11555944477E+02  0.12350643541E+02  0.00000000000E+00 0. -1.
</event>
<event>
 8    1  0.8828843E-009  0.9118800E+02  0.7816164E-02  0.1184000E+00
        -11   -1    0    0    0    0  0.00000000000E+00  0.00000000000E+00  0.45593999997E+02  0.45594000000E+02  0.51100000000E-03 0. -1.
         11   -1    0    0    0    0 -0.00000000000E+00 -0.00000000000E+00 -0.45593999997E+02  0.45594000000E+02  0.51100000000E-03 0.  1.
         23    2    1    2    0    0  0.00000000000E+00 -0.17763568394E-14  0.00000000000E+00  0.91188000000E+02  0.91188000000E+02 0.  0.
    9900012    2    3    3    0    0 -0.24492708714E+02 -0.14915503405E+02 -0.34738286541E+02  0.46142316813E+02  0.99999913565E+01 0.  0.
         12    1    3    3    0    0  0.24492708714E+02  0.14915503405E+02  0.34738286541E+02  0.45045683187E+02  0.00000000000E+00 0. -1.
         11    1    4    4    0    0 -0.12791838404E+02 -0.63380752894E+01 -0.11395187270E+02  0.18266160552E+02  0.51100000000E-03 0. -1.
        -11    1    4    4    0    0 -0.27924877183E+01 -0.29274394914E+01 -0.32780543184E+01  0.52070653931E+01  0.51100000000E-03 0.  1.
         12    1    4    4    0    0 -0.89083825920E+01 -0.56499886245E+01 -0.20065044952E+02  0.22669090868E+02  0.00000000000E+00 0. -1.
</event>
<event>
 8    1  0.8828843E-009  0.9118800E+02  0.7816164E-02  0.1184000E+00
        -11   -1    0    0    0    0  0.00000000000E+00  0.00000000000E+00  0.45593999997E+02  0.45594000000E+02  0.51100000000E-03 0. -1.
         11   -1    0    0    0    0 -0.00000000000E+00 -0.00000000000E+00 -0.45593999997E+02  0.45594000000E+02  0.51100000000E-03 0.  1.
         23    2    1    2    0    0  0.00000000000E+00  0.00000000000E+00  0.00000000000E+00  0.91188000000E+02  0.91188000000E+02 0.  0.
    9900012    2    3    3    0    0 -0.17785961723E+02 -0.37203990519E+02 -0.18128322017E+02  0.46142318696E+02  0.10000008524E+02 0.  0.
         12    1    3    3    0    0  0.17785961723E+02  0.37203990519E+02  0.18128322017E+02  0.45045681304E+02  0.00000000000E+00 0. -1.
         11    1    4    4    0    0 -0.81466610520E+01 -0.17027463099E+02 -0.11674393080E+02  0.22194459668E+02  0.51100000000E-03 0. -1.
        -11    1    4    4    0    0 -0.16446235206E+01 -0.49018563498E+01 -0.39929300608E+01  0.65327232400E+01  0.51100000000E-03 0.  1.
         12    1    4    4    0    0 -0.79946771503E+01 -0.15274671070E+02 -0.24609988764E+01  0.17415135788E+02  0.00000000000E+00 0. -1.
</event>
<event>
 8    1  0.8828843E-009  0.9118800E+02  0.7816164E-02  0.1184000E+00
        -11   -1    0    0    0    0  0.00000000000E+00  0.00000000000E+00  0.45593999997E+02  0.45594000000E+02  0.51100000000E-03 0. -1.
         11   -1    0    0    0    0 -0.00000000000E+00 -0.00000000000E+00 -0.45593999997E+02  0.45594000000E+02  0.51100000000E-03 0.  1.
         23    2    1    2    0    0  0.35527136788E-14  0.00000000000E+00  0.71054273576E-14  0.91188000000E+02  0.91188000000E+02 0.  0.
    9900012    2    3    3    0    0 -0.21259065730E+02  0.74349778474E+01 -0.39011366559E+02  0.46142317719E+02  0.99999996201E+01 0.  0.
         12    1    3    3    0    0  0.21259065730E+02 -0.74349778474E+01  0.39011366559E+02  0.45045682281E+02  0.00000000000E+00 0. -1.
         11    1    4    4    0    0 -0.38357039991E+01 -0.17123319266E+00 -0.47840116109E+01  0.61342247537E+01  0.51100000000E-03 0. -1.
        -11    1    4    4    0    0 -0.14640545479E+02  0.24799978637E+01 -0.23524265502E+02  0.27818825083E+02  0.51100000000E-03 0.  1.
         12    1    4    4    0    0 -0.27828162517E+01  0.51262131763E+01 -0.10703089446E+02  0.12189267883E+02  0.00000000000E+00 0. -1.
</event>
<event>
 8    1  0.8828843E-009  0.9118800E+02  0.7816164E-02  0.1184000E+00
        -11   -1    0    0    0    0  0.00000000000E+00  0.00000000000E+00  0.45593999997E+02  0.45594000000E+02  0.51100000000E-03 0. -1.
         11   -1    0    0    0    0 -0.00000000000E+00 -0.00000000000E+00 -0.45593999997E+02  0.45594000000E+02  0.51100000000E-03 0.  1.
         23    2    1    2    0    0  0.00000000000E+00  0.35527136788E-14  0.00000000000E+00  0.91188000000E+02  0.91188000000E+02 0.  0.
    9900012    2    3    3    0    0  0.56814828178E+01  0.23713847262E+02 -0.37874631208E+02  0.46142317764E+02  0.10000000023E+02 0.  0.
         12    1    3    3    0    0 -0.56814828178E+01 -0.23713847262E+02  0.37874631208E+02  0.45045682236E+02  0.00000000000E+00 0. -1.
         11    1    4    4    0    0  0.42280005274E+00  0.73025892324E+01 -0.66949501512E+01  0.99160943506E+01  0.51100000000E-03 0. -1.
        -11    1    4    4    0    0 -0.15500549791E+01  0.23592671197E+01 -0.44467189604E+01  0.52670790343E+01  0.51100000000E-03 0.  1.
         12    1    4    4    0    0  0.68087377441E+01  0.14051990910E+02 -0.26732962096E+02  0.30959144379E+02  0.00000000000E+00 0. -1.
</event>
<event>
 8    1  0.8828843E-009  0.9118800E+02  0.7816164E-02  0.1184000E+00
        -11   -1    0    0    0    0  0.00000000000E+00  0.00000000000E+00  0.45593999997E+02  0.45594000000E+02  0.51100000000E-03 0. -1.
         11   -1    0    0    0    0 -0.00000000000E+00 -0.00000000000E+00 -0.45593999997E+02  0.45594000000E+02  0.51100000000E-03 0.  1.
         23    2    1    2    0    0  0.00000000000E+00  0.35527136788E-14  0.35527136788E-14  0.91188000000E+02  0.91188000000E+02 0.  0.
    9900012    2    3    3    0    0  0.30328904983E+02  0.18872282332E+02  0.27442813447E+02  0.46142317324E+02  0.99999960103E+01 0.  0.
        -12    1    3    3    0    0 -0.30328904983E+02 -0.18872282332E+02 -0.27442813447E+02  0.45045682676E+02  0.00000000000E+00 0.  1.
         11    1    4    4    0    0  0.11245295448E+02  0.56235612170E+01  0.10198391736E+02  0.16189141569E+02  0.51100000000E-03 0. -1.
        -11    1    4    4    0    0  0.10639860329E+02  0.11680014436E+02  0.98366126256E+01  0.18611510236E+02  0.51100000000E-03 0.  1.
        -12    1    4    4    0    0  0.84437492057E+01  0.15687066790E+01  0.74078090858E+01  0.11341665519E+02  0.00000000000E+00 0.  1.
</event>
<event>
 8    1  0.8828843E-009  0.9118800E+02  0.7816164E-02  0.1184000E+00
        -11   -1    0    0    0    0  0.00000000000E+00  0.00000000000E+00  0.45593999997E+02  0.45594000000E+02  0.51100000000E-03 0. -1.
         11   -1    0    0    0    0 -0.00000000000E+00 -0.00000000000E+00 -0.45593999997E+02  0.45594000000E+02  0.51100000000E-03 0.  1.
         23    2    1    2    0    0  0.00000000000E+00  0.35527136788E-14  0.00000000000E+00  0.91188000000E+02  0.91188000000E+02 0.  0.
    9900012    2    3    3    0    0 -0.11297025883E+01 -0.28562069662E+02 -0.34814440280E+02  0.46142319814E+02  0.10000018724E+02 0.  0.
         12    1    3    3    0    0  0.11297025883E+01  0.28562069662E+02  0.34814440280E+02  0.45045680186E+02  0.00000000000E+00 0. -1.
         11    1    4    4    0    0 -0.18273288466E+01 -0.29154274366E+00 -0.16497589052E+01  0.24790789805E+01  0.51100000000E-03 0. -1.
        -11    1    4    4    0    0  0.78581925617E+00 -0.44713669312E+01 -0.43088459143E+01  0.62591363231E+01  0.51100000000E-03 0.  1.
        -12    1    4    4    0    0 -0.88192997881E-01 -0.23799159988E+02 -0.28855835461E+02  0.37404104511E+02  0.00000000000E+00 0.  1.
</event>
<event>
 8    1  0.8828843E-009  0.9118800E+02  0.7816164E-02  0.1184000E+00
        -11   -1    0    0    0    0  0.00000000000E+00  0.00000000000E+00  0.45593999997E+02  0.45594000000E+02  0.51100000000E-03 0. -1.
         11   -1    0    0    0    0 -0.00000000000E+00 -0.00000000000E+00 -0.45593999997E+02  0.45594000000E+02  0.51100000000E-03 0.  1.
         23    2    1    2    0    0  0.00000000000E+00  0.00000000000E+00  0.00000000000E+00  0.91188000000E+02  0.91188000000E+02 0.  0.
    9900012    2    3    3    0    0  0.69486823616E+01 -0.54187887870E+01 -0.44175400935E+02  0.46142317562E+02  0.99999981864E+01 0.  0.
         12    1    3    3    0    0 -0.69486823616E+01  0.54187887870E+01  0.44175400935E+02  0.45045682438E+02  0.00000000000E+00 0. -1.
         11    1    4    4    0    0  0.14683984270E+01 -0.35696570586E+01 -0.51384988305E+01  0.64267266901E+01  0.51100000000E-03 0. -1.
        -11    1    4    4    0    0  0.14787556399E+01 -0.22587296561E+01 -0.85934564787E+01  0.90075564064E+01  0.51100000000E-03 0.  1.
        -12    1    4    4    0    0  0.40015282946E+01  0.40959792767E+00 -0.30443445626E+02  0.30708034466E+02  0.00000000000E+00 0.  1.
</event>
<event>
 8    1  0.8828843E-009  0.9118800E+02  0.7816164E-02  0.1184000E+00
        -11   -1    0    0    0    0  0.00000000000E+00  0.00000000000E+00  0.45593999997E+02  0.45594000000E+02  0.51100000000E-03 0.  1.
         11   -1    0    0    0    0 -0.00000000000E+00 -0.00000000000E+00 -0.45593999997E+02  0.45594000000E+02  0.51100000000E-03 0. -1.
         23    2    1    2    0    0  0.00000000000E+00  0.00000000000E+00  0.00000000000E+00  0.91188000000E+02  0.91188000000E+02 0.  0.
    9900012    2    3    3    0    0 -0.35857987561E+02 -0.24942972439E+02 -0.11007555848E+02  0.46142318390E+02  0.10000005732E+02 0.  0.
        -12    1    3    3    0    0  0.35857987561E+02  0.24942972439E+02  0.11007555848E+02  0.45045681610E+02  0.00000000000E+00 0.  1.
         11    1    4    4    0    0 -0.15066469376E+02 -0.11406232324E+02 -0.70643813275E+01  0.20174392658E+02  0.51100000000E-03 0. -1.
        -11    1    4    4    0    0 -0.12644654773E+02 -0.44944944997E+01 -0.10692713195E+01  0.13462210686E+02  0.51100000000E-03 0.  1.
        -12    1    4    4    0    0 -0.81468634116E+01 -0.90422456152E+01 -0.28739032007E+01  0.12505715046E+02  0.00000000000E+00 0.  1.
</event>
<event>
 8    1  0.8995341E-009  0.9118800E+02  0.7816164E-02  0.1184000E+00
        -11   -1    0    0    0    0  0.00000000000E+00  0.00000000000E+00  0.45593999997E+02  0.45594000000E+02  0.51100000000E-03 0. -1.
         11   -1    0    0    0    0 -0.00000000000E+00 -0.00000000000E+00 -0.45593999997E+02  0.45594000000E+02  0.51100000000E-03 0.  1.
         23    2    1    2    0    0 -0.35527136788E-14  0.00000000000E+00  0.00000000000E+00  0.91188000000E+02  0.91188000000E+02 0.  0.
    9900012    2    3    3    0    0 -0.26634566156E+02 -0.78311836289E+01  0.35473736029E+02  0.46142317640E+02  0.99999988990E+01 0.  0.
        -12    1    3    3    0    0  0.26634566156E+02  0.78311836289E+01 -0.35473736029E+02  0.45045682360E+02  0.00000000000E+00 0.  1.
         11    1    4    4    0    0 -0.68899228069E+01 -0.35178784245E+01  0.82590431275E+01  0.11316284661E+02  0.51100000000E-03 0.  1.
        -11    1    4    4    0    0 -0.11869469644E+02 -0.54710063625E+01  0.12439775846E+02  0.18043398893E+02  0.51100000000E-03 0. -1.
        -12    1    4    4    0    0 -0.78751737056E+01  0.11577011581E+01  0.14774917056E+02  0.16782634086E+02  0.00000000000E+00 0.  1.
</event>
<event>
 8    1  0.8828843E-009  0.9118800E+02  0.7816164E-02  0.1184000E+00
        -11   -1    0    0    0    0  0.00000000000E+00  0.00000000000E+00  0.45593999997E+02  0.45594000000E+02  0.51100000000E-03 0. -1.
         11   -1    0    0    0    0 -0.00000000000E+00 -0.00000000000E+00 -0.45593999997E+02  0.45594000000E+02  0.51100000000E-03 0.  1.
         23    2    1    2    0    0  0.00000000000E+00  0.35527136788E-14  0.00000000000E+00  0.91188000000E+02  0.91188000000E+02 0.  0.
    9900012    2    3    3    0    0  0.20569247206E+02  0.23073688685E+02 -0.32766209812E+02  0.46142317126E+02  0.99999942049E+01 0.  0.
         12    1    3    3    0    0 -0.20569247206E+02 -0.23073688685E+02  0.32766209812E+02  0.45045682874E+02  0.00000000000E+00 0. -1.
         11    1    4    4    0    0  0.16519165612E+01  0.70115133468E+01 -0.63082399764E+01  0.95751783064E+01  0.51100000000E-03 0. -1.
        -11    1    4    4    0    0  0.16848863419E+02  0.15523546198E+02 -0.22746432433E+02  0.32284127273E+02  0.51100000000E-03 0.  1.
        -12    1    4    4    0    0  0.20684672260E+01  0.53862914041E+00 -0.37115374027E+01  0.42830115466E+01  0.00000000000E+00 0.  1.
</event>
<event>
 8    1  0.8828843E-009  0.9118800E+02  0.7816164E-02  0.1184000E+00
        -11   -1    0    0    0    0  0.00000000000E+00  0.00000000000E+00  0.45593999997E+02  0.45594000000E+02  0.51100000000E-03 0.  1.
         11   -1    0    0    0    0 -0.00000000000E+00 -0.00000000000E+00 -0.45593999997E+02  0.45594000000E+02  0.51100000000E-03 0. -1.
         23    2    1    2    0    0  0.00000000000E+00  0.00000000000E+00  0.00000000000E+00  0.91188000000E+02  0.91188000000E+02 0.  0.
    9900012    2    3    3    0    0 -0.27381136596E+02  0.35037971642E+02  0.71921677834E+01  0.46142319014E+02  0.10000011427E+02 0.  0.
        -12    1    3    3    0    0  0.27381136596E+02 -0.35037971642E+02 -0.71921677834E+01  0.45045680986E+02  0.00000000000E+00 0.  1.
         11    1    4    4    0    0 -0.59028311040E+01  0.65357752689E+01 -0.20491155685E+00  0.88091862516E+01  0.51100000000E-03 0. -1.
        -11    1    4    4    0    0 -0.13308806330E+02  0.18557907156E+02  0.86108868096E+01  0.24406302789E+02  0.51100000000E-03 0.  1.
        -12    1    4    4    0    0 -0.81694991618E+01  0.99442892169E+01 -0.12138074694E+01  0.12926829973E+02  0.00000000000E+00 0.  1.
</event>
<event>
 8    1  0.8828843E-009  0.9118800E+02  0.7816164E-02  0.1184000E+00
        -11   -1    0    0    0    0  0.00000000000E+00  0.00000000000E+00  0.45593999997E+02  0.45594000000E+02  0.51100000000E-03 0. -1.
         11   -1    0    0    0    0 -0.00000000000E+00 -0.00000000000E+00 -0.45593999997E+02  0.45594000000E+02  0.51100000000E-03 0.  1.
         23    2    1    2    0    0  0.35527136788E-14  0.00000000000E+00  0.00000000000E+00  0.91188000000E+02  0.91188000000E+02 0.  0.
    9900012    2    3    3    0    0  0.25629510422E+02 -0.79494409334E+01  0.36180770418E+02  0.46142316925E+02  0.99999923793E+01 0.  0.
        -12    1    3    3    0    0 -0.25629510422E+02  0.79494409334E+01 -0.36180770418E+02  0.45045683075E+02  0.00000000000E+00 0.  1.
         11    1    4    4    0    0 -0.53253657686E+00 -0.13092896302E+00  0.64082816973E+00  0.84344448738E+00  0.51100000000E-03 0. -1.
        -11    1    4    4    0    0  0.12942600815E+01 -0.20699506716E+01  0.20261664898E+01  0.31725629776E+01  0.51100000000E-03 0.  1.
         12    1    4    4    0    0  0.24867786917E+02 -0.57485612988E+01  0.33513775758E+02  0.42126309460E+02  0.00000000000E+00 0. -1.
</event>
<event>
 8    1  0.8828843E-009  0.9118800E+02  0.7816164E-02  0.1184000E+00
        -11   -1    0    0    0    0  0.00000000000E+00  0.00000000000E+00  0.45593999997E+02  0.45594000000E+02  0.51100000000E-03 0.  1.
         11   -1    0    0    0    0 -0.00000000000E+00 -0.00000000000E+00 -0.45593999997E+02  0.45594000000E+02  0.51100000000E-03 0. -1.
         23    2    1    2    0    0  0.00000000000E+00  0.00000000000E+00  0.00000000000E+00  0.91188000000E+02  0.91188000000E+02 0.  0.
    9900012    2    3    3    0    0  0.26487131719E+02 -0.33012116514E+02 -0.15418996127E+02  0.46142318464E+02  0.10000006413E+02 0.  0.
         12    1    3    3    0    0 -0.26487131719E+02  0.33012116514E+02  0.15418996127E+02  0.45045681536E+02  0.00000000000E+00 0. -1.
         11    1    4    4    0    0 -0.46094278374E+00 -0.40202049651E-01 -0.42742505286E-01  0.46466292897E+00  0.51100000000E-03 0. -1.
        -11    1    4    4    0    0  0.18846183504E+02 -0.21631681308E+02 -0.74377762430E+01  0.29638299286E+02  0.51100000000E-03 0.  1.
         12    1    4    4    0    0  0.81018909988E+01 -0.11340233157E+02 -0.79384773788E+01  0.16039356250E+02  0.00000000000E+00 0. -1.
</event>
<event>
 8    1  0.8828843E-009  0.9118800E+02  0.7816164E-02  0.1184000E+00
        -11   -1    0    0    0    0  0.00000000000E+00  0.00000000000E+00  0.45593999997E+02  0.45594000000E+02  0.51100000000E-03 0. -1.
         11   -1    0    0    0    0 -0.00000000000E+00 -0.00000000000E+00 -0.45593999997E+02  0.45594000000E+02  0.51100000000E-03 0.  1.
         23    2    1    2    0    0  0.00000000000E+00 -0.88817841970E-15  0.00000000000E+00  0.91188000000E+02  0.91188000000E+02 0.  0.
    9900012    2    3    3    0    0  0.18119931531E+02  0.70017436156E+01 -0.40641814808E+02  0.46142318262E+02  0.10000004570E+02 0.  0.
         12    1    3    3    0    0 -0.18119931531E+02 -0.70017436156E+01  0.40641814808E+02  0.45045681738E+02  0.00000000000E+00 0. -1.
         11    1    4    4    0    0  0.21600753927E+01  0.26830873076E+01 -0.30034205925E+01  0.45700567523E+01  0.51100000000E-03 0. -1.
        -11    1    4    4    0    0  0.22818396717E+01  0.31514263471E+01 -0.94194923180E+01  0.10191423654E+02  0.51100000000E-03 0.  1.
        -12    1    4    4    0    0  0.13678016467E+02  0.11672299609E+01 -0.28218901897E+02  0.31380837856E+02  0.00000000000E+00 0.  1.
</event>
<event>
 8    1  0.8828843E-009  0.9118800E+02  0.7816164E-02  0.1184000E+00
        -11   -1    0    0    0    0  0.00000000000E+00  0.00000000000E+00  0.45593999997E+02  0.45594000000E+02  0.51100000000E-03 0. -1.
         11   -1    0    0    0    0 -0.00000000000E+00 -0.00000000000E+00 -0.45593999997E+02  0.45594000000E+02  0.51100000000E-03 0.  1.
         23    2    1    2    0    0 -0.35527136788E-14  0.00000000000E+00  0.35527136788E-14  0.91188000000E+02  0.91188000000E+02 0.  0.
    9900012    2    3    3    0    0 -0.13788011664E+02  0.32783192040E+02  0.27645371416E+02  0.46142317558E+02  0.99999981455E+01 0.  0.
        -12    1    3    3    0    0  0.13788011664E+02 -0.32783192040E+02 -0.27645371416E+02  0.45045682442E+02  0.00000000000E+00 0.  1.
         11    1    4    4    0    0  0.71391228219E+00  0.18505513809E+01  0.24811882208E+01  0.31765557461E+01  0.51100000000E-03 0. -1.
        -11    1    4    4    0    0 -0.15834678637E+01  0.22641836137E+01  0.11831585046E+00  0.27654831067E+01  0.51100000000E-03 0.  1.
         12    1    4    4    0    0 -0.12918456082E+02  0.28668457045E+02  0.25045867345E+02  0.40200278705E+02  0.00000000000E+00 0. -1.
</event>
<event>
 8    1  0.8828843E-009  0.9118800E+02  0.7816164E-02  0.1184000E+00
        -11   -1    0    0    0    0  0.00000000000E+00  0.00000000000E+00  0.45593999997E+02  0.45594000000E+02  0.51100000000E-03 0. -1.
         11   -1    0    0    0    0 -0.00000000000E+00 -0.00000000000E+00 -0.45593999997E+02  0.45594000000E+02  0.51100000000E-03 0.  1.
         23    2    1    2    0    0  0.00000000000E+00  0.00000000000E+00  0.71054273576E-14  0.91188000000E+02  0.91188000000E+02 0.  0.
    9900012    2    3    3    0    0  0.16735118935E+02 -0.86357324536E+01 -0.40920332207E+02  0.46142315759E+02  0.99999817468E+01 0.  0.
         12    1    3    3    0    0 -0.16735118935E+02  0.86357324536E+01  0.40920332207E+02  0.45045684241E+02  0.00000000000E+00 0. -1.
         11    1    4    4    0    0 -0.11052828235E+01 -0.70981772610E+00 -0.40897809170E+01  0.42955557888E+01  0.51100000000E-03 0. -1.
        -11    1    4    4    0    0  0.24655283915E+01 -0.25452819570E+01 -0.75488118495E+01  0.83391756841E+01  0.51100000000E-03 0.  1.
        -12    1    4    4    0    0  0.15374873367E+02 -0.53806327704E+01 -0.29281739440E+02  0.33507584286E+02  0.00000000000E+00 0.  1.
</event>
<event>
 8    1  0.8828843E-009  0.9118800E+02  0.7816164E-02  0.1184000E+00
        -11   -1    0    0    0    0  0.00000000000E+00  0.00000000000E+00  0.45593999997E+02  0.45594000000E+02  0.51100000000E-03 0. -1.
         11   -1    0    0    0    0 -0.00000000000E+00 -0.00000000000E+00 -0.45593999997E+02  0.45594000000E+02  0.51100000000E-03 0.  1.
         23    2    1    2    0    0  0.00000000000E+00  0.35527136788E-14  0.71054273576E-14  0.91188000000E+02  0.91188000000E+02 0.  0.
    9900012    2    3    3    0    0 -0.10240947462E+02 -0.16957009452E+02 -0.40456103557E+02  0.46142317748E+02  0.99999998833E+01 0.  0.
         12    1    3    3    0    0  0.10240947462E+02  0.16957009452E+02  0.40456103557E+02  0.45045682252E+02  0.00000000000E+00 0. -1.
         11    1    4    4    0    0 -0.52539995387E+01 -0.61294554805E+01 -0.72248249714E+01  0.10833874273E+02  0.51100000000E-03 0. -1.
        -11    1    4    4    0    0 -0.11568946475E+01 -0.22393679258E+01 -0.65174662435E+01  0.69878852616E+01  0.51100000000E-03 0.  1.
         12    1    4    4    0    0 -0.38300532754E+01 -0.85881860457E+01 -0.26713812343E+02  0.28320558213E+02  0.00000000000E+00 0. -1.
</event>
<event>
 8    1  0.8828843E-009  0.9118800E+02  0.7816164E-02  0.1184000E+00
        -11   -1    0    0    0    0  0.00000000000E+00  0.00000000000E+00  0.45593999997E+02  0.45594000000E+02  0.51100000000E-03 0.  1.
         11   -1    0    0    0    0 -0.00000000000E+00 -0.00000000000E+00 -0.45593999997E+02  0.45594000000E+02  0.51100000000E-03 0. -1.
         23    2    1    2    0    0 -0.88817841970E-15  0.00000000000E+00  0.00000000000E+00  0.91188000000E+02  0.91188000000E+02 0.  0.
    9900012    2    3    3    0    0  0.79869946769E+01 -0.40172282708E+02 -0.18748575794E+02  0.46142317895E+02  0.10000001225E+02 0.  0.
         12    1    3    3    0    0 -0.79869946769E+01  0.40172282708E+02  0.18748575794E+02  0.45045682105E+02  0.00000000000E+00 0. -1.
         11    1    4    4    0    0  0.58431030661E+01 -0.27368674334E+02 -0.11001496071E+02  0.30070236187E+02  0.51100000000E-03 0. -1.
        -11    1    4    4    0    0  0.97090054825E+00 -0.11506222092E+02 -0.45175696500E+01  0.12399364117E+02  0.51100000000E-03 0.  1.
         12    1    4    4    0    0  0.11729910625E+01 -0.12973862819E+01 -0.32295100727E+01  0.36727175915E+01  0.00000000000E+00 0. -1.
</event>
<event>
 8    1  0.8828843E-009  0.9118800E+02  0.7816164E-02  0.1184000E+00
        -11   -1    0    0    0    0  0.00000000000E+00  0.00000000000E+00  0.45593999997E+02  0.45594000000E+02  0.51100000000E-03 0. -1.
         11   -1    0    0    0    0 -0.00000000000E+00 -0.00000000000E+00 -0.45593999997E+02  0.45594000000E+02  0.51100000000E-03 0.  1.
         23    2    1    2    0    0 -0.88817841970E-15  0.35527136788E-14  0.00000000000E+00  0.91188000000E+02  0.91188000000E+02 0.  0.
    9900012    2    3    3    0    0 -0.76810344383E+01  0.17256732123E+02 -0.40894014070E+02  0.46142317850E+02  0.10000000808E+02 0.  0.
         12    1    3    3    0    0  0.76810344383E+01 -0.17256732123E+02  0.40894014070E+02  0.45045682150E+02  0.00000000000E+00 0. -1.
         11    1    4    4    0    0 -0.18403042842E+01  0.10899747037E+01 -0.98199067285E+01  0.10050140951E+02  0.51100000000E-03 0. -1.
        -11    1    4    4    0    0 -0.67093311995E+01  0.11759304773E+02 -0.26010803296E+02  0.29323339889E+02  0.51100000000E-03 0.  1.
         12    1    4    4    0    0  0.86860104546E+00  0.44074526466E+01 -0.50633040456E+01  0.67688370099E+01  0.00000000000E+00 0. -1.
</event>
<event>
 8    1  0.8828843E-009  0.9118800E+02  0.7816164E-02  0.1184000E+00
        -11   -1    0    0    0    0  0.00000000000E+00  0.00000000000E+00  0.45593999997E+02  0.45594000000E+02  0.51100000000E-03 0. -1.
         11   -1    0    0    0    0 -0.00000000000E+00 -0.00000000000E+00 -0.45593999997E+02  0.45594000000E+02  0.51100000000E-03 0.  1.
         23    2    1    2    0    0 -0.71054273576E-14  0.17763568394E-14  0.00000000000E+00  0.91188000000E+02  0.91188000000E+02 0.  0.
    9900012    2    3    3    0    0 -0.38807048426E+02  0.15487112205E+02  0.16830799462E+02  0.46142318048E+02  0.10000002616E+02 0.  0.
        -12    1    3    3    0    0  0.38807048426E+02 -0.15487112205E+02 -0.16830799462E+02  0.45045681952E+02  0.00000000000E+00 0.  1.
         11    1    4    4    0    0 -0.11659856997E+02  0.19487805500E+01  0.81455744383E+01  0.14356197060E+02  0.51100000000E-03 0.  1.
        -11    1    4    4    0    0 -0.42259824045E+01  0.13030175578E+01  0.24908550188E+01  0.50755434216E+01  0.51100000000E-03 0. -1.
        -12    1    4    4    0    0 -0.22921209024E+02  0.12235314097E+02  0.61943700054E+01  0.26710577567E+02  0.00000000000E+00 0.  1.
</event>
<event>
 8    1  0.8828843E-009  0.9118800E+02  0.7816164E-02  0.1184000E+00
        -11   -1    0    0    0    0  0.00000000000E+00  0.00000000000E+00  0.45593999997E+02  0.45594000000E+02  0.51100000000E-03 0.  1.
         11   -1    0    0    0    0 -0.00000000000E+00 -0.00000000000E+00 -0.45593999997E+02  0.45594000000E+02  0.51100000000E-03 0. -1.
         23    2    1    2    0    0  0.00000000000E+00 -0.12490009027E-15  0.35527136788E-14  0.91188000000E+02  0.91188000000E+02 0.  0.
    9900012    2    3    3    0    0  0.40762109623E+02  0.30414039792E-01  0.19171932401E+02  0.46142317655E+02  0.99999990303E+01 0.  0.
        -12    1    3    3    0    0 -0.40762109623E+02 -0.30414039792E-01 -0.19171932401E+02  0.45045682345E+02  0.00000000000E+00 0.  1.
         11    1    4    4    0    0  0.36318591977E+01 -0.13622833612E+01  0.81425831980E+00  0.39634876133E+01  0.51100000000E-03 0. -1.
        -11    1    4    4    0    0  0.18128929774E+02  0.21472986913E+01  0.49618025191E+01  0.18917940452E+02  0.51100000000E-03 0.  1.
         12    1    4    4    0    0  0.19001320651E+02 -0.75460129032E+00  0.13395871562E+02  0.23260889590E+02  0.00000000000E+00 0. -1.
</event>
<event>
 8    1  0.8860833E-009  0.9118800E+02  0.7816164E-02  0.1184000E+00
        -11   -1    0    0    0    0  0.00000000000E+00  0.00000000000E+00  0.45593999997E+02  0.45594000000E+02  0.51100000000E-03 0. -1.
         11   -1    0    0    0    0 -0.00000000000E+00 -0.00000000000E+00 -0.45593999997E+02  0.45594000000E+02  0.51100000000E-03 0.  1.
         23    2    1    2    0    0  0.35527136788E-14  0.88817841970E-15  0.00000000000E+00  0.91188000000E+02  0.91188000000E+02 0.  0.
    9900012    2    3    3    0    0 -0.19084309631E+02  0.67499228319E+01  0.40241039207E+02  0.46142316869E+02  0.99999918613E+01 0.  0.
        -12    1    3    3    0    0  0.19084309631E+02 -0.67499228319E+01 -0.40241039207E+02  0.45045683131E+02  0.00000000000E+00 0.  1.
         11    1    4    4    0    0 -0.10655312072E+02  0.59879249757E+01  0.25554950289E+02  0.28327484982E+02  0.51100000000E-03 0. -1.
        -11    1    4    4    0    0 -0.87531261383E+01  0.18201218859E+01  0.13506459819E+02  0.16197361451E+02  0.51100000000E-03 0.  1.
        -12    1    4    4    0    0  0.32412857995E+00 -0.10581240298E+01  0.11796290995E+01  0.16174704359E+01  0.00000000000E+00 0.  1.
</event>
<event>
 8    1  0.8828843E-009  0.9118800E+02  0.7816164E-02  0.1184000E+00
        -11   -1    0    0    0    0  0.00000000000E+00  0.00000000000E+00  0.45593999997E+02  0.45594000000E+02  0.51100000000E-03 0.  1.
         11   -1    0    0    0    0 -0.00000000000E+00 -0.00000000000E+00 -0.45593999997E+02  0.45594000000E+02  0.51100000000E-03 0. -1.
         23    2    1    2    0    0 -0.35527136788E-14  0.71054273576E-14  0.44408920985E-15  0.91188000000E+02  0.91188000000E+02 0.  0.
    9900012    2    3    3    0    0 -0.20679933748E+02  0.39977705654E+02  0.17991367127E+01  0.46142317609E+02  0.99999986095E+01 0.  0.
         12    1    3    3    0    0  0.20679933748E+02 -0.39977705654E+02 -0.17991367127E+01  0.45045682391E+02  0.00000000000E+00 0. -1.
         11    1    4    4    0    0 -0.16994813205E+02  0.25796260996E+02  0.27542273004E+01  0.31013811851E+02  0.51100000000E-03 0.  1.
        -11    1    4    4    0    0  0.61827628089E+00  0.32524552724E+01 -0.67858320105E+00  0.33795275233E+01  0.51100000000E-03 0. -1.
        -12    1    4    4    0    0 -0.43033968246E+01  0.10928989386E+02 -0.27650738661E+00  0.11748978235E+02  0.00000000000E+00 0.  1.
</event>
<event>
 8    1  0.8828843E-009  0.9118800E+02  0.7816164E-02  0.1184000E+00
        -11   -1    0    0    0    0  0.00000000000E+00  0.00000000000E+00  0.45593999997E+02  0.45594000000E+02  0.51100000000E-03 0. -1.
         11   -1    0    0    0    0 -0.00000000000E+00 -0.00000000000E+00 -0.45593999997E+02  0.45594000000E+02  0.51100000000E-03 0.  1.
         23    2    1    2    0    0  0.00000000000E+00  0.00000000000E+00  0.00000000000E+00  0.91188000000E+02  0.91188000000E+02 0.  0.
    9900012    2    3    3    0    0  0.32843179767E+02 -0.11142680282E+02 -0.28745080613E+02  0.46142318292E+02  0.10000004840E+02 0.  0.
         12    1    3    3    0    0 -0.32843179767E+02  0.11142680282E+02  0.28745080613E+02  0.45045681708E+02  0.00000000000E+00 0. -1.
         11    1    4    4    0    0  0.25870576069E+02 -0.11211410838E+02 -0.23978409359E+02  0.37012789070E+02  0.51100000000E-03 0. -1.
        -11    1    4    4    0    0  0.51762482811E+00 -0.84086692945E+00 -0.16052330696E+01  0.18846129907E+01  0.51100000000E-03 0.  1.
         12    1    4    4    0    0  0.64549788702E+01  0.90959748515E+00 -0.31614381845E+01  0.72449162310E+01  0.00000000000E+00 0. -1.
</event>
<event>
 8    1  0.8828843E-009  0.9118800E+02  0.7816164E-02  0.1184000E+00
        -11   -1    0    0    0    0  0.00000000000E+00  0.00000000000E+00  0.45593999997E+02  0.45594000000E+02  0.51100000000E-03 0. -1.
         11   -1    0    0    0    0 -0.00000000000E+00 -0.00000000000E+00 -0.45593999997E+02  0.45594000000E+02  0.51100000000E-03 0.  1.
         23    2    1    2    0    0  0.88817841970E-15  0.88817841970E-15  0.00000000000E+00  0.91188000000E+02  0.91188000000E+02 0.  0.
    9900012    2    3    3    0    0 -0.29612379227E+01 -0.63613537611E+01  0.44495816232E+02  0.46142318588E+02  0.10000007540E+02 0.  0.
        -12    1    3    3    0    0  0.29612379227E+01  0.63613537611E+01 -0.44495816232E+02  0.45045681412E+02  0.00000000000E+00 0.  1.
         11    1    4    4    0    0  0.10455014265E+01 -0.53481338197E+01  0.16287494026E+02  0.17174925632E+02  0.51100000000E-03 0. -1.
        -11    1    4    4    0    0 -0.72113316456E+00  0.51597157822E+00  0.48986636137E+00  0.10130296263E+01  0.51100000000E-03 0.  1.
         12    1    4    4    0    0 -0.32856061847E+01 -0.15291915196E+01  0.27718455845E+02  0.27954363329E+02  0.00000000000E+00 0. -1.
</event>
<event>
 8    1  0.8828843E-009  0.9118800E+02  0.7816164E-02  0.1184000E+00
        -11   -1    0    0    0    0  0.00000000000E+00  0.00000000000E+00  0.45593999997E+02  0.45594000000E+02  0.51100000000E-03 0. -1.
         11   -1    0    0    0    0 -0.00000000000E+00 -0.00000000000E+00 -0.45593999997E+02  0.45594000000E+02  0.51100000000E-03 0.  1.
         23    2    1    2    0    0  0.00000000000E+00 -0.35527136788E-14 -0.35527136788E-14  0.91188000000E+02  0.91188000000E+02 0.  0.
    9900012    2    3    3    0    0 -0.17644635870E+02 -0.30563146390E+02 -0.27994184126E+02  0.46142318330E+02  0.10000005187E+02 0.  0.
         12    1    3    3    0    0  0.17644635870E+02  0.30563146390E+02  0.27994184126E+02  0.45045681670E+02  0.00000000000E+00 0. -1.
         11    1    4    4    0    0 -0.55241297510E+00 -0.16799277769E+01 -0.20179471337E+01  0.26831750457E+01  0.51100000000E-03 0.  1.
        -11    1    4    4    0    0 -0.83296957881E+00 -0.58734876967E+01 -0.14550211127E+01  0.61080915794E+01  0.51100000000E-03 0. -1.
         12    1    4    4    0    0 -0.16259253316E+02 -0.23009730917E+02 -0.24521215880E+02  0.37351051705E+02  0.00000000000E+00 0. -1.
</event>
<event>
 8    1  0.8828843E-009  0.9118800E+02  0.7816164E-02  0.1184000E+00
        -11   -1    0    0    0    0  0.00000000000E+00  0.00000000000E+00  0.45593999997E+02  0.45594000000E+02  0.51100000000E-03 0. -1.
         11   -1    0    0    0    0 -0.00000000000E+00 -0.00000000000E+00 -0.45593999997E+02  0.45594000000E+02  0.51100000000E-03 0.  1.
         23    2    1    2    0    0 -0.17763568394E-14 -0.35527136788E-14  0.00000000000E+00  0.91188000000E+02  0.91188000000E+02 0.  0.
    9900012    2    3    3    0    0 -0.10745143801E+02 -0.29184864453E+02 -0.32586792991E+02  0.46142317567E+02  0.99999982276E+01 0.  0.
         12    1    3    3    0    0  0.10745143801E+02  0.29184864453E+02  0.32586792991E+02  0.45045682433E+02  0.00000000000E+00 0. -1.
         11    1    4    4    0    0 -0.55578574633E+01 -0.20358821670E+02 -0.17282924465E+02  0.27277662614E+02  0.51100000000E-03 0.  1.
        -11    1    4    4    0    0 -0.68582443821E+00 -0.49666164027E+01 -0.58429258717E+01  0.76991828563E+01  0.51100000000E-03 0. -1.
        -12    1    4    4    0    0 -0.45014618993E+01 -0.38594263797E+01 -0.94609426549E+01  0.11165472096E+02  0.00000000000E+00 0.  1.
</event>
<event>
 8    1  0.8828843E-009  0.9118800E+02  0.7816164E-02  0.1184000E+00
        -11   -1    0    0    0    0  0.00000000000E+00  0.00000000000E+00  0.45593999997E+02  0.45594000000E+02  0.51100000000E-03 0. -1.
         11   -1    0    0    0    0 -0.00000000000E+00 -0.00000000000E+00 -0.45593999997E+02  0.45594000000E+02  0.51100000000E-03 0.  1.
         23    2    1    2    0    0  0.00000000000E+00  0.00000000000E+00  0.00000000000E+00  0.91188000000E+02  0.91188000000E+02 0.  0.
    9900012    2    3    3    0    0  0.21787825103E+01  0.49447072604E+01  0.44720419062E+02  0.46142322025E+02  0.10000038886E+02 0.  0.
        -12    1    3    3    0    0 -0.21787825103E+01 -0.49447072604E+01 -0.44720419062E+02  0.45045677975E+02  0.00000000000E+00 0.  1.
         11    1    4    4    0    0  0.18146781901E+01  0.14402090859E+01  0.10340197213E+02  0.10596553110E+02  0.51100000000E-03 0. -1.
        -11    1    4    4    0    0 -0.75691841102E+00 -0.25982688726E+01  0.79886312941E+01  0.84345810109E+01  0.51100000000E-03 0.  1.
         12    1    4    4    0    0  0.11210227311E+01  0.61027670471E+01  0.26391590555E+02  0.27111187904E+02  0.00000000000E+00 0. -1.
</event>
<event>
 8    1  0.8828843E-009  0.9118800E+02  0.7816164E-02  0.1184000E+00
        -11   -1    0    0    0    0  0.00000000000E+00  0.00000000000E+00  0.45593999997E+02  0.45594000000E+02  0.51100000000E-03 0. -1.
         11   -1    0    0    0    0 -0.00000000000E+00 -0.00000000000E+00 -0.45593999997E+02  0.45594000000E+02  0.51100000000E-03 0.  1.
         23    2    1    2    0    0  0.17763568394E-14  0.00000000000E+00  0.00000000000E+00  0.91188000000E+02  0.91188000000E+02 0.  0.
    9900012    2    3    3    0    0 -0.13263930593E+02 -0.72043232258E+01  0.42441480852E+02  0.46142318467E+02  0.10000006434E+02 0.  0.
        -12    1    3    3    0    0  0.13263930593E+02  0.72043232258E+01 -0.42441480852E+02  0.45045681533E+02  0.00000000000E+00 0.  1.
         11    1    4    4    0    0 -0.48107474651E+01  0.64206080620E+00  0.13881895001E+02  0.14705867616E+02  0.51100000000E-03 0.  1.
        -11    1    4    4    0    0 -0.86763735784E+01 -0.83034482099E+01  0.23884734726E+02  0.26734009498E+02  0.51100000000E-03 0. -1.
         12    1    4    4    0    0  0.22319045050E+00  0.45706417799E+00  0.46748511246E+01  0.47024413528E+01  0.00000000000E+00 0. -1.
</event>
<event>
 8    1  0.8828843E-009  0.9118800E+02  0.7816164E-02  0.1184000E+00
        -11   -1    0    0    0    0  0.00000000000E+00  0.00000000000E+00  0.45593999997E+02  0.45594000000E+02  0.51100000000E-03 0. -1.
         11   -1    0    0    0    0 -0.00000000000E+00 -0.00000000000E+00 -0.45593999997E+02  0.45594000000E+02  0.51100000000E-03 0.  1.
         23    2    1    2    0    0  0.00000000000E+00  0.35527136788E-14  0.00000000000E+00  0.91188000000E+02  0.91188000000E+02 0.  0.
    9900012    2    3    3    0    0 -0.10644191833E+02 -0.22193360912E+02  0.37726244356E+02  0.46142316505E+02  0.99999885443E+01 0.  0.
        -12    1    3    3    0    0  0.10644191833E+02  0.22193360912E+02 -0.37726244356E+02  0.45045683495E+02  0.00000000000E+00 0.  1.
         11    1    4    4    0    0 -0.78400537056E+00 -0.12381810740E+01  0.23882921247E+01  0.28020878514E+01  0.51100000000E-03 0.  1.
        -11    1    4    4    0    0 -0.45096853854E+01 -0.18055178412E+02  0.29672459581E+02  0.35025442005E+02  0.51100000000E-03 0. -1.
        -12    1    4    4    0    0 -0.53505010771E+01 -0.29000014255E+01  0.56654926503E+01  0.83147866488E+01  0.00000000000E+00 0.  1.
</event>
<event>
 8    1  0.8828843E-009  0.9118800E+02  0.7816164E-02  0.1184000E+00
        -11   -1    0    0    0    0  0.00000000000E+00  0.00000000000E+00  0.45593999997E+02  0.45594000000E+02  0.51100000000E-03 0. -1.
         11   -1    0    0    0    0 -0.00000000000E+00 -0.00000000000E+00 -0.45593999997E+02  0.45594000000E+02  0.51100000000E-03 0.  1.
         23    2    1    2    0    0  0.00000000000E+00 -0.35527136788E-14  0.71054273576E-14  0.91188000000E+02  0.91188000000E+02 0.  0.
    9900012    2    3    3    0    0 -0.16442769064E+02 -0.17342370848E+02  0.38183648441E+02  0.46142317750E+02  0.99999998964E+01 0.  0.
        -12    1    3    3    0    0  0.16442769064E+02  0.17342370848E+02 -0.38183648441E+02  0.45045682250E+02  0.00000000000E+00 0.  1.
         11    1    4    4    0    0 -0.52239363005E+01 -0.10071345582E+02  0.20968718564E+02  0.23841322757E+02  0.51100000000E-03 0. -1.
        -11    1    4    4    0    0 -0.31589416166E+01 -0.14483325156E+00  0.58599326622E+01  0.66587311009E+01  0.51100000000E-03 0.  1.
         12    1    4    4    0    0 -0.80598911466E+01 -0.71261920142E+01  0.11354997215E+02  0.15642263892E+02  0.00000000000E+00 0. -1.
</event>
<event>
 8    1  0.8828843E-009  0.9118800E+02  0.7816164E-02  0.1184000E+00
        -11   -1    0    0    0    0  0.00000000000E+00  0.00000000000E+00  0.45593999997E+02  0.45594000000E+02  0.51100000000E-03 0. -1.
         11   -1    0    0    0    0 -0.00000000000E+00 -0.00000000000E+00 -0.45593999997E+02  0.45594000000E+02  0.51100000000E-03 0.  1.
         23    2    1    2    0    0  0.71054273576E-14 -0.44408920985E-15  0.00000000000E+00  0.91188000000E+02  0.91188000000E+02 0.  0.
    9900012    2    3    3    0    0  0.34911157675E+02 -0.12823898392E+01  0.28437300583E+02  0.46142317428E+02  0.99999969609E+01 0.  0.
        -12    1    3    3    0    0 -0.34911157675E+02  0.12823898392E+01 -0.28437300583E+02  0.45045682572E+02  0.00000000000E+00 0.  1.
         11    1    4    4    0    0  0.47207045630E+00 -0.16562196707E+00  0.63027719418E+00  0.80469295654E+00  0.51100000000E-03 0. -1.
        -11    1    4    4    0    0  0.35381987024E+01 -0.32900527403E+01  0.37183724751E+01  0.60966869049E+01  0.51100000000E-03 0.  1.
         12    1    4    4    0    0  0.30900888517E+02  0.21732848682E+01  0.24088650914E+02  0.39240937566E+02  0.00000000000E+00 0. -1.
</event>
<event>
 8    1  0.8828843E-009  0.9118800E+02  0.7816164E-02  0.1184000E+00
        -11   -1    0    0    0    0  0.00000000000E+00  0.00000000000E+00  0.45593999997E+02  0.45594000000E+02  0.51100000000E-03 0. -1.
         11   -1    0    0    0    0 -0.00000000000E+00 -0.00000000000E+00 -0.45593999997E+02  0.45594000000E+02  0.51100000000E-03 0.  1.
         23    2    1    2    0    0  0.00000000000E+00  0.88817841970E-15  0.00000000000E+00  0.91188000000E+02  0.91188000000E+02 0.  0.
    9900012    2    3    3    0    0 -0.13337086963E+02 -0.48271238827E+01 -0.42754347345E+02  0.46142320623E+02  0.10000026101E+02 0.  0.
         12    1    3    3    0    0  0.13337086963E+02  0.48271238827E+01  0.42754347345E+02  0.45045679377E+02  0.00000000000E+00 0. -1.
         11    1    4    4    0    0 -0.89058279408E+01 -0.24372994033E+01 -0.15872650201E+02  0.18362876255E+02  0.51100000000E-03 0. -1.
        -11    1    4    4    0    0 -0.29343971919E+01 -0.48738113430E+00 -0.23090609434E+02  0.23281419020E+02  0.51100000000E-03 0.  1.
        -12    1    4    4    0    0 -0.14968618303E+01 -0.19024433451E+01 -0.37910877088E+01  0.44980253485E+01  0.00000000000E+00 0.  1.
</event>
<event>
 8    1  0.8828843E-009  0.9118800E+02  0.7816164E-02  0.1184000E+00
        -11   -1    0    0    0    0  0.00000000000E+00  0.00000000000E+00  0.45593999997E+02  0.45594000000E+02  0.51100000000E-03 0. -1.
         11   -1    0    0    0    0 -0.00000000000E+00 -0.00000000000E+00 -0.45593999997E+02  0.45594000000E+02  0.51100000000E-03 0.  1.
         23    2    1    2    0    0  0.00000000000E+00 -0.35527136788E-14  0.00000000000E+00  0.91188000000E+02  0.91188000000E+02 0.  0.
    9900012    2    3    3    0    0  0.18049343687E+02  0.20020197735E+02 -0.36090529975E+02  0.46142317867E+02  0.10000000969E+02 0.  0.
         12    1    3    3    0    0 -0.18049343687E+02 -0.20020197735E+02  0.36090529975E+02  0.45045682133E+02  0.00000000000E+00 0. -1.
         11    1    4    4    0    0  0.38297192529E+01  0.21619025906E+01 -0.10192544434E+02  0.11100834864E+02  0.51100000000E-03 0.  1.
        -11    1    4    4    0    0 -0.48615709235E+00  0.70153157874E-01 -0.84864732723E+00  0.98054715906E+00  0.51100000000E-03 0. -1.
        -12    1    4    4    0    0  0.14705781527E+02  0.17788141987E+02 -0.25049338214E+02  0.34060935844E+02  0.00000000000E+00 0.  1.
</event>
<event>
 8    1  0.8828843E-009  0.9118800E+02  0.7816164E-02  0.1184000E+00
        -11   -1    0    0    0    0  0.00000000000E+00  0.00000000000E+00  0.45593999997E+02  0.45594000000E+02  0.51100000000E-03 0. -1.
         11   -1    0    0    0    0 -0.00000000000E+00 -0.00000000000E+00 -0.45593999997E+02  0.45594000000E+02  0.51100000000E-03 0.  1.
         23    2    1    2    0    0  0.00000000000E+00  0.00000000000E+00  0.71054273576E-14  0.91188000000E+02  0.91188000000E+02 0.  0.
    9900012    2    3    3    0    0  0.16672001535E+02 -0.84168077097E+01  0.40991647549E+02  0.46142318120E+02  0.10000003273E+02 0.  0.
        -12    1    3    3    0    0 -0.16672001535E+02  0.84168077097E+01 -0.40991647549E+02  0.45045681880E+02  0.00000000000E+00 0.  1.
         11    1    4    4    0    0  0.47173088472E+01 -0.29731938225E+01  0.14469973850E+02  0.15507192775E+02  0.51100000000E-03 0. -1.
        -11    1    4    4    0    0  0.59144847154E+01 -0.36491899316E+01  0.21446183423E+02  0.22544101230E+02  0.51100000000E-03 0.  1.
         12    1    4    4    0    0  0.60402079728E+01 -0.17944239556E+01  0.50754902763E+01  0.80910241151E+01  0.00000000000E+00 0. -1.
</event>
<event>
 8    1  0.8828843E-009  0.9118800E+02  0.7816164E-02  0.1184000E+00
        -11   -1    0    0    0    0  0.00000000000E+00  0.00000000000E+00  0.45593999997E+02  0.45594000000E+02  0.51100000000E-03 0. -1.
         11   -1    0    0    0    0 -0.00000000000E+00 -0.00000000000E+00 -0.45593999997E+02  0.45594000000E+02  0.51100000000E-03 0.  1.
         23    2    1    2    0    0 -0.35527136788E-14  0.00000000000E+00  0.00000000000E+00  0.91188000000E+02  0.91188000000E+02 0.  0.
    9900012    2    3    3    0    0  0.22083134372E+02  0.19344567996E+02  0.34164840879E+02  0.46142317777E+02  0.10000000144E+02 0.  0.
        -12    1    3    3    0    0 -0.22083134372E+02 -0.19344567996E+02 -0.34164840879E+02  0.45045682223E+02  0.00000000000E+00 0.  1.
         11    1    4    4    0    0  0.18139778385E+02  0.16846952985E+02  0.30631847481E+02  0.39385041133E+02  0.51100000000E-03 0. -1.
        -11    1    4    4    0    0  0.10279944525E+01 -0.80636710111E+00  0.11876939585E+01  0.17656776875E+01  0.51100000000E-03 0.  1.
         12    1    4    4    0    0  0.29153615349E+01  0.33039821119E+01  0.23452994402E+01  0.49915989561E+01  0.00000000000E+00 0. -1.
</event>
<event>
 8    1  0.8828843E-009  0.9118800E+02  0.7816164E-02  0.1184000E+00
        -11   -1    0    0    0    0  0.00000000000E+00  0.00000000000E+00  0.45593999997E+02  0.45594000000E+02  0.51100000000E-03 0. -1.
         11   -1    0    0    0    0 -0.00000000000E+00 -0.00000000000E+00 -0.45593999997E+02  0.45594000000E+02  0.51100000000E-03 0.  1.
         23    2    1    2    0    0 -0.44408920985E-15  0.35527136788E-14  0.00000000000E+00  0.91188000000E+02  0.91188000000E+02 0.  0.
    9900012    2    3    3    0    0  0.21035044303E+01  0.16124794929E+02  0.42008091369E+02  0.46142317822E+02  0.10000000555E+02 0.  0.
        -12    1    3    3    0    0 -0.21035044303E+01 -0.16124794929E+02 -0.42008091369E+02  0.45045682178E+02  0.00000000000E+00 0.  1.
         11    1    4    4    0    0 -0.25191683060E+01  0.48809143730E+01  0.10192182612E+02  0.11578001586E+02  0.51100000000E-03 0. -1.
        -11    1    4    4    0    0 -0.82026730682E+00  0.39927672532E+00  0.56338354428E+01  0.57072202004E+01  0.51100000000E-03 0.  1.
         12    1    4    4    0    0  0.54429400432E+01  0.10844603831E+02  0.26182073315E+02  0.28857096036E+02  0.00000000000E+00 0. -1.
</event>
<event>
 8    1  0.8828843E-009  0.9118800E+02  0.7816164E-02  0.1184000E+00
        -11   -1    0    0    0    0  0.00000000000E+00  0.00000000000E+00  0.45593999997E+02  0.45594000000E+02  0.51100000000E-03 0. -1.
         11   -1    0    0    0    0 -0.00000000000E+00 -0.00000000000E+00 -0.45593999997E+02  0.45594000000E+02  0.51100000000E-03 0.  1.
         23    2    1    2    0    0  0.00000000000E+00  0.00000000000E+00  0.00000000000E+00  0.91188000000E+02  0.91188000000E+02 0.  0.
    9900012    2    3    3    0    0 -0.42896953567E+02  0.61521052976E+01  0.12292946706E+02  0.46142316926E+02  0.99999923832E+01 0.  0.
        -12    1    3    3    0    0  0.42896953567E+02 -0.61521052976E+01 -0.12292946706E+02  0.45045683074E+02  0.00000000000E+00 0.  1.
         11    1    4    4    0    0 -0.29509852875E+02  0.39423892863E-01  0.77602450093E+01  0.30513183607E+02  0.51100000000E-03 0. -1.
        -11    1    4    4    0    0 -0.11054882355E+02  0.46892829884E+01  0.46915162059E+01  0.12892250517E+02  0.51100000000E-03 0.  1.
         12    1    4    4    0    0 -0.23322183368E+01  0.14233984163E+01 -0.15881450974E+00  0.27368828017E+01  0.00000000000E+00 0. -1.
</event>
<event>
 8    1  0.8828843E-009  0.9118800E+02  0.7816164E-02  0.1184000E+00
        -11   -1    0    0    0    0  0.00000000000E+00  0.00000000000E+00  0.45593999997E+02  0.45594000000E+02  0.51100000000E-03 0. -1.
         11   -1    0    0    0    0 -0.00000000000E+00 -0.00000000000E+00 -0.45593999997E+02  0.45594000000E+02  0.51100000000E-03 0.  1.
         23    2    1    2    0    0  0.00000000000E+00  0.71054273576E-14  0.00000000000E+00  0.91188000000E+02  0.91188000000E+02 0.  0.
    9900012    2    3    3    0    0 -0.29088176964E+02 -0.31683558532E+02  0.13384448751E+02  0.46142318867E+02  0.10000010086E+02 0.  0.
        -12    1    3    3    0    0  0.29088176964E+02  0.31683558532E+02 -0.13384448751E+02  0.45045681133E+02  0.00000000000E+00 0.  1.
         11    1    4    4    0    0 -0.13433142463E+01 -0.32097531613E+01  0.24107368668E+01  0.42330439429E+01  0.51100000000E-03 0. -1.
        -11    1    4    4    0    0 -0.96825062697E+01 -0.15169358592E+02  0.54987133727E+01  0.18817444481E+02  0.51100000000E-03 0.  1.
         12    1    4    4    0    0 -0.18062356448E+02 -0.13304446779E+02  0.54749985113E+01  0.23091830444E+02  0.00000000000E+00 0. -1.
</event>
<event>
 8    1  0.8828843E-009  0.9118800E+02  0.7816164E-02  0.1184000E+00
        -11   -1    0    0    0    0  0.00000000000E+00  0.00000000000E+00  0.45593999997E+02  0.45594000000E+02  0.51100000000E-03 0. -1.
         11   -1    0    0    0    0 -0.00000000000E+00 -0.00000000000E+00 -0.45593999997E+02  0.45594000000E+02  0.51100000000E-03 0.  1.
         23    2    1    2    0    0  0.00000000000E+00  0.35527136788E-14 -0.35527136788E-14  0.91188000000E+02  0.91188000000E+02 0.  0.
    9900012    2    3    3    0    0  0.14640928251E+02  0.30261917267E+02 -0.29982900388E+02  0.46142303953E+02  0.99998740843E+01 0.  0.
         12    1    3    3    0    0 -0.14640928251E+02 -0.30261917267E+02  0.29982900388E+02  0.45045696047E+02  0.00000000000E+00 0. -1.
         11    1    4    4    0    0  0.42900381871E+01  0.69149490241E+01 -0.33150830090E+01  0.87869632565E+01  0.51100000000E-03 0. -1.
        -11    1    4    4    0    0  0.85899147311E+01  0.12675170661E+02 -0.14736109542E+02  0.21250870831E+02  0.51100000000E-03 0.  1.
        -12    1    4    4    0    0  0.17609753326E+01  0.10671797582E+02 -0.11931707837E+02  0.16104469866E+02  0.00000000000E+00 0.  1.
</event>
<event>
 8    1  0.8828843E-009  0.9118800E+02  0.7816164E-02  0.1184000E+00
        -11   -1    0    0    0    0  0.00000000000E+00  0.00000000000E+00  0.45593999997E+02  0.45594000000E+02  0.51100000000E-03 0. -1.
         11   -1    0    0    0    0 -0.00000000000E+00 -0.00000000000E+00 -0.45593999997E+02  0.45594000000E+02  0.51100000000E-03 0.  1.
         23    2    1    2    0    0  0.00000000000E+00 -0.35527136788E-14  0.00000000000E+00  0.91188000000E+02  0.91188000000E+02 0.  0.
    9900012    2    3    3    0    0  0.79348590892E+01 -0.23102594682E+02 -0.37847345546E+02  0.46142318357E+02  0.10000005433E+02 0.  0.
         12    1    3    3    0    0 -0.79348590892E+01  0.23102594682E+02  0.37847345546E+02  0.45045681643E+02  0.00000000000E+00 0. -1.
         11    1    4    4    0    0 -0.49232911868E-01 -0.77688882627E+00  0.11636947172E+00  0.78709735298E+00  0.51100000000E-03 0. -1.
        -11    1    4    4    0    0  0.65297931843E+01 -0.19434133787E+02 -0.26865476909E+02  0.33794638700E+02  0.51100000000E-03 0.  1.
        -12    1    4    4    0    0  0.14542988169E+01 -0.28915720688E+01 -0.11098238109E+02  0.11560582304E+02  0.00000000000E+00 0.  1.
</event>
<event>
 8    1  0.8828843E-009  0.9118800E+02  0.7816164E-02  0.1184000E+00
        -11   -1    0    0    0    0  0.00000000000E+00  0.00000000000E+00  0.45593999997E+02  0.45594000000E+02  0.51100000000E-03 0. -1.
         11   -1    0    0    0    0 -0.00000000000E+00 -0.00000000000E+00 -0.45593999997E+02  0.45594000000E+02  0.51100000000E-03 0.  1.
         23    2    1    2    0    0  0.35527136788E-14  0.00000000000E+00  0.00000000000E+00  0.91188000000E+02  0.91188000000E+02 0.  0.
    9900012    2    3    3    0    0 -0.27818034090E+02  0.20357901400E+02  0.28997004741E+02  0.46142318143E+02  0.10000003478E+02 0.  0.
        -12    1    3    3    0    0  0.27818034090E+02 -0.20357901400E+02 -0.28997004741E+02  0.45045681857E+02  0.00000000000E+00 0.  1.
         11    1    4    4    0    0 -0.50187059292E+01  0.38247516777E+01  0.99472970537E+01  0.11779849470E+02  0.51100000000E-03 0. -1.
        -11    1    4    4    0    0 -0.10313127927E+02  0.10538101730E+02  0.95740982039E+01  0.17580544713E+02  0.51100000000E-03 0.  1.
         12    1    4    4    0    0 -0.12486200234E+02  0.59950479920E+01  0.94756094832E+01  0.16781923960E+02  0.00000000000E+00 0. -1.
</event>
<event>
 8    1  0.8828843E-009  0.9118800E+02  0.7816164E-02  0.1184000E+00
        -11   -1    0    0    0    0  0.00000000000E+00  0.00000000000E+00  0.45593999997E+02  0.45594000000E+02  0.51100000000E-03 0. -1.
         11   -1    0    0    0    0 -0.00000000000E+00 -0.00000000000E+00 -0.45593999997E+02  0.45594000000E+02  0.51100000000E-03 0.  1.
         23    2    1    2    0    0  0.00000000000E+00 -0.88817841970E-15  0.00000000000E+00  0.91188000000E+02  0.91188000000E+02 0.  0.
    9900012    2    3    3    0    0  0.34136700084E+01 -0.64033476744E+01  0.44457366911E+02  0.46142317887E+02  0.10000001146E+02 0.  0.
        -12    1    3    3    0    0 -0.34136700084E+01  0.64033476744E+01 -0.44457366911E+02  0.45045682113E+02  0.00000000000E+00 0.  1.
         11    1    4    4    0    0  0.20093815105E+01 -0.38734422713E+01  0.27433374672E+02  0.27778250759E+02  0.51100000000E-03 0. -1.
        -11    1    4    4    0    0  0.24099937284E+01 -0.39754106161E+01  0.14881671004E+02  0.15590897713E+02  0.51100000000E-03 0.  1.
         12    1    4    4    0    0 -0.10057052305E+01  0.14455052130E+01  0.21423212348E+01  0.27731694150E+01  0.00000000000E+00 0. -1.
</event>
<event>
 8    1  0.8828843E-009  0.9118800E+02  0.7816164E-02  0.1184000E+00
        -11   -1    0    0    0    0  0.00000000000E+00  0.00000000000E+00  0.45593999997E+02  0.45594000000E+02  0.51100000000E-03 0. -1.
         11   -1    0    0    0    0 -0.00000000000E+00 -0.00000000000E+00 -0.45593999997E+02  0.45594000000E+02  0.51100000000E-03 0.  1.
         23    2    1    2    0    0  0.00000000000E+00  0.00000000000E+00 -0.35527136788E-14  0.91188000000E+02  0.91188000000E+02 0.  0.
    9900012    2    3    3    0    0  0.32377708602E+02 -0.35027470938E+01  0.31121185409E+02  0.46142318378E+02  0.10000005626E+02 0.  0.
        -12    1    3    3    0    0 -0.32377708602E+02  0.35027470938E+01 -0.31121185409E+02  0.45045681622E+02  0.00000000000E+00 0.  1.
         11    1    4    4    0    0  0.16865114530E+02 -0.16409876286E+01  0.11710149238E+02  0.20597391193E+02  0.51100000000E-03 0. -1.
        -11    1    4    4    0    0  0.38155673103E+00  0.73602033258E-01 -0.38925388307E+00  0.55001967682E+00  0.51100000000E-03 0.  1.
        -12    1    4    4    0    0  0.15131037341E+02 -0.19353614985E+01  0.19800290053E+02  0.24994907508E+02  0.00000000000E+00 0.  1.
</event>
<event>
 8    1  0.9552223E-009  0.9118800E+02  0.7816164E-02  0.1184000E+00
        -11   -1    0    0    0    0  0.00000000000E+00  0.00000000000E+00  0.45593999997E+02  0.45594000000E+02  0.51100000000E-03 0. -1.
         11   -1    0    0    0    0 -0.00000000000E+00 -0.00000000000E+00 -0.45593999997E+02  0.45594000000E+02  0.51100000000E-03 0.  1.
         23    2    1    2    0    0  0.00000000000E+00  0.00000000000E+00  0.00000000000E+00  0.91188000000E+02  0.91188000000E+02 0.  0.
    9900012    2    3    3    0    0 -0.30924603805E+02  0.10235561977E+02  0.31112949458E+02  0.46142317926E+02  0.10000001504E+02 0.  0.
        -12    1    3    3    0    0  0.30924603805E+02 -0.10235561977E+02 -0.31112949458E+02  0.45045682074E+02  0.00000000000E+00 0.  1.
         11    1    4    4    0    0 -0.19776316427E+02  0.52275346355E+01  0.17709282388E+02  0.27056394674E+02  0.51100000000E-03 0. -1.
        -11    1    4    4    0    0 -0.92784996553E+01  0.48703883794E+01  0.74859231388E+01  0.12878287321E+02  0.51100000000E-03 0.  1.
        -12    1    4    4    0    0 -0.18697877230E+01  0.13763896258E+00  0.59177439320E+01  0.62076359315E+01  0.00000000000E+00 0.  1.
</event>
<event>
 8    1  0.8828843E-009  0.9118800E+02  0.7816164E-02  0.1184000E+00
        -11   -1    0    0    0    0  0.00000000000E+00  0.00000000000E+00  0.45593999997E+02  0.45594000000E+02  0.51100000000E-03 0. -1.
         11   -1    0    0    0    0 -0.00000000000E+00 -0.00000000000E+00 -0.45593999997E+02  0.45594000000E+02  0.51100000000E-03 0.  1.
         23    2    1    2    0    0  0.35527136788E-14  0.00000000000E+00  0.00000000000E+00  0.91188000000E+02  0.91188000000E+02 0.  0.
    9900012    2    3    3    0    0  0.15885257112E+02 -0.89083390766E+01 -0.41199680162E+02  0.46142317143E+02  0.99999943645E+01 0.  0.
         12    1    3    3    0    0 -0.15885257112E+02  0.89083390766E+01  0.41199680162E+02  0.45045682857E+02  0.00000000000E+00 0. -1.
         11    1    4    4    0    0  0.17332115039E+01 -0.53139443629E-03 -0.23570562905E+01  0.29257028245E+01  0.51100000000E-03 0. -1.
        -11    1    4    4    0    0  0.14434711912E+02 -0.85726786993E+01 -0.30118872549E+02  0.34481853372E+02  0.51100000000E-03 0.  1.
         12    1    4    4    0    0 -0.28266630312E+00 -0.33512898281E+00 -0.87237513216E+01  0.87347609467E+01  0.00000000000E+00 0. -1.
</event>
<event>
 8    1  0.8828843E-009  0.9118800E+02  0.7816164E-02  0.1184000E+00
        -11   -1    0    0    0    0  0.00000000000E+00  0.00000000000E+00  0.45593999997E+02  0.45594000000E+02  0.51100000000E-03 0. -1.
         11   -1    0    0    0    0 -0.00000000000E+00 -0.00000000000E+00 -0.45593999997E+02  0.45594000000E+02  0.51100000000E-03 0.  1.
         23    2    1    2    0    0  0.00000000000E+00  0.00000000000E+00  0.00000000000E+00  0.91188000000E+02  0.91188000000E+02 0.  0.
    9900012    2    3    3    0    0  0.20729680272E+02 -0.35365682280E+02 -0.18672501500E+02  0.46142318303E+02  0.10000004945E+02 0.  0.
         12    1    3    3    0    0 -0.20729680272E+02  0.35365682280E+02  0.18672501500E+02  0.45045681697E+02  0.00000000000E+00 0. -1.
         11    1    4    4    0    0  0.10705873026E+02 -0.15765292962E+02 -0.52670238896E+01  0.19771234669E+02  0.51100000000E-03 0. -1.
        -11    1    4    4    0    0  0.60228507272E+01 -0.87301374721E+01 -0.92247131238E+01  0.14056506096E+02  0.51100000000E-03 0.  1.
        -12    1    4    4    0    0  0.40009565186E+01 -0.10870251845E+02 -0.41807644862E+01  0.12314577538E+02  0.00000000000E+00 0.  1.
</event>
<event>
 8    1  0.8828843E-009  0.9118800E+02  0.7816164E-02  0.1184000E+00
        -11   -1    0    0    0    0  0.00000000000E+00  0.00000000000E+00  0.45593999997E+02  0.45594000000E+02  0.51100000000E-03 0. -1.
         11   -1    0    0    0    0 -0.00000000000E+00 -0.00000000000E+00 -0.45593999997E+02  0.45594000000E+02  0.51100000000E-03 0.  1.
         23    2    1    2    0    0  0.00000000000E+00  0.00000000000E+00  0.00000000000E+00  0.91188000000E+02  0.91188000000E+02 0.  0.
    9900012    2    3    3    0    0  0.18643862268E+02  0.18027163523E+02  0.36831253656E+02  0.46142317956E+02  0.10000001778E+02 0.  0.
        -12    1    3    3    0    0 -0.18643862268E+02 -0.18027163523E+02 -0.36831253656E+02  0.45045682044E+02  0.00000000000E+00 0.  1.
         11    1    4    4    0    0  0.34532023065E+01  0.48568257387E+01  0.39330783853E+01  0.71402008566E+01  0.51100000000E-03 0. -1.
        -11    1    4    4    0    0  0.82524993665E+00  0.12317384054E+01  0.64808994296E+01  0.66483287099E+01  0.51100000000E-03 0.  1.
         12    1    4    4    0    0  0.14365410025E+02  0.11938599378E+02  0.26417275841E+02  0.32353788390E+02  0.00000000000E+00 0. -1.
</event>
<event>
 8    1  0.8828843E-009  0.9118800E+02  0.7816164E-02  0.1184000E+00
        -11   -1    0    0    0    0  0.00000000000E+00  0.00000000000E+00  0.45593999997E+02  0.45594000000E+02  0.51100000000E-03 0. -1.
         11   -1    0    0    0    0 -0.00000000000E+00 -0.00000000000E+00 -0.45593999997E+02  0.45594000000E+02  0.51100000000E-03 0.  1.
         23    2    1    2    0    0  0.44408920985E-15 -0.35527136788E-14 -0.71054273576E-14  0.91188000000E+02  0.91188000000E+02 0.  0.
    9900012    2    3    3    0    0 -0.36272890056E+01 -0.20579913038E+02 -0.39905178973E+02  0.46142319241E+02  0.10000013493E+02 0.  0.
         12    1    3    3    0    0  0.36272890056E+01  0.20579913038E+02  0.39905178973E+02  0.45045680759E+02  0.00000000000E+00 0. -1.
         11    1    4    4    0    0  0.18981932379E+01 -0.86059091802E+01 -0.15573813662E+02  0.17894370138E+02  0.51100000000E-03 0. -1.
        -11    1    4    4    0    0 -0.66956063524E+00 -0.81095576769E+01 -0.13358887507E+02  0.15642030330E+02  0.51100000000E-03 0.  1.
        -12    1    4    4    0    0 -0.48559216083E+01 -0.38644461810E+01 -0.10972477804E+02  0.12605918773E+02  0.00000000000E+00 0.  1.
</event>
<event>
 8    1  0.8828843E-009  0.9118800E+02  0.7816164E-02  0.1184000E+00
        -11   -1    0    0    0    0  0.00000000000E+00  0.00000000000E+00  0.45593999997E+02  0.45594000000E+02  0.51100000000E-03 0. -1.
         11   -1    0    0    0    0 -0.00000000000E+00 -0.00000000000E+00 -0.45593999997E+02  0.45594000000E+02  0.51100000000E-03 0.  1.
         23    2    1    2    0    0 -0.35527136788E-14  0.00000000000E+00  0.00000000000E+00  0.91188000000E+02  0.91188000000E+02 0.  0.
    9900012    2    3    3    0    0  0.16740864484E+02 -0.34346044089E+02 -0.23858044036E+02  0.46142317038E+02  0.99999934097E+01 0.  0.
         12    1    3    3    0    0 -0.16740864484E+02  0.34346044089E+02  0.23858044036E+02  0.45045682962E+02  0.00000000000E+00 0. -1.
         11    1    4    4    0    0  0.13735233163E+01 -0.14533953065E+01 -0.74983625368E+00  0.21356916645E+01  0.51100000000E-03 0. -1.
        -11    1    4    4    0    0  0.11223977138E+01 -0.12468869614E+02 -0.68906936015E+01  0.14290351453E+02  0.51100000000E-03 0.  1.
        -12    1    4    4    0    0  0.14244943454E+02 -0.20423779169E+02 -0.16217514181E+02  0.29716273921E+02  0.00000000000E+00 0.  1.
</event>
<event>
 8    1  0.8828843E-009  0.9118800E+02  0.7816164E-02  0.1184000E+00
        -11   -1    0    0    0    0  0.00000000000E+00  0.00000000000E+00  0.45593999997E+02  0.45594000000E+02  0.51100000000E-03 0. -1.
         11   -1    0    0    0    0 -0.00000000000E+00 -0.00000000000E+00 -0.45593999997E+02  0.45594000000E+02  0.51100000000E-03 0.  1.
         23    2    1    2    0    0  0.17763568394E-14  0.00000000000E+00  0.00000000000E+00  0.91188000000E+02  0.91188000000E+02 0.  0.
    9900012    2    3    3    0    0  0.14011745561E+02 -0.38720692926E+02 -0.18261812223E+02  0.46142302536E+02  0.99998611637E+01 0.  0.
         12    1    3    3    0    0 -0.14011745561E+02  0.38720692926E+02  0.18261812223E+02  0.45045697464E+02  0.00000000000E+00 0. -1.
         11    1    4    4    0    0  0.20161940573E+01 -0.17134475582E+01  0.80154318998E+00  0.27646722695E+01  0.51100000000E-03 0. -1.
        -11    1    4    4    0    0  0.63519987335E+01 -0.16124315488E+02 -0.86835904027E+01  0.19384173452E+02  0.51100000000E-03 0.  1.
         12    1    4    4    0    0  0.56435527704E+01 -0.20882929881E+02 -0.10379765010E+02  0.23993456815E+02  0.00000000000E+00 0. -1.
</event>
<event>
 8    1  0.8828843E-009  0.9118800E+02  0.7816164E-02  0.1184000E+00
        -11   -1    0    0    0    0  0.00000000000E+00  0.00000000000E+00  0.45593999997E+02  0.45594000000E+02  0.51100000000E-03 0. -1.
         11   -1    0    0    0    0 -0.00000000000E+00 -0.00000000000E+00 -0.45593999997E+02  0.45594000000E+02  0.51100000000E-03 0.  1.
         23    2    1    2    0    0  0.17763568394E-14  0.55511151231E-16  0.00000000000E+00  0.91188000000E+02  0.91188000000E+02 0.  0.
    9900012    2    3    3    0    0 -0.10214355659E+02 -0.37632909498E+00 -0.43870702376E+02  0.46142320828E+02  0.10000027963E+02 0.  0.
         12    1    3    3    0    0  0.10214355659E+02  0.37632909498E+00  0.43870702376E+02  0.45045679172E+02  0.00000000000E+00 0. -1.
         11    1    4    4    0    0  0.10018303314E+01 -0.46259064203E+00 -0.74483505893E+01  0.75296467963E+01  0.51100000000E-03 0. -1.
        -11    1    4    4    0    0 -0.81343880059E+01 -0.13310338397E+01 -0.31969548396E+02  0.33015026037E+02  0.51100000000E-03 0.  1.
         12    1    4    4    0    0 -0.30817979842E+01  0.14172953868E+01 -0.44528033907E+01  0.55976479940E+01  0.00000000000E+00 0. -1.
</event>
<event>
 8    1  0.8828843E-009  0.9118800E+02  0.7816164E-02  0.1184000E+00
        -11   -1    0    0    0    0  0.00000000000E+00  0.00000000000E+00  0.45593999997E+02  0.45594000000E+02  0.51100000000E-03 0. -1.
         11   -1    0    0    0    0 -0.00000000000E+00 -0.00000000000E+00 -0.45593999997E+02  0.45594000000E+02  0.51100000000E-03 0.  1.
         23    2    1    2    0    0  0.44408920985E-15  0.35527136788E-14 -0.71054273576E-14  0.91188000000E+02  0.91188000000E+02 0.  0.
    9900012    2    3    3    0    0 -0.28436026379E+01  0.10579993728E+02 -0.43693146325E+02  0.46142318975E+02  0.10000011065E+02 0.  0.
         12    1    3    3    0    0  0.28436026379E+01 -0.10579993728E+02  0.43693146325E+02  0.45045681025E+02  0.00000000000E+00 0. -1.
         11    1    4    4    0    0  0.16385781325E+01  0.15148066574E+01 -0.34079127916E+01  0.40735055373E+01  0.51100000000E-03 0. -1.
        -11    1    4    4    0    0 -0.39608385012E+01  0.81921551360E+01 -0.39986807530E+02  0.41009077338E+02  0.51100000000E-03 0.  1.
         12    1    4    4    0    0 -0.52134226920E+00  0.87303193503E+00 -0.29842600387E+00  0.10597360997E+01  0.00000000000E+00 0. -1.
</event>
<event>
 8    1  0.8828843E-009  0.9118800E+02  0.7816164E-02  0.1184000E+00
        -11   -1    0    0    0    0  0.00000000000E+00  0.00000000000E+00  0.45593999997E+02  0.45594000000E+02  0.51100000000E-03 0. -1.
         11   -1    0    0    0    0 -0.00000000000E+00 -0.00000000000E+00 -0.45593999997E+02  0.45594000000E+02  0.51100000000E-03 0.  1.
         23    2    1    2    0    0  0.17763568394E-14  0.35527136788E-14  0.00000000000E+00  0.91188000000E+02  0.91188000000E+02 0.  0.
    9900012    2    3    3    0    0  0.85930643116E+01  0.30021360003E+02 -0.32465223608E+02  0.46142317026E+02  0.99999932926E+01 0.  0.
         12    1    3    3    0    0 -0.85930643116E+01 -0.30021360003E+02  0.32465223608E+02  0.45045682974E+02  0.00000000000E+00 0. -1.
         11    1    4    4    0    0 -0.48818777195E+00  0.73124284128E+00 -0.13830206784E+01  0.16388379577E+01  0.51100000000E-03 0. -1.
        -11    1    4    4    0    0 -0.18345067945E+00  0.13787885586E+02 -0.13684785741E+02  0.19427115177E+02  0.51100000000E-03 0.  1.
         12    1    4    4    0    0  0.92647027630E+01  0.15502231576E+02 -0.17397417189E+02  0.25076363891E+02  0.00000000000E+00 0. -1.
</event>
<event>
 8    1  0.8828843E-009  0.9118800E+02  0.7816164E-02  0.1184000E+00
        -11   -1    0    0    0    0  0.00000000000E+00  0.00000000000E+00  0.45593999997E+02  0.45594000000E+02  0.51100000000E-03 0.  1.
         11   -1    0    0    0    0 -0.00000000000E+00 -0.00000000000E+00 -0.45593999997E+02  0.45594000000E+02  0.51100000000E-03 0. -1.
         23    2    1    2    0    0 -0.17763568394E-14 -0.14210854715E-13  0.44408920985E-15  0.91188000000E+02  0.91188000000E+02 0.  0.
    9900012    2    3    3    0    0  0.10881311903E+02 -0.43611245545E+02  0.29613866889E+01  0.46142317656E+02  0.99999990452E+01 0.  0.
        -12    1    3    3    0    0 -0.10881311903E+02  0.43611245545E+02 -0.29613866889E+01  0.45045682344E+02  0.00000000000E+00 0.  1.
         11    1    4    4    0    0  0.19972469789E+01 -0.17635068694E+01 -0.11348938429E+01  0.28960207645E+01  0.51100000000E-03 0. -1.
        -11    1    4    4    0    0  0.60116240568E+01 -0.22464539895E+02  0.43059601327E+01  0.23650295334E+02  0.51100000000E-03 0.  1.
         12    1    4    4    0    0  0.28724408668E+01 -0.19383198781E+02 -0.20967960097E+00  0.19596001557E+02  0.00000000000E+00 0. -1.
</event>
<event>
 8    1  0.8828843E-009  0.9118800E+02  0.7816164E-02  0.1184000E+00
        -11   -1    0    0    0    0  0.00000000000E+00  0.00000000000E+00  0.45593999997E+02  0.45594000000E+02  0.51100000000E-03 0.  1.
         11   -1    0    0    0    0 -0.00000000000E+00 -0.00000000000E+00 -0.45593999997E+02  0.45594000000E+02  0.51100000000E-03 0. -1.
         23    2    1    2    0    0 -0.35527136788E-14  0.35527136788E-14  0.00000000000E+00  0.91188000000E+02  0.91188000000E+02 0.  0.
    9900012    2    3    3    0    0 -0.22958209380E+02  0.16748932487E+02 -0.34950069014E+02  0.46142318281E+02  0.10000004743E+02 0.  0.
         12    1    3    3    0    0  0.22958209380E+02 -0.16748932487E+02  0.34950069014E+02  0.45045681719E+02  0.00000000000E+00 0. -1.
         11    1    4    4    0    0 -0.10539878463E+02  0.78718982213E+01 -0.16390606988E+02  0.21016846036E+02  0.51100000000E-03 0. -1.
        -11    1    4    4    0    0 -0.10425055081E+02  0.87228611267E+01 -0.11552920998E+02  0.17839284278E+02  0.51100000000E-03 0.  1.
         12    1    4    4    0    0 -0.19932758352E+01  0.15417313929E+00 -0.70065410282E+01  0.72861879671E+01  0.00000000000E+00 0. -1.
</event>
<event>
 8    1  0.8828843E-009  0.9118800E+02  0.7816164E-02  0.1184000E+00
        -11   -1    0    0    0    0  0.00000000000E+00  0.00000000000E+00  0.45593999997E+02  0.45594000000E+02  0.51100000000E-03 0. -1.
         11   -1    0    0    0    0 -0.00000000000E+00 -0.00000000000E+00 -0.45593999997E+02  0.45594000000E+02  0.51100000000E-03 0.  1.
         23    2    1    2    0    0  0.00000000000E+00  0.00000000000E+00  0.00000000000E+00  0.91188000000E+02  0.91188000000E+02 0.  0.
    9900012    2    3    3    0    0  0.79279495541E+01  0.21757909275E+02 -0.38637475434E+02  0.46142317543E+02  0.99999980081E+01 0.  0.
         12    1    3    3    0    0 -0.79279495541E+01 -0.21757909275E+02  0.38637475434E+02  0.45045682457E+02  0.00000000000E+00 0. -1.
         11    1    4    4    0    0 -0.12385483140E+01  0.81580861857E+01 -0.10201828492E+02  0.13121191904E+02  0.51100000000E-03 0. -1.
        -11    1    4    4    0    0  0.55906957844E+01  0.51165613773E+01 -0.12557395016E+02  0.14667080470E+02  0.51100000000E-03 0.  1.
         12    1    4    4    0    0  0.35758020837E+01  0.84832617123E+01 -0.15878251926E+02  0.18354045168E+02  0.00000000000E+00 0. -1.
</event>
<event>
 8    1  0.8828843E-009  0.9118800E+02  0.7816164E-02  0.1184000E+00
        -11   -1    0    0    0    0  0.00000000000E+00  0.00000000000E+00  0.45593999997E+02  0.45594000000E+02  0.51100000000E-03 0.  1.
         11   -1    0    0    0    0 -0.00000000000E+00 -0.00000000000E+00 -0.45593999997E+02  0.45594000000E+02  0.51100000000E-03 0. -1.
         23    2    1    2    0    0  0.00000000000E+00 -0.35527136788E-14  0.35527136788E-14  0.91188000000E+02  0.91188000000E+02 0.  0.
    9900012    2    3    3    0    0 -0.12859970984E+02  0.31787363993E+02 -0.29211266300E+02  0.46142318273E+02  0.10000004672E+02 0.  0.
         12    1    3    3    0    0  0.12859970984E+02 -0.31787363993E+02  0.29211266300E+02  0.45045681727E+02  0.00000000000E+00 0. -1.
         11    1    4    4    0    0  0.53224543875E+00  0.22940226094E+01 -0.25221774449E+01  0.34506817100E+01  0.51100000000E-03 0. -1.
        -11    1    4    4    0    0 -0.14287744590E+02  0.26618346305E+02 -0.25154612212E+02  0.39311964099E+02  0.51100000000E-03 0.  1.
        -12    1    4    4    0    0  0.89552816715E+00  0.28749950785E+01 -0.15344766432E+01  0.33796724646E+01  0.00000000000E+00 0.  1.
</event>
<event>
 8    1  0.8828843E-009  0.9118800E+02  0.7816164E-02  0.1184000E+00
        -11   -1    0    0    0    0  0.00000000000E+00  0.00000000000E+00  0.45593999997E+02  0.45594000000E+02  0.51100000000E-03 0. -1.
         11   -1    0    0    0    0 -0.00000000000E+00 -0.00000000000E+00 -0.45593999997E+02  0.45594000000E+02  0.51100000000E-03 0.  1.
         23    2    1    2    0    0  0.00000000000E+00  0.00000000000E+00  0.00000000000E+00  0.91188000000E+02  0.91188000000E+02 0.  0.
    9900012    2    3    3    0    0 -0.22432145457E+02  0.49347001606E+01 -0.38749978070E+02  0.46142320786E+02  0.10000027580E+02 0.  0.
         12    1    3    3    0    0  0.22432145457E+02 -0.49347001606E+01  0.38749978070E+02  0.45045679214E+02  0.00000000000E+00 0. -1.
         11    1    4    4    0    0 -0.79520827538E+01  0.20878710317E+01 -0.72277871200E+01  0.10946950830E+02  0.51100000000E-03 0. -1.
        -11    1    4    4    0    0 -0.73091747270E+01  0.24363427519E+01 -0.10821608489E+02  0.13284088668E+02  0.51100000000E-03 0.  1.
        -12    1    4    4    0    0 -0.71708879763E+01  0.41048637690E+00 -0.20700582461E+02  0.21911281287E+02  0.00000000000E+00 0.  1.
</event>
<event>
 8    1  0.8828843E-009  0.9118800E+02  0.7816164E-02  0.1184000E+00
        -11   -1    0    0    0    0  0.00000000000E+00  0.00000000000E+00  0.45593999997E+02  0.45594000000E+02  0.51100000000E-03 0. -1.
         11   -1    0    0    0    0 -0.00000000000E+00 -0.00000000000E+00 -0.45593999997E+02  0.45594000000E+02  0.51100000000E-03 0.  1.
         23    2    1    2    0    0  0.71054273576E-14 -0.35527136788E-14 -0.35527136788E-14  0.91188000000E+02  0.91188000000E+02 0.  0.
    9900012    2    3    3    0    0 -0.34124758878E+02  0.26972897313E+02  0.11708041152E+02  0.46142305582E+02  0.99998889450E+01 0.  0.
        -12    1    3    3    0    0  0.34124758878E+02 -0.26972897313E+02 -0.11708041152E+02  0.45045694418E+02  0.00000000000E+00 0.  1.
         11    1    4    4    0    0 -0.16974030394E+02  0.15183497899E+02  0.31562591221E+01  0.22991700419E+02  0.51100000000E-03 0. -1.
        -11    1    4    4    0    0 -0.15564841925E+02  0.95872749164E+01  0.55511694806E+01  0.19104858736E+02  0.51100000000E-03 0.  1.
        -12    1    4    4    0    0 -0.15858865595E+01  0.22021244977E+01  0.30006125491E+01  0.40457464271E+01  0.00000000000E+00 0.  1.
</event>
<event>
 8    1  0.8828843E-009  0.9118800E+02  0.7816164E-02  0.1184000E+00
        -11   -1    0    0    0    0  0.00000000000E+00  0.00000000000E+00  0.45593999997E+02  0.45594000000E+02  0.51100000000E-03 0. -1.
         11   -1    0    0    0    0 -0.00000000000E+00 -0.00000000000E+00 -0.45593999997E+02  0.45594000000E+02  0.51100000000E-03 0.  1.
         23    2    1    2    0    0 -0.71054273576E-14  0.00000000000E+00  0.00000000000E+00  0.91188000000E+02  0.91188000000E+02 0.  0.
    9900012    2    3    3    0    0 -0.34115191046E+02 -0.88423176288E+01  0.28054959785E+02  0.46142316414E+02  0.99999877202E+01 0.  0.
        -12    1    3    3    0    0  0.34115191046E+02  0.88423176288E+01 -0.28054959785E+02  0.45045683586E+02  0.00000000000E+00 0.  1.
         11    1    4    4    0    0 -0.28244256691E+02 -0.92859356074E+01  0.23883217843E+02  0.38136265299E+02  0.51100000000E-03 0. -1.
        -11    1    4    4    0    0 -0.24207672655E+01  0.10285203006E+01  0.92977776944E-01  0.26318459854E+01  0.51100000000E-03 0.  1.
        -12    1    4    4    0    0 -0.34501670899E+01 -0.58490232196E+00  0.40787641646E+01  0.53742051305E+01  0.00000000000E+00 0.  1.
</event>
<event>
 8    1  0.8828843E-009  0.9118800E+02  0.7816164E-02  0.1184000E+00
        -11   -1    0    0    0    0  0.00000000000E+00  0.00000000000E+00  0.45593999997E+02  0.45594000000E+02  0.51100000000E-03 0. -1.
         11   -1    0    0    0    0 -0.00000000000E+00 -0.00000000000E+00 -0.45593999997E+02  0.45594000000E+02  0.51100000000E-03 0.  1.
         23    2    1    2    0    0  0.00000000000E+00  0.00000000000E+00 -0.14210854715E-13  0.91188000000E+02  0.91188000000E+02 0.  0.
    9900012    2    3    3    0    0  0.15065506331E+02 -0.17410052154E+02 -0.38717361882E+02  0.46142317541E+02  0.99999979965E+01 0.  0.
         12    1    3    3    0    0 -0.15065506331E+02  0.17410052154E+02  0.38717361882E+02  0.45045682459E+02  0.00000000000E+00 0. -1.
         11    1    4    4    0    0  0.96409302275E+01 -0.93724228877E+01 -0.24537783824E+02  0.27980219472E+02  0.51100000000E-03 0.  1.
        -11    1    4    4    0    0  0.43325187871E+01 -0.14649863200E+01 -0.45421666362E+01  0.64457879247E+01  0.51100000000E-03 0. -1.
        -12    1    4    4    0    0  0.10920573161E+01 -0.65726429468E+01 -0.96374114217E+01  0.11716310144E+02  0.00000000000E+00 0.  1.
</event>
<event>
 8    1  0.8828843E-009  0.9118800E+02  0.7816164E-02  0.1184000E+00
        -11   -1    0    0    0    0  0.00000000000E+00  0.00000000000E+00  0.45593999997E+02  0.45594000000E+02  0.51100000000E-03 0. -1.
         11   -1    0    0    0    0 -0.00000000000E+00 -0.00000000000E+00 -0.45593999997E+02  0.45594000000E+02  0.51100000000E-03 0.  1.
         23    2    1    2    0    0  0.00000000000E+00  0.00000000000E+00 -0.55511151231E-15  0.91188000000E+02  0.91188000000E+02 0.  0.
    9900012    2    3    3    0    0 -0.31696545602E+02 -0.32001701271E+02  0.57751185313E+00  0.46142318661E+02  0.10000008210E+02 0.  0.
        -12    1    3    3    0    0  0.31696545602E+02  0.32001701271E+02 -0.57751185313E+00  0.45045681339E+02  0.00000000000E+00 0.  1.
         11    1    4    4    0    0 -0.11924837374E+02 -0.12608651282E+02  0.27770586413E+01  0.17575320438E+02  0.51100000000E-03 0. -1.
        -11    1    4    4    0    0 -0.19969694448E+01 -0.54103571384E+01  0.51098402280E+00  0.57897285136E+01  0.51100000000E-03 0.  1.
         12    1    4    4    0    0 -0.17774738783E+02 -0.13982692851E+02 -0.27105308110E+01  0.22777269710E+02  0.00000000000E+00 0. -1.
</event>
<event>
 8    1  0.8828843E-009  0.9118800E+02  0.7816164E-02  0.1184000E+00
        -11   -1    0    0    0    0  0.00000000000E+00  0.00000000000E+00  0.45593999997E+02  0.45594000000E+02  0.51100000000E-03 0.  1.
         11   -1    0    0    0    0 -0.00000000000E+00 -0.00000000000E+00 -0.45593999997E+02  0.45594000000E+02  0.51100000000E-03 0. -1.
         23    2    1    2    0    0  0.00000000000E+00  0.00000000000E+00 -0.35527136788E-14  0.91188000000E+02  0.91188000000E+02 0.  0.
    9900012    2    3    3    0    0  0.34359276334E+02 -0.94311154945E+01 -0.27560979781E+02  0.46142318562E+02  0.10000007308E+02 0.  0.
         12    1    3    3    0    0 -0.34359276334E+02  0.94311154945E+01  0.27560979781E+02  0.45045681438E+02  0.00000000000E+00 0. -1.
         11    1    4    4    0    0  0.10672081664E+02 -0.58356113375E+01 -0.11276735715E+02  0.16586514262E+02  0.51100000000E-03 0.  1.
        -11    1    4    4    0    0  0.23590459495E+02 -0.33336225525E+01 -0.16671401948E+02  0.29078487954E+02  0.51100000000E-03 0. -1.
         12    1    4    4    0    0  0.96735175246E-01 -0.26188160451E+00  0.38715788204E+00  0.47731634640E+00  0.00000000000E+00 0. -1.
</event>
<event>
 8    1  0.8828843E-009  0.9118800E+02  0.7816164E-02  0.1184000E+00
        -11   -1    0    0    0    0  0.00000000000E+00  0.00000000000E+00  0.45593999997E+02  0.45594000000E+02  0.51100000000E-03 0. -1.
         11   -1    0    0    0    0 -0.00000000000E+00 -0.00000000000E+00 -0.45593999997E+02  0.45594000000E+02  0.51100000000E-03 0.  1.
         23    2    1    2    0    0  0.00000000000E+00  0.00000000000E+00  0.71054273576E-14  0.91188000000E+02  0.91188000000E+02 0.  0.
    9900012    2    3    3    0    0 -0.16707606508E+02 -0.69472762433E+01 -0.41251723478E+02  0.46142318161E+02  0.10000003645E+02 0.  0.
         12    1    3    3    0    0  0.16707606508E+02  0.69472762433E+01  0.41251723478E+02  0.45045681839E+02  0.00000000000E+00 0. -1.
         11    1    4    4    0    0 -0.18467511232E+01  0.10134317080E+01 -0.82870921999E+01  0.85506392117E+01  0.51100000000E-03 0. -1.
        -11    1    4    4    0    0 -0.11564498142E+02 -0.29092838821E+01 -0.23797941037E+02  0.26618481321E+02  0.51100000000E-03 0.  1.
         12    1    4    4    0    0 -0.32963572425E+01 -0.50514240691E+01 -0.91666902415E+01  0.10973197628E+02  0.00000000000E+00 0. -1.
</event>
<event>
 8    1  0.8828843E-009  0.9118800E+02  0.7816164E-02  0.1184000E+00
        -11   -1    0    0    0    0  0.00000000000E+00  0.00000000000E+00  0.45593999997E+02  0.45594000000E+02  0.51100000000E-03 0. -1.
         11   -1    0    0    0    0 -0.00000000000E+00 -0.00000000000E+00 -0.45593999997E+02  0.45594000000E+02  0.51100000000E-03 0.  1.
         23    2    1    2    0    0 -0.88817841970E-15  0.00000000000E+00  0.00000000000E+00  0.91188000000E+02  0.91188000000E+02 0.  0.
    9900012    2    3    3    0    0 -0.71534861201E+01  0.28306497262E+02  0.34302818395E+02  0.46142317624E+02  0.99999987492E+01 0.  0.
        -12    1    3    3    0    0  0.71534861201E+01 -0.28306497262E+02 -0.34302818395E+02  0.45045682376E+02  0.00000000000E+00 0.  1.
         11    1    4    4    0    0 -0.32180913478E+01  0.95428611980E+01  0.12616118533E+02  0.16142761811E+02  0.51100000000E-03 0. -1.
        -11    1    4    4    0    0 -0.22518258715E+01  0.18473379749E+02  0.17792220972E+02  0.25746836825E+02  0.51100000000E-03 0.  1.
         12    1    4    4    0    0 -0.16835689008E+01  0.29025631421E+00  0.38944788893E+01  0.42527189880E+01  0.00000000000E+00 0. -1.
</event>
<event>
 8    1  0.8828843E-009  0.9118800E+02  0.7816164E-02  0.1184000E+00
        -11   -1    0    0    0    0  0.00000000000E+00  0.00000000000E+00  0.45593999997E+02  0.45594000000E+02  0.51100000000E-03 0. -1.
         11   -1    0    0    0    0 -0.00000000000E+00 -0.00000000000E+00 -0.45593999997E+02  0.45594000000E+02  0.51100000000E-03 0.  1.
         23    2    1    2    0    0  0.71054273576E-14 -0.11102230246E-15  0.00000000000E+00  0.91188000000E+02  0.91188000000E+02 0.  0.
    9900012    2    3    3    0    0  0.41887247515E+02 -0.86070150986E+00 -0.16547878933E+02  0.46142305326E+02  0.99998866066E+01 0.  0.
         12    1    3    3    0    0 -0.41887247515E+02  0.86070150986E+00  0.16547878933E+02  0.45045694674E+02  0.00000000000E+00 0. -1.
         11    1    4    4    0    0  0.64675758926E+01 -0.90006048681E+00  0.17326117014E+00  0.65322022703E+01  0.51100000000E-03 0. -1.
        -11    1    4    4    0    0  0.53941953194E+01  0.23965744111E+00 -0.50574064031E+01  0.73981172349E+01  0.51100000000E-03 0.  1.
         12    1    4    4    0    0  0.30025476303E+02 -0.20029846416E+00 -0.11663733700E+02  0.32211985821E+02  0.00000000000E+00 0. -1.
</event>
<event>
 8    1  0.8828843E-009  0.9118800E+02  0.7816164E-02  0.1184000E+00
        -11   -1    0    0    0    0  0.00000000000E+00  0.00000000000E+00  0.45593999997E+02  0.45594000000E+02  0.51100000000E-03 0.  1.
         11   -1    0    0    0    0 -0.00000000000E+00 -0.00000000000E+00 -0.45593999997E+02  0.45594000000E+02  0.51100000000E-03 0. -1.
         23    2    1    2    0    0  0.00000000000E+00  0.00000000000E+00  0.00000000000E+00  0.91188000000E+02  0.91188000000E+02 0.  0.
    9900012    2    3    3    0    0  0.22834196292E+02  0.19319578970E+02  0.33681847166E+02  0.46142317850E+02  0.10000000808E+02 0.  0.
        -12    1    3    3    0    0 -0.22834196292E+02 -0.19319578970E+02 -0.33681847166E+02  0.45045682150E+02  0.00000000000E+00 0.  1.
         11    1    4    4    0    0  0.67445178305E+01  0.36778198954E+01  0.39934296847E+01  0.86580806681E+01  0.51100000000E-03 0. -1.
        -11    1    4    4    0    0  0.94712779004E-02 -0.38398063812E-01  0.12301092682E+01  0.12307449733E+01  0.51100000000E-03 0.  1.
         12    1    4    4    0    0  0.16080207184E+02  0.15680157138E+02  0.28458308213E+02  0.36253492208E+02  0.00000000000E+00 0. -1.
</event>
<event>
 8    1  0.8828843E-009  0.9118800E+02  0.7816164E-02  0.1184000E+00
        -11   -1    0    0    0    0  0.00000000000E+00  0.00000000000E+00  0.45593999997E+02  0.45594000000E+02  0.51100000000E-03 0. -1.
         11   -1    0    0    0    0 -0.00000000000E+00 -0.00000000000E+00 -0.45593999997E+02  0.45594000000E+02  0.51100000000E-03 0.  1.
         23    2    1    2    0    0  0.00000000000E+00 -0.17763568394E-14 -0.71054273576E-14  0.91188000000E+02  0.91188000000E+02 0.  0.
    9900012    2    3    3    0    0  0.49540950810E+01  0.15708658229E+02  0.41926227169E+02  0.46142317343E+02  0.99999961891E+01 0.  0.
        -12    1    3    3    0    0 -0.49540950810E+01 -0.15708658229E+02 -0.41926227169E+02  0.45045682657E+02  0.00000000000E+00 0.  1.
         11    1    4    4    0    0  0.25261192340E+01  0.10995335365E+02  0.16689950653E+02  0.20145300476E+02  0.51100000000E-03 0. -1.
        -11    1    4    4    0    0  0.15030807514E+01  0.29471804472E+01  0.81660100154E+01  0.88107232488E+01  0.51100000000E-03 0.  1.
         12    1    4    4    0    0  0.92489509559E+00  0.17661424161E+01  0.17070266500E+02  0.17186293619E+02  0.00000000000E+00 0. -1.
</event>
<event>
 8    1  0.8828843E-009  0.9118800E+02  0.7816164E-02  0.1184000E+00
        -11   -1    0    0    0    0  0.00000000000E+00  0.00000000000E+00  0.45593999997E+02  0.45594000000E+02  0.51100000000E-03 0. -1.
         11   -1    0    0    0    0 -0.00000000000E+00 -0.00000000000E+00 -0.45593999997E+02  0.45594000000E+02  0.51100000000E-03 0.  1.
         23    2    1    2    0    0 -0.35527136788E-14  0.00000000000E+00  0.00000000000E+00  0.91188000000E+02  0.91188000000E+02 0.  0.
    9900012    2    3    3    0    0  0.19744079281E+02  0.11041478288E+02  0.38953442199E+02  0.46142316871E+02  0.99999918806E+01 0.  0.
        -12    1    3    3    0    0 -0.19744079281E+02 -0.11041478288E+02 -0.38953442199E+02  0.45045683129E+02  0.00000000000E+00 0.  1.
         11    1    4    4    0    0  0.38297425837E+01  0.88711123189E+00  0.30782521200E+01  0.49929481242E+01  0.51100000000E-03 0. -1.
        -11    1    4    4    0    0  0.63908865670E+01  0.45907849342E+01  0.82361835603E+01  0.11390937509E+02  0.51100000000E-03 0.  1.
         12    1    4    4    0    0  0.95234501305E+01  0.55635821223E+01  0.27639006518E+02  0.29758431238E+02  0.00000000000E+00 0. -1.
</event>
<event>
 8    1  0.8828843E-009  0.9118800E+02  0.7816164E-02  0.1184000E+00
        -11   -1    0    0    0    0  0.00000000000E+00  0.00000000000E+00  0.45593999997E+02  0.45594000000E+02  0.51100000000E-03 0. -1.
         11   -1    0    0    0    0 -0.00000000000E+00 -0.00000000000E+00 -0.45593999997E+02  0.45594000000E+02  0.51100000000E-03 0.  1.
         23    2    1    2    0    0  0.00000000000E+00 -0.88817841970E-15  0.00000000000E+00  0.91188000000E+02  0.91188000000E+02 0.  0.
    9900012    2    3    3    0    0 -0.34455972062E+02  0.49139490927E+01  0.28596372888E+02  0.46142318200E+02  0.10000004005E+02 0.  0.
        -12    1    3    3    0    0  0.34455972062E+02 -0.49139490927E+01 -0.28596372888E+02  0.45045681800E+02  0.00000000000E+00 0.  1.
         11    1    4    4    0    0 -0.25854921495E+02 -0.64510364665E-01  0.20776823697E+02  0.33168622677E+02  0.51100000000E-03 0. -1.
        -11    1    4    4    0    0  0.20422856631E+00  0.13612213848E-01  0.19453402468E-01  0.20560470727E+00  0.51100000000E-03 0.  1.
         12    1    4    4    0    0 -0.88052791339E+01  0.49648472435E+01  0.78000957889E+01  0.12768090816E+02  0.00000000000E+00 0. -1.
</event>
<event>
 8    1  0.8828843E-009  0.9118800E+02  0.7816164E-02  0.1184000E+00
        -11   -1    0    0    0    0  0.00000000000E+00  0.00000000000E+00  0.45593999997E+02  0.45594000000E+02  0.51100000000E-03 0. -1.
         11   -1    0    0    0    0 -0.00000000000E+00 -0.00000000000E+00 -0.45593999997E+02  0.45594000000E+02  0.51100000000E-03 0.  1.
         23    2    1    2    0    0  0.35527136788E-14  0.00000000000E+00  0.00000000000E+00  0.91188000000E+02  0.91188000000E+02 0.  0.
    9900012    2    3    3    0    0  0.23569109928E+02 -0.25582413742E+02  0.28620805610E+02  0.46142319303E+02  0.10000014062E+02 0.  0.
        -12    1    3    3    0    0 -0.23569109928E+02  0.25582413742E+02 -0.28620805610E+02  0.45045680697E+02  0.00000000000E+00 0.  1.
         11    1    4    4    0    0  0.11605960639E+02 -0.14916020974E+02  0.18161973574E+02  0.26211510609E+02  0.51100000000E-03 0. -1.
        -11    1    4    4    0    0 -0.35457314048E+00 -0.36315671966E+00  0.14089863827E+01  0.14976140367E+01  0.51100000000E-03 0.  1.
         12    1    4    4    0    0  0.12317722430E+02 -0.10303236049E+02  0.90498456524E+01  0.18433194657E+02  0.00000000000E+00 0. -1.
</event>
<event>
 8    1  0.8828843E-009  0.9118800E+02  0.7816164E-02  0.1184000E+00
        -11   -1    0    0    0    0  0.00000000000E+00  0.00000000000E+00  0.45593999997E+02  0.45594000000E+02  0.51100000000E-03 0. -1.
         11   -1    0    0    0    0 -0.00000000000E+00 -0.00000000000E+00 -0.45593999997E+02  0.45594000000E+02  0.51100000000E-03 0.  1.
         23    2    1    2    0    0  0.00000000000E+00  0.00000000000E+00  0.00000000000E+00  0.91188000000E+02  0.91188000000E+02 0.  0.
    9900012    2    3    3    0    0 -0.41230491397E+01  0.26925414516E+02 -0.35876677834E+02  0.46142317704E+02  0.99999994833E+01 0.  0.
         12    1    3    3    0    0  0.41230491397E+01 -0.26925414516E+02  0.35876677834E+02  0.45045682296E+02  0.00000000000E+00 0. -1.
         11    1    4    4    0    0  0.11067240617E+01  0.81643894768E+01 -0.96954981670E+01  0.12723394934E+02  0.51100000000E-03 0. -1.
        -11    1    4    4    0    0 -0.81283517960E+00  0.14520098577E+02 -0.16849128698E+02  0.22257293229E+02  0.51100000000E-03 0.  1.
         12    1    4    4    0    0 -0.44169380218E+01  0.42409264623E+01 -0.93320509688E+01  0.11161629542E+02  0.00000000000E+00 0. -1.
</event>
<event>
 8    1  0.8828843E-009  0.9118800E+02  0.7816164E-02  0.1184000E+00
        -11   -1    0    0    0    0  0.00000000000E+00  0.00000000000E+00  0.45593999997E+02  0.45594000000E+02  0.51100000000E-03 0. -1.
         11   -1    0    0    0    0 -0.00000000000E+00 -0.00000000000E+00 -0.45593999997E+02  0.45594000000E+02  0.51100000000E-03 0.  1.
         23    2    1    2    0    0  0.35527136788E-14  0.35527136788E-14 -0.71054273576E-14  0.91188000000E+02  0.91188000000E+02 0.  0.
    9900012    2    3    3    0    0 -0.17528136234E+02 -0.25316917878E+02  0.32877526136E+02  0.46142316350E+02  0.99999871357E+01 0.  0.
        -12    1    3    3    0    0  0.17528136234E+02  0.25316917878E+02 -0.32877526136E+02  0.45045683650E+02  0.00000000000E+00 0.  1.
         11    1    4    4    0    0 -0.50628976777E+01 -0.12735476035E+02  0.19472587243E+02  0.23811907461E+02  0.51100000000E-03 0. -1.
        -11    1    4    4    0    0 -0.16225282421E+01 -0.22055042584E+01  0.12127829007E+01  0.29946100841E+01  0.51100000000E-03 0.  1.
        -12    1    4    4    0    0 -0.10842710314E+02 -0.10375937584E+02  0.12192155992E+02  0.19335798805E+02  0.00000000000E+00 0.  1.
</event>
<event>
 8    1  0.8828843E-009  0.9118800E+02  0.7816164E-02  0.1184000E+00
        -11   -1    0    0    0    0  0.00000000000E+00  0.00000000000E+00  0.45593999997E+02  0.45594000000E+02  0.51100000000E-03 0. -1.
         11   -1    0    0    0    0 -0.00000000000E+00 -0.00000000000E+00 -0.45593999997E+02  0.45594000000E+02  0.51100000000E-03 0.  1.
         23    2    1    2    0    0 -0.35527136788E-14  0.00000000000E+00  0.17763568394E-14  0.91188000000E+02  0.91188000000E+02 0.  0.
    9900012    2    3    3    0    0 -0.21201354184E+02 -0.37326258896E+02  0.13651610521E+02  0.46142317718E+02  0.99999996088E+01 0.  0.
        -12    1    3    3    0    0  0.21201354184E+02  0.37326258896E+02 -0.13651610521E+02  0.45045682282E+02  0.00000000000E+00 0.  1.
         11    1    4    4    0    0 -0.85828857592E+01 -0.12436681975E+02  0.50389968869E+01  0.15928856719E+02  0.51100000000E-03 0. -1.
        -11    1    4    4    0    0 -0.12339417051E+02 -0.24747114545E+02  0.95261357049E+01  0.29247703383E+02  0.51100000000E-03 0.  1.
        -12    1    4    4    0    0 -0.27905137392E+00 -0.14246237642E+00 -0.91352207110E+00  0.96575761574E+00  0.00000000000E+00 0.  1.
</event>
<event>
 8    1  0.8828843E-009  0.9118800E+02  0.7816164E-02  0.1184000E+00
        -11   -1    0    0    0    0  0.00000000000E+00  0.00000000000E+00  0.45593999997E+02  0.45594000000E+02  0.51100000000E-03 0. -1.
         11   -1    0    0    0    0 -0.00000000000E+00 -0.00000000000E+00 -0.45593999997E+02  0.45594000000E+02  0.51100000000E-03 0.  1.
         23    2    1    2    0    0  0.71054273576E-14 -0.44408920985E-15  0.35527136788E-14  0.91188000000E+02  0.91188000000E+02 0.  0.
    9900012    2    3    3    0    0  0.32802369237E+02 -0.33746067927E+01 -0.30687623827E+02  0.46142315915E+02  0.99999831660E+01 0.  0.
         12    1    3    3    0    0 -0.32802369237E+02  0.33746067927E+01  0.30687623827E+02  0.45045684085E+02  0.00000000000E+00 0. -1.
         11    1    4    4    0    0  0.92166683743E+01 -0.42452782606E+01 -0.12405591693E+02  0.16027104197E+02  0.51100000000E-03 0. -1.
        -11    1    4    4    0    0  0.16158600353E+02  0.79810534000E+00 -0.14740964771E+02  0.21886831204E+02  0.51100000000E-03 0.  1.
         12    1    4    4    0    0  0.74271005090E+01  0.72566127893E-01 -0.35410673631E+01  0.82283805141E+01  0.00000000000E+00 0. -1.
</event>
<event>
 8    1  0.8828843E-009  0.9118800E+02  0.7816164E-02  0.1184000E+00
        -11   -1    0    0    0    0  0.00000000000E+00  0.00000000000E+00  0.45593999997E+02  0.45594000000E+02  0.51100000000E-03 0. -1.
         11   -1    0    0    0    0 -0.00000000000E+00 -0.00000000000E+00 -0.45593999997E+02  0.45594000000E+02  0.51100000000E-03 0.  1.
         23    2    1    2    0    0  0.00000000000E+00  0.00000000000E+00  0.35527136788E-14  0.91188000000E+02  0.91188000000E+02 0.  0.
    9900012    2    3    3    0    0  0.11511253323E+02 -0.30663219998E+02  0.30925256089E+02  0.46142317878E+02  0.10000001065E+02 0.  0.
        -12    1    3    3    0    0 -0.11511253323E+02  0.30663219998E+02 -0.30925256089E+02  0.45045682122E+02  0.00000000000E+00 0.  1.
         11    1    4    4    0    0  0.44211495933E+01 -0.91830418594E+01  0.84588647164E+01  0.13244893887E+02  0.51100000000E-03 0. -1.
        -11    1    4    4    0    0  0.83759424504E+01 -0.13454584989E+02  0.15883318091E+02  0.22437960313E+02  0.51100000000E-03 0.  1.
        -12    1    4    4    0    0 -0.12858387210E+01 -0.80255931490E+01  0.65830732814E+01  0.10459463678E+02  0.00000000000E+00 0.  1.
</event>
<event>
 8    1  0.8828843E-009  0.9118800E+02  0.7816164E-02  0.1184000E+00
        -11   -1    0    0    0    0  0.00000000000E+00  0.00000000000E+00  0.45593999997E+02  0.45594000000E+02  0.51100000000E-03 0. -1.
         11   -1    0    0    0    0 -0.00000000000E+00 -0.00000000000E+00 -0.45593999997E+02  0.45594000000E+02  0.51100000000E-03 0.  1.
         23    2    1    2    0    0  0.35527136788E-14 -0.35527136788E-14  0.35527136788E-14  0.91188000000E+02  0.91188000000E+02 0.  0.
    9900012    2    3    3    0    0 -0.25803732667E+02  0.23724468781E+02 -0.28291880325E+02  0.46142317289E+02  0.99999956992E+01 0.  0.
         12    1    3    3    0    0  0.25803732667E+02 -0.23724468781E+02  0.28291880325E+02  0.45045682711E+02  0.00000000000E+00 0. -1.
         11    1    4    4    0    0 -0.52136501019E+00  0.37647067277E+01 -0.30593725750E+01  0.48789956992E+01  0.51100000000E-03 0. -1.
        -11    1    4    4    0    0 -0.84491153308E+01  0.95451596240E+01 -0.11534980032E+02  0.17191666200E+02  0.51100000000E-03 0.  1.
         12    1    4    4    0    0 -0.16833252326E+02  0.10414602430E+02 -0.13697527718E+02  0.24071655390E+02  0.00000000000E+00 0. -1.
</event>
<event>
 8    1  0.8828843E-009  0.9118800E+02  0.7816164E-02  0.1184000E+00
        -11   -1    0    0    0    0  0.00000000000E+00  0.00000000000E+00  0.45593999997E+02  0.45594000000E+02  0.51100000000E-03 0. -1.
         11   -1    0    0    0    0 -0.00000000000E+00 -0.00000000000E+00 -0.45593999997E+02  0.45594000000E+02  0.51100000000E-03 0.  1.
         23    2    1    2    0    0  0.00000000000E+00  0.00000000000E+00  0.00000000000E+00  0.91188000000E+02  0.91188000000E+02 0.  0.
    9900012    2    3    3    0    0  0.28936700339E+02 -0.17944089710E+02  0.29492211977E+02  0.46142317085E+02  0.99999938314E+01 0.  0.
        -12    1    3    3    0    0 -0.28936700339E+02  0.17944089710E+02 -0.29492211977E+02  0.45045682915E+02  0.00000000000E+00 0.  1.
         11    1    4    4    0    0  0.13535237529E+02 -0.94871085995E+01  0.13365497335E+02  0.21256631996E+02  0.51100000000E-03 0. -1.
        -11    1    4    4    0    0  0.13081316974E+02 -0.75552926105E+01  0.95957034108E+01  0.17896391380E+02  0.51100000000E-03 0.  1.
        -12    1    4    4    0    0  0.23201458359E+01 -0.90168850044E+00  0.65310112309E+01  0.69892937089E+01  0.00000000000E+00 0.  1.
</event>
<event>
 8    1  0.8828843E-009  0.9118800E+02  0.7816164E-02  0.1184000E+00
        -11   -1    0    0    0    0  0.00000000000E+00  0.00000000000E+00  0.45593999997E+02  0.45594000000E+02  0.51100000000E-03 0. -1.
         11   -1    0    0    0    0 -0.00000000000E+00 -0.00000000000E+00 -0.45593999997E+02  0.45594000000E+02  0.51100000000E-03 0.  1.
         23    2    1    2    0    0  0.00000000000E+00  0.35527136788E-14 -0.71054273576E-14  0.91188000000E+02  0.91188000000E+02 0.  0.
    9900012    2    3    3    0    0  0.20856874196E+01 -0.24033430256E+02  0.38041522685E+02  0.46142319740E+02  0.10000018047E+02 0.  0.
        -12    1    3    3    0    0 -0.20856874196E+01  0.24033430256E+02 -0.38041522685E+02  0.45045680260E+02  0.00000000000E+00 0.  1.
         11    1    4    4    0    0  0.40383412754E+01 -0.17304201159E+02  0.28166738260E+02  0.33303283960E+02  0.51100000000E-03 0. -1.
        -11    1    4    4    0    0 -0.47280018302E-01 -0.40297481545E+01  0.24603978984E+01  0.47217225319E+01  0.51100000000E-03 0.  1.
        -12    1    4    4    0    0 -0.19053738375E+01 -0.26994809426E+01  0.74143865262E+01  0.81173132488E+01  0.00000000000E+00 0.  1.
</event>
<event>
 8    1  0.8828843E-009  0.9118800E+02  0.7816164E-02  0.1184000E+00
        -11   -1    0    0    0    0  0.00000000000E+00  0.00000000000E+00  0.45593999997E+02  0.45594000000E+02  0.51100000000E-03 0. -1.
         11   -1    0    0    0    0 -0.00000000000E+00 -0.00000000000E+00 -0.45593999997E+02  0.45594000000E+02  0.51100000000E-03 0.  1.
         23    2    1    2    0    0  0.00000000000E+00  0.88817841970E-15  0.00000000000E+00  0.91188000000E+02  0.91188000000E+02 0.  0.
    9900012    2    3    3    0    0  0.30504510674E+02 -0.30200759440E+00 -0.33143583509E+02  0.46142317545E+02  0.99999980276E+01 0.  0.
         12    1    3    3    0    0 -0.30504510674E+02  0.30200759440E+00  0.33143583509E+02  0.45045682455E+02  0.00000000000E+00 0. -1.
         11    1    4    4    0    0  0.50030353681E+01  0.18856185927E+01 -0.81284056098E+01  0.97291776832E+01  0.51100000000E-03 0. -1.
        -11    1    4    4    0    0  0.38547263356E+01  0.20923675551E+01 -0.38061705022E+01  0.58072240581E+01  0.51100000000E-03 0.  1.
        -12    1    4    4    0    0  0.21646748970E+02 -0.42799937422E+01 -0.21209007397E+02  0.30605915804E+02  0.00000000000E+00 0.  1.
</event>
<event>
 8    1  0.8828843E-009  0.9118800E+02  0.7816164E-02  0.1184000E+00
        -11   -1    0    0    0    0  0.00000000000E+00  0.00000000000E+00  0.45593999997E+02  0.45594000000E+02  0.51100000000E-03 0. -1.
         11   -1    0    0    0    0 -0.00000000000E+00 -0.00000000000E+00 -0.45593999997E+02  0.45594000000E+02  0.51100000000E-03 0.  1.
         23    2    1    2    0    0  0.35527136788E-14  0.35527136788E-14  0.00000000000E+00  0.91188000000E+02  0.91188000000E+02 0.  0.
    9900012    2    3    3    0    0  0.26276368712E+02 -0.27721413855E+02  0.23878636069E+02  0.46142316530E+02  0.99999887730E+01 0.  0.
        -12    1    3    3    0    0 -0.26276368712E+02  0.27721413855E+02 -0.23878636069E+02  0.45045683470E+02  0.00000000000E+00 0.  1.
         11    1    4    4    0    0  0.95374740370E+01 -0.10141637265E+02  0.12449964019E+02  0.18676665167E+02  0.51100000000E-03 0. -1.
        -11    1    4    4    0    0  0.11096083156E+02 -0.10495629630E+02  0.40978339129E+01  0.15813713852E+02  0.51100000000E-03 0.  1.
        -12    1    4    4    0    0  0.56428115185E+01 -0.70841469602E+01  0.73308381368E+01  0.11651937512E+02  0.00000000000E+00 0.  1.
</event>
<event>
 8    1  0.8828843E-009  0.9118800E+02  0.7816164E-02  0.1184000E+00
        -11   -1    0    0    0    0  0.00000000000E+00  0.00000000000E+00  0.45593999997E+02  0.45594000000E+02  0.51100000000E-03 0. -1.
         11   -1    0    0    0    0 -0.00000000000E+00 -0.00000000000E+00 -0.45593999997E+02  0.45594000000E+02  0.51100000000E-03 0.  1.
         23    2    1    2    0    0  0.00000000000E+00  0.00000000000E+00  0.35527136788E-14  0.91188000000E+02  0.91188000000E+02 0.  0.
    9900012    2    3    3    0    0 -0.38170173896E+02  0.89134300346E+01 -0.22196900159E+02  0.46142314447E+02  0.99999697815E+01 0.  0.
         12    1    3    3    0    0  0.38170173896E+02 -0.89134300346E+01  0.22196900159E+02  0.45045685553E+02  0.00000000000E+00 0. -1.
         11    1    4    4    0    0 -0.22292069996E+02  0.23915186326E+01 -0.13871598871E+02  0.26364313030E+02  0.51100000000E-03 0. -1.
        -11    1    4    4    0    0 -0.12091652643E+02  0.69674369429E+01 -0.53651871509E+01  0.14951203116E+02  0.51100000000E-03 0.  1.
        -12    1    4    4    0    0 -0.37864512580E+01 -0.44552554088E+00 -0.29601141366E+01  0.48267983010E+01  0.00000000000E+00 0.  1.
</event>
<event>
 8    1  0.8828843E-009  0.9118800E+02  0.7816164E-02  0.1184000E+00
        -11   -1    0    0    0    0  0.00000000000E+00  0.00000000000E+00  0.45593999997E+02  0.45594000000E+02  0.51100000000E-03 0. -1.
         11   -1    0    0    0    0 -0.00000000000E+00 -0.00000000000E+00 -0.45593999997E+02  0.45594000000E+02  0.51100000000E-03 0.  1.
         23    2    1    2    0    0  0.00000000000E+00 -0.71054273576E-14  0.00000000000E+00  0.91188000000E+02  0.91188000000E+02 0.  0.
    9900012    2    3    3    0    0 -0.10508582487E+02 -0.35813458326E+02 -0.25220610594E+02  0.46142319831E+02  0.10000018875E+02 0.  0.
         12    1    3    3    0    0  0.10508582487E+02  0.35813458326E+02  0.25220610594E+02  0.45045680169E+02  0.00000000000E+00 0. -1.
         11    1    4    4    0    0 -0.11449810886E+01 -0.59405478218E+00 -0.13529245416E+01  0.18693014347E+01  0.51100000000E-03 0. -1.
        -11    1    4    4    0    0 -0.21814929289E+01 -0.15169201065E+02 -0.14166419193E+02  0.20869858777E+02  0.51100000000E-03 0.  1.
        -12    1    4    4    0    0 -0.71821084694E+01 -0.20050202479E+02 -0.97012668595E+01  0.23403159620E+02  0.00000000000E+00 0.  1.
</event>
<event>
 8    1  0.8828843E-009  0.9118800E+02  0.7816164E-02  0.1184000E+00
        -11   -1    0    0    0    0  0.00000000000E+00  0.00000000000E+00  0.45593999997E+02  0.45594000000E+02  0.51100000000E-03 0. -1.
         11   -1    0    0    0    0 -0.00000000000E+00 -0.00000000000E+00 -0.45593999997E+02  0.45594000000E+02  0.51100000000E-03 0.  1.
         23    2    1    2    0    0  0.00000000000E+00  0.17763568394E-14  0.00000000000E+00  0.91188000000E+02  0.91188000000E+02 0.  0.
    9900012    2    3    3    0    0 -0.40792078921E+02  0.12976258583E+02  0.14026277551E+02  0.46142318171E+02  0.10000003740E+02 0.  0.
        -12    1    3    3    0    0  0.40792078921E+02 -0.12976258583E+02 -0.14026277551E+02  0.45045681829E+02  0.00000000000E+00 0.  1.
         11    1    4    4    0    0 -0.84450779430E+01  0.24613832796E+01  0.54254674297E+01  0.10335059081E+02  0.51100000000E-03 0. -1.
        -11    1    4    4    0    0 -0.18246353713E+02  0.43290265423E+01  0.13890269296E+01  0.18804235977E+02  0.51100000000E-03 0.  1.
        -12    1    4    4    0    0 -0.14100647265E+02  0.61858487609E+01  0.72117831921E+01  0.17003023113E+02  0.00000000000E+00 0.  1.
</event>
<event>
 8    1  0.8828843E-009  0.9118800E+02  0.7816164E-02  0.1184000E+00
        -11   -1    0    0    0    0  0.00000000000E+00  0.00000000000E+00  0.45593999997E+02  0.45594000000E+02  0.51100000000E-03 0. -1.
         11   -1    0    0    0    0 -0.00000000000E+00 -0.00000000000E+00 -0.45593999997E+02  0.45594000000E+02  0.51100000000E-03 0.  1.
         23    2    1    2    0    0 -0.44408920985E-15 -0.35527136788E-14 -0.71054273576E-14  0.91188000000E+02  0.91188000000E+02 0.  0.
    9900012    2    3    3    0    0 -0.35181443530E+01  0.24609077814E+02  0.37565002872E+02  0.46142317728E+02  0.99999997023E+01 0.  0.
        -12    1    3    3    0    0  0.35181443530E+01 -0.24609077814E+02 -0.37565002872E+02  0.45045682272E+02  0.00000000000E+00 0.  1.
         11    1    4    4    0    0 -0.44988322444E+00  0.98830431344E+01  0.12180507439E+02  0.15692090309E+02  0.51100000000E-03 0. -1.
        -11    1    4    4    0    0  0.17813260107E+01  0.62860579494E+01  0.14148297467E+02  0.15584029273E+02  0.51100000000E-03 0.  1.
         12    1    4    4    0    0 -0.48495871393E+01  0.84399767300E+01  0.11236197966E+02  0.14866198147E+02  0.00000000000E+00 0. -1.
</event>
<event>
 8    1  0.8828843E-009  0.9118800E+02  0.7816164E-02  0.1184000E+00
        -11   -1    0    0    0    0  0.00000000000E+00  0.00000000000E+00  0.45593999997E+02  0.45594000000E+02  0.51100000000E-03 0. -1.
         11   -1    0    0    0    0 -0.00000000000E+00 -0.00000000000E+00 -0.45593999997E+02  0.45594000000E+02  0.51100000000E-03 0.  1.
         23    2    1    2    0    0  0.88817841970E-15  0.17763568394E-14  0.00000000000E+00  0.91188000000E+02  0.91188000000E+02 0.  0.
    9900012    2    3    3    0    0 -0.50161355016E+01 -0.91225065069E+01 -0.43826153549E+02  0.46142317907E+02  0.10000001327E+02 0.  0.
         12    1    3    3    0    0  0.50161355016E+01  0.91225065069E+01  0.43826153549E+02  0.45045682093E+02  0.00000000000E+00 0. -1.
         11    1    4    4    0    0 -0.14506258042E+01 -0.21937948615E+00 -0.41711695965E+01  0.44216624302E+01  0.51100000000E-03 0. -1.
        -11    1    4    4    0    0  0.26840836224E+01 -0.20350427606E+01 -0.15035242982E+02  0.15407927690E+02  0.51100000000E-03 0.  1.
        -12    1    4    4    0    0 -0.62495933199E+01 -0.68680842602E+01 -0.24619740971E+02  0.26312727786E+02  0.00000000000E+00 0.  1.
</event>
<event>
 8    1  0.1194404E-008  0.9118800E+02  0.7816164E-02  0.1184000E+00
        -11   -1    0    0    0    0  0.00000000000E+00  0.00000000000E+00  0.45593999997E+02  0.45594000000E+02  0.51100000000E-03 0.  1.
         11   -1    0    0    0    0 -0.00000000000E+00 -0.00000000000E+00 -0.45593999997E+02  0.45594000000E+02  0.51100000000E-03 0. -1.
         23    2    1    2    0    0 -0.44408920985E-15  0.00000000000E+00  0.35527136788E-14  0.91188000000E+02  0.91188000000E+02 0.  0.
    9900012    2    3    3    0    0  0.32086754883E+01  0.38124851781E+02  0.23776309211E+02  0.46142325386E+02  0.10000069531E+02 0.  0.
        -12    1    3    3    0    0 -0.32086754883E+01 -0.38124851781E+02 -0.23776309211E+02  0.45045674614E+02  0.00000000000E+00 0.  1.
         11    1    4    4    0    0  0.20894212190E+01  0.23028621587E+02  0.12031922482E+02  0.26066266555E+02  0.51100000000E-03 0. -1.
        -11    1    4    4    0    0 -0.18931504313E+01  0.10914549809E+02  0.72611598885E+01  0.13245220243E+02  0.51100000000E-03 0.  1.
        -12    1    4    4    0    0  0.30124047007E+01  0.41816803851E+01  0.44832268401E+01  0.68308385886E+01  0.00000000000E+00 0.  1.
</event>
<event>
 8    1  0.8828843E-009  0.9118800E+02  0.7816164E-02  0.1184000E+00
        -11   -1    0    0    0    0  0.00000000000E+00  0.00000000000E+00  0.45593999997E+02  0.45594000000E+02  0.51100000000E-03 0. -1.
         11   -1    0    0    0    0 -0.00000000000E+00 -0.00000000000E+00 -0.45593999997E+02  0.45594000000E+02  0.51100000000E-03 0.  1.
         23    2    1    2    0    0  0.00000000000E+00  0.00000000000E+00  0.00000000000E+00  0.91188000000E+02  0.91188000000E+02 0.  0.
    9900012    2    3    3    0    0 -0.22781138730E+02 -0.19812677224E+02 -0.33430390711E+02  0.46142317813E+02  0.10000000471E+02 0.  0.
         12    1    3    3    0    0  0.22781138730E+02  0.19812677224E+02  0.33430390711E+02  0.45045682187E+02  0.00000000000E+00 0. -1.
         11    1    4    4    0    0 -0.16875746604E+02 -0.16074509612E+02 -0.25438408852E+02  0.34500627935E+02  0.51100000000E-03 0. -1.
        -11    1    4    4    0    0 -0.50870166747E+01 -0.46025492888E+01 -0.52052378577E+01  0.86113703916E+01  0.51100000000E-03 0.  1.
         12    1    4    4    0    0 -0.81837545128E+00  0.86438167631E+00 -0.27867440012E+01  0.30303194864E+01  0.00000000000E+00 0. -1.
</event>
<event>
 8    1  0.8828843E-009  0.9118800E+02  0.7816164E-02  0.1184000E+00
        -11   -1    0    0    0    0  0.00000000000E+00  0.00000000000E+00  0.45593999997E+02  0.45594000000E+02  0.51100000000E-03 0. -1.
         11   -1    0    0    0    0 -0.00000000000E+00 -0.00000000000E+00 -0.45593999997E+02  0.45594000000E+02  0.51100000000E-03 0.  1.
         23    2    1    2    0    0  0.00000000000E+00  0.00000000000E+00  0.00000000000E+00  0.91188000000E+02  0.91188000000E+02 0.  0.
    9900012    2    3    3    0    0  0.41549396701E+02 -0.92309414432E+01  0.14749603459E+02  0.46142318205E+02  0.10000004047E+02 0.  0.
        -12    1    3    3    0    0 -0.41549396701E+02  0.92309414432E+01 -0.14749603459E+02  0.45045681795E+02  0.00000000000E+00 0.  1.
         11    1    4    4    0    0  0.14079885864E+02 -0.70501619566E+01  0.36572186742E+01  0.16165494680E+02  0.51100000000E-03 0. -1.
        -11    1    4    4    0    0  0.98347232821E+01 -0.31507803026E+00  0.60086405424E+01  0.11529302565E+02  0.51100000000E-03 0.  1.
        -12    1    4    4    0    0  0.17634787556E+02 -0.18657014563E+01  0.50837442426E+01  0.18447520960E+02  0.00000000000E+00 0.  1.
</event>
<event>
 8    1  0.8828843E-009  0.9118800E+02  0.7816164E-02  0.1184000E+00
        -11   -1    0    0    0    0  0.00000000000E+00  0.00000000000E+00  0.45593999997E+02  0.45594000000E+02  0.51100000000E-03 0. -1.
         11   -1    0    0    0    0 -0.00000000000E+00 -0.00000000000E+00 -0.45593999997E+02  0.45594000000E+02  0.51100000000E-03 0.  1.
         23    2    1    2    0    0  0.17763568394E-14  0.00000000000E+00  0.00000000000E+00  0.91188000000E+02  0.91188000000E+02 0.  0.
    9900012    2    3    3    0    0 -0.86139793196E+01 -0.62175317800E+01 -0.43775051094E+02  0.46142318304E+02  0.10000004948E+02 0.  0.
         12    1    3    3    0    0  0.86139793196E+01  0.62175317800E+01  0.43775051094E+02  0.45045681696E+02  0.00000000000E+00 0. -1.
         11    1    4    4    0    0 -0.95864759400E+00 -0.39638157442E+01 -0.26825972772E+02  0.27134178740E+02  0.51100000000E-03 0. -1.
        -11    1    4    4    0    0 -0.26483370250E+01 -0.55427783622E+00 -0.94685151718E+01  0.98475221623E+01  0.51100000000E-03 0.  1.
         12    1    4    4    0    0 -0.50069947006E+01 -0.16994381996E+01 -0.74805631505E+01  0.91606174014E+01  0.00000000000E+00 0. -1.
</event>
<event>
 8    1  0.8828843E-009  0.9118800E+02  0.7816164E-02  0.1184000E+00
        -11   -1    0    0    0    0  0.00000000000E+00  0.00000000000E+00  0.45593999997E+02  0.45594000000E+02  0.51100000000E-03 0. -1.
         11   -1    0    0    0    0 -0.00000000000E+00 -0.00000000000E+00 -0.45593999997E+02  0.45594000000E+02  0.51100000000E-03 0.  1.
         23    2    1    2    0    0  0.00000000000E+00  0.35527136788E-14  0.22204460493E-15  0.91188000000E+02  0.91188000000E+02 0.  0.
    9900012    2    3    3    0    0 -0.35470970536E+02  0.27704913314E+02 -0.18334044005E+01  0.46142319361E+02  0.10000014592E+02 0.  0.
         12    1    3    3    0    0  0.35470970536E+02 -0.27704913314E+02  0.18334044005E+01  0.45045680639E+02  0.00000000000E+00 0. -1.
         11    1    4    4    0    0 -0.17468836933E+02  0.17065603011E+02 -0.80513783304E+00  0.24434469856E+02  0.51100000000E-03 0.  1.
        -11    1    4    4    0    0 -0.69001284647E+01  0.71141095908E+01 -0.16309793635E+01  0.10044024196E+02  0.51100000000E-03 0. -1.
         12    1    4    4    0    0 -0.11102005138E+02  0.35252007122E+01  0.60271279596E+00  0.11663825310E+02  0.00000000000E+00 0. -1.
</event>
<event>
 8    1  0.8828843E-009  0.9118800E+02  0.7816164E-02  0.1184000E+00
        -11   -1    0    0    0    0  0.00000000000E+00  0.00000000000E+00  0.45593999997E+02  0.45594000000E+02  0.51100000000E-03 0. -1.
         11   -1    0    0    0    0 -0.00000000000E+00 -0.00000000000E+00 -0.45593999997E+02  0.45594000000E+02  0.51100000000E-03 0.  1.
         23    2    1    2    0    0  0.71054273576E-14  0.88817841970E-15 -0.35527136788E-14  0.91188000000E+02  0.91188000000E+02 0.  0.
    9900012    2    3    3    0    0  0.37683804699E+02  0.77724446631E+01 -0.23422926113E+02  0.46142317628E+02  0.99999987895E+01 0.  0.
         12    1    3    3    0    0 -0.37683804699E+02 -0.77724446631E+01  0.23422926113E+02  0.45045682372E+02  0.00000000000E+00 0. -1.
         11    1    4    4    0    0  0.59650401351E+01  0.39257306846E+00 -0.36093259428E+01  0.69830545931E+01  0.51100000000E-03 0.  1.
        -11    1    4    4    0    0  0.26712321637E+02  0.89910310310E+01 -0.14551876678E+02  0.31719771142E+02  0.51100000000E-03 0. -1.
         12    1    4    4    0    0  0.50064429273E+01 -0.16111594364E+01 -0.52617234926E+01  0.74394918930E+01  0.00000000000E+00 0. -1.
</event>
<event>
 8    1  0.8828843E-009  0.9118800E+02  0.7816164E-02  0.1184000E+00
        -11   -1    0    0    0    0  0.00000000000E+00  0.00000000000E+00  0.45593999997E+02  0.45594000000E+02  0.51100000000E-03 0. -1.
         11   -1    0    0    0    0 -0.00000000000E+00 -0.00000000000E+00 -0.45593999997E+02  0.45594000000E+02  0.51100000000E-03 0.  1.
         23    2    1    2    0    0  0.35527136788E-14  0.00000000000E+00  0.00000000000E+00  0.91188000000E+02  0.91188000000E+02 0.  0.
    9900012    2    3    3    0    0 -0.88648156913E+01  0.20521097752E+01 -0.44117086717E+02  0.46142318163E+02  0.10000003666E+02 0.  0.
         12    1    3    3    0    0  0.88648156913E+01 -0.20521097752E+01  0.44117086717E+02  0.45045681837E+02  0.00000000000E+00 0. -1.
         11    1    4    4    0    0 -0.38790789181E+01  0.50042611003E+01 -0.25542987706E+02  0.26316042705E+02  0.51100000000E-03 0. -1.
        -11    1    4    4    0    0 -0.59977067445E+00 -0.13132599776E+01 -0.13480843404E+01  0.19752742292E+01  0.51100000000E-03 0.  1.
        -12    1    4    4    0    0 -0.43859660988E+01 -0.16388913475E+01 -0.17226014670E+02  0.17851001229E+02  0.00000000000E+00 0.  1.
</event>
<event>
 8    1  0.1099377E-008  0.9118800E+02  0.7816164E-02  0.1184000E+00
        -11   -1    0    0    0    0  0.00000000000E+00  0.00000000000E+00  0.45593999997E+02  0.45594000000E+02  0.51100000000E-03 0. -1.
         11   -1    0    0    0    0 -0.00000000000E+00 -0.00000000000E+00 -0.45593999997E+02  0.45594000000E+02  0.51100000000E-03 0.  1.
         23    2    1    2    0    0  0.00000000000E+00  0.00000000000E+00  0.71054273576E-14  0.91188000000E+02  0.91188000000E+02 0.  0.
    9900012    2    3    3    0    0 -0.59814175895E+01  0.15011318286E+02  0.42047550068E+02  0.46142317634E+02  0.99999988438E+01 0.  0.
        -12    1    3    3    0    0  0.59814175895E+01 -0.15011318286E+02 -0.42047550068E+02  0.45045682366E+02  0.00000000000E+00 0.  1.
         11    1    4    4    0    0 -0.26737086668E+01  0.76776265861E+01  0.23164426866E+02  0.24549650513E+02  0.51100000000E-03 0. -1.
        -11    1    4    4    0    0  0.12505020489E+01  0.72812829702E+00  0.76585200568E+01  0.77940269382E+01  0.51100000000E-03 0.  1.
        -12    1    4    4    0    0 -0.45582109715E+01  0.66055634027E+01  0.11224603145E+02  0.13798640183E+02  0.00000000000E+00 0.  1.
</event>
<event>
 8    1  0.8828843E-009  0.9118800E+02  0.7816164E-02  0.1184000E+00
        -11   -1    0    0    0    0  0.00000000000E+00  0.00000000000E+00  0.45593999997E+02  0.45594000000E+02  0.51100000000E-03 0. -1.
         11   -1    0    0    0    0 -0.00000000000E+00 -0.00000000000E+00 -0.45593999997E+02  0.45594000000E+02  0.51100000000E-03 0.  1.
         23    2    1    2    0    0  0.00000000000E+00  0.00000000000E+00  0.00000000000E+00  0.91188000000E+02  0.91188000000E+02 0.  0.
    9900012    2    3    3    0    0 -0.16074360626E+02  0.62106493031E+01  0.41619181155E+02  0.46142317917E+02  0.10000001422E+02 0.  0.
        -12    1    3    3    0    0  0.16074360626E+02 -0.62106493031E+01 -0.41619181155E+02  0.45045682083E+02  0.00000000000E+00 0.  1.
         11    1    4    4    0    0 -0.96650917641E+01  0.80639775924E+00  0.16558697936E+02  0.19189964923E+02  0.51100000000E-03 0. -1.
        -11    1    4    4    0    0 -0.34674356715E+00  0.11862161298E+01  0.11009024594E+02  0.11078175056E+02  0.51100000000E-03 0.  1.
         12    1    4    4    0    0 -0.60625252948E+01  0.42180354141E+01  0.14051458626E+02  0.15874177938E+02  0.00000000000E+00 0. -1.
</event>
<event>
 8    1  0.8828843E-009  0.9118800E+02  0.7816164E-02  0.1184000E+00
        -11   -1    0    0    0    0  0.00000000000E+00  0.00000000000E+00  0.45593999997E+02  0.45594000000E+02  0.51100000000E-03 0. -1.
         11   -1    0    0    0    0 -0.00000000000E+00 -0.00000000000E+00 -0.45593999997E+02  0.45594000000E+02  0.51100000000E-03 0.  1.
         23    2    1    2    0    0  0.00000000000E+00 -0.35527136788E-14  0.00000000000E+00  0.91188000000E+02  0.91188000000E+02 0.  0.
    9900012    2    3    3    0    0  0.24044950922E+02  0.28275726234E+02  0.25523266198E+02  0.46142317895E+02  0.10000001220E+02 0.  0.
        -12    1    3    3    0    0 -0.24044950922E+02 -0.28275726234E+02 -0.25523266198E+02  0.45045682105E+02  0.00000000000E+00 0.  1.
         11    1    4    4    0    0  0.15729033541E+02  0.17891120574E+02  0.10690066068E+02  0.26110767977E+02  0.51100000000E-03 0. -1.
        -11    1    4    4    0    0  0.62354486718E+01  0.62967592213E+01  0.93364737355E+01  0.12872441062E+02  0.51100000000E-03 0.  1.
         12    1    4    4    0    0  0.20804687090E+01  0.40878464388E+01  0.54967263941E+01  0.71591088557E+01  0.00000000000E+00 0. -1.
</event>
<event>
 8    1  0.8828843E-009  0.9118800E+02  0.7816164E-02  0.1184000E+00
        -11   -1    0    0    0    0  0.00000000000E+00  0.00000000000E+00  0.45593999997E+02  0.45594000000E+02  0.51100000000E-03 0. -1.
         11   -1    0    0    0    0 -0.00000000000E+00 -0.00000000000E+00 -0.45593999997E+02  0.45594000000E+02  0.51100000000E-03 0.  1.
         23    2    1    2    0    0 -0.35527136788E-14  0.00000000000E+00  0.35527136788E-14  0.91188000000E+02  0.91188000000E+02 0.  0.
    9900012    2    3    3    0    0  0.29083640095E+02 -0.21979280855E+02 -0.26460664945E+02  0.46142315441E+02  0.99999788397E+01 0.  0.
         12    1    3    3    0    0 -0.29083640095E+02  0.21979280855E+02  0.26460664945E+02  0.45045684559E+02  0.00000000000E+00 0. -1.
         11    1    4    4    0    0  0.29566977197E+01 -0.50550326131E+00 -0.82486387330E+00  0.31109477050E+01  0.51100000000E-03 0. -1.
        -11    1    4    4    0    0  0.14524215292E+02 -0.73348246265E+01 -0.12129077233E+02  0.20294506570E+02  0.51100000000E-03 0.  1.
         12    1    4    4    0    0  0.11602727083E+02 -0.14138952968E+02 -0.13506723839E+02  0.22736861165E+02  0.00000000000E+00 0. -1.
</event>
<event>
 8    1  0.8828843E-009  0.9118800E+02  0.7816164E-02  0.1184000E+00
        -11   -1    0    0    0    0  0.00000000000E+00  0.00000000000E+00  0.45593999997E+02  0.45594000000E+02  0.51100000000E-03 0. -1.
         11   -1    0    0    0    0 -0.00000000000E+00 -0.00000000000E+00 -0.45593999997E+02  0.45594000000E+02  0.51100000000E-03 0.  1.
         23    2    1    2    0    0  0.35527136788E-14 -0.88817841970E-15  0.00000000000E+00  0.91188000000E+02  0.91188000000E+02 0.  0.
    9900012    2    3    3    0    0 -0.30266497668E+02  0.40481351450E+01  0.33115936003E+02  0.46142317670E+02  0.99999991682E+01 0.  0.
        -12    1    3    3    0    0  0.30266497668E+02 -0.40481351450E+01 -0.33115936003E+02  0.45045682330E+02  0.00000000000E+00 0.  1.
         11    1    4    4    0    0 -0.61483100554E+01  0.17154599604E+01  0.12259044517E+02  0.13821312968E+02  0.51100000000E-03 0. -1.
        -11    1    4    4    0    0 -0.74286181699E+00 -0.34390145703E+00  0.20259242514E+01  0.21850586319E+01  0.51100000000E-03 0.  1.
         12    1    4    4    0    0 -0.23375325796E+02  0.26765766416E+01  0.18830967234E+02  0.30135946070E+02  0.00000000000E+00 0. -1.
</event>
<event>
 8    1  0.8828843E-009  0.9118800E+02  0.7816164E-02  0.1184000E+00
        -11   -1    0    0    0    0  0.00000000000E+00  0.00000000000E+00  0.45593999997E+02  0.45594000000E+02  0.51100000000E-03 0. -1.
         11   -1    0    0    0    0 -0.00000000000E+00 -0.00000000000E+00 -0.45593999997E+02  0.45594000000E+02  0.51100000000E-03 0.  1.
         23    2    1    2    0    0 -0.17763568394E-14  0.35527136788E-14  0.00000000000E+00  0.91188000000E+02  0.91188000000E+02 0.  0.
    9900012    2    3    3    0    0  0.13091756008E+02 -0.26971784196E+02  0.33619076164E+02  0.46142317630E+02  0.99999988055E+01 0.  0.
        -12    1    3    3    0    0 -0.13091756008E+02  0.26971784196E+02 -0.33619076164E+02  0.45045682370E+02  0.00000000000E+00 0.  1.
         11    1    4    4    0    0  0.44310185646E+01 -0.67330753047E+01  0.13431302505E+02  0.15664230457E+02  0.51100000000E-03 0. -1.
        -11    1    4    4    0    0  0.28251939825E+00 -0.62868824373E+01  0.36467105471E+01  0.72734590166E+01  0.51100000000E-03 0.  1.
        -12    1    4    4    0    0  0.83782180452E+01 -0.13951826454E+02  0.16541063112E+02  0.23204628156E+02  0.00000000000E+00 0.  1.
</event>
<event>
 8    1  0.8828843E-009  0.9118800E+02  0.7816164E-02  0.1184000E+00
        -11   -1    0    0    0    0  0.00000000000E+00  0.00000000000E+00  0.45593999997E+02  0.45594000000E+02  0.51100000000E-03 0. -1.
         11   -1    0    0    0    0 -0.00000000000E+00 -0.00000000000E+00 -0.45593999997E+02  0.45594000000E+02  0.51100000000E-03 0.  1.
         23    2    1    2    0    0  0.00000000000E+00  0.88817841970E-15  0.00000000000E+00  0.91188000000E+02  0.91188000000E+02 0.  0.
    9900012    2    3    3    0    0 -0.37040334808E+02  0.65655253456E+01 -0.24779447875E+02  0.46142316936E+02  0.99999924753E+01 0.  0.
         12    1    3    3    0    0  0.37040334808E+02 -0.65655253456E+01  0.24779447875E+02  0.45045683064E+02  0.00000000000E+00 0. -1.
         11    1    4    4    0    0 -0.12529557511E+02  0.67338047255E+01 -0.93531658516E+01  0.17023972780E+02  0.51100000000E-03 0. -1.
        -11    1    4    4    0    0 -0.18649551592E+02  0.86710997615E+00 -0.10703568765E+02  0.21520316886E+02  0.51100000000E-03 0.  1.
         12    1    4    4    0    0 -0.58612257039E+01 -0.10353893561E+01 -0.47227132585E+01  0.75980272698E+01  0.00000000000E+00 0. -1.
</event>
<event>
 8    1  0.8828843E-009  0.9118800E+02  0.7816164E-02  0.1184000E+00
        -11   -1    0    0    0    0  0.00000000000E+00  0.00000000000E+00  0.45593999997E+02  0.45594000000E+02  0.51100000000E-03 0.  1.
         11   -1    0    0    0    0 -0.00000000000E+00 -0.00000000000E+00 -0.45593999997E+02  0.45594000000E+02  0.51100000000E-03 0. -1.
         23    2    1    2    0    0  0.00000000000E+00  0.00000000000E+00  0.00000000000E+00  0.91188000000E+02  0.91188000000E+02 0.  0.
    9900012    2    3    3    0    0  0.23750683635E+02  0.36494165780E+02 -0.11540987457E+02  0.46142317626E+02  0.99999987664E+01 0.  0.
        -12    1    3    3    0    0 -0.23750683635E+02 -0.36494165780E+02  0.11540987457E+02  0.45045682374E+02  0.00000000000E+00 0.  1.
         11    1    4    4    0    0  0.20953153853E+02  0.31051705541E+02 -0.10251992266E+02  0.38837435794E+02  0.51100000000E-03 0. -1.
        -11    1    4    4    0    0  0.27421575803E+01  0.12825956440E+01 -0.64244437433E+00  0.30947075495E+01  0.51100000000E-03 0.  1.
        -12    1    4    4    0    0  0.55372201487E-01  0.41598645948E+01 -0.64655081617E+00  0.42101742821E+01  0.00000000000E+00 0.  1.
</event>
<event>
 8    1  0.8828843E-009  0.9118800E+02  0.7816164E-02  0.1184000E+00
        -11   -1    0    0    0    0  0.00000000000E+00  0.00000000000E+00  0.45593999997E+02  0.45594000000E+02  0.51100000000E-03 0. -1.
         11   -1    0    0    0    0 -0.00000000000E+00 -0.00000000000E+00 -0.45593999997E+02  0.45594000000E+02  0.51100000000E-03 0.  1.
         23    2    1    2    0    0  0.00000000000E+00  0.00000000000E+00  0.00000000000E+00  0.91188000000E+02  0.91188000000E+02 0.  0.
    9900012    2    3    3    0    0  0.17325187982E+02 -0.16157210793E+02 -0.38313128109E+02  0.46142318912E+02  0.10000010490E+02 0.  0.
         12    1    3    3    0    0 -0.17325187982E+02  0.16157210793E+02  0.38313128109E+02  0.45045681088E+02  0.00000000000E+00 0. -1.
         11    1    4    4    0    0  0.32167939484E+01 -0.29824854246E+01 -0.23508490958E+01  0.49768940461E+01  0.51100000000E-03 0. -1.
        -11    1    4    4    0    0  0.12050502809E+01 -0.23926737199E+01 -0.89924837097E+01  0.93830590555E+01  0.51100000000E-03 0.  1.
         12    1    4    4    0    0  0.12903343753E+02 -0.10782051649E+02 -0.26969795304E+02  0.31782365810E+02  0.00000000000E+00 0. -1.
</event>
<event>
 8    1  0.8828843E-009  0.9118800E+02  0.7816164E-02  0.1184000E+00
        -11   -1    0    0    0    0  0.00000000000E+00  0.00000000000E+00  0.45593999997E+02  0.45594000000E+02  0.51100000000E-03 0. -1.
         11   -1    0    0    0    0 -0.00000000000E+00 -0.00000000000E+00 -0.45593999997E+02  0.45594000000E+02  0.51100000000E-03 0.  1.
         23    2    1    2    0    0  0.00000000000E+00  0.00000000000E+00  0.00000000000E+00  0.91188000000E+02  0.91188000000E+02 0.  0.
    9900012    2    3    3    0    0 -0.30351583439E+02  0.32876056416E+02  0.52019038518E+01  0.46142317560E+02  0.99999981696E+01 0.  0.
        -12    1    3    3    0    0  0.30351583439E+02 -0.32876056416E+02 -0.52019038518E+01  0.45045682440E+02  0.00000000000E+00 0.  1.
         11    1    4    4    0    0 -0.20462474951E+01  0.29213868437E+01 -0.74194389560E+00  0.36430908453E+01  0.51100000000E-03 0. -1.
        -11    1    4    4    0    0 -0.11823811645E+01  0.52692650558E+00  0.18665390949E+01  0.22714852441E+01  0.51100000000E-03 0.  1.
        -12    1    4    4    0    0 -0.27122954780E+02  0.29427743067E+02  0.40773086525E+01  0.40227741471E+02  0.00000000000E+00 0.  1.
</event>
<event>
 8    1  0.8828843E-009  0.9118800E+02  0.7816164E-02  0.1184000E+00
        -11   -1    0    0    0    0  0.00000000000E+00  0.00000000000E+00  0.45593999997E+02  0.45594000000E+02  0.51100000000E-03 0. -1.
         11   -1    0    0    0    0 -0.00000000000E+00 -0.00000000000E+00 -0.45593999997E+02  0.45594000000E+02  0.51100000000E-03 0.  1.
         23    2    1    2    0    0 -0.35527136788E-14 -0.35527136788E-14  0.00000000000E+00  0.91188000000E+02  0.91188000000E+02 0.  0.
    9900012    2    3    3    0    0  0.30888999379E+02  0.29627078811E+02  0.14043485285E+02  0.46142316961E+02  0.99999927029E+01 0.  0.
        -12    1    3    3    0    0 -0.30888999379E+02 -0.29627078811E+02 -0.14043485285E+02  0.45045683039E+02  0.00000000000E+00 0.  1.
         11    1    4    4    0    0  0.18526395990E+02  0.21067413247E+02  0.65706357197E+01  0.28813824865E+02  0.51100000000E-03 0. -1.
        -11    1    4    4    0    0  0.61868566206E+00  0.15317590774E+01 -0.15666178816E+00  0.16593977813E+01  0.51100000000E-03 0.  1.
         12    1    4    4    0    0  0.11743917727E+02  0.70279064865E+01  0.76295113535E+01  0.15669094315E+02  0.00000000000E+00 0. -1.
</event>
<event>
 8    1  0.8828843E-009  0.9118800E+02  0.7816164E-02  0.1184000E+00
        -11   -1    0    0    0    0  0.00000000000E+00  0.00000000000E+00  0.45593999997E+02  0.45594000000E+02  0.51100000000E-03 0. -1.
         11   -1    0    0    0    0 -0.00000000000E+00 -0.00000000000E+00 -0.45593999997E+02  0.45594000000E+02  0.51100000000E-03 0.  1.
         23    2    1    2    0    0 -0.35527136788E-14  0.00000000000E+00  0.71054273576E-14  0.91188000000E+02  0.91188000000E+02 0.  0.
    9900012    2    3    3    0    0 -0.24249474608E+02  0.13739872401E+02  0.35387737281E+02  0.46142322491E+02  0.10000043129E+02 0.  0.
        -12    1    3    3    0    0  0.24249474608E+02 -0.13739872401E+02 -0.35387737281E+02  0.45045677509E+02  0.00000000000E+00 0.  1.
         11    1    4    4    0    0 -0.11335055404E+02  0.62007586906E+01  0.13286603209E+02  0.18532855000E+02  0.51100000000E-03 0. -1.
        -11    1    4    4    0    0 -0.13968457921E+01  0.43863686487E+01  0.59200398750E+01  0.74992186574E+01  0.51100000000E-03 0.  1.
        -12    1    4    4    0    0 -0.11517573412E+02  0.31527450620E+01  0.16181094197E+02  0.20110248834E+02  0.00000000000E+00 0.  1.
</event>
<event>
 8    1  0.8828843E-009  0.9118800E+02  0.7816164E-02  0.1184000E+00
        -11   -1    0    0    0    0  0.00000000000E+00  0.00000000000E+00  0.45593999997E+02  0.45594000000E+02  0.51100000000E-03 0. -1.
         11   -1    0    0    0    0 -0.00000000000E+00 -0.00000000000E+00 -0.45593999997E+02  0.45594000000E+02  0.51100000000E-03 0.  1.
         23    2    1    2    0    0  0.00000000000E+00  0.17763568394E-14  0.00000000000E+00  0.91188000000E+02  0.91188000000E+02 0.  0.
    9900012    2    3    3    0    0 -0.10723184858E+02  0.14780492528E+02 -0.41178442393E+02  0.46142314626E+02  0.99999714104E+01 0.  0.
         12    1    3    3    0    0  0.10723184858E+02 -0.14780492528E+02  0.41178442393E+02  0.45045685374E+02  0.00000000000E+00 0. -1.
         11    1    4    4    0    0 -0.29771218165E+01  0.41825944721E+01 -0.45380362661E+01  0.68520890421E+01  0.51100000000E-03 0. -1.
        -11    1    4    4    0    0 -0.41455551259E+01  0.17354408329E+01 -0.94016400707E+01  0.10420567090E+02  0.51100000000E-03 0.  1.
        -12    1    4    4    0    0 -0.36005079155E+01  0.88624572234E+01 -0.27238766057E+02  0.28869658494E+02  0.00000000000E+00 0.  1.
</event>
<event>
 8    1  0.8828843E-009  0.9118800E+02  0.7816164E-02  0.1184000E+00
        -11   -1    0    0    0    0  0.00000000000E+00  0.00000000000E+00  0.45593999997E+02  0.45594000000E+02  0.51100000000E-03 0. -1.
         11   -1    0    0    0    0 -0.00000000000E+00 -0.00000000000E+00 -0.45593999997E+02  0.45594000000E+02  0.51100000000E-03 0.  1.
         23    2    1    2    0    0  0.00000000000E+00  0.88817841970E-15  0.00000000000E+00  0.91188000000E+02  0.91188000000E+02 0.  0.
    9900012    2    3    3    0    0 -0.27603410386E+02  0.55275731275E+01  0.35165484542E+02  0.46142316159E+02  0.99999853950E+01 0.  0.
        -12    1    3    3    0    0  0.27603410386E+02 -0.55275731275E+01 -0.35165484542E+02  0.45045683841E+02  0.00000000000E+00 0.  1.
         11    1    4    4    0    0 -0.65489943856E+00  0.35310962291E+00 -0.19954946300E+00  0.77032456129E+00  0.51100000000E-03 0. -1.
        -11    1    4    4    0    0 -0.73204202329E+01 -0.25387170488E+00  0.52272861642E+01  0.89987512541E+01  0.51100000000E-03 0.  1.
         12    1    4    4    0    0 -0.19628090715E+02  0.54283352094E+01  0.30137747840E+02  0.36373240344E+02  0.00000000000E+00 0. -1.
</event>
<event>
 8    1  0.8828843E-009  0.9118800E+02  0.7816164E-02  0.1184000E+00
        -11   -1    0    0    0    0  0.00000000000E+00  0.00000000000E+00  0.45593999997E+02  0.45594000000E+02  0.51100000000E-03 0. -1.
         11   -1    0    0    0    0 -0.00000000000E+00 -0.00000000000E+00 -0.45593999997E+02  0.45594000000E+02  0.51100000000E-03 0.  1.
         23    2    1    2    0    0  0.00000000000E+00  0.35527136788E-14  0.00000000000E+00  0.91188000000E+02  0.91188000000E+02 0.  0.
    9900012    2    3    3    0    0 -0.72624219795E+01 -0.22077578702E+02  0.38586931082E+02  0.46142317580E+02  0.99999983515E+01 0.  0.
        -12    1    3    3    0    0  0.72624219795E+01  0.22077578702E+02 -0.38586931082E+02  0.45045682420E+02  0.00000000000E+00 0.  1.
         11    1    4    4    0    0 -0.10452709002E+01 -0.10578569824E+01  0.17615789443E+01  0.23053878824E+01  0.51100000000E-03 0.  1.
        -11    1    4    4    0    0 -0.59557665336E+01 -0.18220985481E+02  0.24045555710E+02  0.30751653883E+02  0.51100000000E-03 0. -1.
         12    1    4    4    0    0 -0.26138454562E+00 -0.27987362385E+01  0.12779796428E+02  0.13085275815E+02  0.00000000000E+00 0. -1.
</event>
<event>
 8    1  0.9161495E-009  0.9118800E+02  0.7816164E-02  0.1184000E+00
        -11   -1    0    0    0    0  0.00000000000E+00  0.00000000000E+00  0.45593999997E+02  0.45594000000E+02  0.51100000000E-03 0. -1.
         11   -1    0    0    0    0 -0.00000000000E+00 -0.00000000000E+00 -0.45593999997E+02  0.45594000000E+02  0.51100000000E-03 0.  1.
         23    2    1    2    0    0  0.71054273576E-14  0.00000000000E+00  0.71054273576E-14  0.91188000000E+02  0.91188000000E+02 0.  0.
    9900012    2    3    3    0    0  0.18665063375E+02  0.18590473900E+02  0.36539339863E+02  0.46142315764E+02  0.99999817903E+01 0.  0.
        -12    1    3    3    0    0 -0.18665063375E+02 -0.18590473900E+02 -0.36539339863E+02  0.45045684236E+02  0.00000000000E+00 0.  1.
         11    1    4    4    0    0  0.34736233708E+01  0.60264353983E+01  0.13803229117E+02  0.15456814590E+02  0.51100000000E-03 0. -1.
        -11    1    4    4    0    0  0.45620890465E+00  0.27284234459E+01  0.20099517260E+01  0.34194045193E+01  0.51100000000E-03 0.  1.
        -12    1    4    4    0    0  0.14735231100E+02  0.98356150556E+01  0.20726159020E+02  0.27266096655E+02  0.00000000000E+00 0.  1.
</event>
<event>
 8    1  0.8828843E-009  0.9118800E+02  0.7816164E-02  0.1184000E+00
        -11   -1    0    0    0    0  0.00000000000E+00  0.00000000000E+00  0.45593999997E+02  0.45594000000E+02  0.51100000000E-03 0. -1.
         11   -1    0    0    0    0 -0.00000000000E+00 -0.00000000000E+00 -0.45593999997E+02  0.45594000000E+02  0.51100000000E-03 0.  1.
         23    2    1    2    0    0 -0.35527136788E-14  0.00000000000E+00 -0.88817841970E-15  0.91188000000E+02  0.91188000000E+02 0.  0.
    9900012    2    3    3    0    0  0.23551814983E+02  0.37694989736E+02  0.73152728161E+01  0.46142318114E+02  0.10000003219E+02 0.  0.
         12    1    3    3    0    0 -0.23551814983E+02 -0.37694989736E+02 -0.73152728161E+01  0.45045681886E+02  0.00000000000E+00 0. -1.
         11    1    4    4    0    0  0.11885842149E+02  0.21794401834E+02  0.65181572174E+01  0.25666234018E+02  0.51100000000E-03 0. -1.
        -11    1    4    4    0    0  0.21653007355E+01  0.38571403608E+00  0.61006674208E+00  0.22824294696E+01  0.51100000000E-03 0.  1.
        -12    1    4    4    0    0  0.95006720980E+01  0.15514873866E+02  0.18704885659E+00  0.18193654626E+02  0.00000000000E+00 0.  1.
</event>
<event>
 8    1  0.8828843E-009  0.9118800E+02  0.7816164E-02  0.1184000E+00
        -11   -1    0    0    0    0  0.00000000000E+00  0.00000000000E+00  0.45593999997E+02  0.45594000000E+02  0.51100000000E-03 0. -1.
         11   -1    0    0    0    0 -0.00000000000E+00 -0.00000000000E+00 -0.45593999997E+02  0.45594000000E+02  0.51100000000E-03 0.  1.
         23    2    1    2    0    0 -0.35527136788E-14  0.35527136788E-14  0.00000000000E+00  0.91188000000E+02  0.91188000000E+02 0.  0.
    9900012    2    3    3    0    0  0.31820947553E+02 -0.21344715175E+02  0.23684253607E+02  0.46142318320E+02  0.10000005097E+02 0.  0.
        -12    1    3    3    0    0 -0.31820947553E+02  0.21344715175E+02 -0.23684253607E+02  0.45045681680E+02  0.00000000000E+00 0.  1.
         11    1    4    4    0    0  0.40899644019E+01 -0.52648802969E+01  0.58693714400E+01  0.88823586233E+01  0.51100000000E-03 0. -1.
        -11    1    4    4    0    0  0.77282421389E+01 -0.41844689936E+01  0.83938990936E+01  0.12152902928E+02  0.51100000000E-03 0.  1.
        -12    1    4    4    0    0  0.20002741012E+02 -0.11895365885E+02  0.94209830735E+01  0.25107056769E+02  0.00000000000E+00 0.  1.
</event>
<event>
 8    1  0.8828843E-009  0.9118800E+02  0.7816164E-02  0.1184000E+00
        -11   -1    0    0    0    0  0.00000000000E+00  0.00000000000E+00  0.45593999997E+02  0.45594000000E+02  0.51100000000E-03 0. -1.
         11   -1    0    0    0    0 -0.00000000000E+00 -0.00000000000E+00 -0.45593999997E+02  0.45594000000E+02  0.51100000000E-03 0.  1.
         23    2    1    2    0    0 -0.44408920985E-15  0.00000000000E+00  0.00000000000E+00  0.91188000000E+02  0.91188000000E+02 0.  0.
    9900012    2    3    3    0    0 -0.21584432774E+01 -0.15661748459E+02 -0.42180142393E+02  0.46142315918E+02  0.99999831904E+01 0.  0.
         12    1    3    3    0    0  0.21584432774E+01  0.15661748459E+02  0.42180142393E+02  0.45045684082E+02  0.00000000000E+00 0. -1.
         11    1    4    4    0    0  0.17716417339E+01 -0.99631526774E+01 -0.19972157233E+02  0.22389510725E+02  0.51100000000E-03 0. -1.
        -11    1    4    4    0    0 -0.20108547678E+00  0.85648075149E+00 -0.20815585219E+01  0.22598408767E+01  0.51100000000E-03 0.  1.
        -12    1    4    4    0    0 -0.37289995345E+01 -0.65550765333E+01 -0.20126426637E+02  0.21492964316E+02  0.00000000000E+00 0.  1.
</event>
<event>
 8    1  0.8828843E-009  0.9118800E+02  0.7816164E-02  0.1184000E+00
        -11   -1    0    0    0    0  0.00000000000E+00  0.00000000000E+00  0.45593999997E+02  0.45594000000E+02  0.51100000000E-03 0. -1.
         11   -1    0    0    0    0 -0.00000000000E+00 -0.00000000000E+00 -0.45593999997E+02  0.45594000000E+02  0.51100000000E-03 0.  1.
         23    2    1    2    0    0 -0.35527136788E-14  0.00000000000E+00  0.17763568394E-14  0.91188000000E+02  0.91188000000E+02 0.  0.
    9900012    2    3    3    0    0 -0.23612889562E+02 -0.36899821877E+02 -0.10485614162E+02  0.46142317494E+02  0.99999975684E+01 0.  0.
         12    1    3    3    0    0  0.23612889562E+02  0.36899821877E+02  0.10485614162E+02  0.45045682506E+02  0.00000000000E+00 0. -1.
         11    1    4    4    0    0 -0.26057179394E+01 -0.66439636047E+01  0.12571131112E+01  0.72465406917E+01  0.51100000000E-03 0. -1.
        -11    1    4    4    0    0 -0.80738370077E+01 -0.12830319918E+02 -0.27555306247E+01  0.15407689720E+02  0.51100000000E-03 0.  1.
         12    1    4    4    0    0 -0.12933334615E+02 -0.17425538354E+02 -0.89871966485E+01  0.23488087082E+02  0.00000000000E+00 0. -1.
</event>
<event>
 8    1  0.8828843E-009  0.9118800E+02  0.7816164E-02  0.1184000E+00
        -11   -1    0    0    0    0  0.00000000000E+00  0.00000000000E+00  0.45593999997E+02  0.45594000000E+02  0.51100000000E-03 0. -1.
         11   -1    0    0    0    0 -0.00000000000E+00 -0.00000000000E+00 -0.45593999997E+02  0.45594000000E+02  0.51100000000E-03 0.  1.
         23    2    1    2    0    0  0.00000000000E+00  0.00000000000E+00  0.00000000000E+00  0.91188000000E+02  0.91188000000E+02 0.  0.
    9900012    2    3    3    0    0  0.31882791773E+02  0.11517312546E+02  0.29663994173E+02  0.46142318189E+02  0.10000003904E+02 0.  0.
        -12    1    3    3    0    0 -0.31882791773E+02 -0.11517312546E+02 -0.29663994173E+02  0.45045681811E+02  0.00000000000E+00 0.  1.
         11    1    4    4    0    0  0.22480826086E+02  0.78435549078E+01  0.23300326764E+02  0.33313872826E+02  0.51100000000E-03 0. -1.
        -11    1    4    4    0    0 -0.97228505934E-01 -0.66713465412E+00  0.58333183173E+00  0.89151461913E+00  0.51100000000E-03 0.  1.
         12    1    4    4    0    0  0.94991941927E+01  0.43408922920E+01  0.57803355769E+01  0.11936930744E+02  0.00000000000E+00 0. -1.
</event>
<event>
 8    1  0.8828843E-009  0.9118800E+02  0.7816164E-02  0.1184000E+00
        -11   -1    0    0    0    0  0.00000000000E+00  0.00000000000E+00  0.45593999997E+02  0.45594000000E+02  0.51100000000E-03 0. -1.
         11   -1    0    0    0    0 -0.00000000000E+00 -0.00000000000E+00 -0.45593999997E+02  0.45594000000E+02  0.51100000000E-03 0.  1.
         23    2    1    2    0    0  0.00000000000E+00 -0.71054273576E-14  0.00000000000E+00  0.91188000000E+02  0.91188000000E+02 0.  0.
    9900012    2    3    3    0    0  0.14917527831E+02  0.36687333063E+02  0.21462071998E+02  0.46142316763E+02  0.99999908981E+01 0.  0.
        -12    1    3    3    0    0 -0.14917527831E+02 -0.36687333063E+02 -0.21462071998E+02  0.45045683237E+02  0.00000000000E+00 0.  1.
         11    1    4    4    0    0  0.12384951000E+01  0.67923960096E+01  0.76080759752E+01  0.10273915221E+02  0.51100000000E-03 0. -1.
        -11    1    4    4    0    0  0.56622851840E+00  0.16280844703E+01  0.17021165652E+01  0.24224935171E+01  0.51100000000E-03 0.  1.
        -12    1    4    4    0    0  0.13112804213E+02  0.28266852583E+02  0.12151879458E+02  0.33445908025E+02  0.00000000000E+00 0.  1.
</event>
<event>
 8    1  0.8828843E-009  0.9118800E+02  0.7816164E-02  0.1184000E+00
        -11   -1    0    0    0    0  0.00000000000E+00  0.00000000000E+00  0.45593999997E+02  0.45594000000E+02  0.51100000000E-03 0. -1.
         11   -1    0    0    0    0 -0.00000000000E+00 -0.00000000000E+00 -0.45593999997E+02  0.45594000000E+02  0.51100000000E-03 0.  1.
         23    2    1    2    0    0  0.00000000000E+00  0.00000000000E+00  0.00000000000E+00  0.91188000000E+02  0.91188000000E+02 0.  0.
    9900012    2    3    3    0    0  0.11331099631E+02 -0.23676728091E+02  0.36607817410E+02  0.46142316883E+02  0.99999919924E+01 0.  0.
        -12    1    3    3    0    0 -0.11331099631E+02  0.23676728091E+02 -0.36607817410E+02  0.45045683117E+02  0.00000000000E+00 0.  1.
         11    1    4    4    0    0  0.37941902067E+01 -0.77059153139E+01  0.12428082733E+02  0.15107423699E+02  0.51100000000E-03 0. -1.
        -11    1    4    4    0    0  0.87299292963E+01 -0.14085854749E+02  0.18009397832E+02  0.24473687505E+02  0.51100000000E-03 0.  1.
        -12    1    4    4    0    0 -0.11930198723E+01 -0.18849580282E+01  0.61703368452E+01  0.65612056794E+01  0.00000000000E+00 0.  1.
</event>
<event>
 8    1  0.8828843E-009  0.9118800E+02  0.7816164E-02  0.1184000E+00
        -11   -1    0    0    0    0  0.00000000000E+00  0.00000000000E+00  0.45593999997E+02  0.45594000000E+02  0.51100000000E-03 0. -1.
         11   -1    0    0    0    0 -0.00000000000E+00 -0.00000000000E+00 -0.45593999997E+02  0.45594000000E+02  0.51100000000E-03 0.  1.
         23    2    1    2    0    0 -0.22204460493E-15 -0.17763568394E-14  0.71054273576E-14  0.91188000000E+02  0.91188000000E+02 0.  0.
    9900012    2    3    3    0    0  0.14964798166E+01  0.14647432038E+02 -0.42571430330E+02  0.46142318770E+02  0.10000009202E+02 0.  0.
         12    1    3    3    0    0 -0.14964798166E+01 -0.14647432038E+02  0.42571430330E+02  0.45045681230E+02  0.00000000000E+00 0. -1.
         11    1    4    4    0    0 -0.11467391530E+01  0.61330427376E+01 -0.15046759828E+02  0.16289082402E+02  0.51100000000E-03 0.  1.
        -11    1    4    4    0    0  0.31637374815E+01  0.17810615954E+01 -0.41092686376E+01  0.54833843797E+01  0.51100000000E-03 0. -1.
         12    1    4    4    0    0 -0.52051851190E+00  0.67333277052E+01 -0.23415401864E+02  0.24369851988E+02  0.00000000000E+00 0. -1.
</event>
<event>
 8    1  0.8828843E-009  0.9118800E+02  0.7816164E-02  0.1184000E+00
        -11   -1    0    0    0    0  0.00000000000E+00  0.00000000000E+00  0.45593999997E+02  0.45594000000E+02  0.51100000000E-03 0. -1.
         11   -1    0    0    0    0 -0.00000000000E+00 -0.00000000000E+00 -0.45593999997E+02  0.45594000000E+02  0.51100000000E-03 0.  1.
         23    2    1    2    0    0  0.00000000000E+00  0.00000000000E+00 -0.35527136788E-14  0.91188000000E+02  0.91188000000E+02 0.  0.
    9900012    2    3    3    0    0  0.31245800240E+02 -0.27758530485E+02 -0.16801113700E+02  0.46142317978E+02  0.10000001975E+02 0.  0.
         12    1    3    3    0    0 -0.31245800240E+02  0.27758530485E+02  0.16801113700E+02  0.45045682022E+02  0.00000000000E+00 0. -1.
         11    1    4    4    0    0  0.44798801518E+01 -0.41379048013E+01 -0.15428175603E+01  0.62906175058E+01  0.51100000000E-03 0. -1.
        -11    1    4    4    0    0  0.16148492278E+02 -0.19504575472E+02 -0.11904835721E+02  0.27980839534E+02  0.51100000000E-03 0.  1.
        -12    1    4    4    0    0  0.10617427809E+02 -0.41160502115E+01 -0.33534604183E+01  0.11870860938E+02  0.00000000000E+00 0.  1.
</event>
<event>
 8    1  0.8828843E-009  0.9118800E+02  0.7816164E-02  0.1184000E+00
        -11   -1    0    0    0    0  0.00000000000E+00  0.00000000000E+00  0.45593999997E+02  0.45594000000E+02  0.51100000000E-03 0. -1.
         11   -1    0    0    0    0 -0.00000000000E+00 -0.00000000000E+00 -0.45593999997E+02  0.45594000000E+02  0.51100000000E-03 0.  1.
         23    2    1    2    0    0  0.17763568394E-14  0.00000000000E+00  0.00000000000E+00  0.91188000000E+02  0.91188000000E+02 0.  0.
    9900012    2    3    3    0    0  0.14100619901E+02 -0.40808479537E+02 -0.12843432876E+02  0.46142320387E+02  0.10000023944E+02 0.  0.
         12    1    3    3    0    0 -0.14100619901E+02  0.40808479537E+02  0.12843432876E+02  0.45045679613E+02  0.00000000000E+00 0. -1.
         11    1    4    4    0    0  0.62937043285E+01 -0.99272747825E+01 -0.31011135941E+01  0.12156414133E+02  0.51100000000E-03 0. -1.
        -11    1    4    4    0    0  0.70104419123E+01 -0.14995417821E+02 -0.36327600004E+01  0.16947147161E+02  0.51100000000E-03 0.  1.
        -12    1    4    4    0    0  0.79647366053E+00 -0.15885786934E+02 -0.61095592815E+01  0.17038759093E+02  0.00000000000E+00 0.  1.
</event>
<event>
 8    1  0.8828843E-009  0.9118800E+02  0.7816164E-02  0.1184000E+00
        -11   -1    0    0    0    0  0.00000000000E+00  0.00000000000E+00  0.45593999997E+02  0.45594000000E+02  0.51100000000E-03 0. -1.
         11   -1    0    0    0    0 -0.00000000000E+00 -0.00000000000E+00 -0.45593999997E+02  0.45594000000E+02  0.51100000000E-03 0.  1.
         23    2    1    2    0    0  0.00000000000E+00  0.00000000000E+00 -0.35527136788E-14  0.91188000000E+02  0.91188000000E+02 0.  0.
    9900012    2    3    3    0    0  0.10933924530E+02  0.34544281037E+02  0.26762951342E+02  0.46142316272E+02  0.99999864195E+01 0.  0.
        -12    1    3    3    0    0 -0.10933924530E+02 -0.34544281037E+02 -0.26762951342E+02  0.45045683728E+02  0.00000000000E+00 0.  1.
         11    1    4    4    0    0  0.17669532363E+01  0.23863815279E+01  0.16496742511E+01  0.33968170294E+01  0.51100000000E-03 0. -1.
        -11    1    4    4    0    0  0.91069587880E+01  0.29771331153E+02  0.19734722361E+02  0.36860929504E+02  0.51100000000E-03 0.  1.
        -12    1    4    4    0    0  0.60012505568E-01  0.23865683563E+01  0.53785547298E+01  0.58845697380E+01  0.00000000000E+00 0.  1.
</event>
<event>
 8    1  0.1154857E-008  0.9118800E+02  0.7816164E-02  0.1184000E+00
        -11   -1    0    0    0    0  0.00000000000E+00  0.00000000000E+00  0.45593999997E+02  0.45594000000E+02  0.51100000000E-03 0. -1.
         11   -1    0    0    0    0 -0.00000000000E+00 -0.00000000000E+00 -0.45593999997E+02  0.45594000000E+02  0.51100000000E-03 0.  1.
         23    2    1    2    0    0  0.00000000000E+00  0.44408920985E-15  0.71054273576E-14  0.91188000000E+02  0.91188000000E+02 0.  0.
    9900012    2    3    3    0    0  0.14798597205E+02  0.28529199779E+01  0.42449687413E+02  0.46142316598E+02  0.99999893953E+01 0.  0.
        -12    1    3    3    0    0 -0.14798597205E+02 -0.28529199779E+01 -0.42449687413E+02  0.45045683402E+02  0.00000000000E+00 0.  1.
         11    1    4    4    0    0  0.51942547925E+01  0.25511552130E+01  0.18054370836E+02  0.18959139810E+02  0.51100000000E-03 0. -1.
        -11    1    4    4    0    0  0.86922270291E+01  0.29553873339E+01  0.18365088260E+02  0.20532062538E+02  0.51100000000E-03 0.  1.
        -12    1    4    4    0    0  0.91211538355E+00 -0.26536225689E+01  0.60302283172E+01  0.66511142501E+01  0.00000000000E+00 0.  1.
</event>
<event>
 8    1  0.8828843E-009  0.9118800E+02  0.7816164E-02  0.1184000E+00
        -11   -1    0    0    0    0  0.00000000000E+00  0.00000000000E+00  0.45593999997E+02  0.45594000000E+02  0.51100000000E-03 0. -1.
         11   -1    0    0    0    0 -0.00000000000E+00 -0.00000000000E+00 -0.45593999997E+02  0.45594000000E+02  0.51100000000E-03 0.  1.
         23    2    1    2    0    0  0.35527136788E-14  0.17763568394E-14  0.00000000000E+00  0.91188000000E+02  0.91188000000E+02 0.  0.
    9900012    2    3    3    0    0 -0.21109387946E+02 -0.11260242561E+02 -0.38166925282E+02  0.46142317549E+02  0.99999980695E+01 0.  0.
         12    1    3    3    0    0  0.21109387946E+02  0.11260242561E+02  0.38166925282E+02  0.45045682451E+02  0.00000000000E+00 0. -1.
         11    1    4    4    0    0  0.14986815967E+00  0.79842039206E+00 -0.39929281049E+01  0.40747282976E+01  0.51100000000E-03 0. -1.
        -11    1    4    4    0    0 -0.12865304862E+02 -0.79091534555E+01 -0.22576885121E+02  0.27162225970E+02  0.51100000000E-03 0.  1.
         12    1    4    4    0    0 -0.83939512436E+01 -0.41495094971E+01 -0.11597112056E+02  0.14905363282E+02  0.00000000000E+00 0. -1.
</event>
<event>
 8    1  0.8828843E-009  0.9118800E+02  0.7816164E-02  0.1184000E+00
        -11   -1    0    0    0    0  0.00000000000E+00  0.00000000000E+00  0.45593999997E+02  0.45594000000E+02  0.51100000000E-03 0.  1.
         11   -1    0    0    0    0 -0.00000000000E+00 -0.00000000000E+00 -0.45593999997E+02  0.45594000000E+02  0.51100000000E-03 0. -1.
         23    2    1    2    0    0  0.00000000000E+00  0.35527136788E-14  0.22204460493E-15  0.91188000000E+02  0.91188000000E+02 0.  0.
    9900012    2    3    3    0    0 -0.32237946620E+02  0.31403248714E+02 -0.19141773659E+01  0.46142319774E+02  0.10000018354E+02 0.  0.
         12    1    3    3    0    0  0.32237946620E+02 -0.31403248714E+02  0.19141773659E+01  0.45045680226E+02  0.00000000000E+00 0. -1.
         11    1    4    4    0    0 -0.32566502274E+01  0.60151503407E+01  0.23103494483E+00  0.68440617861E+01  0.51100000000E-03 0. -1.
        -11    1    4    4    0    0 -0.13662104571E+02  0.16592586869E+02  0.83655094163E-01  0.21493581339E+02  0.51100000000E-03 0.  1.
         12    1    4    4    0    0 -0.15319191821E+02  0.87955115042E+01 -0.22288674049E+01  0.17804676649E+02  0.00000000000E+00 0. -1.
</event>
<event>
 8    1  0.8828843E-009  0.9118800E+02  0.7816164E-02  0.1184000E+00
        -11   -1    0    0    0    0  0.00000000000E+00  0.00000000000E+00  0.45593999997E+02  0.45594000000E+02  0.51100000000E-03 0. -1.
         11   -1    0    0    0    0 -0.00000000000E+00 -0.00000000000E+00 -0.45593999997E+02  0.45594000000E+02  0.51100000000E-03 0.  1.
         23    2    1    2    0    0  0.71054273576E-14  0.35527136788E-14  0.71054273576E-14  0.91188000000E+02  0.91188000000E+02 0.  0.
    9900012    2    3    3    0    0 -0.31519103323E+02 -0.15190120775E+02 -0.28371109641E+02  0.46142317569E+02  0.99999982451E+01 0.  0.
         12    1    3    3    0    0  0.31519103323E+02  0.15190120775E+02  0.28371109641E+02  0.45045682431E+02  0.00000000000E+00 0. -1.
         11    1    4    4    0    0 -0.37610853821E+01 -0.62487051457E-01 -0.50054093011E+00  0.37947607786E+01  0.51100000000E-03 0. -1.
        -11    1    4    4    0    0 -0.12231891141E+01 -0.26368407929E+00 -0.27766328250E+00  0.12817246437E+01  0.51100000000E-03 0.  1.
        -12    1    4    4    0    0 -0.26534828826E+02 -0.14863949644E+02 -0.27592905429E+02  0.41065832146E+02  0.00000000000E+00 0.  1.
</event>
<event>
 8    1  0.8828843E-009  0.9118800E+02  0.7816164E-02  0.1184000E+00
        -11   -1    0    0    0    0  0.00000000000E+00  0.00000000000E+00  0.45593999997E+02  0.45594000000E+02  0.51100000000E-03 0. -1.
         11   -1    0    0    0    0 -0.00000000000E+00 -0.00000000000E+00 -0.45593999997E+02  0.45594000000E+02  0.51100000000E-03 0.  1.
         23    2    1    2    0    0  0.88817841970E-15  0.00000000000E+00  0.00000000000E+00  0.91188000000E+02  0.91188000000E+02 0.  0.
    9900012    2    3    3    0    0 -0.55974310415E+01 -0.30249111533E+02 -0.32905523916E+02  0.46142317777E+02  0.10000000142E+02 0.  0.
         12    1    3    3    0    0  0.55974310415E+01  0.30249111533E+02  0.32905523916E+02  0.45045682223E+02  0.00000000000E+00 0. -1.
         11    1    4    4    0    0 -0.19568158982E+01 -0.46046426868E+01 -0.95510577537E+01  0.10782141124E+02  0.51100000000E-03 0.  1.
        -11    1    4    4    0    0  0.93922556267E+00 -0.58784303034E+01 -0.77029294065E+01  0.97351532701E+01  0.51100000000E-03 0. -1.
         12    1    4    4    0    0 -0.45798407060E+01 -0.19766038543E+02 -0.15651536755E+02  0.25625023383E+02  0.00000000000E+00 0. -1.
</event>
<event>
 8    1  0.8828843E-009  0.9118800E+02  0.7816164E-02  0.1184000E+00
        -11   -1    0    0    0    0  0.00000000000E+00  0.00000000000E+00  0.45593999997E+02  0.45594000000E+02  0.51100000000E-03 0. -1.
         11   -1    0    0    0    0 -0.00000000000E+00 -0.00000000000E+00 -0.45593999997E+02  0.45594000000E+02  0.51100000000E-03 0.  1.
         23    2    1    2    0    0 -0.35527136788E-14  0.00000000000E+00  0.00000000000E+00  0.91188000000E+02  0.91188000000E+02 0.  0.
    9900012    2    3    3    0    0 -0.19233572713E+02  0.24751347764E+02 -0.32350487643E+02  0.46142316675E+02  0.99999900968E+01 0.  0.
         12    1    3    3    0    0  0.19233572713E+02 -0.24751347764E+02  0.32350487643E+02  0.45045683325E+02  0.00000000000E+00 0. -1.
         11    1    4    4    0    0 -0.12386492665E+02  0.14771898660E+02 -0.14707676936E+02  0.24247679305E+02  0.51100000000E-03 0. -1.
        -11    1    4    4    0    0 -0.18222157204E+01  0.38967027124E+01 -0.29455137051E+01  0.52135221692E+01  0.51100000000E-03 0.  1.
        -12    1    4    4    0    0 -0.50248643275E+01  0.60827463921E+01 -0.14697297002E+02  0.16681115201E+02  0.00000000000E+00 0.  1.
</event>
<event>
 8    1  0.8828843E-009  0.9118800E+02  0.7816164E-02  0.1184000E+00
        -11   -1    0    0    0    0  0.00000000000E+00  0.00000000000E+00  0.45593999997E+02  0.45594000000E+02  0.51100000000E-03 0. -1.
         11   -1    0    0    0    0 -0.00000000000E+00 -0.00000000000E+00 -0.45593999997E+02  0.45594000000E+02  0.51100000000E-03 0.  1.
         23    2    1    2    0    0  0.00000000000E+00 -0.17763568394E-14 -0.35527136788E-14  0.91188000000E+02  0.91188000000E+02 0.  0.
    9900012    2    3    3    0    0 -0.35564226199E+02 -0.10689243813E+02 -0.25495869872E+02  0.46142317644E+02  0.99999989302E+01 0.  0.
         12    1    3    3    0    0  0.35564226199E+02  0.10689243813E+02  0.25495869872E+02  0.45045682356E+02  0.00000000000E+00 0. -1.
         11    1    4    4    0    0 -0.22116481304E+02 -0.27416467647E+01 -0.15532078972E+02  0.27164330466E+02  0.51100000000E-03 0. -1.
        -11    1    4    4    0    0 -0.41631329977E+01 -0.39391510705E+00 -0.26748448584E+01  0.49640347245E+01  0.51100000000E-03 0.  1.
         12    1    4    4    0    0 -0.92846118973E+01 -0.75536819412E+01 -0.72889460417E+01  0.14013952453E+02  0.00000000000E+00 0. -1.
</event>
<event>
 8    1  0.8828843E-009  0.9118800E+02  0.7816164E-02  0.1184000E+00
        -11   -1    0    0    0    0  0.00000000000E+00  0.00000000000E+00  0.45593999997E+02  0.45594000000E+02  0.51100000000E-03 0. -1.
         11   -1    0    0    0    0 -0.00000000000E+00 -0.00000000000E+00 -0.45593999997E+02  0.45594000000E+02  0.51100000000E-03 0.  1.
         23    2    1    2    0    0  0.44408920985E-15  0.00000000000E+00  0.14210854715E-13  0.91188000000E+02  0.91188000000E+02 0.  0.
    9900012    2    3    3    0    0 -0.32062366441E+01  0.19127859325E+02 -0.40656593153E+02  0.46142317381E+02  0.99999965379E+01 0.  0.
         12    1    3    3    0    0  0.32062366441E+01 -0.19127859325E+02  0.40656593153E+02  0.45045682619E+02  0.00000000000E+00 0. -1.
         11    1    4    4    0    0  0.18161868754E+01  0.23161598407E+00 -0.54178554185E+01  0.57188581314E+01  0.51100000000E-03 0. -1.
        -11    1    4    4    0    0 -0.38439128248E+01  0.16593703436E+02 -0.32242875626E+02  0.36465458840E+02  0.51100000000E-03 0.  1.
         12    1    4    4    0    0 -0.11785106948E+01  0.23025399055E+01 -0.29958621082E+01  0.39580004100E+01  0.00000000000E+00 0. -1.
</event>
<event>
 8    1  0.8828843E-009  0.9118800E+02  0.7816164E-02  0.1184000E+00
        -11   -1    0    0    0    0  0.00000000000E+00  0.00000000000E+00  0.45593999997E+02  0.45594000000E+02  0.51100000000E-03 0. -1.
         11   -1    0    0    0    0 -0.00000000000E+00 -0.00000000000E+00 -0.45593999997E+02  0.45594000000E+02  0.51100000000E-03 0.  1.
         23    2    1    2    0    0  0.00000000000E+00 -0.88817841970E-15  0.71054273576E-14  0.91188000000E+02  0.91188000000E+02 0.  0.
    9900012    2    3    3    0    0 -0.13833104359E+02  0.32959300483E+01 -0.42742199910E+02  0.46142316697E+02  0.99999902989E+01 0.  0.
         12    1    3    3    0    0  0.13833104359E+02 -0.32959300483E+01  0.42742199910E+02  0.45045683303E+02  0.00000000000E+00 0. -1.
         11    1    4    4    0    0 -0.49421601249E+01  0.93269347928E+00 -0.66830521869E+01  0.83640929347E+01  0.51100000000E-03 0.  1.
        -11    1    4    4    0    0 -0.78773629933E+01 -0.78606975875E+00 -0.23898028258E+02  0.25175116847E+02  0.51100000000E-03 0. -1.
         12    1    4    4    0    0 -0.10135812405E+01  0.31493063277E+01 -0.12161119465E+02  0.12603106915E+02  0.00000000000E+00 0. -1.
</event>
<event>
 8    1  0.8828843E-009  0.9118800E+02  0.7816164E-02  0.1184000E+00
        -11   -1    0    0    0    0  0.00000000000E+00  0.00000000000E+00  0.45593999997E+02  0.45594000000E+02  0.51100000000E-03 0.  1.
         11   -1    0    0    0    0 -0.00000000000E+00 -0.00000000000E+00 -0.45593999997E+02  0.45594000000E+02  0.51100000000E-03 0. -1.
         23    2    1    2    0    0  0.00000000000E+00  0.00000000000E+00  0.00000000000E+00  0.91188000000E+02  0.91188000000E+02 0.  0.
    9900012    2    3    3    0    0  0.10141693150E+02 -0.22997715167E+02 -0.37381340915E+02  0.46142317727E+02  0.99999996915E+01 0.  0.
         12    1    3    3    0    0 -0.10141693150E+02  0.22997715167E+02  0.37381340915E+02  0.45045682273E+02  0.00000000000E+00 0. -1.
         11    1    4    4    0    0  0.52241252323E+01 -0.43952148218E+01 -0.14521094380E+02  0.16045920977E+02  0.51100000000E-03 0. -1.
        -11    1    4    4    0    0  0.14142333754E+01 -0.63358002563E+01 -0.52391696585E+01  0.83421412059E+01  0.51100000000E-03 0.  1.
        -12    1    4    4    0    0  0.35033345420E+01 -0.12266700089E+02 -0.17621076877E+02  0.21754255544E+02  0.00000000000E+00 0.  1.
</event>
<event>
 8    1  0.8828843E-009  0.9118800E+02  0.7816164E-02  0.1184000E+00
        -11   -1    0    0    0    0  0.00000000000E+00  0.00000000000E+00  0.45593999997E+02  0.45594000000E+02  0.51100000000E-03 0. -1.
         11   -1    0    0    0    0 -0.00000000000E+00 -0.00000000000E+00 -0.45593999997E+02  0.45594000000E+02  0.51100000000E-03 0.  1.
         23    2    1    2    0    0 -0.71054273576E-14  0.35527136788E-14 -0.35527136788E-14  0.91188000000E+02  0.91188000000E+02 0.  0.
    9900012    2    3    3    0    0 -0.33058562795E+02  0.92570086111E+01 -0.29164233503E+02  0.46142319871E+02  0.10000019241E+02 0.  0.
         12    1    3    3    0    0  0.33058562795E+02 -0.92570086111E+01  0.29164233503E+02  0.45045680129E+02  0.00000000000E+00 0. -1.
         11    1    4    4    0    0 -0.29697485497E+01  0.57129033087E+00  0.32389036104E+00  0.30414937642E+01  0.51100000000E-03 0. -1.
        -11    1    4    4    0    0 -0.13604361288E+02  0.53348251798E+01 -0.13695177549E+02  0.20027403578E+02  0.51100000000E-03 0.  1.
         12    1    4    4    0    0 -0.16484452957E+02  0.33508931004E+01 -0.15792946315E+02  0.23073422529E+02  0.00000000000E+00 0. -1.
</event>
<event>
 8    1  0.8828843E-009  0.9118800E+02  0.7816164E-02  0.1184000E+00
        -11   -1    0    0    0    0  0.00000000000E+00  0.00000000000E+00  0.45593999997E+02  0.45594000000E+02  0.51100000000E-03 0. -1.
         11   -1    0    0    0    0 -0.00000000000E+00 -0.00000000000E+00 -0.45593999997E+02  0.45594000000E+02  0.51100000000E-03 0.  1.
         23    2    1    2    0    0  0.00000000000E+00  0.35527136788E-14  0.00000000000E+00  0.91188000000E+02  0.91188000000E+02 0.  0.
    9900012    2    3    3    0    0 -0.20750943659E+02 -0.19617022770E+02  0.34837958084E+02  0.46142327971E+02  0.10000093100E+02 0.  0.
        -12    1    3    3    0    0  0.20750943659E+02  0.19617022770E+02 -0.34837958084E+02  0.45045672029E+02  0.00000000000E+00 0.  1.
         11    1    4    4    0    0 -0.75914037914E+01 -0.49573288348E+01  0.66184091972E+01  0.11225322323E+02  0.51100000000E-03 0. -1.
        -11    1    4    4    0    0 -0.17904824726E+01 -0.42378986785E+01  0.34997626474E+01  0.57804802174E+01  0.51100000000E-03 0.  1.
         12    1    4    4    0    0 -0.11369057395E+02 -0.10421795257E+02  0.24719786239E+02  0.29136525430E+02  0.00000000000E+00 0. -1.
</event>
<event>
 8    1  0.8828843E-009  0.9118800E+02  0.7816164E-02  0.1184000E+00
        -11   -1    0    0    0    0  0.00000000000E+00  0.00000000000E+00  0.45593999997E+02  0.45594000000E+02  0.51100000000E-03 0. -1.
         11   -1    0    0    0    0 -0.00000000000E+00 -0.00000000000E+00 -0.45593999997E+02  0.45594000000E+02  0.51100000000E-03 0.  1.
         23    2    1    2    0    0 -0.35527136788E-14  0.00000000000E+00  0.00000000000E+00  0.91188000000E+02  0.91188000000E+02 0.  0.
    9900012    2    3    3    0    0 -0.19010196074E+02  0.14526223705E+02 -0.38166934427E+02  0.46142316373E+02  0.99999873421E+01 0.  0.
         12    1    3    3    0    0  0.19010196074E+02 -0.14526223705E+02  0.38166934427E+02  0.45045683627E+02  0.00000000000E+00 0. -1.
         11    1    4    4    0    0 -0.54531380217E+01  0.53518628403E+01 -0.65304733455E+01  0.10051180653E+02  0.51100000000E-03 0. -1.
        -11    1    4    4    0    0 -0.43718715512E+01  0.14349071440E+00 -0.99236744788E+01  0.10844960390E+02  0.51100000000E-03 0.  1.
        -12    1    4    4    0    0 -0.91851865008E+01  0.90308701500E+01 -0.21712786603E+02  0.25246175330E+02  0.00000000000E+00 0.  1.
</event>
<event>
 8    1  0.8828843E-009  0.9118800E+02  0.7816164E-02  0.1184000E+00
        -11   -1    0    0    0    0  0.00000000000E+00  0.00000000000E+00  0.45593999997E+02  0.45594000000E+02  0.51100000000E-03 0. -1.
         11   -1    0    0    0    0 -0.00000000000E+00 -0.00000000000E+00 -0.45593999997E+02  0.45594000000E+02  0.51100000000E-03 0.  1.
         23    2    1    2    0    0  0.00000000000E+00  0.00000000000E+00  0.00000000000E+00  0.91188000000E+02  0.91188000000E+02 0.  0.
    9900012    2    3    3    0    0 -0.22128115930E+02 -0.20581001385E+02  0.33404825079E+02  0.46142317952E+02  0.10000001738E+02 0.  0.
        -12    1    3    3    0    0  0.22128115930E+02  0.20581001385E+02 -0.33404825079E+02  0.45045682048E+02  0.00000000000E+00 0.  1.
         11    1    4    4    0    0 -0.15002504024E+02 -0.13183124954E+02  0.21907115409E+02  0.29644419650E+02  0.51100000000E-03 0. -1.
        -11    1    4    4    0    0 -0.26950458216E+01 -0.35952835926E+01  0.91713242032E+01  0.10212860715E+02  0.51100000000E-03 0.  1.
         12    1    4    4    0    0 -0.44305660844E+01 -0.38025928387E+01  0.23263854660E+01  0.62850375863E+01  0.00000000000E+00 0. -1.
</event>
<event>
 8    1  0.8828843E-009  0.9118800E+02  0.7816164E-02  0.1184000E+00
        -11   -1    0    0    0    0  0.00000000000E+00  0.00000000000E+00  0.45593999997E+02  0.45594000000E+02  0.51100000000E-03 0. -1.
         11   -1    0    0    0    0 -0.00000000000E+00 -0.00000000000E+00 -0.45593999997E+02  0.45594000000E+02  0.51100000000E-03 0.  1.
         23    2    1    2    0    0  0.00000000000E+00  0.00000000000E+00  0.00000000000E+00  0.91188000000E+02  0.91188000000E+02 0.  0.
    9900012    2    3    3    0    0  0.21693514008E+00 -0.32119859145E+02 -0.31581340174E+02  0.46142318081E+02  0.10000002914E+02 0.  0.
         12    1    3    3    0    0 -0.21693514008E+00  0.32119859145E+02  0.31581340174E+02  0.45045681919E+02  0.00000000000E+00 0. -1.
         11    1    4    4    0    0  0.30351325142E+01 -0.25917605175E+02 -0.25991864084E+02  0.36830846938E+02  0.51100000000E-03 0. -1.
        -11    1    4    4    0    0 -0.23179768522E+01 -0.64578675679E+01 -0.49510176447E+01  0.84610664925E+01  0.51100000000E-03 0.  1.
         12    1    4    4    0    0 -0.50022052194E+00  0.25561359716E+00 -0.63845844553E+00  0.85040464974E+00  0.00000000000E+00 0. -1.
</event>
<event>
 8    1  0.8828843E-009  0.9118800E+02  0.7816164E-02  0.1184000E+00
        -11   -1    0    0    0    0  0.00000000000E+00  0.00000000000E+00  0.45593999997E+02  0.45594000000E+02  0.51100000000E-03 0. -1.
         11   -1    0    0    0    0 -0.00000000000E+00 -0.00000000000E+00 -0.45593999997E+02  0.45594000000E+02  0.51100000000E-03 0.  1.
         23    2    1    2    0    0 -0.71054273576E-14  0.00000000000E+00 -0.17763568394E-14  0.91188000000E+02  0.91188000000E+02 0.  0.
    9900012    2    3    3    0    0  0.38344913993E+02  0.18393349828E+02  0.14848089275E+02  0.46142317608E+02  0.99999986031E+01 0.  0.
        -12    1    3    3    0    0 -0.38344913993E+02 -0.18393349828E+02 -0.14848089275E+02  0.45045682392E+02  0.00000000000E+00 0.  1.
         11    1    4    4    0    0  0.28821980933E+02  0.10167653408E+02  0.87961406469E+01  0.31803456593E+02  0.51100000000E-03 0. -1.
        -11    1    4    4    0    0  0.63693387323E+01  0.34023817354E+01  0.37096153404E+01  0.81182463374E+01  0.51100000000E-03 0.  1.
        -12    1    4    4    0    0  0.31535943279E+01  0.48233146849E+01  0.23423332872E+01  0.62206146772E+01  0.00000000000E+00 0.  1.
</event>
<event>
 8    1  0.8828843E-009  0.9118800E+02  0.7816164E-02  0.1184000E+00
        -11   -1    0    0    0    0  0.00000000000E+00  0.00000000000E+00  0.45593999997E+02  0.45594000000E+02  0.51100000000E-03 0.  1.
         11   -1    0    0    0    0 -0.00000000000E+00 -0.00000000000E+00 -0.45593999997E+02  0.45594000000E+02  0.51100000000E-03 0. -1.
         23    2    1    2    0    0  0.00000000000E+00  0.00000000000E+00  0.17763568394E-14  0.91188000000E+02  0.91188000000E+02 0.  0.
    9900012    2    3    3    0    0 -0.21238954042E+02  0.38156326662E+02  0.11050572221E+02  0.46142316749E+02  0.99999907724E+01 0.  0.
         12    1    3    3    0    0  0.21238954042E+02 -0.38156326662E+02 -0.11050572221E+02  0.45045683251E+02  0.00000000000E+00 0. -1.
         11    1    4    4    0    0 -0.52788685821E+01  0.89575363876E+01  0.26132152751E+00  0.10400586563E+02  0.51100000000E-03 0. -1.
        -11    1    4    4    0    0 -0.14187547226E+02  0.19475959766E+02  0.64222035812E+01  0.24936804210E+02  0.51100000000E-03 0.  1.
         12    1    4    4    0    0 -0.17725382333E+01  0.97228305083E+01  0.43670471118E+01  0.10804925977E+02  0.00000000000E+00 0. -1.
</event>
<event>
 8    1  0.8828843E-009  0.9118800E+02  0.7816164E-02  0.1184000E+00
        -11   -1    0    0    0    0  0.00000000000E+00  0.00000000000E+00  0.45593999997E+02  0.45594000000E+02  0.51100000000E-03 0. -1.
         11   -1    0    0    0    0 -0.00000000000E+00 -0.00000000000E+00 -0.45593999997E+02  0.45594000000E+02  0.51100000000E-03 0.  1.
         23    2    1    2    0    0  0.00000000000E+00  0.00000000000E+00 -0.35527136788E-14  0.91188000000E+02  0.91188000000E+02 0.  0.
    9900012    2    3    3    0    0  0.35521513035E+02  0.25731325564E+01  0.27581055242E+02  0.46142317546E+02  0.99999980389E+01 0.  0.
        -12    1    3    3    0    0 -0.35521513035E+02 -0.25731325564E+01 -0.27581055242E+02  0.45045682454E+02  0.00000000000E+00 0.  1.
         11    1    4    4    0    0  0.25716719861E+02  0.53269756034E+01  0.18670508403E+02  0.32222883698E+02  0.51100000000E-03 0. -1.
        -11    1    4    4    0    0  0.44038031728E+01 -0.65508383654E+00  0.58946568425E+01  0.73871237142E+01  0.51100000000E-03 0.  1.
        -12    1    4    4    0    0  0.54009900014E+01 -0.20987592104E+01  0.30158899966E+01  0.65323101342E+01  0.00000000000E+00 0.  1.
</event>
<event>
 8    1  0.8828843E-009  0.9118800E+02  0.7816164E-02  0.1184000E+00
        -11   -1    0    0    0    0  0.00000000000E+00  0.00000000000E+00  0.45593999997E+02  0.45594000000E+02  0.51100000000E-03 0. -1.
         11   -1    0    0    0    0 -0.00000000000E+00 -0.00000000000E+00 -0.45593999997E+02  0.45594000000E+02  0.51100000000E-03 0.  1.
         23    2    1    2    0    0  0.00000000000E+00  0.00000000000E+00  0.00000000000E+00  0.91188000000E+02  0.91188000000E+02 0.  0.
    9900012    2    3    3    0    0 -0.11527287948E+02  0.26636952711E+02  0.34448626404E+02  0.46142317873E+02  0.10000001017E+02 0.  0.
        -12    1    3    3    0    0  0.11527287948E+02 -0.26636952711E+02 -0.34448626404E+02  0.45045682127E+02  0.00000000000E+00 0.  1.
         11    1    4    4    0    0  0.93196813465E-01  0.37165918993E+01  0.69782971159E+01  0.79068560055E+01  0.51100000000E-03 0. -1.
        -11    1    4    4    0    0 -0.11268507016E+02  0.20910517414E+02  0.21920376859E+02  0.32322312894E+02  0.51100000000E-03 0.  1.
        -12    1    4    4    0    0 -0.35197774599E+00  0.20098433983E+01  0.55499524290E+01  0.59131489736E+01  0.00000000000E+00 0.  1.
</event>
<event>
 8    1  0.8828843E-009  0.9118800E+02  0.7816164E-02  0.1184000E+00
        -11   -1    0    0    0    0  0.00000000000E+00  0.00000000000E+00  0.45593999997E+02  0.45594000000E+02  0.51100000000E-03 0.  1.
         11   -1    0    0    0    0 -0.00000000000E+00 -0.00000000000E+00 -0.45593999997E+02  0.45594000000E+02  0.51100000000E-03 0. -1.
         23    2    1    2    0    0  0.00000000000E+00  0.00000000000E+00  0.00000000000E+00  0.91188000000E+02  0.91188000000E+02 0.  0.
    9900012    2    3    3    0    0  0.37935415985E+02  0.15558602958E+01 -0.24240400463E+02  0.46142317612E+02  0.99999986384E+01 0.  0.
         12    1    3    3    0    0 -0.37935415985E+02 -0.15558602958E+01  0.24240400463E+02  0.45045682388E+02  0.00000000000E+00 0. -1.
         11    1    4    4    0    0  0.48613273180E+00 -0.41078520762E+00 -0.11914624398E+01  0.13507969967E+01  0.51100000000E-03 0. -1.
        -11    1    4    4    0    0  0.25669692078E+02 -0.24126538370E+01 -0.16618934485E+02  0.30674793783E+02  0.51100000000E-03 0.  1.
        -12    1    4    4    0    0  0.11779591175E+02  0.43792993404E+01 -0.64300035385E+01  0.14116726832E+02  0.00000000000E+00 0.  1.
</event>
<event>
 8    1  0.8828843E-009  0.9118800E+02  0.7816164E-02  0.1184000E+00
        -11   -1    0    0    0    0  0.00000000000E+00  0.00000000000E+00  0.45593999997E+02  0.45594000000E+02  0.51100000000E-03 0. -1.
         11   -1    0    0    0    0 -0.00000000000E+00 -0.00000000000E+00 -0.45593999997E+02  0.45594000000E+02  0.51100000000E-03 0.  1.
         23    2    1    2    0    0  0.00000000000E+00  0.00000000000E+00 -0.35527136788E-14  0.91188000000E+02  0.91188000000E+02 0.  0.
    9900012    2    3    3    0    0 -0.29246135850E+02 -0.26634627727E+02 -0.21549328493E+02  0.46142318578E+02  0.10000007446E+02 0.  0.
         12    1    3    3    0    0  0.29246135850E+02  0.26634627727E+02  0.21549328493E+02  0.45045681422E+02  0.00000000000E+00 0. -1.
         11    1    4    4    0    0 -0.11293613578E+01  0.73231148144E+00 -0.12304810753E+01  0.18236833937E+01  0.51100000000E-03 0. -1.
        -11    1    4    4    0    0 -0.12525536825E+02 -0.12216675605E+02 -0.10989077799E+02  0.20661463325E+02  0.51100000000E-03 0.  1.
        -12    1    4    4    0    0 -0.15591237667E+02 -0.15150263603E+02 -0.93297696193E+01  0.23657171859E+02  0.00000000000E+00 0.  1.
</event>
<event>
 8    1  0.9349071E-009  0.9118800E+02  0.7816164E-02  0.1184000E+00
        -11   -1    0    0    0    0  0.00000000000E+00  0.00000000000E+00  0.45593999997E+02  0.45594000000E+02  0.51100000000E-03 0. -1.
         11   -1    0    0    0    0 -0.00000000000E+00 -0.00000000000E+00 -0.45593999997E+02  0.45594000000E+02  0.51100000000E-03 0.  1.
         23    2    1    2    0    0  0.00000000000E+00  0.00000000000E+00  0.35527136788E-14  0.91188000000E+02  0.91188000000E+02 0.  0.
    9900012    2    3    3    0    0 -0.19646043200E+02  0.32071814489E+02  0.24790021440E+02  0.46142318064E+02  0.10000002763E+02 0.  0.
        -12    1    3    3    0    0  0.19646043200E+02 -0.32071814489E+02 -0.24790021440E+02  0.45045681936E+02  0.00000000000E+00 0.  1.
         11    1    4    4    0    0 -0.53884258327E+01  0.72325905361E+01  0.73343904703E+01  0.11624920759E+02  0.51100000000E-03 0. -1.
        -11    1    4    4    0    0 -0.13306981637E+02  0.17906242631E+02  0.15767168282E+02  0.27318727667E+02  0.51100000000E-03 0.  1.
        -12    1    4    4    0    0 -0.95063573007E+00  0.69329813226E+01  0.16884626875E+01  0.71986696381E+01  0.00000000000E+00 0.  1.
</event>
<event>
 8    1  0.8828843E-009  0.9118800E+02  0.7816164E-02  0.1184000E+00
        -11   -1    0    0    0    0  0.00000000000E+00  0.00000000000E+00  0.45593999997E+02  0.45594000000E+02  0.51100000000E-03 0. -1.
         11   -1    0    0    0    0 -0.00000000000E+00 -0.00000000000E+00 -0.45593999997E+02  0.45594000000E+02  0.51100000000E-03 0.  1.
         23    2    1    2    0    0  0.00000000000E+00 -0.17763568394E-14 -0.71054273576E-14  0.91188000000E+02  0.91188000000E+02 0.  0.
    9900012    2    3    3    0    0 -0.63311901966E+01  0.13641261073E+02 -0.42461104910E+02  0.46142318707E+02  0.10000008624E+02 0.  0.
         12    1    3    3    0    0  0.63311901966E+01 -0.13641261073E+02  0.42461104910E+02  0.45045681293E+02  0.00000000000E+00 0. -1.
         11    1    4    4    0    0 -0.30000584901E+01  0.11753202835E+02 -0.26994146192E+02  0.29594290948E+02  0.51100000000E-03 0. -1.
        -11    1    4    4    0    0 -0.93953863584E+00  0.69508398661E+00 -0.12501182222E+02  0.12555693203E+02  0.51100000000E-03 0.  1.
        -12    1    4    4    0    0 -0.23915930706E+01  0.11929742518E+01 -0.29657764962E+01  0.39923345560E+01  0.00000000000E+00 0.  1.
</event>
<event>
 8    1  0.8828843E-009  0.9118800E+02  0.7816164E-02  0.1184000E+00
        -11   -1    0    0    0    0  0.00000000000E+00  0.00000000000E+00  0.45593999997E+02  0.45594000000E+02  0.51100000000E-03 0. -1.
         11   -1    0    0    0    0 -0.00000000000E+00 -0.00000000000E+00 -0.45593999997E+02  0.45594000000E+02  0.51100000000E-03 0.  1.
         23    2    1    2    0    0  0.00000000000E+00  0.35527136788E-14  0.00000000000E+00  0.91188000000E+02  0.91188000000E+02 0.  0.
    9900012    2    3    3    0    0  0.13393615146E+02  0.30830329891E+02 -0.29986918908E+02  0.46142317927E+02  0.10000001513E+02 0.  0.
         12    1    3    3    0    0 -0.13393615146E+02 -0.30830329891E+02  0.29986918908E+02  0.45045682073E+02  0.00000000000E+00 0. -1.
         11    1    4    4    0    0  0.19983498155E+01  0.41434633790E+01 -0.85074423159E+01  0.96715182767E+01  0.51100000000E-03 0. -1.
        -11    1    4    4    0    0  0.10008763135E+02  0.19221315451E+02 -0.17743243500E+02  0.28008159477E+02  0.51100000000E-03 0.  1.
        -12    1    4    4    0    0  0.13865021956E+01  0.74655510607E+01 -0.37362330919E+01  0.84626401729E+01  0.00000000000E+00 0.  1.
</event>
<event>
 8    1  0.1397320E-008  0.9118800E+02  0.7816164E-02  0.1184000E+00
        -11   -1    0    0    0    0  0.00000000000E+00  0.00000000000E+00  0.45593999997E+02  0.45594000000E+02  0.51100000000E-03 0. -1.
         11   -1    0    0    0    0 -0.00000000000E+00 -0.00000000000E+00 -0.45593999997E+02  0.45594000000E+02  0.51100000000E-03 0.  1.
         23    2    1    2    0    0  0.00000000000E+00  0.00000000000E+00  0.00000000000E+00  0.91188000000E+02  0.91188000000E+02 0.  0.
    9900012    2    3    3    0    0  0.16299269246E+02  0.51513223661E+01  0.41676266328E+02  0.46142317909E+02  0.10000001346E+02 0.  0.
        -12    1    3    3    0    0 -0.16299269246E+02 -0.51513223661E+01 -0.41676266328E+02  0.45045682091E+02  0.00000000000E+00 0.  1.
         11    1    4    4    0    0  0.91726801722E+01  0.47741392723E+01  0.27294987035E+02  0.29188127463E+02  0.51100000000E-03 0. -1.
        -11    1    4    4    0    0  0.17284875808E+01  0.13268424481E+01  0.90477710700E+01  0.93064677400E+01  0.51100000000E-03 0.  1.
        -12    1    4    4    0    0  0.53981014925E+01 -0.94965935433E+00  0.53335082230E+01  0.76477227054E+01  0.00000000000E+00 0.  1.
</event>
<event>
 8    1  0.8828843E-009  0.9118800E+02  0.7816164E-02  0.1184000E+00
        -11   -1    0    0    0    0  0.00000000000E+00  0.00000000000E+00  0.45593999997E+02  0.45594000000E+02  0.51100000000E-03 0. -1.
         11   -1    0    0    0    0 -0.00000000000E+00 -0.00000000000E+00 -0.45593999997E+02  0.45594000000E+02  0.51100000000E-03 0.  1.
         23    2    1    2    0    0  0.17763568394E-14  0.00000000000E+00  0.00000000000E+00  0.91188000000E+02  0.91188000000E+02 0.  0.
    9900012    2    3    3    0    0  0.15711358483E+02 -0.23106713388E+02  0.35331948231E+02  0.46142317025E+02  0.99999932838E+01 0.  0.
        -12    1    3    3    0    0 -0.15711358483E+02  0.23106713388E+02 -0.35331948231E+02  0.45045682975E+02  0.00000000000E+00 0.  1.
         11    1    4    4    0    0  0.14020959595E+01  0.38775045642E+00  0.45487255312E+01  0.47756808641E+01  0.51100000000E-03 0.  1.
        -11    1    4    4    0    0  0.70913092538E+01 -0.10149202244E+02  0.12278430886E+02  0.17437110954E+02  0.51100000000E-03 0. -1.
        -12    1    4    4    0    0  0.72179532694E+01 -0.13345261600E+02  0.18504791813E+02  0.23929525207E+02  0.00000000000E+00 0.  1.
</event>
<event>
 8    1  0.8828843E-009  0.9118800E+02  0.7816164E-02  0.1184000E+00
        -11   -1    0    0    0    0  0.00000000000E+00  0.00000000000E+00  0.45593999997E+02  0.45594000000E+02  0.51100000000E-03 0. -1.
         11   -1    0    0    0    0 -0.00000000000E+00 -0.00000000000E+00 -0.45593999997E+02  0.45594000000E+02  0.51100000000E-03 0.  1.
         23    2    1    2    0    0  0.00000000000E+00  0.00000000000E+00  0.00000000000E+00  0.91188000000E+02  0.91188000000E+02 0.  0.
    9900012    2    3    3    0    0  0.10258880516E+02 -0.94848858007E+01 -0.42824126527E+02  0.46142317622E+02  0.99999987324E+01 0.  0.
         12    1    3    3    0    0 -0.10258880516E+02  0.94848858007E+01  0.42824126527E+02  0.45045682378E+02  0.00000000000E+00 0. -1.
         11    1    4    4    0    0  0.95220283341E+01 -0.40253410179E+01 -0.29979516191E+02  0.31711887128E+02  0.51100000000E-03 0. -1.
        -11    1    4    4    0    0  0.83275554700E+00 -0.26087986650E+01 -0.10126941753E+02  0.10490674993E+02  0.51100000000E-03 0.  1.
         12    1    4    4    0    0 -0.95903364649E-01 -0.28507461178E+01 -0.27176685824E+01  0.39397555009E+01  0.00000000000E+00 0. -1.
</event>
<event>
 8    1  0.8828843E-009  0.9118800E+02  0.7816164E-02  0.1184000E+00
        -11   -1    0    0    0    0  0.00000000000E+00  0.00000000000E+00  0.45593999997E+02  0.45594000000E+02  0.51100000000E-03 0.  1.
         11   -1    0    0    0    0 -0.00000000000E+00 -0.00000000000E+00 -0.45593999997E+02  0.45594000000E+02  0.51100000000E-03 0. -1.
         23    2    1    2    0    0  0.00000000000E+00  0.00000000000E+00  0.00000000000E+00  0.91188000000E+02  0.91188000000E+02 0.  0.
    9900012    2    3    3    0    0 -0.37063303676E+02  0.19756043930E+02  0.16282622249E+02  0.46142317205E+02  0.99999949312E+01 0.  0.
        -12    1    3    3    0    0  0.37063303676E+02 -0.19756043930E+02 -0.16282622249E+02  0.45045682795E+02  0.00000000000E+00 0.  1.
         11    1    4    4    0    0 -0.21307032308E+02  0.12024545312E+02  0.12202910904E+02  0.27340269760E+02  0.51100000000E-03 0. -1.
        -11    1    4    4    0    0 -0.27669953924E+01  0.34899448340E+01  0.23293965378E+01  0.50261383723E+01  0.51100000000E-03 0.  1.
        -12    1    4    4    0    0 -0.12989275976E+02  0.42415537840E+01  0.17503148071E+01  0.13775909073E+02  0.00000000000E+00 0.  1.
</event>
<event>
 8    1  0.8828843E-009  0.9118800E+02  0.7816164E-02  0.1184000E+00
        -11   -1    0    0    0    0  0.00000000000E+00  0.00000000000E+00  0.45593999997E+02  0.45594000000E+02  0.51100000000E-03 0. -1.
         11   -1    0    0    0    0 -0.00000000000E+00 -0.00000000000E+00 -0.45593999997E+02  0.45594000000E+02  0.51100000000E-03 0.  1.
         23    2    1    2    0    0  0.00000000000E+00 -0.22204460493E-15 -0.71054273576E-14  0.91188000000E+02  0.91188000000E+02 0.  0.
    9900012    2    3    3    0    0  0.25039802237E+02  0.19134949564E+01 -0.37395994790E+02  0.46142316685E+02  0.99999901894E+01 0.  0.
         12    1    3    3    0    0 -0.25039802237E+02 -0.19134949564E+01  0.37395994790E+02  0.45045683315E+02  0.00000000000E+00 0. -1.
         11    1    4    4    0    0  0.20112060734E+02 -0.73809285098E+00 -0.23112683450E+02  0.30646955877E+02  0.51100000000E-03 0.  1.
        -11    1    4    4    0    0 -0.18079881946E+00 -0.19967843521E-02 -0.10311767548E+01  0.10469087644E+01  0.51100000000E-03 0. -1.
        -12    1    4    4    0    0  0.51085403225E+01  0.26535845918E+01 -0.13252134584E+02  0.14448452043E+02  0.00000000000E+00 0.  1.
</event>
<event>
 8    1  0.8828843E-009  0.9118800E+02  0.7816164E-02  0.1184000E+00
        -11   -1    0    0    0    0  0.00000000000E+00  0.00000000000E+00  0.45593999997E+02  0.45594000000E+02  0.51100000000E-03 0.  1.
         11   -1    0    0    0    0 -0.00000000000E+00 -0.00000000000E+00 -0.45593999997E+02  0.45594000000E+02  0.51100000000E-03 0. -1.
         23    2    1    2    0    0 -0.35527136788E-14  0.00000000000E+00  0.88817841970E-15  0.91188000000E+02  0.91188000000E+02 0.  0.
    9900012    2    3    3    0    0 -0.29540536473E+02 -0.33595806016E+02 -0.52718104209E+01  0.46142318053E+02  0.10000002659E+02 0.  0.
        -12    1    3    3    0    0  0.29540536473E+02  0.33595806016E+02  0.52718104209E+01  0.45045681947E+02  0.00000000000E+00 0.  1.
         11    1    4    4    0    0 -0.38932573046E+00 -0.22163471843E+01  0.44999074398E+00  0.22948336098E+01  0.51100000000E-03 0. -1.
        -11    1    4    4    0    0 -0.19568137186E+02 -0.17747204052E+02 -0.63551740288E+00  0.26424971660E+02  0.51100000000E-03 0.  1.
         12    1    4    4    0    0 -0.95830735571E+01 -0.13632254779E+02 -0.50862837620E+01  0.17422512783E+02  0.00000000000E+00 0. -1.
</event>
<event>
 8    1  0.9995124E-009  0.9118800E+02  0.7816164E-02  0.1184000E+00
        -11   -1    0    0    0    0  0.00000000000E+00  0.00000000000E+00  0.45593999997E+02  0.45594000000E+02  0.51100000000E-03 0. -1.
         11   -1    0    0    0    0 -0.00000000000E+00 -0.00000000000E+00 -0.45593999997E+02  0.45594000000E+02  0.51100000000E-03 0.  1.
         23    2    1    2    0    0  0.00000000000E+00  0.17763568394E-14 -0.71054273576E-14  0.91188000000E+02  0.91188000000E+02 0.  0.
    9900012    2    3    3    0    0  0.13749770658E+02 -0.82548676402E+01  0.42094113396E+02  0.46142318570E+02  0.10000007376E+02 0.  0.
        -12    1    3    3    0    0 -0.13749770658E+02  0.82548676402E+01 -0.42094113396E+02  0.45045681430E+02  0.00000000000E+00 0.  1.
         11    1    4    4    0    0  0.31869836254E+01 -0.44042469887E+01  0.10551644119E+02  0.11869770430E+02  0.51100000000E-03 0. -1.
        -11    1    4    4    0    0  0.36094683174E+01 -0.42755191289E+01  0.83105834938E+01  0.10018688718E+02  0.51100000000E-03 0.  1.
         12    1    4    4    0    0  0.69533187149E+01  0.42489847734E+00  0.23231885783E+02  0.24253859423E+02  0.00000000000E+00 0. -1.
</event>
<event>
 8    1  0.8828843E-009  0.9118800E+02  0.7816164E-02  0.1184000E+00
        -11   -1    0    0    0    0  0.00000000000E+00  0.00000000000E+00  0.45593999997E+02  0.45594000000E+02  0.51100000000E-03 0. -1.
         11   -1    0    0    0    0 -0.00000000000E+00 -0.00000000000E+00 -0.45593999997E+02  0.45594000000E+02  0.51100000000E-03 0.  1.
         23    2    1    2    0    0 -0.71054273576E-14 -0.88817841970E-15  0.00000000000E+00  0.91188000000E+02  0.91188000000E+02 0.  0.
    9900012    2    3    3    0    0  0.21991260301E+02  0.77709970123E+01  0.38537118926E+02  0.46142318084E+02  0.10000002943E+02 0.  0.
        -12    1    3    3    0    0 -0.21991260301E+02 -0.77709970123E+01 -0.38537118926E+02  0.45045681916E+02  0.00000000000E+00 0.  1.
         11    1    4    4    0    0  0.22312461013E+01  0.51036157539E+00  0.22029825896E+01  0.31768003799E+01  0.51100000000E-03 0. -1.
        -11    1    4    4    0    0  0.13727587250E+02  0.37981839665E+00  0.23153626765E+02  0.26919906136E+02  0.51100000000E-03 0.  1.
         12    1    4    4    0    0  0.60324269505E+01  0.68808170403E+01  0.13180509571E+02  0.16045611568E+02  0.00000000000E+00 0. -1.
</event>
<event>
 8    1  0.8828843E-009  0.9118800E+02  0.7816164E-02  0.1184000E+00
        -11   -1    0    0    0    0  0.00000000000E+00  0.00000000000E+00  0.45593999997E+02  0.45594000000E+02  0.51100000000E-03 0. -1.
         11   -1    0    0    0    0 -0.00000000000E+00 -0.00000000000E+00 -0.45593999997E+02  0.45594000000E+02  0.51100000000E-03 0.  1.
         23    2    1    2    0    0  0.00000000000E+00  0.00000000000E+00  0.00000000000E+00  0.91188000000E+02  0.91188000000E+02 0.  0.
    9900012    2    3    3    0    0  0.63573378073E+01  0.44245994638E+02 -0.55668386311E+01  0.46142317878E+02  0.10000001065E+02 0.  0.
        -12    1    3    3    0    0 -0.63573378073E+01 -0.44245994638E+02  0.55668386311E+01  0.45045682122E+02  0.00000000000E+00 0.  1.
         11    1    4    4    0    0  0.26924567543E+00  0.12229263985E+02 -0.11016481377E+01  0.12281735209E+02  0.51100000000E-03 0. -1.
        -11    1    4    4    0    0  0.54765835611E+00 -0.12144621503E+00 -0.89123932580E+00  0.10530843533E+01  0.51100000000E-03 0.  1.
        -12    1    4    4    0    0  0.55404337758E+01  0.32138176868E+02 -0.35739511676E+01  0.32807498316E+02  0.00000000000E+00 0.  1.
</event>
<event>
 8    1  0.8828843E-009  0.9118800E+02  0.7816164E-02  0.1184000E+00
        -11   -1    0    0    0    0  0.00000000000E+00  0.00000000000E+00  0.45593999997E+02  0.45594000000E+02  0.51100000000E-03 0. -1.
         11   -1    0    0    0    0 -0.00000000000E+00 -0.00000000000E+00 -0.45593999997E+02  0.45594000000E+02  0.51100000000E-03 0.  1.
         23    2    1    2    0    0  0.00000000000E+00  0.35527136788E-14  0.00000000000E+00  0.91188000000E+02  0.91188000000E+02 0.  0.
    9900012    2    3    3    0    0 -0.32988759501E+02  0.19804023055E+02  0.23423405347E+02  0.46142317625E+02  0.99999987559E+01 0.  0.
        -12    1    3    3    0    0  0.32988759501E+02 -0.19804023055E+02 -0.23423405347E+02  0.45045682375E+02  0.00000000000E+00 0.  1.
         11    1    4    4    0    0 -0.25444736859E+02  0.12355259895E+02  0.13362391408E+02  0.31283231695E+02  0.51100000000E-03 0. -1.
        -11    1    4    4    0    0 -0.17334701884E+01  0.23002391732E+01  0.13202267269E+01  0.31684409446E+01  0.51100000000E-03 0.  1.
         12    1    4    4    0    0 -0.58105524533E+01  0.51485239875E+01  0.87407872128E+01  0.11690644985E+02  0.00000000000E+00 0. -1.
</event>
<event>
 8    1  0.8828843E-009  0.9118800E+02  0.7816164E-02  0.1184000E+00
        -11   -1    0    0    0    0  0.00000000000E+00  0.00000000000E+00  0.45593999997E+02  0.45594000000E+02  0.51100000000E-03 0. -1.
         11   -1    0    0    0    0 -0.00000000000E+00 -0.00000000000E+00 -0.45593999997E+02  0.45594000000E+02  0.51100000000E-03 0.  1.
         23    2    1    2    0    0  0.88817841970E-15  0.00000000000E+00 -0.71054273576E-14  0.91188000000E+02  0.91188000000E+02 0.  0.
    9900012    2    3    3    0    0  0.74496772301E+01 -0.14469562920E+02  0.42002946920E+02  0.46142317721E+02  0.99999996387E+01 0.  0.
        -12    1    3    3    0    0 -0.74496772301E+01  0.14469562920E+02 -0.42002946920E+02  0.45045682279E+02  0.00000000000E+00 0.  1.
         11    1    4    4    0    0  0.40114383352E+01 -0.50656454704E+01  0.27728948822E+02  0.28471863385E+02  0.51100000000E-03 0.  1.
        -11    1    4    4    0    0  0.71037780197E+00 -0.66133782298E+00  0.29558261430E+01  0.31110951104E+01  0.51100000000E-03 0. -1.
        -12    1    4    4    0    0  0.27278610929E+01 -0.87425796269E+01  0.11318171955E+02  0.14559359226E+02  0.00000000000E+00 0.  1.
</event>
<event>
 8    1  0.8828843E-009  0.9118800E+02  0.7816164E-02  0.1184000E+00
        -11   -1    0    0    0    0  0.00000000000E+00  0.00000000000E+00  0.45593999997E+02  0.45594000000E+02  0.51100000000E-03 0.  1.
         11   -1    0    0    0    0 -0.00000000000E+00 -0.00000000000E+00 -0.45593999997E+02  0.45594000000E+02  0.51100000000E-03 0. -1.
         23    2    1    2    0    0  0.00000000000E+00 -0.17763568394E-14  0.00000000000E+00  0.91188000000E+02  0.91188000000E+02 0.  0.
    9900012    2    3    3    0    0  0.41832848522E+02  0.12058192561E+02  0.11564007514E+02  0.46142317709E+02  0.99999995264E+01 0.  0.
        -12    1    3    3    0    0 -0.41832848522E+02 -0.12058192561E+02 -0.11564007514E+02  0.45045682291E+02  0.00000000000E+00 0.  1.
         11    1    4    4    0    0  0.33215380410E+02  0.10304943228E+02  0.78424319040E+01  0.35650485118E+02  0.51100000000E-03 0. -1.
        -11    1    4    4    0    0  0.52137464799E+01  0.20291742078E+01  0.42636873711E+01  0.70341830075E+01  0.51100000000E-03 0.  1.
         12    1    4    4    0    0  0.34037216317E+01 -0.27592487520E+00 -0.54211176107E+00  0.34576495838E+01  0.00000000000E+00 0. -1.
</event>
<event>
 8    1  0.8828843E-009  0.9118800E+02  0.7816164E-02  0.1184000E+00
        -11   -1    0    0    0    0  0.00000000000E+00  0.00000000000E+00  0.45593999997E+02  0.45594000000E+02  0.51100000000E-03 0. -1.
         11   -1    0    0    0    0 -0.00000000000E+00 -0.00000000000E+00 -0.45593999997E+02  0.45594000000E+02  0.51100000000E-03 0.  1.
         23    2    1    2    0    0  0.00000000000E+00  0.00000000000E+00 -0.14210854715E-13  0.91188000000E+02  0.91188000000E+02 0.  0.
    9900012    2    3    3    0    0  0.21634390730E+02 -0.47280389442E+01  0.39226422811E+02  0.46142318064E+02  0.10000002761E+02 0.  0.
        -12    1    3    3    0    0 -0.21634390730E+02  0.47280389442E+01 -0.39226422811E+02  0.45045681936E+02  0.00000000000E+00 0.  1.
         11    1    4    4    0    0  0.44678190302E+01  0.86275216886E+00  0.37061255303E+01  0.58686552888E+01  0.51100000000E-03 0.  1.
        -11    1    4    4    0    0  0.56477443656E+01 -0.46033382528E+01  0.11463424713E+02  0.13582998414E+02  0.51100000000E-03 0. -1.
         12    1    4    4    0    0  0.11518827334E+02 -0.98745286029E+00  0.24056872568E+02  0.26690664362E+02  0.00000000000E+00 0. -1.
</event>
<event>
 8    1  0.8828843E-009  0.9118800E+02  0.7816164E-02  0.1184000E+00
        -11   -1    0    0    0    0  0.00000000000E+00  0.00000000000E+00  0.45593999997E+02  0.45594000000E+02  0.51100000000E-03 0. -1.
         11   -1    0    0    0    0 -0.00000000000E+00 -0.00000000000E+00 -0.45593999997E+02  0.45594000000E+02  0.51100000000E-03 0.  1.
         23    2    1    2    0    0  0.00000000000E+00  0.00000000000E+00  0.00000000000E+00  0.91188000000E+02  0.91188000000E+02 0.  0.
    9900012    2    3    3    0    0 -0.10603428975E+02  0.38124337033E+02 -0.21522446917E+02  0.46142317615E+02  0.99999986649E+01 0.  0.
         12    1    3    3    0    0  0.10603428975E+02 -0.38124337033E+02  0.21522446917E+02  0.45045682385E+02  0.00000000000E+00 0. -1.
         11    1    4    4    0    0 -0.41615766450E+01  0.55005506969E+01 -0.34034407914E+01  0.76914359922E+01  0.51100000000E-03 0. -1.
        -11    1    4    4    0    0 -0.11596273028E+01  0.16994127194E+02 -0.12079568701E+02  0.20882075443E+02  0.51100000000E-03 0.  1.
        -12    1    4    4    0    0 -0.52822250271E+01  0.15629659143E+02 -0.60394374248E+01  0.17568806179E+02  0.00000000000E+00 0.  1.
</event>
<event>
 8    1  0.8828843E-009  0.9118800E+02  0.7816164E-02  0.1184000E+00
        -11   -1    0    0    0    0  0.00000000000E+00  0.00000000000E+00  0.45593999997E+02  0.45594000000E+02  0.51100000000E-03 0. -1.
         11   -1    0    0    0    0 -0.00000000000E+00 -0.00000000000E+00 -0.45593999997E+02  0.45594000000E+02  0.51100000000E-03 0.  1.
         23    2    1    2    0    0  0.17763568394E-14 -0.35527136788E-14  0.00000000000E+00  0.91188000000E+02  0.91188000000E+02 0.  0.
    9900012    2    3    3    0    0  0.13696782466E+02 -0.28449145353E+02  0.32127211646E+02  0.46142318194E+02  0.10000003951E+02 0.  0.
        -12    1    3    3    0    0 -0.13696782466E+02  0.28449145353E+02 -0.32127211646E+02  0.45045681806E+02  0.00000000000E+00 0.  1.
         11    1    4    4    0    0  0.45540147123E+01 -0.90571716697E+01  0.10928914162E+02  0.14906796225E+02  0.51100000000E-03 0. -1.
        -11    1    4    4    0    0  0.52086409699E+00 -0.99126192691E+01  0.11322383224E+02  0.15057479281E+02  0.51100000000E-03 0.  1.
         12    1    4    4    0    0  0.86219036565E+01 -0.94793544139E+01  0.98759142597E+01  0.16178042689E+02  0.00000000000E+00 0. -1.
</event>
<event>
 8    1  0.8828843E-009  0.9118800E+02  0.7816164E-02  0.1184000E+00
        -11   -1    0    0    0    0  0.00000000000E+00  0.00000000000E+00  0.45593999997E+02  0.45594000000E+02  0.51100000000E-03 0. -1.
         11   -1    0    0    0    0 -0.00000000000E+00 -0.00000000000E+00 -0.45593999997E+02  0.45594000000E+02  0.51100000000E-03 0.  1.
         23    2    1    2    0    0  0.00000000000E+00  0.00000000000E+00  0.88817841970E-15  0.91188000000E+02  0.91188000000E+02 0.  0.
    9900012    2    3    3    0    0 -0.19622412920E+02  0.39872144116E+02 -0.73679410070E+01  0.46142317411E+02  0.99999968085E+01 0.  0.
         12    1    3    3    0    0  0.19622412920E+02 -0.39872144116E+02  0.73679410070E+01  0.45045682589E+02  0.00000000000E+00 0. -1.
         11    1    4    4    0    0 -0.16946852440E+01  0.12006654563E+02 -0.35570701889E+01  0.12636631689E+02  0.51100000000E-03 0. -1.
        -11    1    4    4    0    0 -0.69869830905E+01  0.89624086635E+01 -0.24309977704E+01  0.11621207002E+02  0.51100000000E-03 0.  1.
         12    1    4    4    0    0 -0.10940744585E+02  0.18903080890E+02 -0.13798730477E+01  0.21884478720E+02  0.00000000000E+00 0. -1.
</event>
<event>
 8    1  0.8828843E-009  0.9118800E+02  0.7816164E-02  0.1184000E+00
        -11   -1    0    0    0    0  0.00000000000E+00  0.00000000000E+00  0.45593999997E+02  0.45594000000E+02  0.51100000000E-03 0.  1.
         11   -1    0    0    0    0 -0.00000000000E+00 -0.00000000000E+00 -0.45593999997E+02  0.45594000000E+02  0.51100000000E-03 0. -1.
         23    2    1    2    0    0  0.00000000000E+00  0.00000000000E+00 -0.22204460493E-15  0.91188000000E+02  0.91188000000E+02 0.  0.
    9900012    2    3    3    0    0 -0.43641759753E+02 -0.11062060910E+02 -0.14632161618E+01  0.46142318881E+02  0.10000010215E+02 0.  0.
         12    1    3    3    0    0  0.43641759753E+02  0.11062060910E+02  0.14632161618E+01  0.45045681119E+02  0.00000000000E+00 0. -1.
         11    1    4    4    0    0 -0.44861238927E+01 -0.28045281063E+01  0.21959291654E+01  0.57282449878E+01  0.51100000000E-03 0. -1.
        -11    1    4    4    0    0 -0.25516871910E+02 -0.73843756663E+01 -0.18509436525E+01  0.26628288505E+02  0.51100000000E-03 0.  1.
         12    1    4    4    0    0 -0.13638763950E+02 -0.87315713734E+00 -0.18082016747E+01  0.13785785388E+02  0.00000000000E+00 0. -1.
</event>
<event>
 8    1  0.8828843E-009  0.9118800E+02  0.7816164E-02  0.1184000E+00
        -11   -1    0    0    0    0  0.00000000000E+00  0.00000000000E+00  0.45593999997E+02  0.45594000000E+02  0.51100000000E-03 0. -1.
         11   -1    0    0    0    0 -0.00000000000E+00 -0.00000000000E+00 -0.45593999997E+02  0.45594000000E+02  0.51100000000E-03 0.  1.
         23    2    1    2    0    0  0.00000000000E+00  0.00000000000E+00  0.44408920985E-15  0.91188000000E+02  0.91188000000E+02 0.  0.
    9900012    2    3    3    0    0  0.11433846048E+02 -0.43517653592E+02  0.21434548261E+01  0.46142318651E+02  0.10000008117E+02 0.  0.
         12    1    3    3    0    0 -0.11433846048E+02  0.43517653592E+02 -0.21434548261E+01  0.45045681349E+02  0.00000000000E+00 0. -1.
         11    1    4    4    0    0  0.66724295491E+01 -0.15940883951E+02  0.47045326322E+01  0.17909933690E+02  0.51100000000E-03 0. -1.
        -11    1    4    4    0    0  0.16052464173E+01 -0.92407206065E+01  0.42426417299E+00  0.93887024523E+01  0.51100000000E-03 0.  1.
         12    1    4    4    0    0  0.31561700817E+01 -0.18336049034E+02 -0.29853419791E+01  0.18843682509E+02  0.00000000000E+00 0. -1.
</event>
<event>
 8    1  0.8834537E-009  0.9118800E+02  0.7816164E-02  0.1184000E+00
        -11   -1    0    0    0    0  0.00000000000E+00  0.00000000000E+00  0.45593999997E+02  0.45594000000E+02  0.51100000000E-03 0. -1.
         11   -1    0    0    0    0 -0.00000000000E+00 -0.00000000000E+00 -0.45593999997E+02  0.45594000000E+02  0.51100000000E-03 0.  1.
         23    2    1    2    0    0  0.00000000000E+00  0.00000000000E+00  0.00000000000E+00  0.91188000000E+02  0.91188000000E+02 0.  0.
    9900012    2    3    3    0    0 -0.21300084631E+02 -0.19211868431E+02  0.34732174929E+02  0.46142317974E+02  0.10000001938E+02 0.  0.
        -12    1    3    3    0    0  0.21300084631E+02  0.19211868431E+02 -0.34732174929E+02  0.45045682026E+02  0.00000000000E+00 0.  1.
         11    1    4    4    0    0 -0.10339547926E+02 -0.11851668159E+02  0.14576372506E+02  0.21443855184E+02  0.51100000000E-03 0. -1.
        -11    1    4    4    0    0 -0.99161076541E+01 -0.82292801551E+01  0.17730669802E+02  0.21918642631E+02  0.51100000000E-03 0.  1.
        -12    1    4    4    0    0 -0.10444290509E+01  0.86907988279E+00  0.24251326213E+01  0.27798201590E+01  0.00000000000E+00 0.  1.
</event>
<event>
 8    1  0.8828843E-009  0.9118800E+02  0.7816164E-02  0.1184000E+00
        -11   -1    0    0    0    0  0.00000000000E+00  0.00000000000E+00  0.45593999997E+02  0.45594000000E+02  0.51100000000E-03 0. -1.
         11   -1    0    0    0    0 -0.00000000000E+00 -0.00000000000E+00 -0.45593999997E+02  0.45594000000E+02  0.51100000000E-03 0.  1.
         23    2    1    2    0    0  0.00000000000E+00  0.17763568394E-14  0.00000000000E+00  0.91188000000E+02  0.91188000000E+02 0.  0.
    9900012    2    3    3    0    0  0.85593659621E+01  0.14053321190E+02 -0.41932742742E+02  0.46142317677E+02  0.99999992306E+01 0.  0.
         12    1    3    3    0    0 -0.85593659621E+01 -0.14053321190E+02  0.41932742742E+02  0.45045682323E+02  0.00000000000E+00 0. -1.
         11    1    4    4    0    0  0.42415429799E+01  0.54614242658E+01 -0.20342401710E+02  0.21485603307E+02  0.51100000000E-03 0. -1.
        -11    1    4    4    0    0  0.43061602448E+01  0.11525807393E+01 -0.75735746104E+01  0.87880880204E+01  0.51100000000E-03 0.  1.
         12    1    4    4    0    0  0.11662737402E-01  0.74393161849E+01 -0.14016766421E+02  0.15868626349E+02  0.00000000000E+00 0. -1.
</event>
<event>
 8    1  0.1083720E-008  0.9118800E+02  0.7816164E-02  0.1184000E+00
        -11   -1    0    0    0    0  0.00000000000E+00  0.00000000000E+00  0.45593999997E+02  0.45594000000E+02  0.51100000000E-03 0. -1.
         11   -1    0    0    0    0 -0.00000000000E+00 -0.00000000000E+00 -0.45593999997E+02  0.45594000000E+02  0.51100000000E-03 0.  1.
         23    2    1    2    0    0  0.00000000000E+00 -0.88817841970E-15  0.71054273576E-14  0.91188000000E+02  0.91188000000E+02 0.  0.
    9900012    2    3    3    0    0  0.29127196510E+02 -0.56223475927E+01  0.33898513775E+02  0.46142316465E+02  0.99999881817E+01 0.  0.
        -12    1    3    3    0    0 -0.29127196510E+02  0.56223475927E+01 -0.33898513775E+02  0.45045683535E+02  0.00000000000E+00 0.  1.
         11    1    4    4    0    0  0.24054142560E+02 -0.60556533891E+01  0.29315158435E+02  0.38401187828E+02  0.51100000000E-03 0. -1.
        -11    1    4    4    0    0  0.21722263050E+01 -0.11988551936E+01  0.33990220960E+01  0.42082267484E+01  0.51100000000E-03 0.  1.
        -12    1    4    4    0    0  0.29008276447E+01  0.16321609901E+01  0.11843332438E+01  0.35329018886E+01  0.00000000000E+00 0.  1.
</event>
<event>
 8    1  0.8828843E-009  0.9118800E+02  0.7816164E-02  0.1184000E+00
        -11   -1    0    0    0    0  0.00000000000E+00  0.00000000000E+00  0.45593999997E+02  0.45594000000E+02  0.51100000000E-03 0. -1.
         11   -1    0    0    0    0 -0.00000000000E+00 -0.00000000000E+00 -0.45593999997E+02  0.45594000000E+02  0.51100000000E-03 0.  1.
         23    2    1    2    0    0  0.00000000000E+00  0.00000000000E+00 -0.17763568394E-14  0.91188000000E+02  0.91188000000E+02 0.  0.
    9900012    2    3    3    0    0 -0.49703197231E+01  0.41969769345E+02  0.15586775504E+02  0.46142321100E+02  0.10000030442E+02 0.  0.
        -12    1    3    3    0    0  0.49703197231E+01 -0.41969769345E+02 -0.15586775504E+02  0.45045678900E+02  0.00000000000E+00 0.  1.
         11    1    4    4    0    0 -0.24254581636E+01  0.30992671074E+02  0.12561064416E+02  0.33529223777E+02  0.51100000000E-03 0. -1.
        -11    1    4    4    0    0 -0.38263648257E+01  0.64088203354E+01  0.13766806052E+01  0.75900787625E+01  0.51100000000E-03 0.  1.
        -12    1    4    4    0    0  0.12815032662E+01  0.45682779354E+01  0.16490304828E+01  0.50230185596E+01  0.00000000000E+00 0.  1.
</event>
<event>
 8    1  0.1010855E-008  0.9118800E+02  0.7816164E-02  0.1184000E+00
        -11   -1    0    0    0    0  0.00000000000E+00  0.00000000000E+00  0.45593999997E+02  0.45594000000E+02  0.51100000000E-03 0. -1.
         11   -1    0    0    0    0 -0.00000000000E+00 -0.00000000000E+00 -0.45593999997E+02  0.45594000000E+02  0.51100000000E-03 0.  1.
         23    2    1    2    0    0  0.17763568394E-14 -0.71054273576E-14  0.00000000000E+00  0.91188000000E+02  0.91188000000E+02 0.  0.
    9900012    2    3    3    0    0  0.12885974537E+02  0.38954096361E+02  0.18591495581E+02  0.46142315733E+02  0.99999815097E+01 0.  0.
        -12    1    3    3    0    0 -0.12885974537E+02 -0.38954096361E+02 -0.18591495581E+02  0.45045684267E+02  0.00000000000E+00 0.  1.
         11    1    4    4    0    0  0.88671425321E+01  0.23655861742E+02  0.10498916868E+02  0.27357873951E+02  0.51100000000E-03 0. -1.
        -11    1    4    4    0    0  0.54476674830E+01  0.13836775209E+02  0.66933572899E+01  0.16307497088E+02  0.51100000000E-03 0.  1.
        -12    1    4    4    0    0 -0.14288354779E+01  0.14614594098E+01  0.13992214230E+01  0.24769446946E+01  0.00000000000E+00 0.  1.
</event>
<event>
 8    1  0.8828843E-009  0.9118800E+02  0.7816164E-02  0.1184000E+00
        -11   -1    0    0    0    0  0.00000000000E+00  0.00000000000E+00  0.45593999997E+02  0.45594000000E+02  0.51100000000E-03 0. -1.
         11   -1    0    0    0    0 -0.00000000000E+00 -0.00000000000E+00 -0.45593999997E+02  0.45594000000E+02  0.51100000000E-03 0.  1.
         23    2    1    2    0    0 -0.27755575616E-16  0.00000000000E+00  0.00000000000E+00  0.91188000000E+02  0.91188000000E+02 0.  0.
    9900012    2    3    3    0    0  0.20801468148E+00  0.19753186702E+02  0.40483107529E+02  0.46142315965E+02  0.99999836252E+01 0.  0.
        -12    1    3    3    0    0 -0.20801468148E+00 -0.19753186702E+02 -0.40483107529E+02  0.45045684035E+02  0.00000000000E+00 0.  1.
         11    1    4    4    0    0 -0.21399934534E+01  0.60137617982E+01  0.59882554216E+01  0.87523771743E+01  0.51100000000E-03 0. -1.
        -11    1    4    4    0    0  0.37062751674E-01  0.59110142300E+01  0.18679402804E+02  0.19592385058E+02  0.51100000000E-03 0.  1.
         12    1    4    4    0    0  0.23109453832E+01  0.78284106732E+01  0.15815449303E+02  0.17797553733E+02  0.00000000000E+00 0. -1.
</event>
<event>
 8    1  0.8828843E-009  0.9118800E+02  0.7816164E-02  0.1184000E+00
        -11   -1    0    0    0    0  0.00000000000E+00  0.00000000000E+00  0.45593999997E+02  0.45594000000E+02  0.51100000000E-03 0. -1.
         11   -1    0    0    0    0 -0.00000000000E+00 -0.00000000000E+00 -0.45593999997E+02  0.45594000000E+02  0.51100000000E-03 0.  1.
         23    2    1    2    0    0  0.71054273576E-14  0.44408920985E-15  0.00000000000E+00  0.91188000000E+02  0.91188000000E+02 0.  0.
    9900012    2    3    3    0    0 -0.37650522984E+02  0.38294633991E+01 -0.24431265549E+02  0.46142318662E+02  0.10000008212E+02 0.  0.
         12    1    3    3    0    0  0.37650522984E+02 -0.38294633991E+01  0.24431265549E+02  0.45045681338E+02  0.00000000000E+00 0. -1.
         11    1    4    4    0    0 -0.21838926567E+02  0.23485157592E+00 -0.17983072584E+02  0.28291072243E+02  0.51100000000E-03 0. -1.
        -11    1    4    4    0    0 -0.34700467172E+01 -0.19689149901E+00 -0.13176380829E+00  0.34781248460E+01  0.51100000000E-03 0.  1.
        -12    1    4    4    0    0 -0.12341549700E+02  0.37915033222E+01 -0.63164291568E+01  0.14373121573E+02  0.00000000000E+00 0.  1.
</event>
<event>
 8    1  0.8828843E-009  0.9118800E+02  0.7816164E-02  0.1184000E+00
        -11   -1    0    0    0    0  0.00000000000E+00  0.00000000000E+00  0.45593999997E+02  0.45594000000E+02  0.51100000000E-03 0. -1.
         11   -1    0    0    0    0 -0.00000000000E+00 -0.00000000000E+00 -0.45593999997E+02  0.45594000000E+02  0.51100000000E-03 0.  1.
         23    2    1    2    0    0  0.00000000000E+00 -0.66613381478E-15  0.00000000000E+00  0.91188000000E+02  0.91188000000E+02 0.  0.
    9900012    2    3    3    0    0  0.29786641361E+02  0.10689447064E+01  0.33774647896E+02  0.46142317778E+02  0.10000000155E+02 0.  0.
        -12    1    3    3    0    0 -0.29786641361E+02 -0.10689447064E+01 -0.33774647896E+02  0.45045682222E+02  0.00000000000E+00 0.  1.
         11    1    4    4    0    0  0.24484266141E+01  0.88898116638E+00  0.47828840636E+00  0.26483656205E+01  0.51100000000E-03 0. -1.
        -11    1    4    4    0    0  0.60665009993E+01 -0.23387804530E+01  0.65733509444E+01  0.92456082158E+01  0.51100000000E-03 0.  1.
        -12    1    4    4    0    0  0.21271713748E+02  0.25187439930E+01  0.26723008545E+02  0.34248343942E+02  0.00000000000E+00 0.  1.
</event>
<event>
 8    1  0.8828843E-009  0.9118800E+02  0.7816164E-02  0.1184000E+00
        -11   -1    0    0    0    0  0.00000000000E+00  0.00000000000E+00  0.45593999997E+02  0.45594000000E+02  0.51100000000E-03 0. -1.
         11   -1    0    0    0    0 -0.00000000000E+00 -0.00000000000E+00 -0.45593999997E+02  0.45594000000E+02  0.51100000000E-03 0.  1.
         23    2    1    2    0    0 -0.22204460493E-15  0.00000000000E+00  0.00000000000E+00  0.91188000000E+02  0.91188000000E+02 0.  0.
    9900012    2    3    3    0    0  0.83679430277E+00 -0.24228177878E+02 -0.37965894758E+02  0.46142312162E+02  0.99999489469E+01 0.  0.
         12    1    3    3    0    0 -0.83679430277E+00  0.24228177878E+02  0.37965894758E+02  0.45045687838E+02  0.00000000000E+00 0. -1.
         11    1    4    4    0    0 -0.19344437615E+01 -0.17881361777E+01 -0.21821461192E+01  0.34207112715E+01  0.51100000000E-03 0. -1.
        -11    1    4    4    0    0  0.50797872091E+00 -0.16048193891E+02 -0.28889794579E+02  0.33051819929E+02  0.51100000000E-03 0.  1.
         12    1    4    4    0    0  0.22632593433E+01 -0.63918478101E+01 -0.68939540597E+01  0.96697809623E+01  0.00000000000E+00 0. -1.
</event>
<event>
 8    1  0.8828843E-009  0.9118800E+02  0.7816164E-02  0.1184000E+00
        -11   -1    0    0    0    0  0.00000000000E+00  0.00000000000E+00  0.45593999997E+02  0.45594000000E+02  0.51100000000E-03 0. -1.
         11   -1    0    0    0    0 -0.00000000000E+00 -0.00000000000E+00 -0.45593999997E+02  0.45594000000E+02  0.51100000000E-03 0.  1.
         23    2    1    2    0    0  0.35527136788E-14  0.00000000000E+00  0.00000000000E+00  0.91188000000E+02  0.91188000000E+02 0.  0.
    9900012    2    3    3    0    0 -0.22752673309E+02  0.81827070334E+01 -0.38006226645E+02  0.46142310962E+02  0.99999380013E+01 0.  0.
         12    1    3    3    0    0  0.22752673309E+02 -0.81827070334E+01  0.38006226645E+02  0.45045689038E+02  0.00000000000E+00 0. -1.
         11    1    4    4    0    0 -0.14222288341E+01  0.23002026689E+01 -0.24524331934E+01  0.36507664954E+01  0.51100000000E-03 0. -1.
        -11    1    4    4    0    0 -0.61299027365E+01 -0.92830822219E+00 -0.63706472047E+01  0.88894662260E+01  0.51100000000E-03 0.  1.
        -12    1    4    4    0    0 -0.15200541739E+02  0.68108125867E+01 -0.29183146247E+02  0.33602078241E+02  0.00000000000E+00 0.  1.
</event>
<event>
 8    1  0.8828843E-009  0.9118800E+02  0.7816164E-02  0.1184000E+00
        -11   -1    0    0    0    0  0.00000000000E+00  0.00000000000E+00  0.45593999997E+02  0.45594000000E+02  0.51100000000E-03 0. -1.
         11   -1    0    0    0    0 -0.00000000000E+00 -0.00000000000E+00 -0.45593999997E+02  0.45594000000E+02  0.51100000000E-03 0.  1.
         23    2    1    2    0    0  0.00000000000E+00  0.17763568394E-14  0.00000000000E+00  0.91188000000E+02  0.91188000000E+02 0.  0.
    9900012    2    3    3    0    0  0.33540203592E+02 -0.96717750044E+01  0.28471474846E+02  0.46142319090E+02  0.10000012114E+02 0.  0.
        -12    1    3    3    0    0 -0.33540203592E+02  0.96717750044E+01 -0.28471474846E+02  0.45045680910E+02  0.00000000000E+00 0.  1.
         11    1    4    4    0    0  0.61579408960E+01 -0.19915062910E+01  0.41250102155E+01  0.76747666365E+01  0.51100000000E-03 0. -1.
        -11    1    4    4    0    0  0.13337755425E+02  0.82314692191E+00  0.11102139134E+02  0.17373277878E+02  0.51100000000E-03 0.  1.
        -12    1    4    4    0    0  0.14044507272E+02 -0.85034156354E+01  0.13244325497E+02  0.21094274575E+02  0.00000000000E+00 0.  1.
</event>
<event>
 8    1  0.8884112E-009  0.9118800E+02  0.7816164E-02  0.1184000E+00
        -11   -1    0    0    0    0  0.00000000000E+00  0.00000000000E+00  0.45593999997E+02  0.45594000000E+02  0.51100000000E-03 0. -1.
         11   -1    0    0    0    0 -0.00000000000E+00 -0.00000000000E+00 -0.45593999997E+02  0.45594000000E+02  0.51100000000E-03 0.  1.
         23    2    1    2    0    0  0.00000000000E+00  0.00000000000E+00 -0.35527136788E-14  0.91188000000E+02  0.91188000000E+02 0.  0.
    9900012    2    3    3    0    0 -0.29822618012E+02  0.18393099130E+02  0.28309342353E+02  0.46142317575E+02  0.99999983062E+01 0.  0.
        -12    1    3    3    0    0  0.29822618012E+02 -0.18393099130E+02 -0.28309342353E+02  0.45045682425E+02  0.00000000000E+00 0.  1.
         11    1    4    4    0    0 -0.12405266859E+01  0.20665865198E+01  0.26759052198E+01  0.36014101834E+01  0.51100000000E-03 0.  1.
        -11    1    4    4    0    0  0.15760966628E+00  0.14773960280E+01  0.19368691797E+01  0.24411067799E+01  0.51100000000E-03 0. -1.
         12    1    4    4    0    0 -0.28739700992E+02  0.14849116582E+02  0.23696567953E+02  0.40099800612E+02  0.00000000000E+00 0. -1.
</event>
<event>
 8    1  0.8828843E-009  0.9118800E+02  0.7816164E-02  0.1184000E+00
        -11   -1    0    0    0    0  0.00000000000E+00  0.00000000000E+00  0.45593999997E+02  0.45594000000E+02  0.51100000000E-03 0. -1.
         11   -1    0    0    0    0 -0.00000000000E+00 -0.00000000000E+00 -0.45593999997E+02  0.45594000000E+02  0.51100000000E-03 0.  1.
         23    2    1    2    0    0  0.00000000000E+00 -0.35527136788E-14 -0.88817841970E-15  0.91188000000E+02  0.91188000000E+02 0.  0.
    9900012    2    3    3    0    0  0.33300508546E+02  0.29617642907E+02 -0.65562910886E+01  0.46142316593E+02  0.99999893484E+01 0.  0.
         12    1    3    3    0    0 -0.33300508546E+02 -0.29617642907E+02  0.65562910886E+01  0.45045683407E+02  0.00000000000E+00 0. -1.
         11    1    4    4    0    0  0.40038662363E+01  0.73922367468E+01 -0.31151222406E+01  0.89654947322E+01  0.51100000000E-03 0. -1.
        -11    1    4    4    0    0  0.16695475402E+02  0.10707316346E+02 -0.32842441641E+01  0.20104024030E+02  0.51100000000E-03 0.  1.
        -12    1    4    4    0    0  0.12601166908E+02  0.11518089814E+02 -0.15692468393E+00  0.17072797830E+02  0.00000000000E+00 0.  1.
</event>
<event>
 8    1  0.8828843E-009  0.9118800E+02  0.7816164E-02  0.1184000E+00
        -11   -1    0    0    0    0  0.00000000000E+00  0.00000000000E+00  0.45593999997E+02  0.45594000000E+02  0.51100000000E-03 0. -1.
         11   -1    0    0    0    0 -0.00000000000E+00 -0.00000000000E+00 -0.45593999997E+02  0.45594000000E+02  0.51100000000E-03 0.  1.
         23    2    1    2    0    0  0.00000000000E+00  0.00000000000E+00  0.00000000000E+00  0.91188000000E+02  0.91188000000E+02 0.  0.
    9900012    2    3    3    0    0  0.12954852754E+02 -0.27790892093E+02 -0.32999266302E+02  0.46142317969E+02  0.10000001895E+02 0.  0.
         12    1    3    3    0    0 -0.12954852754E+02  0.27790892093E+02  0.32999266302E+02  0.45045682031E+02  0.00000000000E+00 0. -1.
         11    1    4    4    0    0  0.60051868527E+01 -0.58700124182E+01 -0.12396855087E+02  0.14973354041E+02  0.51100000000E-03 0. -1.
        -11    1    4    4    0    0  0.48084263546E+01 -0.16104402748E+02 -0.17403323291E+02  0.24193974740E+02  0.51100000000E-03 0.  1.
        -12    1    4    4    0    0  0.21412395465E+01 -0.58164769263E+01 -0.31990879241E+01  0.69749891882E+01  0.00000000000E+00 0.  1.
</event>
<event>
 8    1  0.8828843E-009  0.9118800E+02  0.7816164E-02  0.1184000E+00
        -11   -1    0    0    0    0  0.00000000000E+00  0.00000000000E+00  0.45593999997E+02  0.45594000000E+02  0.51100000000E-03 0. -1.
         11   -1    0    0    0    0 -0.00000000000E+00 -0.00000000000E+00 -0.45593999997E+02  0.45594000000E+02  0.51100000000E-03 0.  1.
         23    2    1    2    0    0  0.00000000000E+00  0.71054273576E-14  0.17763568394E-14  0.91188000000E+02  0.91188000000E+02 0.  0.
    9900012    2    3    3    0    0 -0.27608576115E+02  0.34383224191E+02  0.92018413371E+01  0.46142318022E+02  0.10000002379E+02 0.  0.
         12    1    3    3    0    0  0.27608576115E+02 -0.34383224191E+02 -0.92018413371E+01  0.45045681978E+02  0.00000000000E+00 0. -1.
         11    1    4    4    0    0 -0.58879101849E+01  0.12447193740E+02  0.54903101088E+01  0.14823752011E+02  0.51100000000E-03 0. -1.
        -11    1    4    4    0    0 -0.33967526292E+01  0.35683814447E+01 -0.77947729460E+00  0.49878712567E+01  0.51100000000E-03 0.  1.
        -12    1    4    4    0    0 -0.18323913300E+02  0.18367649007E+02  0.44910085230E+01  0.26330694754E+02  0.00000000000E+00 0.  1.
</event>
<event>
 8    1  0.8828843E-009  0.9118800E+02  0.7816164E-02  0.1184000E+00
        -11   -1    0    0    0    0  0.00000000000E+00  0.00000000000E+00  0.45593999997E+02  0.45594000000E+02  0.51100000000E-03 0. -1.
         11   -1    0    0    0    0 -0.00000000000E+00 -0.00000000000E+00 -0.45593999997E+02  0.45594000000E+02  0.51100000000E-03 0.  1.
         23    2    1    2    0    0  0.35527136788E-14 -0.17763568394E-14  0.00000000000E+00  0.91188000000E+02  0.91188000000E+02 0.  0.
    9900012    2    3    3    0    0  0.21683316860E+02 -0.14598269151E+02  0.36685661942E+02  0.46142317805E+02  0.10000000403E+02 0.  0.
        -12    1    3    3    0    0 -0.21683316860E+02  0.14598269151E+02 -0.36685661942E+02  0.45045682195E+02  0.00000000000E+00 0.  1.
         11    1    4    4    0    0  0.18159176504E+02 -0.76975289545E+01  0.29672504458E+02  0.35629554648E+02  0.51100000000E-03 0.  1.
        -11    1    4    4    0    0  0.78737264960E+00 -0.17053737069E+01  0.23859722999E+01  0.30366295867E+01  0.51100000000E-03 0. -1.
        -12    1    4    4    0    0  0.27367677063E+01 -0.51953664901E+01  0.46271851841E+01  0.74761335711E+01  0.00000000000E+00 0.  1.
</event>
<event>
 8    1  0.8828843E-009  0.9118800E+02  0.7816164E-02  0.1184000E+00
        -11   -1    0    0    0    0  0.00000000000E+00  0.00000000000E+00  0.45593999997E+02  0.45594000000E+02  0.51100000000E-03 0.  1.
         11   -1    0    0    0    0 -0.00000000000E+00 -0.00000000000E+00 -0.45593999997E+02  0.45594000000E+02  0.51100000000E-03 0. -1.
         23    2    1    2    0    0  0.00000000000E+00  0.00000000000E+00  0.00000000000E+00  0.91188000000E+02  0.91188000000E+02 0.  0.
    9900012    2    3    3    0    0 -0.22135440310E+02 -0.34898139520E+02 -0.17923601896E+02  0.46142319135E+02  0.10000012527E+02 0.  0.
         12    1    3    3    0    0  0.22135440310E+02  0.34898139520E+02  0.17923601896E+02  0.45045680865E+02  0.00000000000E+00 0. -1.
         11    1    4    4    0    0 -0.10416833582E+02 -0.11401067906E+02 -0.73086183976E+01  0.17085393598E+02  0.51100000000E-03 0. -1.
        -11    1    4    4    0    0 -0.27431580628E+01 -0.42110666539E+01  0.50942456633E+00  0.50514861349E+01  0.51100000000E-03 0.  1.
         12    1    4    4    0    0 -0.89754486648E+01 -0.19286004960E+02 -0.11124408065E+02  0.24005439402E+02  0.00000000000E+00 0. -1.
</event>
<event>
 8    1  0.8828843E-009  0.9118800E+02  0.7816164E-02  0.1184000E+00
        -11   -1    0    0    0    0  0.00000000000E+00  0.00000000000E+00  0.45593999997E+02  0.45594000000E+02  0.51100000000E-03 0. -1.
         11   -1    0    0    0    0 -0.00000000000E+00 -0.00000000000E+00 -0.45593999997E+02  0.45594000000E+02  0.51100000000E-03 0.  1.
         23    2    1    2    0    0 -0.44408920985E-15  0.88817841970E-15  0.00000000000E+00  0.91188000000E+02  0.91188000000E+02 0.  0.
    9900012    2    3    3    0    0  0.22596495957E+01 -0.55458746606E+01 -0.44645836989E+02  0.46142317605E+02  0.99999985741E+01 0.  0.
         12    1    3    3    0    0 -0.22596495957E+01  0.55458746606E+01  0.44645836989E+02  0.45045682395E+02  0.00000000000E+00 0. -1.
         11    1    4    4    0    0  0.38992148573E+00  0.94697083765E+00 -0.54895455557E+01  0.55842549370E+01  0.51100000000E-03 0. -1.
        -11    1    4    4    0    0  0.17306211145E+01 -0.38521543723E+01 -0.62339462564E+01  0.75296898301E+01  0.51100000000E-03 0.  1.
        -12    1    4    4    0    0  0.13910699544E+00 -0.26406911260E+01 -0.32922345176E+02  0.33028372838E+02  0.00000000000E+00 0.  1.
</event>
<event>
 8    1  0.1061084E-008  0.9118800E+02  0.7816164E-02  0.1184000E+00
        -11   -1    0    0    0    0  0.00000000000E+00  0.00000000000E+00  0.45593999997E+02  0.45594000000E+02  0.51100000000E-03 0. -1.
         11   -1    0    0    0    0 -0.00000000000E+00 -0.00000000000E+00 -0.45593999997E+02  0.45594000000E+02  0.51100000000E-03 0.  1.
         23    2    1    2    0    0  0.22204460493E-15  0.71054273576E-14  0.00000000000E+00  0.91188000000E+02  0.91188000000E+02 0.  0.
    9900012    2    3    3    0    0  0.18722118677E+01  0.39955815759E+02  0.20715710707E+02  0.46142322512E+02  0.10000043319E+02 0.  0.
        -12    1    3    3    0    0 -0.18722118677E+01 -0.39955815759E+02 -0.20715710707E+02  0.45045677488E+02  0.00000000000E+00 0.  1.
         11    1    4    4    0    0  0.27252669030E+01  0.16775777591E+02  0.89288392462E+01  0.19198384412E+02  0.51100000000E-03 0. -1.
        -11    1    4    4    0    0  0.15565419051E+01  0.74263489888E+01  0.69489539787E+01  0.10288899050E+02  0.51100000000E-03 0.  1.
        -12    1    4    4    0    0 -0.24095969405E+01  0.15753689179E+02  0.48379174823E+01  0.16655039049E+02  0.00000000000E+00 0.  1.
</event>
<event>
 8    1  0.8828843E-009  0.9118800E+02  0.7816164E-02  0.1184000E+00
        -11   -1    0    0    0    0  0.00000000000E+00  0.00000000000E+00  0.45593999997E+02  0.45594000000E+02  0.51100000000E-03 0. -1.
         11   -1    0    0    0    0 -0.00000000000E+00 -0.00000000000E+00 -0.45593999997E+02  0.45594000000E+02  0.51100000000E-03 0.  1.
         23    2    1    2    0    0  0.35527136788E-14  0.00000000000E+00 -0.71054273576E-14  0.91188000000E+02  0.91188000000E+02 0.  0.
    9900012    2    3    3    0    0  0.10074785746E+02 -0.41167870344E+01 -0.43711145820E+02  0.46142317497E+02  0.99999975878E+01 0.  0.
         12    1    3    3    0    0 -0.10074785746E+02  0.41167870344E+01  0.43711145820E+02  0.45045682503E+02  0.00000000000E+00 0. -1.
         11    1    4    4    0    0 -0.61644467729E+00  0.89468452702E+00 -0.14462264023E+01  0.18088768645E+01  0.51100000000E-03 0. -1.
        -11    1    4    4    0    0  0.49029431121E+01 -0.17822162562E+01 -0.29422895791E+02  0.29881799526E+02  0.51100000000E-03 0.  1.
        -12    1    4    4    0    0  0.57882873112E+01 -0.32292553052E+01 -0.12842023626E+02  0.14451641106E+02  0.00000000000E+00 0.  1.
</event>
<event>
 8    1  0.8828843E-009  0.9118800E+02  0.7816164E-02  0.1184000E+00
        -11   -1    0    0    0    0  0.00000000000E+00  0.00000000000E+00  0.45593999997E+02  0.45594000000E+02  0.51100000000E-03 0. -1.
         11   -1    0    0    0    0 -0.00000000000E+00 -0.00000000000E+00 -0.45593999997E+02  0.45594000000E+02  0.51100000000E-03 0.  1.
         23    2    1    2    0    0  0.00000000000E+00  0.00000000000E+00  0.00000000000E+00  0.91188000000E+02  0.91188000000E+02 0.  0.
    9900012    2    3    3    0    0 -0.12098707285E+02  0.11993130266E+01 -0.43373913739E+02  0.46142318046E+02  0.10000002595E+02 0.  0.
         12    1    3    3    0    0  0.12098707285E+02 -0.11993130266E+01  0.43373913739E+02  0.45045681954E+02  0.00000000000E+00 0. -1.
         11    1    4    4    0    0 -0.95249992106E+00 -0.15951547105E+01 -0.49478654294E+01  0.52851818529E+01  0.51100000000E-03 0. -1.
        -11    1    4    4    0    0 -0.11972317168E+02  0.24956687091E+01 -0.37919972607E+02  0.39843306382E+02  0.51100000000E-03 0.  1.
        -12    1    4    4    0    0  0.82610980449E+00  0.29879902800E+00 -0.50607570234E+00  0.10138298105E+01  0.00000000000E+00 0.  1.
</event>
<event>
 8    1  0.8828843E-009  0.9118800E+02  0.7816164E-02  0.1184000E+00
        -11   -1    0    0    0    0  0.00000000000E+00  0.00000000000E+00  0.45593999997E+02  0.45594000000E+02  0.51100000000E-03 0. -1.
         11   -1    0    0    0    0 -0.00000000000E+00 -0.00000000000E+00 -0.45593999997E+02  0.45594000000E+02  0.51100000000E-03 0.  1.
         23    2    1    2    0    0  0.17763568394E-14  0.00000000000E+00  0.00000000000E+00  0.91188000000E+02  0.91188000000E+02 0.  0.
    9900012    2    3    3    0    0 -0.10932446920E+02 -0.18206287368E+02 -0.39725636330E+02  0.46142317885E+02  0.10000001132E+02 0.  0.
         12    1    3    3    0    0  0.10932446920E+02  0.18206287368E+02  0.39725636330E+02  0.45045682115E+02  0.00000000000E+00 0. -1.
         11    1    4    4    0    0 -0.30218562812E+01 -0.74671527740E+01 -0.10653193444E+02  0.13355916919E+02  0.51100000000E-03 0. -1.
        -11    1    4    4    0    0 -0.23807240000E+01 -0.90745137068E+01 -0.17850589452E+02  0.20165767772E+02  0.51100000000E-03 0.  1.
         12    1    4    4    0    0 -0.55298666387E+01 -0.16646208874E+01 -0.11221853433E+02  0.12620633194E+02  0.00000000000E+00 0. -1.
</event>
<event>
 8    1  0.8828843E-009  0.9118800E+02  0.7816164E-02  0.1184000E+00
        -11   -1    0    0    0    0  0.00000000000E+00  0.00000000000E+00  0.45593999997E+02  0.45594000000E+02  0.51100000000E-03 0. -1.
         11   -1    0    0    0    0 -0.00000000000E+00 -0.00000000000E+00 -0.45593999997E+02  0.45594000000E+02  0.51100000000E-03 0.  1.
         23    2    1    2    0    0 -0.35527136788E-14 -0.17763568394E-14 -0.71054273576E-14  0.91188000000E+02  0.91188000000E+02 0.  0.
    9900012    2    3    3    0    0  0.20080169103E+02  0.15091937708E+02  0.37391626883E+02  0.46142317233E+02  0.99999951855E+01 0.  0.
        -12    1    3    3    0    0 -0.20080169103E+02 -0.15091937708E+02 -0.37391626883E+02  0.45045682767E+02  0.00000000000E+00 0.  1.
         11    1    4    4    0    0  0.13340411129E+02  0.57752233054E+01  0.15568405157E+02  0.21300117669E+02  0.51100000000E-03 0. -1.
        -11    1    4    4    0    0  0.17557981136E+01  0.65298136836E+00  0.35677076949E+01  0.40296091796E+01  0.51100000000E-03 0.  1.
        -12    1    4    4    0    0  0.49839598601E+01  0.86637330342E+01  0.18255514031E+02  0.20812590384E+02  0.00000000000E+00 0.  1.
</event>
<event>
 8    1  0.8828843E-009  0.9118800E+02  0.7816164E-02  0.1184000E+00
        -11   -1    0    0    0    0  0.00000000000E+00  0.00000000000E+00  0.45593999997E+02  0.45594000000E+02  0.51100000000E-03 0. -1.
         11   -1    0    0    0    0 -0.00000000000E+00 -0.00000000000E+00 -0.45593999997E+02  0.45594000000E+02  0.51100000000E-03 0.  1.
         23    2    1    2    0    0  0.00000000000E+00 -0.35527136788E-14  0.71054273576E-14  0.91188000000E+02  0.91188000000E+02 0.  0.
    9900012    2    3    3    0    0 -0.86082462823E+01 -0.25827008371E+02 -0.35888399154E+02  0.46142318084E+02  0.10000002944E+02 0.  0.
         12    1    3    3    0    0  0.86082462823E+01  0.25827008371E+02  0.35888399154E+02  0.45045681916E+02  0.00000000000E+00 0. -1.
         11    1    4    4    0    0 -0.45938779279E-01 -0.41292105038E+01 -0.93476766857E+01  0.10219175575E+02  0.51100000000E-03 0. -1.
        -11    1    4    4    0    0 -0.74613988100E+01 -0.12164563856E+02 -0.18746327904E+02  0.23560006285E+02  0.51100000000E-03 0.  1.
        -12    1    4    4    0    0 -0.11009086930E+01 -0.95332340112E+01 -0.77943945646E+01  0.12363136224E+02  0.00000000000E+00 0.  1.
</event>
<event>
 8    1  0.8828843E-009  0.9118800E+02  0.7816164E-02  0.1184000E+00
        -11   -1    0    0    0    0  0.00000000000E+00  0.00000000000E+00  0.45593999997E+02  0.45594000000E+02  0.51100000000E-03 0. -1.
         11   -1    0    0    0    0 -0.00000000000E+00 -0.00000000000E+00 -0.45593999997E+02  0.45594000000E+02  0.51100000000E-03 0.  1.
         23    2    1    2    0    0 -0.17763568394E-14 -0.35527136788E-14  0.00000000000E+00  0.91188000000E+02  0.91188000000E+02 0.  0.
    9900012    2    3    3    0    0 -0.12252417109E+02  0.19175217919E+02 -0.38875477401E+02  0.46142318183E+02  0.10000003845E+02 0.  0.
         12    1    3    3    0    0  0.12252417109E+02 -0.19175217919E+02  0.38875477401E+02  0.45045681817E+02  0.00000000000E+00 0. -1.
         11    1    4    4    0    0 -0.29858666819E+01  0.38690519053E+01 -0.73858834675E+01  0.88564235075E+01  0.51100000000E-03 0.  1.
        -11    1    4    4    0    0 -0.91900362890E+01  0.11691050917E+02 -0.29779508913E+02  0.33285981882E+02  0.51100000000E-03 0. -1.
         12    1    4    4    0    0 -0.76514137874E-01  0.36151150962E+01 -0.17100850209E+01  0.39999127929E+01  0.00000000000E+00 0. -1.
</event>
<event>
 8    1  0.8828843E-009  0.9118800E+02  0.7816164E-02  0.1184000E+00
        -11   -1    0    0    0    0  0.00000000000E+00  0.00000000000E+00  0.45593999997E+02  0.45594000000E+02  0.51100000000E-03 0. -1.
         11   -1    0    0    0    0 -0.00000000000E+00 -0.00000000000E+00 -0.45593999997E+02  0.45594000000E+02  0.51100000000E-03 0.  1.
         23    2    1    2    0    0  0.22204460493E-15  0.00000000000E+00  0.71054273576E-14  0.91188000000E+02  0.91188000000E+02 0.  0.
    9900012    2    3    3    0    0  0.16258283285E+01  0.19692402502E+02  0.40480605860E+02  0.46142317800E+02  0.10000000354E+02 0.  0.
        -12    1    3    3    0    0 -0.16258283285E+01 -0.19692402502E+02 -0.40480605860E+02  0.45045682200E+02  0.00000000000E+00 0.  1.
         11    1    4    4    0    0  0.34965060020E+01  0.47563565730E+01  0.15752257668E+02  0.16822071928E+02  0.51100000000E-03 0. -1.
        -11    1    4    4    0    0 -0.95089376356E-01  0.85584054507E+01  0.99362376257E+01  0.13114273303E+02  0.51100000000E-03 0.  1.
         12    1    4    4    0    0 -0.17755882972E+01  0.63776404784E+01  0.14792110567E+02  0.16205972569E+02  0.00000000000E+00 0. -1.
</event>
<event>
 8    1  0.8828843E-009  0.9118800E+02  0.7816164E-02  0.1184000E+00
        -11   -1    0    0    0    0  0.00000000000E+00  0.00000000000E+00  0.45593999997E+02  0.45594000000E+02  0.51100000000E-03 0. -1.
         11   -1    0    0    0    0 -0.00000000000E+00 -0.00000000000E+00 -0.45593999997E+02  0.45594000000E+02  0.51100000000E-03 0.  1.
         23    2    1    2    0    0  0.17763568394E-14 -0.35527136788E-14  0.00000000000E+00  0.91188000000E+02  0.91188000000E+02 0.  0.
    9900012    2    3    3    0    0  0.13340321224E+02 -0.13885535501E+02 -0.40722739751E+02  0.46142314309E+02  0.99999685238E+01 0.  0.
         12    1    3    3    0    0 -0.13340321224E+02  0.13885535501E+02  0.40722739751E+02  0.45045685691E+02  0.00000000000E+00 0. -1.
         11    1    4    4    0    0  0.10622525092E+01 -0.58984110198E+00 -0.57926316512E+00  0.13460456881E+01  0.51100000000E-03 0. -1.
        -11    1    4    4    0    0  0.79137555758E+01 -0.55997530072E+01 -0.28940312605E+02  0.30520918319E+02  0.51100000000E-03 0.  1.
        -12    1    4    4    0    0  0.43643131388E+01 -0.76959413922E+01 -0.11203163980E+02  0.14275350303E+02  0.00000000000E+00 0.  1.
</event>
<event>
 8    1  0.8828843E-009  0.9118800E+02  0.7816164E-02  0.1184000E+00
        -11   -1    0    0    0    0  0.00000000000E+00  0.00000000000E+00  0.45593999997E+02  0.45594000000E+02  0.51100000000E-03 0. -1.
         11   -1    0    0    0    0 -0.00000000000E+00 -0.00000000000E+00 -0.45593999997E+02  0.45594000000E+02  0.51100000000E-03 0.  1.
         23    2    1    2    0    0  0.35527136788E-14  0.35527136788E-14  0.35527136788E-14  0.91188000000E+02  0.91188000000E+02 0.  0.
    9900012    2    3    3    0    0 -0.25070752439E+02 -0.19725966165E+02 -0.31803413442E+02  0.46142317903E+02  0.10000001293E+02 0.  0.
         12    1    3    3    0    0  0.25070752439E+02  0.19725966165E+02  0.31803413442E+02  0.45045682097E+02  0.00000000000E+00 0. -1.
         11    1    4    4    0    0 -0.84495132924E+01 -0.11126994613E+02 -0.13626085578E+02  0.19516006057E+02  0.51100000000E-03 0. -1.
        -11    1    4    4    0    0 -0.99072432458E+01 -0.79579163481E+01 -0.12135495402E+02  0.17571344577E+02  0.51100000000E-03 0.  1.
        -12    1    4    4    0    0 -0.67139959008E+01 -0.64105520450E+00 -0.60418324626E+01  0.90549672687E+01  0.00000000000E+00 0.  1.
</event>
<event>
 8    1  0.8828843E-009  0.9118800E+02  0.7816164E-02  0.1184000E+00
        -11   -1    0    0    0    0  0.00000000000E+00  0.00000000000E+00  0.45593999997E+02  0.45594000000E+02  0.51100000000E-03 0.  1.
         11   -1    0    0    0    0 -0.00000000000E+00 -0.00000000000E+00 -0.45593999997E+02  0.45594000000E+02  0.51100000000E-03 0. -1.
         23    2    1    2    0    0  0.00000000000E+00 -0.71054273576E-14 -0.35527136788E-14  0.91188000000E+02  0.91188000000E+02 0.  0.
    9900012    2    3    3    0    0 -0.13432512036E+01  0.37267154908E+02  0.25267930860E+02  0.46142317757E+02  0.99999999630E+01 0.  0.
        -12    1    3    3    0    0  0.13432512036E+01 -0.37267154908E+02 -0.25267930860E+02  0.45045682243E+02  0.00000000000E+00 0.  1.
         11    1    4    4    0    0 -0.13769526150E+01  0.10725819672E+02  0.93721995655E+01  0.14310043015E+02  0.51100000000E-03 0. -1.
        -11    1    4    4    0    0  0.20012653995E+01  0.93524137317E+01  0.92296573412E+01  0.13291323512E+02  0.51100000000E-03 0.  1.
         12    1    4    4    0    0 -0.19675639880E+01  0.17188921505E+02  0.66660739538E+01  0.18540951230E+02  0.00000000000E+00 0. -1.
</event>
<event>
 8    1  0.8828843E-009  0.9118800E+02  0.7816164E-02  0.1184000E+00
        -11   -1    0    0    0    0  0.00000000000E+00  0.00000000000E+00  0.45593999997E+02  0.45594000000E+02  0.51100000000E-03 0. -1.
         11   -1    0    0    0    0 -0.00000000000E+00 -0.00000000000E+00 -0.45593999997E+02  0.45594000000E+02  0.51100000000E-03 0.  1.
         23    2    1    2    0    0  0.00000000000E+00  0.00000000000E+00  0.00000000000E+00  0.91188000000E+02  0.91188000000E+02 0.  0.
    9900012    2    3    3    0    0  0.95279653341E+01  0.97188792272E+01  0.42940361834E+02  0.46142318617E+02  0.10000007802E+02 0.  0.
        -12    1    3    3    0    0 -0.95279653341E+01 -0.97188792272E+01 -0.42940361834E+02  0.45045681383E+02  0.00000000000E+00 0.  1.
         11    1    4    4    0    0 -0.66223990411E-01 -0.12260922251E+01  0.82659678969E+01  0.83566687918E+01  0.51100000000E-03 0. -1.
        -11    1    4    4    0    0  0.29030027016E+01  0.33395237101E+01  0.66593305231E+01  0.79954065920E+01  0.51100000000E-03 0.  1.
         12    1    4    4    0    0  0.66911866230E+01  0.76054477421E+01  0.28015063414E+02  0.29790243233E+02  0.00000000000E+00 0. -1.
</event>
<event>
 8    1  0.8828843E-009  0.9118800E+02  0.7816164E-02  0.1184000E+00
        -11   -1    0    0    0    0  0.00000000000E+00  0.00000000000E+00  0.45593999997E+02  0.45594000000E+02  0.51100000000E-03 0. -1.
         11   -1    0    0    0    0 -0.00000000000E+00 -0.00000000000E+00 -0.45593999997E+02  0.45594000000E+02  0.51100000000E-03 0.  1.
         23    2    1    2    0    0  0.00000000000E+00  0.00000000000E+00  0.00000000000E+00  0.91188000000E+02  0.91188000000E+02 0.  0.
    9900012    2    3    3    0    0 -0.18122735290E+02  0.10109216293E+02  0.39981041724E+02  0.46142317790E+02  0.10000000264E+02 0.  0.
        -12    1    3    3    0    0  0.18122735290E+02 -0.10109216293E+02 -0.39981041724E+02  0.45045682210E+02  0.00000000000E+00 0.  1.
         11    1    4    4    0    0 -0.18586873113E+01  0.12395312071E+01  0.20521551470E+01  0.30335617915E+01  0.51100000000E-03 0. -1.
        -11    1    4    4    0    0 -0.11677346898E+02  0.14538777381E+01  0.21997417412E+02  0.24947155431E+02  0.51100000000E-03 0.  1.
        -12    1    4    4    0    0 -0.45867010814E+01  0.74158073478E+01  0.15931469165E+02  0.18161600568E+02  0.00000000000E+00 0.  1.
</event>
<event>
 8    1  0.8828843E-009  0.9118800E+02  0.7816164E-02  0.1184000E+00
        -11   -1    0    0    0    0  0.00000000000E+00  0.00000000000E+00  0.45593999997E+02  0.45594000000E+02  0.51100000000E-03 0. -1.
         11   -1    0    0    0    0 -0.00000000000E+00 -0.00000000000E+00 -0.45593999997E+02  0.45594000000E+02  0.51100000000E-03 0.  1.
         23    2    1    2    0    0  0.17763568394E-14  0.00000000000E+00  0.00000000000E+00  0.91188000000E+02  0.91188000000E+02 0.  0.
    9900012    2    3    3    0    0 -0.13185268488E+02 -0.42267997470E+02 -0.82872535613E+01  0.46142317778E+02  0.10000000155E+02 0.  0.
         12    1    3    3    0    0  0.13185268488E+02  0.42267997470E+02  0.82872535613E+01  0.45045682222E+02  0.00000000000E+00 0. -1.
         11    1    4    4    0    0 -0.36616205262E+01 -0.57276417109E+01 -0.20011009632E+01  0.70864483186E+01  0.51100000000E-03 0. -1.
        -11    1    4    4    0    0  0.30167917065E+00 -0.73111641428E+01 -0.34482748662E+01  0.80891737069E+01  0.51100000000E-03 0.  1.
        -12    1    4    4    0    0 -0.98253271329E+01 -0.29229191616E+02 -0.28378777319E+01  0.30966695753E+02  0.00000000000E+00 0.  1.
</event>
<event>
 8    1  0.8828843E-009  0.9118800E+02  0.7816164E-02  0.1184000E+00
        -11   -1    0    0    0    0  0.00000000000E+00  0.00000000000E+00  0.45593999997E+02  0.45594000000E+02  0.51100000000E-03 0. -1.
         11   -1    0    0    0    0 -0.00000000000E+00 -0.00000000000E+00 -0.45593999997E+02  0.45594000000E+02  0.51100000000E-03 0.  1.
         23    2    1    2    0    0  0.35527136788E-14  0.35527136788E-14 -0.71054273576E-14  0.91188000000E+02  0.91188000000E+02 0.  0.
    9900012    2    3    3    0    0 -0.13834716530E+02 -0.31060819754E+02  0.29545550580E+02  0.46142318028E+02  0.10000002431E+02 0.  0.
        -12    1    3    3    0    0  0.13834716530E+02  0.31060819754E+02 -0.29545550580E+02  0.45045681972E+02  0.00000000000E+00 0.  1.
         11    1    4    4    0    0  0.49777477015E+00 -0.67544593339E+01  0.54624897338E+01  0.87011088356E+01  0.51100000000E-03 0. -1.
        -11    1    4    4    0    0 -0.39613076806E+01 -0.30201854254E+01  0.45319173624E+01  0.67343710756E+01  0.51100000000E-03 0.  1.
        -12    1    4    4    0    0 -0.10371183619E+02 -0.21286174995E+02  0.19551143484E+02  0.30706838116E+02  0.00000000000E+00 0.  1.
</event>
<event>
 8    1  0.8828843E-009  0.9118800E+02  0.7816164E-02  0.1184000E+00
        -11   -1    0    0    0    0  0.00000000000E+00  0.00000000000E+00  0.45593999997E+02  0.45594000000E+02  0.51100000000E-03 0. -1.
         11   -1    0    0    0    0 -0.00000000000E+00 -0.00000000000E+00 -0.45593999997E+02  0.45594000000E+02  0.51100000000E-03 0.  1.
         23    2    1    2    0    0  0.35527136788E-14  0.17763568394E-14 -0.71054273576E-14  0.91188000000E+02  0.91188000000E+02 0.  0.
    9900012    2    3    3    0    0  0.22909073828E+02 -0.95184890126E+01  0.37599015251E+02  0.46142320467E+02  0.10000024676E+02 0.  0.
        -12    1    3    3    0    0 -0.22909073828E+02  0.95184890126E+01 -0.37599015251E+02  0.45045679533E+02  0.00000000000E+00 0.  1.
         11    1    4    4    0    0  0.11299955712E+00 -0.10662994982E+01  0.70022124643E+00  0.12806535733E+01  0.51100000000E-03 0. -1.
        -11    1    4    4    0    0  0.23931506935E+01 -0.24406152653E+01  0.19117692263E+01  0.39164569384E+01  0.51100000000E-03 0.  1.
         12    1    4    4    0    0  0.20402923578E+02 -0.60115742490E+01  0.34987024778E+02  0.40945209955E+02  0.00000000000E+00 0. -1.
</event>
<event>
 8    1  0.8828843E-009  0.9118800E+02  0.7816164E-02  0.1184000E+00
        -11   -1    0    0    0    0  0.00000000000E+00  0.00000000000E+00  0.45593999997E+02  0.45594000000E+02  0.51100000000E-03 0.  1.
         11   -1    0    0    0    0 -0.00000000000E+00 -0.00000000000E+00 -0.45593999997E+02  0.45594000000E+02  0.51100000000E-03 0. -1.
         23    2    1    2    0    0  0.00000000000E+00 -0.35527136788E-14 -0.22204460493E-15  0.91188000000E+02  0.91188000000E+02 0.  0.
    9900012    2    3    3    0    0  0.38218528399E+02 -0.23768126863E+02 -0.18798154562E+01  0.46142317924E+02  0.10000001485E+02 0.  0.
         12    1    3    3    0    0 -0.38218528399E+02  0.23768126863E+02  0.18798154562E+01  0.45045682076E+02  0.00000000000E+00 0. -1.
         11    1    4    4    0    0  0.36348487479E+01 -0.18820836986E+01  0.44591905053E+00  0.41174274164E+01  0.51100000000E-03 0. -1.
        -11    1    4    4    0    0  0.20098092316E+02 -0.14904934672E+02  0.27263033610E+01  0.25169885232E+02  0.51100000000E-03 0.  1.
         12    1    4    4    0    0  0.14485587335E+02 -0.69811084929E+01 -0.50520378677E+01  0.16855005276E+02  0.00000000000E+00 0. -1.
</event>
<event>
 8    1  0.8828843E-009  0.9118800E+02  0.7816164E-02  0.1184000E+00
        -11   -1    0    0    0    0  0.00000000000E+00  0.00000000000E+00  0.45593999997E+02  0.45594000000E+02  0.51100000000E-03 0. -1.
         11   -1    0    0    0    0 -0.00000000000E+00 -0.00000000000E+00 -0.45593999997E+02  0.45594000000E+02  0.51100000000E-03 0.  1.
         23    2    1    2    0    0  0.00000000000E+00  0.00000000000E+00 -0.71054273576E-14  0.91188000000E+02  0.91188000000E+02 0.  0.
    9900012    2    3    3    0    0 -0.14826240956E+02  0.18140739664E+02  0.38473492059E+02  0.46142318213E+02  0.10000004118E+02 0.  0.
        -12    1    3    3    0    0  0.14826240956E+02 -0.18140739664E+02 -0.38473492059E+02  0.45045681787E+02  0.00000000000E+00 0.  1.
         11    1    4    4    0    0 -0.86270262176E+00  0.31877453152E+01  0.27393837484E+01  0.42907108491E+01  0.51100000000E-03 0. -1.
        -11    1    4    4    0    0 -0.41107185127E+01  0.51006802030E+01  0.54714346681E+01  0.85353115241E+01  0.51100000000E-03 0.  1.
         12    1    4    4    0    0 -0.98528198215E+01  0.98523141456E+01  0.30262673643E+02  0.33316295840E+02  0.00000000000E+00 0. -1.
</event>
<event>
 8    1  0.8828843E-009  0.9118800E+02  0.7816164E-02  0.1184000E+00
        -11   -1    0    0    0    0  0.00000000000E+00  0.00000000000E+00  0.45593999997E+02  0.45594000000E+02  0.51100000000E-03 0. -1.
         11   -1    0    0    0    0 -0.00000000000E+00 -0.00000000000E+00 -0.45593999997E+02  0.45594000000E+02  0.51100000000E-03 0.  1.
         23    2    1    2    0    0  0.00000000000E+00  0.35527136788E-14  0.35527136788E-14  0.91188000000E+02  0.91188000000E+02 0.  0.
    9900012    2    3    3    0    0  0.32085110685E+02 -0.20806011049E+02 -0.23806914135E+02  0.46142316699E+02  0.99999903144E+01 0.  0.
         12    1    3    3    0    0 -0.32085110685E+02  0.20806011049E+02  0.23806914135E+02  0.45045683301E+02  0.00000000000E+00 0. -1.
         11    1    4    4    0    0  0.17495992536E+02 -0.60569280691E+01 -0.90217185887E+01  0.20595813629E+02  0.51100000000E-03 0. -1.
        -11    1    4    4    0    0  0.33666000795E+01 -0.36706424477E+01 -0.45537737444E+01  0.67486641382E+01  0.51100000000E-03 0.  1.
        -12    1    4    4    0    0  0.11222518069E+02 -0.11078440532E+02 -0.10231421802E+02  0.18797838932E+02  0.00000000000E+00 0.  1.
</event>
<event>
 8    1  0.9532028E-009  0.9118800E+02  0.7816164E-02  0.1184000E+00
        -11   -1    0    0    0    0  0.00000000000E+00  0.00000000000E+00  0.45593999997E+02  0.45594000000E+02  0.51100000000E-03 0. -1.
         11   -1    0    0    0    0 -0.00000000000E+00 -0.00000000000E+00 -0.45593999997E+02  0.45594000000E+02  0.51100000000E-03 0.  1.
         23    2    1    2    0    0  0.88817841970E-15  0.35527136788E-14  0.71054273576E-14  0.91188000000E+02  0.91188000000E+02 0.  0.
    9900012    2    3    3    0    0  0.48045155643E+01  0.26163390844E+02  0.36352538537E+02  0.46142318206E+02  0.10000004052E+02 0.  0.
        -12    1    3    3    0    0 -0.48045155643E+01 -0.26163390844E+02 -0.36352538537E+02  0.45045681794E+02  0.00000000000E+00 0.  1.
         11    1    4    4    0    0  0.12276875804E+01  0.83252738636E+01  0.96182059490E+01  0.12779956480E+02  0.51100000000E-03 0. -1.
        -11    1    4    4    0    0  0.61572687429E+01  0.13394148906E+02  0.18485627369E+02  0.23643891447E+02  0.51100000000E-03 0.  1.
        -12    1    4    4    0    0 -0.25804407590E+01  0.44439680750E+01  0.82487052189E+01  0.97184702783E+01  0.00000000000E+00 0.  1.
</event>
<event>
 8    1  0.8828843E-009  0.9118800E+02  0.7816164E-02  0.1184000E+00
        -11   -1    0    0    0    0  0.00000000000E+00  0.00000000000E+00  0.45593999997E+02  0.45594000000E+02  0.51100000000E-03 0. -1.
         11   -1    0    0    0    0 -0.00000000000E+00 -0.00000000000E+00 -0.45593999997E+02  0.45594000000E+02  0.51100000000E-03 0.  1.
         23    2    1    2    0    0  0.00000000000E+00 -0.35527136788E-14 -0.71054273576E-14  0.91188000000E+02  0.91188000000E+02 0.  0.
    9900012    2    3    3    0    0  0.80662099011E+01  0.26507189143E+02  0.35516455938E+02  0.46142318067E+02  0.10000002786E+02 0.  0.
        -12    1    3    3    0    0 -0.80662099011E+01 -0.26507189143E+02 -0.35516455938E+02  0.45045681933E+02  0.00000000000E+00 0.  1.
         11    1    4    4    0    0  0.72566790082E+01  0.87830637487E+01  0.13069363874E+02  0.17338104608E+02  0.51100000000E-03 0. -1.
        -11    1    4    4    0    0  0.25472136609E+00  0.63246183598E+01  0.10656506921E+02  0.12394628691E+02  0.51100000000E-03 0.  1.
        -12    1    4    4    0    0  0.55480952683E+00  0.11399507035E+02  0.11790585142E+02  0.16409584768E+02  0.00000000000E+00 0.  1.
</event>
<event>
 8    1  0.8828843E-009  0.9118800E+02  0.7816164E-02  0.1184000E+00
        -11   -1    0    0    0    0  0.00000000000E+00  0.00000000000E+00  0.45593999997E+02  0.45594000000E+02  0.51100000000E-03 0. -1.
         11   -1    0    0    0    0 -0.00000000000E+00 -0.00000000000E+00 -0.45593999997E+02  0.45594000000E+02  0.51100000000E-03 0.  1.
         23    2    1    2    0    0  0.00000000000E+00  0.00000000000E+00  0.71054273576E-14  0.91188000000E+02  0.91188000000E+02 0.  0.
    9900012    2    3    3    0    0 -0.13393558707E+02  0.24299092850E+02  0.35486337913E+02  0.46142317558E+02  0.99999981496E+01 0.  0.
        -12    1    3    3    0    0  0.13393558707E+02 -0.24299092850E+02 -0.35486337913E+02  0.45045682442E+02  0.00000000000E+00 0.  1.
         11    1    4    4    0    0 -0.39210775982E+01  0.99212580885E+01  0.18649786468E+02  0.21485361230E+02  0.51100000000E-03 0. -1.
        -11    1    4    4    0    0 -0.96949551606E+01  0.12743742535E+02  0.16463535740E+02  0.22966130250E+02  0.51100000000E-03 0.  1.
         12    1    4    4    0    0  0.22247405219E+00  0.16340922272E+01  0.37301570467E+00  0.16908260782E+01  0.00000000000E+00 0. -1.
</event>
<event>
 8    1  0.8828843E-009  0.9118800E+02  0.7816164E-02  0.1184000E+00
        -11   -1    0    0    0    0  0.00000000000E+00  0.00000000000E+00  0.45593999997E+02  0.45594000000E+02  0.51100000000E-03 0. -1.
         11   -1    0    0    0    0 -0.00000000000E+00 -0.00000000000E+00 -0.45593999997E+02  0.45594000000E+02  0.51100000000E-03 0.  1.
         23    2    1    2    0    0  0.00000000000E+00  0.22204460493E-15  0.00000000000E+00  0.91188000000E+02  0.91188000000E+02 0.  0.
    9900012    2    3    3    0    0  0.36613050735E+02 -0.15182196260E+01  0.26197195257E+02  0.46142317474E+02  0.99999973778E+01 0.  0.
        -12    1    3    3    0    0 -0.36613050735E+02  0.15182196260E+01 -0.26197195257E+02  0.45045682526E+02  0.00000000000E+00 0.  1.
         11    1    4    4    0    0  0.24715834497E+02 -0.32557000148E+01  0.20763222695E+02  0.32443542877E+02  0.51100000000E-03 0. -1.
        -11    1    4    4    0    0  0.84789091134E+01  0.28412063518E+01  0.43666438069E+01  0.99514788692E+01  0.51100000000E-03 0.  1.
        -12    1    4    4    0    0  0.34183071238E+01 -0.11037259630E+01  0.10673287555E+01  0.37472957271E+01  0.00000000000E+00 0.  1.
</event>
<event>
 8    1  0.8828843E-009  0.9118800E+02  0.7816164E-02  0.1184000E+00
        -11   -1    0    0    0    0  0.00000000000E+00  0.00000000000E+00  0.45593999997E+02  0.45594000000E+02  0.51100000000E-03 0. -1.
         11   -1    0    0    0    0 -0.00000000000E+00 -0.00000000000E+00 -0.45593999997E+02  0.45594000000E+02  0.51100000000E-03 0.  1.
         23    2    1    2    0    0  0.00000000000E+00  0.00000000000E+00  0.71054273576E-14  0.91188000000E+02  0.91188000000E+02 0.  0.
    9900012    2    3    3    0    0  0.26829286450E+02  0.14668887687E+02 -0.33077585684E+02  0.46142317054E+02  0.99999935538E+01 0.  0.
         12    1    3    3    0    0 -0.26829286450E+02 -0.14668887687E+02  0.33077585684E+02  0.45045682946E+02  0.00000000000E+00 0. -1.
         11    1    4    4    0    0  0.42941365446E+01  0.52947874430E+01 -0.91191131277E+01  0.11385631613E+02  0.51100000000E-03 0. -1.
        -11    1    4    4    0    0  0.18454156001E+02  0.10083222001E+02 -0.20343203368E+02  0.29258727983E+02  0.51100000000E-03 0.  1.
        -12    1    4    4    0    0  0.40809939037E+01 -0.70912175715E+00 -0.36152691878E+01  0.54979574579E+01  0.00000000000E+00 0.  1.
</event>
<event>
 8    1  0.8828843E-009  0.9118800E+02  0.7816164E-02  0.1184000E+00
        -11   -1    0    0    0    0  0.00000000000E+00  0.00000000000E+00  0.45593999997E+02  0.45594000000E+02  0.51100000000E-03 0. -1.
         11   -1    0    0    0    0 -0.00000000000E+00 -0.00000000000E+00 -0.45593999997E+02  0.45594000000E+02  0.51100000000E-03 0.  1.
         23    2    1    2    0    0  0.00000000000E+00  0.00000000000E+00 -0.71054273576E-14  0.91188000000E+02  0.91188000000E+02 0.  0.
    9900012    2    3    3    0    0 -0.80271844084E+01  0.50734684610E+01 -0.44033370253E+02  0.46142317992E+02  0.10000002107E+02 0.  0.
         12    1    3    3    0    0  0.80271844084E+01 -0.50734684610E+01  0.44033370253E+02  0.45045682008E+02  0.00000000000E+00 0. -1.
         11    1    4    4    0    0 -0.40070658239E+00  0.18869611936E+01 -0.11233088353E+02  0.11397520016E+02  0.51100000000E-03 0. -1.
        -11    1    4    4    0    0 -0.11532685616E+01  0.44870988595E+01 -0.17011157375E+02  0.17630756083E+02  0.51100000000E-03 0.  1.
         12    1    4    4    0    0 -0.64732092644E+01 -0.13005915921E+01 -0.15789124525E+02  0.17114041893E+02  0.00000000000E+00 0. -1.
</event>
<event>
 8    1  0.8828843E-009  0.9118800E+02  0.7816164E-02  0.1184000E+00
        -11   -1    0    0    0    0  0.00000000000E+00  0.00000000000E+00  0.45593999997E+02  0.45594000000E+02  0.51100000000E-03 0. -1.
         11   -1    0    0    0    0 -0.00000000000E+00 -0.00000000000E+00 -0.45593999997E+02  0.45594000000E+02  0.51100000000E-03 0.  1.
         23    2    1    2    0    0 -0.33306690739E-15  0.00000000000E+00  0.00000000000E+00  0.91188000000E+02  0.91188000000E+02 0.  0.
    9900012    2    3    3    0    0 -0.59299013037E+00 -0.25320143976E+02  0.37251203849E+02  0.46142317450E+02  0.99999971592E+01 0.  0.
        -12    1    3    3    0    0  0.59299013037E+00  0.25320143976E+02 -0.37251203849E+02  0.45045682550E+02  0.00000000000E+00 0.  1.
         11    1    4    4    0    0  0.26129623009E+00 -0.10978408492E+02  0.15123711672E+02  0.18690114600E+02  0.51100000000E-03 0. -1.
        -11    1    4    4    0    0 -0.31793310064E+01 -0.77925567189E+01  0.75650255998E+01  0.11316434883E+02  0.51100000000E-03 0.  1.
        -12    1    4    4    0    0  0.23250446459E+01 -0.65491787648E+01  0.14562466577E+02  0.16135767967E+02  0.00000000000E+00 0.  1.
</event>
<event>
 8    1  0.8828843E-009  0.9118800E+02  0.7816164E-02  0.1184000E+00
        -11   -1    0    0    0    0  0.00000000000E+00  0.00000000000E+00  0.45593999997E+02  0.45594000000E+02  0.51100000000E-03 0. -1.
         11   -1    0    0    0    0 -0.00000000000E+00 -0.00000000000E+00 -0.45593999997E+02  0.45594000000E+02  0.51100000000E-03 0.  1.
         23    2    1    2    0    0 -0.88817841970E-15 -0.35527136788E-14  0.00000000000E+00  0.91188000000E+02  0.91188000000E+02 0.  0.
    9900012    2    3    3    0    0  0.36215320454E+01  0.26627179437E+02  0.36152334175E+02  0.46142318238E+02  0.10000004348E+02 0.  0.
        -12    1    3    3    0    0 -0.36215320454E+01 -0.26627179437E+02 -0.36152334175E+02  0.45045681762E+02  0.00000000000E+00 0.  1.
         11    1    4    4    0    0  0.15430600175E+00  0.35313188055E+01  0.15464193699E+01  0.38581648457E+01  0.51100000000E-03 0. -1.
        -11    1    4    4    0    0  0.34203756037E+01  0.10865256901E+02  0.21671468135E+02  0.24482755323E+02  0.51100000000E-03 0.  1.
         12    1    4    4    0    0  0.46850439930E-01  0.12230603730E+02  0.12934446669E+02  0.17801398069E+02  0.00000000000E+00 0. -1.
</event>
<event>
 8    1  0.8828843E-009  0.9118800E+02  0.7816164E-02  0.1184000E+00
        -11   -1    0    0    0    0  0.00000000000E+00  0.00000000000E+00  0.45593999997E+02  0.45594000000E+02  0.51100000000E-03 0. -1.
         11   -1    0    0    0    0 -0.00000000000E+00 -0.00000000000E+00 -0.45593999997E+02  0.45594000000E+02  0.51100000000E-03 0.  1.
         23    2    1    2    0    0  0.00000000000E+00  0.00000000000E+00  0.00000000000E+00  0.91188000000E+02  0.91188000000E+02 0.  0.
    9900012    2    3    3    0    0  0.28701162148E+02 -0.14721598690E+02 -0.31442508046E+02  0.46142317756E+02  0.99999999502E+01 0.  0.
         12    1    3    3    0    0 -0.28701162148E+02  0.14721598690E+02  0.31442508046E+02  0.45045682244E+02  0.00000000000E+00 0. -1.
         11    1    4    4    0    0  0.15726601753E+02 -0.91190907796E+01 -0.19134617580E+02  0.26393510747E+02  0.51100000000E-03 0. -1.
        -11    1    4    4    0    0  0.12737799979E+02 -0.62989011858E+01 -0.12566055081E+02  0.18969276344E+02  0.51100000000E-03 0.  1.
         12    1    4    4    0    0  0.23676041624E+00  0.69639327504E+00  0.25816461584E+00  0.77953066463E+00  0.00000000000E+00 0. -1.
</event>
<event>
 8    1  0.8828843E-009  0.9118800E+02  0.7816164E-02  0.1184000E+00
        -11   -1    0    0    0    0  0.00000000000E+00  0.00000000000E+00  0.45593999997E+02  0.45594000000E+02  0.51100000000E-03 0. -1.
         11   -1    0    0    0    0 -0.00000000000E+00 -0.00000000000E+00 -0.45593999997E+02  0.45594000000E+02  0.51100000000E-03 0.  1.
         23    2    1    2    0    0 -0.88817841970E-15  0.17763568394E-14  0.00000000000E+00  0.91188000000E+02  0.91188000000E+02 0.  0.
    9900012    2    3    3    0    0  0.47520307155E+01 -0.15094660481E+02  0.42174433200E+02  0.46142318889E+02  0.10000010289E+02 0.  0.
        -12    1    3    3    0    0 -0.47520307155E+01  0.15094660481E+02 -0.42174433200E+02  0.45045681111E+02  0.00000000000E+00 0.  1.
         11    1    4    4    0    0  0.61960960822E+01 -0.53855507943E+01  0.23140589266E+02  0.24553668480E+02  0.51100000000E-03 0. -1.
        -11    1    4    4    0    0 -0.97518474584E-01 -0.63226304620E+00  0.34093387239E+01  0.34688409027E+01  0.51100000000E-03 0.  1.
        -12    1    4    4    0    0 -0.13465468920E+01 -0.90768466409E+01  0.15624505210E+02  0.18119809506E+02  0.00000000000E+00 0.  1.
</event>
<event>
 8    1  0.8828843E-009  0.9118800E+02  0.7816164E-02  0.1184000E+00
        -11   -1    0    0    0    0  0.00000000000E+00  0.00000000000E+00  0.45593999997E+02  0.45594000000E+02  0.51100000000E-03 0.  1.
         11   -1    0    0    0    0 -0.00000000000E+00 -0.00000000000E+00 -0.45593999997E+02  0.45594000000E+02  0.51100000000E-03 0. -1.
         23    2    1    2    0    0  0.00000000000E+00  0.00000000000E+00  0.88817841970E-15  0.91188000000E+02  0.91188000000E+02 0.  0.
    9900012    2    3    3    0    0  0.20018034742E+02  0.39665514872E+02 -0.74188118353E+01  0.46142317032E+02  0.99999933533E+01 0.  0.
         12    1    3    3    0    0 -0.20018034742E+02 -0.39665514872E+02  0.74188118353E+01  0.45045682968E+02  0.00000000000E+00 0. -1.
         11    1    4    4    0    0 -0.52889285565E-01  0.40700503820E+00  0.16553406599E+00  0.44255187919E+00  0.51100000000E-03 0. -1.
        -11    1    4    4    0    0  0.14405263794E+02  0.21194665859E+02 -0.77319505650E+01  0.26767677256E+02  0.51100000000E-03 0.  1.
        -12    1    4    4    0    0  0.56656602336E+01  0.18063843974E+02  0.14760466379E+00  0.18932087897E+02  0.00000000000E+00 0.  1.
</event>
<event>
 8    1  0.8828843E-009  0.9118800E+02  0.7816164E-02  0.1184000E+00
        -11   -1    0    0    0    0  0.00000000000E+00  0.00000000000E+00  0.45593999997E+02  0.45594000000E+02  0.51100000000E-03 0. -1.
         11   -1    0    0    0    0 -0.00000000000E+00 -0.00000000000E+00 -0.45593999997E+02  0.45594000000E+02  0.51100000000E-03 0.  1.
         23    2    1    2    0    0 -0.88817841970E-15  0.88817841970E-15  0.00000000000E+00  0.91188000000E+02  0.91188000000E+02 0.  0.
    9900012    2    3    3    0    0 -0.35645410193E+01  0.74400795078E+01  0.44283774856E+02  0.46142318174E+02  0.10000003761E+02 0.  0.
        -12    1    3    3    0    0  0.35645410193E+01 -0.74400795078E+01 -0.44283774856E+02  0.45045681826E+02  0.00000000000E+00 0.  1.
         11    1    4    4    0    0 -0.55064254696E+00  0.11682996736E+01  0.70185905796E+01  0.71364378598E+01  0.51100000000E-03 0. -1.
        -11    1    4    4    0    0  0.13967124719E+00  0.57074268244E+01  0.33831157013E+02  0.34309494518E+02  0.51100000000E-03 0.  1.
        -12    1    4    4    0    0 -0.31535697195E+01  0.56435300978E+00  0.34340272629E+01  0.46963857953E+01  0.00000000000E+00 0.  1.
</event>
<event>
 8    1  0.8828843E-009  0.9118800E+02  0.7816164E-02  0.1184000E+00
        -11   -1    0    0    0    0  0.00000000000E+00  0.00000000000E+00  0.45593999997E+02  0.45594000000E+02  0.51100000000E-03 0.  1.
         11   -1    0    0    0    0 -0.00000000000E+00 -0.00000000000E+00 -0.45593999997E+02  0.45594000000E+02  0.51100000000E-03 0. -1.
         23    2    1    2    0    0  0.00000000000E+00  0.88817841970E-15  0.00000000000E+00  0.91188000000E+02  0.91188000000E+02 0.  0.
    9900012    2    3    3    0    0  0.44485846723E+02  0.68694681721E+01 -0.17127470991E+01  0.46142315919E+02  0.99999832061E+01 0.  0.
        -12    1    3    3    0    0 -0.44485846723E+02 -0.68694681721E+01  0.17127470991E+01  0.45045684081E+02  0.00000000000E+00 0.  1.
         11    1    4    4    0    0  0.30761938526E+02  0.78295895838E+01 -0.15686595135E+01  0.31781441563E+02  0.51100000000E-03 0. -1.
        -11    1    4    4    0    0  0.42935844811E+01  0.11405776492E+01 -0.13042621647E+01  0.46299983937E+01  0.51100000000E-03 0.  1.
         12    1    4    4    0    0  0.94303237164E+01 -0.21006990609E+01  0.11601745791E+01  0.97308759623E+01  0.00000000000E+00 0. -1.
</event>
<event>
 8    1  0.8828843E-009  0.9118800E+02  0.7816164E-02  0.1184000E+00
        -11   -1    0    0    0    0  0.00000000000E+00  0.00000000000E+00  0.45593999997E+02  0.45594000000E+02  0.51100000000E-03 0. -1.
         11   -1    0    0    0    0 -0.00000000000E+00 -0.00000000000E+00 -0.45593999997E+02  0.45594000000E+02  0.51100000000E-03 0.  1.
         23    2    1    2    0    0  0.00000000000E+00  0.00000000000E+00  0.71054273576E-14  0.91188000000E+02  0.91188000000E+02 0.  0.
    9900012    2    3    3    0    0  0.98001996564E+01  0.26387739747E+02  0.35167556633E+02  0.46142314726E+02  0.99999723261E+01 0.  0.
        -12    1    3    3    0    0 -0.98001996564E+01 -0.26387739747E+02 -0.35167556633E+02  0.45045685274E+02  0.00000000000E+00 0.  1.
         11    1    4    4    0    0  0.68729904024E+01  0.10375181361E+02  0.13011191682E+02  0.18004818649E+02  0.51100000000E-03 0. -1.
        -11    1    4    4    0    0  0.23743747384E+00  0.94753748110E+01  0.16720664673E+02  0.19220294788E+02  0.51100000000E-03 0.  1.
        -12    1    4    4    0    0  0.26897717802E+01  0.65371835749E+01  0.54357002776E+01  0.89172012891E+01  0.00000000000E+00 0.  1.
</event>
<event>
 8    1  0.8828843E-009  0.9118800E+02  0.7816164E-02  0.1184000E+00
        -11   -1    0    0    0    0  0.00000000000E+00  0.00000000000E+00  0.45593999997E+02  0.45594000000E+02  0.51100000000E-03 0. -1.
         11   -1    0    0    0    0 -0.00000000000E+00 -0.00000000000E+00 -0.45593999997E+02  0.45594000000E+02  0.51100000000E-03 0.  1.
         23    2    1    2    0    0  0.00000000000E+00  0.00000000000E+00  0.71054273576E-14  0.91188000000E+02  0.91188000000E+02 0.  0.
    9900012    2    3    3    0    0  0.21905950677E+02  0.20029426743E+02 -0.33883106689E+02  0.46142317303E+02  0.99999958253E+01 0.  0.
         12    1    3    3    0    0 -0.21905950677E+02 -0.20029426743E+02  0.33883106689E+02  0.45045682697E+02  0.00000000000E+00 0. -1.
         11    1    4    4    0    0 -0.58510525469E-01  0.95859307122E+00 -0.38564763338E+01  0.39742589412E+01  0.51100000000E-03 0. -1.
        -11    1    4    4    0    0  0.72593465077E+01  0.98125973947E+01 -0.11562443817E+02  0.16812949968E+02  0.51100000000E-03 0.  1.
        -12    1    4    4    0    0  0.14705114695E+02  0.92582362768E+01 -0.18464186538E+02  0.25355108394E+02  0.00000000000E+00 0.  1.
</event>
<event>
 8    1  0.8828843E-009  0.9118800E+02  0.7816164E-02  0.1184000E+00
        -11   -1    0    0    0    0  0.00000000000E+00  0.00000000000E+00  0.45593999997E+02  0.45594000000E+02  0.51100000000E-03 0.  1.
         11   -1    0    0    0    0 -0.00000000000E+00 -0.00000000000E+00 -0.45593999997E+02  0.45594000000E+02  0.51100000000E-03 0. -1.
         23    2    1    2    0    0  0.35527136788E-14 -0.71054273576E-14  0.00000000000E+00  0.91188000000E+02  0.91188000000E+02 0.  0.
    9900012    2    3    3    0    0  0.23532616979E+02 -0.36289916142E+02 -0.12584570469E+02  0.46142317750E+02  0.99999999032E+01 0.  0.
         12    1    3    3    0    0 -0.23532616979E+02  0.36289916142E+02  0.12584570469E+02  0.45045682250E+02  0.00000000000E+00 0. -1.
         11    1    4    4    0    0  0.28244111830E+01 -0.67143167923E+01  0.15546435587E+00  0.72858436673E+01  0.51100000000E-03 0. -1.
        -11    1    4    4    0    0  0.64710808480E+01 -0.45939984576E+01 -0.32721558960E+01  0.85840965535E+01  0.51100000000E-03 0.  1.
        -12    1    4    4    0    0  0.14237124948E+02 -0.24981600892E+02 -0.94678789286E+01  0.30272377530E+02  0.00000000000E+00 0.  1.
</event>
<event>
 8    1  0.8828843E-009  0.9118800E+02  0.7816164E-02  0.1184000E+00
        -11   -1    0    0    0    0  0.00000000000E+00  0.00000000000E+00  0.45593999997E+02  0.45594000000E+02  0.51100000000E-03 0. -1.
         11   -1    0    0    0    0 -0.00000000000E+00 -0.00000000000E+00 -0.45593999997E+02  0.45594000000E+02  0.51100000000E-03 0.  1.
         23    2    1    2    0    0  0.00000000000E+00  0.00000000000E+00  0.00000000000E+00  0.91188000000E+02  0.91188000000E+02 0.  0.
    9900012    2    3    3    0    0  0.10324259362E+02 -0.13442455627E+02 -0.41735158665E+02  0.46142318592E+02  0.10000007581E+02 0.  0.
         12    1    3    3    0    0 -0.10324259362E+02  0.13442455627E+02  0.41735158665E+02  0.45045681408E+02  0.00000000000E+00 0. -1.
         11    1    4    4    0    0  0.36599025509E+00 -0.43956650723E+01 -0.11965659130E+02  0.12752757308E+02  0.51100000000E-03 0. -1.
        -11    1    4    4    0    0 -0.77678838404E+00 -0.16283834573E+01 -0.61027049291E+01  0.63638070830E+01  0.51100000000E-03 0.  1.
         12    1    4    4    0    0  0.10735057491E+02 -0.74184070977E+01 -0.23666794607E+02  0.27025754201E+02  0.00000000000E+00 0. -1.
</event>
<event>
 8    1  0.8828843E-009  0.9118800E+02  0.7816164E-02  0.1184000E+00
        -11   -1    0    0    0    0  0.00000000000E+00  0.00000000000E+00  0.45593999997E+02  0.45594000000E+02  0.51100000000E-03 0. -1.
         11   -1    0    0    0    0 -0.00000000000E+00 -0.00000000000E+00 -0.45593999997E+02  0.45594000000E+02  0.51100000000E-03 0.  1.
         23    2    1    2    0    0  0.35527136788E-14 -0.44408920985E-15  0.71054273576E-14  0.91188000000E+02  0.91188000000E+02 0.  0.
    9900012    2    3    3    0    0  0.14194997184E+02 -0.39888133656E+01  0.42564128999E+02  0.46142315916E+02  0.99999831789E+01 0.  0.
        -12    1    3    3    0    0 -0.14194997184E+02  0.39888133656E+01 -0.42564128999E+02  0.45045684084E+02  0.00000000000E+00 0.  1.
         11    1    4    4    0    0 -0.26768880769E+00 -0.27726891206E+00  0.57354670723E+00  0.69100754978E+00  0.51100000000E-03 0. -1.
        -11    1    4    4    0    0 -0.45049544021E+00 -0.12923095415E+01  0.81825259335E+00  0.15945368169E+01  0.51100000000E-03 0.  1.
         12    1    4    4    0    0  0.14913181432E+02 -0.24192349120E+01  0.41172329698E+02  0.43856771550E+02  0.00000000000E+00 0. -1.
</event>
<event>
 8    1  0.8828843E-009  0.9118800E+02  0.7816164E-02  0.1184000E+00
        -11   -1    0    0    0    0  0.00000000000E+00  0.00000000000E+00  0.45593999997E+02  0.45594000000E+02  0.51100000000E-03 0.  1.
         11   -1    0    0    0    0 -0.00000000000E+00 -0.00000000000E+00 -0.45593999997E+02  0.45594000000E+02  0.51100000000E-03 0. -1.
         23    2    1    2    0    0  0.00000000000E+00  0.71054273576E-14  0.00000000000E+00  0.91188000000E+02  0.91188000000E+02 0.  0.
    9900012    2    3    3    0    0 -0.20627909508E+02 -0.36328333884E+02 -0.16847957785E+02  0.46142332339E+02  0.10000132932E+02 0.  0.
         12    1    3    3    0    0  0.20627909508E+02  0.36328333884E+02  0.16847957785E+02  0.45045667661E+02  0.00000000000E+00 0. -1.
         11    1    4    4    0    0 -0.17624449249E-01 -0.35517625048E-01 -0.10523316361E+00  0.11245622591E+00  0.51100000000E-03 0. -1.
        -11    1    4    4    0    0 -0.17333216932E+02 -0.35183922512E+02 -0.16532962568E+02  0.42563924444E+02  0.51100000000E-03 0.  1.
        -12    1    4    4    0    0 -0.32770681273E+01 -0.11088937473E+01 -0.20976205358E+00  0.34659516691E+01  0.00000000000E+00 0.  1.
</event>
<event>
 8    1  0.9414453E-009  0.9118800E+02  0.7816164E-02  0.1184000E+00
        -11   -1    0    0    0    0  0.00000000000E+00  0.00000000000E+00  0.45593999997E+02  0.45594000000E+02  0.51100000000E-03 0. -1.
         11   -1    0    0    0    0 -0.00000000000E+00 -0.00000000000E+00 -0.45593999997E+02  0.45594000000E+02  0.51100000000E-03 0.  1.
         23    2    1    2    0    0 -0.17763568394E-14  0.00000000000E+00  0.00000000000E+00  0.91188000000E+02  0.91188000000E+02 0.  0.
    9900012    2    3    3    0    0 -0.13852412675E+02  0.32132423608E+01  0.42742241482E+02  0.46142317962E+02  0.10000001831E+02 0.  0.
        -12    1    3    3    0    0  0.13852412675E+02 -0.32132423608E+01 -0.42742241482E+02  0.45045682038E+02  0.00000000000E+00 0.  1.
         11    1    4    4    0    0 -0.28440295773E+01  0.25272973356E+01  0.10546886731E+02  0.11212161078E+02  0.51100000000E-03 0. -1.
        -11    1    4    4    0    0  0.24570559077E+00  0.15072886494E+01  0.90810133752E+01  0.92085337862E+01  0.51100000000E-03 0.  1.
        -12    1    4    4    0    0 -0.11254088688E+02 -0.82134362409E+00  0.23114341375E+02  0.25721623098E+02  0.00000000000E+00 0.  1.
</event>
<event>
 8    1  0.8828843E-009  0.9118800E+02  0.7816164E-02  0.1184000E+00
        -11   -1    0    0    0    0  0.00000000000E+00  0.00000000000E+00  0.45593999997E+02  0.45594000000E+02  0.51100000000E-03 0. -1.
         11   -1    0    0    0    0 -0.00000000000E+00 -0.00000000000E+00 -0.45593999997E+02  0.45594000000E+02  0.51100000000E-03 0.  1.
         23    2    1    2    0    0  0.00000000000E+00  0.00000000000E+00  0.00000000000E+00  0.91188000000E+02  0.91188000000E+02 0.  0.
    9900012    2    3    3    0    0 -0.28470581534E+02  0.12694599284E+02 -0.32517481649E+02  0.46142317891E+02  0.10000001186E+02 0.  0.
         12    1    3    3    0    0  0.28470581534E+02 -0.12694599284E+02  0.32517481649E+02  0.45045682109E+02  0.00000000000E+00 0. -1.
         11    1    4    4    0    0 -0.44784187137E+01  0.43382060471E+01 -0.90014508042E+01  0.10949994645E+02  0.51100000000E-03 0. -1.
        -11    1    4    4    0    0 -0.10689731688E+02  0.68169053160E+01 -0.98110580136E+01  0.16031139113E+02  0.51100000000E-03 0.  1.
         12    1    4    4    0    0 -0.13302431133E+02  0.15394879208E+01 -0.13704972831E+02  0.19161184134E+02  0.00000000000E+00 0. -1.
</event>
<event>
 8    1  0.8828843E-009  0.9118800E+02  0.7816164E-02  0.1184000E+00
        -11   -1    0    0    0    0  0.00000000000E+00  0.00000000000E+00  0.45593999997E+02  0.45594000000E+02  0.51100000000E-03 0. -1.
         11   -1    0    0    0    0 -0.00000000000E+00 -0.00000000000E+00 -0.45593999997E+02  0.45594000000E+02  0.51100000000E-03 0.  1.
         23    2    1    2    0    0  0.35527136788E-14  0.00000000000E+00 -0.71054273576E-14  0.91188000000E+02  0.91188000000E+02 0.  0.
    9900012    2    3    3    0    0 -0.17981886205E+02 -0.24272726671E+02  0.33415564705E+02  0.46142318119E+02  0.10000003264E+02 0.  0.
        -12    1    3    3    0    0  0.17981886205E+02  0.24272726671E+02 -0.33415564705E+02  0.45045681881E+02  0.00000000000E+00 0.  1.
         11    1    4    4    0    0 -0.13403518021E+02 -0.21662352534E+02  0.24231933153E+02  0.35158191040E+02  0.51100000000E-03 0. -1.
        -11    1    4    4    0    0 -0.28895278641E+01 -0.18913214308E+01  0.31387789002E+01  0.46667334697E+01  0.51100000000E-03 0.  1.
        -12    1    4    4    0    0 -0.16888403200E+01 -0.71905270618E+00  0.60448526522E+01  0.63173936088E+01  0.00000000000E+00 0.  1.
</event>
<event>
 8    1  0.1087022E-008  0.9118800E+02  0.7816164E-02  0.1184000E+00
        -11   -1    0    0    0    0  0.00000000000E+00  0.00000000000E+00  0.45593999997E+02  0.45594000000E+02  0.51100000000E-03 0. -1.
         11   -1    0    0    0    0 -0.00000000000E+00 -0.00000000000E+00 -0.45593999997E+02  0.45594000000E+02  0.51100000000E-03 0.  1.
         23    2    1    2    0    0  0.88817841970E-15  0.22204460493E-15  0.14210854715E-13  0.91188000000E+02  0.91188000000E+02 0.  0.
    9900012    2    3    3    0    0  0.77229575040E+01  0.19122335272E+01  0.44337487167E+02  0.46142317876E+02  0.10000001050E+02 0.  0.
        -12    1    3    3    0    0 -0.77229575040E+01 -0.19122335272E+01 -0.44337487167E+02  0.45045682124E+02  0.00000000000E+00 0.  1.
         11    1    4    4    0    0  0.32473478427E+01  0.13483160336E+01  0.13936383917E+02  0.14373100608E+02  0.51100000000E-03 0. -1.
        -11    1    4    4    0    0  0.59310886163E+01  0.12540513259E+01  0.13586273864E+02  0.14877408870E+02  0.51100000000E-03 0.  1.
        -12    1    4    4    0    0 -0.14554789550E+01 -0.69013383232E+00  0.16814829386E+02  0.16891808399E+02  0.00000000000E+00 0.  1.
</event>
<event>
 8    1  0.8828843E-009  0.9118800E+02  0.7816164E-02  0.1184000E+00
        -11   -1    0    0    0    0  0.00000000000E+00  0.00000000000E+00  0.45593999997E+02  0.45594000000E+02  0.51100000000E-03 0. -1.
         11   -1    0    0    0    0 -0.00000000000E+00 -0.00000000000E+00 -0.45593999997E+02  0.45594000000E+02  0.51100000000E-03 0.  1.
         23    2    1    2    0    0  0.22204460493E-15  0.00000000000E+00  0.00000000000E+00  0.91188000000E+02  0.91188000000E+02 0.  0.
    9900012    2    3    3    0    0 -0.11586177079E+01  0.15933393574E+02 -0.42117666930E+02  0.46142319925E+02  0.10000019733E+02 0.  0.
         12    1    3    3    0    0  0.11586177079E+01 -0.15933393574E+02  0.42117666930E+02  0.45045680075E+02  0.00000000000E+00 0. -1.
         11    1    4    4    0    0 -0.24168685709E+00  0.11219799155E+01  0.78108192627E-01  0.11503706440E+01  0.51100000000E-03 0. -1.
        -11    1    4    4    0    0 -0.76187169902E+00  0.10681764622E+02 -0.23206670681E+02  0.25558366698E+02  0.51100000000E-03 0.  1.
         12    1    4    4    0    0 -0.15505915182E+00  0.41296490365E+01 -0.18989104442E+02  0.19433582583E+02  0.00000000000E+00 0. -1.
</event>
<event>
 8    1  0.8828843E-009  0.9118800E+02  0.7816164E-02  0.1184000E+00
        -11   -1    0    0    0    0  0.00000000000E+00  0.00000000000E+00  0.45593999997E+02  0.45594000000E+02  0.51100000000E-03 0. -1.
         11   -1    0    0    0    0 -0.00000000000E+00 -0.00000000000E+00 -0.45593999997E+02  0.45594000000E+02  0.51100000000E-03 0.  1.
         23    2    1    2    0    0 -0.71054273576E-14  0.00000000000E+00  0.00000000000E+00  0.91188000000E+02  0.91188000000E+02 0.  0.
    9900012    2    3    3    0    0  0.32501008301E+02  0.20845395662E+02  0.23200591265E+02  0.46142317678E+02  0.99999992384E+01 0.  0.
        -12    1    3    3    0    0 -0.32501008301E+02 -0.20845395662E+02 -0.23200591265E+02  0.45045682322E+02  0.00000000000E+00 0.  1.
         11    1    4    4    0    0  0.12251498471E+02  0.11877807249E+02  0.73655669633E+01  0.18585830538E+02  0.51100000000E-03 0. -1.
        -11    1    4    4    0    0  0.17668694420E+02  0.83830719469E+01  0.12163059772E+02  0.23030386038E+02  0.51100000000E-03 0.  1.
         12    1    4    4    0    0  0.25808154094E+01  0.58451646577E+00  0.36719645297E+01  0.45261011018E+01  0.00000000000E+00 0. -1.
</event>
<event>
 8    1  0.8828843E-009  0.9118800E+02  0.7816164E-02  0.1184000E+00
        -11   -1    0    0    0    0  0.00000000000E+00  0.00000000000E+00  0.45593999997E+02  0.45594000000E+02  0.51100000000E-03 0. -1.
         11   -1    0    0    0    0 -0.00000000000E+00 -0.00000000000E+00 -0.45593999997E+02  0.45594000000E+02  0.51100000000E-03 0.  1.
         23    2    1    2    0    0  0.00000000000E+00  0.00000000000E+00  0.00000000000E+00  0.91188000000E+02  0.91188000000E+02 0.  0.
    9900012    2    3    3    0    0 -0.14993988673E+02 -0.17681183012E+02  0.38622138028E+02  0.46142317910E+02  0.10000001362E+02 0.  0.
        -12    1    3    3    0    0  0.14993988673E+02  0.17681183012E+02 -0.38622138028E+02  0.45045682090E+02  0.00000000000E+00 0.  1.
         11    1    4    4    0    0 -0.44226838473E+01 -0.85370655245E+01  0.14202466566E+02  0.17150850621E+02  0.51100000000E-03 0. -1.
        -11    1    4    4    0    0 -0.19563566879E+01 -0.10316844076E+01  0.10459468340E+02  0.10690752191E+02  0.51100000000E-03 0.  1.
         12    1    4    4    0    0 -0.86149481382E+01 -0.81124330797E+01  0.13960203122E+02  0.18300715098E+02  0.00000000000E+00 0. -1.
</event>
<event>
 8    1  0.8828843E-009  0.9118800E+02  0.7816164E-02  0.1184000E+00
        -11   -1    0    0    0    0  0.00000000000E+00  0.00000000000E+00  0.45593999997E+02  0.45594000000E+02  0.51100000000E-03 0. -1.
         11   -1    0    0    0    0 -0.00000000000E+00 -0.00000000000E+00 -0.45593999997E+02  0.45594000000E+02  0.51100000000E-03 0.  1.
         23    2    1    2    0    0  0.00000000000E+00  0.00000000000E+00  0.00000000000E+00  0.91188000000E+02  0.91188000000E+02 0.  0.
    9900012    2    3    3    0    0 -0.11583357261E+02  0.32723413725E+02  0.28707447445E+02  0.46142317520E+02  0.99999978034E+01 0.  0.
        -12    1    3    3    0    0  0.11583357261E+02 -0.32723413725E+02 -0.28707447445E+02  0.45045682480E+02  0.00000000000E+00 0.  1.
         11    1    4    4    0    0 -0.57847786346E+01  0.19753467519E+02  0.13097055007E+02  0.24396638969E+02  0.51100000000E-03 0.  1.
        -11    1    4    4    0    0 -0.23330343889E+00  0.68956028557E+01  0.72490228441E+01  0.10007602195E+02  0.51100000000E-03 0. -1.
        -12    1    4    4    0    0 -0.55652751875E+01  0.60743433503E+01  0.83613695947E+01  0.11738076356E+02  0.00000000000E+00 0.  1.
</event>
<event>
 8    1  0.8828843E-009  0.9118800E+02  0.7816164E-02  0.1184000E+00
        -11   -1    0    0    0    0  0.00000000000E+00  0.00000000000E+00  0.45593999997E+02  0.45594000000E+02  0.51100000000E-03 0. -1.
         11   -1    0    0    0    0 -0.00000000000E+00 -0.00000000000E+00 -0.45593999997E+02  0.45594000000E+02  0.51100000000E-03 0.  1.
         23    2    1    2    0    0  0.00000000000E+00  0.00000000000E+00  0.00000000000E+00  0.91188000000E+02  0.91188000000E+02 0.  0.
    9900012    2    3    3    0    0  0.24166606336E+02 -0.30324528845E+02 -0.22924038217E+02  0.46142318302E+02  0.10000004929E+02 0.  0.
         12    1    3    3    0    0 -0.24166606336E+02  0.30324528845E+02  0.22924038217E+02  0.45045681698E+02  0.00000000000E+00 0. -1.
         11    1    4    4    0    0  0.32464612166E+01 -0.67832909932E+01 -0.47483058932E+01  0.88937593989E+01  0.51100000000E-03 0. -1.
        -11    1    4    4    0    0  0.91489246128E+01 -0.15946548303E+02 -0.11889273554E+02  0.21894064270E+02  0.51100000000E-03 0.  1.
        -12    1    4    4    0    0  0.11771220507E+02 -0.75946895491E+01 -0.62864587700E+01  0.15354494633E+02  0.00000000000E+00 0.  1.
</event>
<event>
 8    1  0.8828843E-009  0.9118800E+02  0.7816164E-02  0.1184000E+00
        -11   -1    0    0    0    0  0.00000000000E+00  0.00000000000E+00  0.45593999997E+02  0.45594000000E+02  0.51100000000E-03 0. -1.
         11   -1    0    0    0    0 -0.00000000000E+00 -0.00000000000E+00 -0.45593999997E+02  0.45594000000E+02  0.51100000000E-03 0.  1.
         23    2    1    2    0    0 -0.88817841970E-15 -0.71054273576E-14  0.35527136788E-14  0.91188000000E+02  0.91188000000E+02 0.  0.
    9900012    2    3    3    0    0  0.62277966660E+01  0.32324330050E+02 -0.30748426418E+02  0.46142317725E+02  0.99999996674E+01 0.  0.
         12    1    3    3    0    0 -0.62277966660E+01 -0.32324330050E+02  0.30748426418E+02  0.45045682275E+02  0.00000000000E+00 0. -1.
         11    1    4    4    0    0 -0.11663380461E+00  0.21946635530E+01 -0.36661719094E+01  0.42744553204E+01  0.51100000000E-03 0. -1.
        -11    1    4    4    0    0  0.76442972305E+00  0.18175270094E+02 -0.11820318503E+02  0.21694347779E+02  0.51100000000E-03 0.  1.
         12    1    4    4    0    0  0.55800007475E+01  0.11954396403E+02 -0.15261936005E+02  0.20173514625E+02  0.00000000000E+00 0. -1.
</event>
<event>
 8    1  0.8828843E-009  0.9118800E+02  0.7816164E-02  0.1184000E+00
        -11   -1    0    0    0    0  0.00000000000E+00  0.00000000000E+00  0.45593999997E+02  0.45594000000E+02  0.51100000000E-03 0. -1.
         11   -1    0    0    0    0 -0.00000000000E+00 -0.00000000000E+00 -0.45593999997E+02  0.45594000000E+02  0.51100000000E-03 0.  1.
         23    2    1    2    0    0  0.00000000000E+00  0.00000000000E+00  0.44408920985E-15  0.91188000000E+02  0.91188000000E+02 0.  0.
    9900012    2    3    3    0    0 -0.43331449060E+02  0.12156606498E+02  0.19276876145E+01  0.46142317202E+02  0.99999949004E+01 0.  0.
         12    1    3    3    0    0  0.43331449060E+02 -0.12156606498E+02 -0.19276876145E+01  0.45045682798E+02  0.00000000000E+00 0. -1.
         11    1    4    4    0    0 -0.81394057835E+01  0.14584562062E+01  0.13980849865E+01  0.83863974926E+01  0.51100000000E-03 0. -1.
        -11    1    4    4    0    0 -0.12887480466E+02  0.48815761241E+01  0.42181830559E+01  0.14412147889E+02  0.51100000000E-03 0.  1.
        -12    1    4    4    0    0 -0.22304562810E+02  0.58165741682E+01 -0.36885804279E+01  0.23343771820E+02  0.00000000000E+00 0.  1.
</event>
<event>
 8    1  0.8828843E-009  0.9118800E+02  0.7816164E-02  0.1184000E+00
        -11   -1    0    0    0    0  0.00000000000E+00  0.00000000000E+00  0.45593999997E+02  0.45594000000E+02  0.51100000000E-03 0. -1.
         11   -1    0    0    0    0 -0.00000000000E+00 -0.00000000000E+00 -0.45593999997E+02  0.45594000000E+02  0.51100000000E-03 0.  1.
         23    2    1    2    0    0 -0.35527136788E-14 -0.17763568394E-14  0.00000000000E+00  0.91188000000E+02  0.91188000000E+02 0.  0.
    9900012    2    3    3    0    0 -0.23243810778E+02 -0.59032460123E+01 -0.38131226960E+02  0.46142317383E+02  0.99999965560E+01 0.  0.
         12    1    3    3    0    0  0.23243810778E+02  0.59032460123E+01  0.38131226960E+02  0.45045682617E+02  0.00000000000E+00 0. -1.
         11    1    4    4    0    0 -0.38937199496E+01 -0.18321244328E+01 -0.34726533506E+01  0.55296524789E+01  0.51100000000E-03 0. -1.
        -11    1    4    4    0    0 -0.74131085982E+01  0.18282135471E+01 -0.15538883555E+02  0.17313389219E+02  0.51100000000E-03 0.  1.
        -12    1    4    4    0    0 -0.11936982230E+02 -0.58993351266E+01 -0.19119690054E+02  0.23299275685E+02  0.00000000000E+00 0.  1.
</event>
<event>
 8    1  0.8828843E-009  0.9118800E+02  0.7816164E-02  0.1184000E+00
        -11   -1    0    0    0    0  0.00000000000E+00  0.00000000000E+00  0.45593999997E+02  0.45594000000E+02  0.51100000000E-03 0. -1.
         11   -1    0    0    0    0 -0.00000000000E+00 -0.00000000000E+00 -0.45593999997E+02  0.45594000000E+02  0.51100000000E-03 0.  1.
         23    2    1    2    0    0  0.00000000000E+00  0.00000000000E+00  0.71054273576E-14  0.91188000000E+02  0.91188000000E+02 0.  0.
    9900012    2    3    3    0    0 -0.56247505409E+01 -0.23076816784E+02 -0.38274485004E+02  0.46142317700E+02  0.99999994458E+01 0.  0.
         12    1    3    3    0    0  0.56247505409E+01  0.23076816784E+02  0.38274485004E+02  0.45045682300E+02  0.00000000000E+00 0. -1.
         11    1    4    4    0    0 -0.16284915500E+01 -0.70568482188E+00 -0.76276298492E+01  0.78313927991E+01  0.51100000000E-03 0. -1.
        -11    1    4    4    0    0 -0.30102731367E+01 -0.16067347770E+02 -0.24488307668E+02  0.29443142180E+02  0.51100000000E-03 0.  1.
        -12    1    4    4    0    0 -0.98598585419E+00 -0.63037841925E+01 -0.61585474863E+01  0.88677827212E+01  0.00000000000E+00 0.  1.
</event>
<event>
 8    1  0.8828843E-009  0.9118800E+02  0.7816164E-02  0.1184000E+00
        -11   -1    0    0    0    0  0.00000000000E+00  0.00000000000E+00  0.45593999997E+02  0.45594000000E+02  0.51100000000E-03 0. -1.
         11   -1    0    0    0    0 -0.00000000000E+00 -0.00000000000E+00 -0.45593999997E+02  0.45594000000E+02  0.51100000000E-03 0.  1.
         23    2    1    2    0    0 -0.71054273576E-14 -0.35527136788E-14  0.00000000000E+00  0.91188000000E+02  0.91188000000E+02 0.  0.
    9900012    2    3    3    0    0 -0.40816452612E+02 -0.17635107760E+02  0.72203397889E+01  0.46142321670E+02  0.10000035645E+02 0.  0.
        -12    1    3    3    0    0  0.40816452612E+02  0.17635107760E+02 -0.72203397889E+01  0.45045678330E+02  0.00000000000E+00 0.  1.
         11    1    4    4    0    0 -0.38033365441E+02 -0.17627365111E+02  0.52103603020E+01  0.42242262513E+02  0.51100000000E-03 0. -1.
        -11    1    4    4    0    0 -0.10409954888E+01  0.11908778175E+00 -0.21677052232E+00  0.10699734707E+01  0.51100000000E-03 0.  1.
         12    1    4    4    0    0 -0.17420916827E+01 -0.12683043084E+00  0.22267500092E+01  0.28300856864E+01  0.00000000000E+00 0. -1.
</event>
<event>
 8    1  0.8828843E-009  0.9118800E+02  0.7816164E-02  0.1184000E+00
        -11   -1    0    0    0    0  0.00000000000E+00  0.00000000000E+00  0.45593999997E+02  0.45594000000E+02  0.51100000000E-03 0. -1.
         11   -1    0    0    0    0 -0.00000000000E+00 -0.00000000000E+00 -0.45593999997E+02  0.45594000000E+02  0.51100000000E-03 0.  1.
         23    2    1    2    0    0 -0.17763568394E-14  0.71054273576E-14  0.11102230246E-15  0.91188000000E+02  0.91188000000E+02 0.  0.
    9900012    2    3    3    0    0  0.15657213985E+02 -0.42235212136E+02  0.38987233979E+00  0.46142317694E+02  0.99999993909E+01 0.  0.
        -12    1    3    3    0    0 -0.15657213985E+02  0.42235212136E+02 -0.38987233979E+00  0.45045682306E+02  0.00000000000E+00 0.  1.
         11    1    4    4    0    0  0.11807674987E+02 -0.24256602137E+02 -0.89113015851E+00  0.26992555437E+02  0.51100000000E-03 0. -1.
        -11    1    4    4    0    0  0.40776307060E+01 -0.91830370211E+01 -0.89109072988E+00  0.10087085013E+02  0.51100000000E-03 0.  1.
        -12    1    4    4    0    0 -0.22809170777E+00 -0.87955729781E+01  0.21720932282E+01  0.90626772442E+01  0.00000000000E+00 0.  1.
</event>
<event>
 8    1  0.8828843E-009  0.9118800E+02  0.7816164E-02  0.1184000E+00
        -11   -1    0    0    0    0  0.00000000000E+00  0.00000000000E+00  0.45593999997E+02  0.45594000000E+02  0.51100000000E-03 0. -1.
         11   -1    0    0    0    0 -0.00000000000E+00 -0.00000000000E+00 -0.45593999997E+02  0.45594000000E+02  0.51100000000E-03 0.  1.
         23    2    1    2    0    0  0.00000000000E+00  0.00000000000E+00  0.00000000000E+00  0.91188000000E+02  0.91188000000E+02 0.  0.
    9900012    2    3    3    0    0  0.17391097857E+02 -0.48358328255E+01  0.41270786821E+02  0.46142318647E+02  0.10000008077E+02 0.  0.
        -12    1    3    3    0    0 -0.17391097857E+02  0.48358328255E+01 -0.41270786821E+02  0.45045681353E+02  0.00000000000E+00 0.  1.
         11    1    4    4    0    0  0.55963179635E+01 -0.36621387042E+01  0.16431303242E+02  0.17740286388E+02  0.51100000000E-03 0. -1.
        -11    1    4    4    0    0  0.59917205159E+01 -0.19094146692E+01  0.60625316080E+01  0.87350368562E+01  0.51100000000E-03 0.  1.
         12    1    4    4    0    0  0.58030593771E+01  0.73572054792E+00  0.18776951971E+02  0.19666995403E+02  0.00000000000E+00 0. -1.
</event>
<event>
 8    1  0.8828843E-009  0.9118800E+02  0.7816164E-02  0.1184000E+00
        -11   -1    0    0    0    0  0.00000000000E+00  0.00000000000E+00  0.45593999997E+02  0.45594000000E+02  0.51100000000E-03 0. -1.
         11   -1    0    0    0    0 -0.00000000000E+00 -0.00000000000E+00 -0.45593999997E+02  0.45594000000E+02  0.51100000000E-03 0.  1.
         23    2    1    2    0    0  0.00000000000E+00  0.00000000000E+00  0.00000000000E+00  0.91188000000E+02  0.91188000000E+02 0.  0.
    9900012    2    3    3    0    0 -0.14291498547E+02  0.14817996811E+02 -0.40066114228E+02  0.46142317970E+02  0.10000001906E+02 0.  0.
         12    1    3    3    0    0  0.14291498547E+02 -0.14817996811E+02  0.40066114228E+02  0.45045682030E+02  0.00000000000E+00 0. -1.
         11    1    4    4    0    0 -0.10739393855E+02  0.49168769513E+01 -0.21094550409E+02  0.24176234540E+02  0.51100000000E-03 0. -1.
        -11    1    4    4    0    0 -0.40952425761E+01  0.72769012732E+01 -0.15146450354E+02  0.17295642876E+02  0.51100000000E-03 0.  1.
         12    1    4    4    0    0  0.54313788373E+00  0.26242185868E+01 -0.38251134644E+01  0.46704405539E+01  0.00000000000E+00 0. -1.
</event>
<event>
 8    1  0.8828843E-009  0.9118800E+02  0.7816164E-02  0.1184000E+00
        -11   -1    0    0    0    0  0.00000000000E+00  0.00000000000E+00  0.45593999997E+02  0.45594000000E+02  0.51100000000E-03 0. -1.
         11   -1    0    0    0    0 -0.00000000000E+00 -0.00000000000E+00 -0.45593999997E+02  0.45594000000E+02  0.51100000000E-03 0.  1.
         23    2    1    2    0    0 -0.88817841970E-15  0.00000000000E+00  0.35527136788E-14  0.91188000000E+02  0.91188000000E+02 0.  0.
    9900012    2    3    3    0    0  0.70501957567E+01  0.34909058573E+02 -0.27581981837E+02  0.46142319267E+02  0.10000013732E+02 0.  0.
         12    1    3    3    0    0 -0.70501957567E+01 -0.34909058573E+02  0.27581981837E+02  0.45045680733E+02  0.00000000000E+00 0. -1.
         11    1    4    4    0    0  0.35980180937E+01  0.88873070561E+01 -0.73546338858E+01  0.12083898409E+02  0.51100000000E-03 0. -1.
        -11    1    4    4    0    0  0.55380417894E+01  0.12877779683E+02 -0.91184316976E+01  0.16722826116E+02  0.51100000000E-03 0.  1.
        -12    1    4    4    0    0 -0.20858641264E+01  0.13143971833E+02 -0.11108916254E+02  0.17335594741E+02  0.00000000000E+00 0.  1.
</event>
<event>
 8    1  0.8828843E-009  0.9118800E+02  0.7816164E-02  0.1184000E+00
        -11   -1    0    0    0    0  0.00000000000E+00  0.00000000000E+00  0.45593999997E+02  0.45594000000E+02  0.51100000000E-03 0. -1.
         11   -1    0    0    0    0 -0.00000000000E+00 -0.00000000000E+00 -0.45593999997E+02  0.45594000000E+02  0.51100000000E-03 0.  1.
         23    2    1    2    0    0 -0.71054273576E-14 -0.35527136788E-14  0.71054273576E-14  0.91188000000E+02  0.91188000000E+02 0.  0.
    9900012    2    3    3    0    0  0.23949058715E+02  0.25515972279E+02 -0.28363554082E+02  0.46142318133E+02  0.10000003395E+02 0.  0.
         12    1    3    3    0    0 -0.23949058715E+02 -0.25515972279E+02  0.28363554082E+02  0.45045681867E+02  0.00000000000E+00 0. -1.
         11    1    4    4    0    0  0.64120560047E+01  0.54342203978E+01 -0.10639213487E+02  0.13558690107E+02  0.51100000000E-03 0. -1.
        -11    1    4    4    0    0  0.25496889294E+01  0.45930852306E+01 -0.11070606804E+01  0.53686990214E+01  0.51100000000E-03 0.  1.
        -12    1    4    4    0    0  0.14987313781E+02  0.15488666650E+02 -0.16617279915E+02  0.27214929005E+02  0.00000000000E+00 0.  1.
</event>
<event>
 8    1  0.8828843E-009  0.9118800E+02  0.7816164E-02  0.1184000E+00
        -11   -1    0    0    0    0  0.00000000000E+00  0.00000000000E+00  0.45593999997E+02  0.45594000000E+02  0.51100000000E-03 0.  1.
         11   -1    0    0    0    0 -0.00000000000E+00 -0.00000000000E+00 -0.45593999997E+02  0.45594000000E+02  0.51100000000E-03 0. -1.
         23    2    1    2    0    0  0.00000000000E+00  0.00000000000E+00  0.35527136788E-14  0.91188000000E+02  0.91188000000E+02 0.  0.
    9900012    2    3    3    0    0 -0.37259944125E+02 -0.20055687567E+02  0.15446016343E+02  0.46142318067E+02  0.10000002786E+02 0.  0.
        -12    1    3    3    0    0  0.37259944125E+02  0.20055687567E+02 -0.15446016343E+02  0.45045681933E+02  0.00000000000E+00 0.  1.
         11    1    4    4    0    0 -0.30304076626E+02 -0.16806672231E+02  0.10048443920E+02  0.36080084772E+02  0.51100000000E-03 0. -1.
        -11    1    4    4    0    0 -0.26086614292E+01 -0.17594377829E+01  0.24185338772E+00  0.31558246285E+01  0.51100000000E-03 0.  1.
        -12    1    4    4    0    0 -0.43472060695E+01 -0.14895775529E+01  0.51557190354E+01  0.69064086665E+01  0.00000000000E+00 0.  1.
</event>
<event>
 8    1  0.8828843E-009  0.9118800E+02  0.7816164E-02  0.1184000E+00
        -11   -1    0    0    0    0  0.00000000000E+00  0.00000000000E+00  0.45593999997E+02  0.45594000000E+02  0.51100000000E-03 0. -1.
         11   -1    0    0    0    0 -0.00000000000E+00 -0.00000000000E+00 -0.45593999997E+02  0.45594000000E+02  0.51100000000E-03 0.  1.
         23    2    1    2    0    0  0.88817841970E-15 -0.14210854715E-13  0.17763568394E-14  0.91188000000E+02  0.91188000000E+02 0.  0.
    9900012    2    3    3    0    0 -0.41454177831E+01  0.43331616254E+02 -0.11588783948E+02  0.46142319085E+02  0.10000012068E+02 0.  0.
         12    1    3    3    0    0  0.41454177831E+01 -0.43331616254E+02  0.11588783948E+02  0.45045680915E+02  0.00000000000E+00 0. -1.
         11    1    4    4    0    0 -0.37854782390E+00  0.10080765344E+02 -0.41864286922E+01  0.10922056301E+02  0.51100000000E-03 0. -1.
        -11    1    4    4    0    0 -0.34186673863E+01  0.11948421582E+02 -0.61807969230E+01  0.13879996969E+02  0.51100000000E-03 0.  1.
         12    1    4    4    0    0 -0.34820257290E+00  0.21302429328E+02 -0.12215583330E+01  0.21340265815E+02  0.00000000000E+00 0. -1.
</event>
<event>
 8    1  0.8828843E-009  0.9118800E+02  0.7816164E-02  0.1184000E+00
        -11   -1    0    0    0    0  0.00000000000E+00  0.00000000000E+00  0.45593999997E+02  0.45594000000E+02  0.51100000000E-03 0. -1.
         11   -1    0    0    0    0 -0.00000000000E+00 -0.00000000000E+00 -0.45593999997E+02  0.45594000000E+02  0.51100000000E-03 0.  1.
         23    2    1    2    0    0 -0.22204460493E-15  0.00000000000E+00 -0.35527136788E-14  0.91188000000E+02  0.91188000000E+02 0.  0.
    9900012    2    3    3    0    0 -0.12305499280E+01  0.36605068438E+02 -0.26223428773E+02  0.46142317575E+02  0.99999983065E+01 0.  0.
         12    1    3    3    0    0  0.12305499280E+01 -0.36605068438E+02  0.26223428773E+02  0.45045682425E+02  0.00000000000E+00 0. -1.
         11    1    4    4    0    0 -0.93878821114E-01  0.31211551923E+02 -0.17448918604E+02  0.35757999767E+02  0.51100000000E-03 0. -1.
        -11    1    4    4    0    0 -0.95308814201E+00  0.28870709229E+01 -0.48311732426E+01  0.57082213238E+01  0.51100000000E-03 0.  1.
         12    1    4    4    0    0 -0.18358296483E+00  0.25064455925E+01 -0.39433369267E+01  0.46760964843E+01  0.00000000000E+00 0. -1.
</event>
<event>
 8    1  0.8828843E-009  0.9118800E+02  0.7816164E-02  0.1184000E+00
        -11   -1    0    0    0    0  0.00000000000E+00  0.00000000000E+00  0.45593999997E+02  0.45594000000E+02  0.51100000000E-03 0. -1.
         11   -1    0    0    0    0 -0.00000000000E+00 -0.00000000000E+00 -0.45593999997E+02  0.45594000000E+02  0.51100000000E-03 0.  1.
         23    2    1    2    0    0  0.00000000000E+00  0.00000000000E+00  0.00000000000E+00  0.91188000000E+02  0.91188000000E+02 0.  0.
    9900012    2    3    3    0    0 -0.49289225559E+01  0.79661264162E+01 -0.44060867809E+02  0.46142317414E+02  0.99999968303E+01 0.  0.
         12    1    3    3    0    0  0.49289225559E+01 -0.79661264162E+01  0.44060867809E+02  0.45045682586E+02  0.00000000000E+00 0. -1.
         11    1    4    4    0    0 -0.26603161657E+01 -0.18029017088E+01 -0.97594634449E+01  0.10274962952E+02  0.51100000000E-03 0. -1.
        -11    1    4    4    0    0 -0.24511349008E+01  0.46000406692E+01 -0.14770988837E+02  0.15663669683E+02  0.51100000000E-03 0.  1.
         12    1    4    4    0    0  0.18252851055E+00  0.51689874559E+01 -0.19530415527E+02  0.20203684778E+02  0.00000000000E+00 0. -1.
</event>
<event>
 8    1  0.8828843E-009  0.9118800E+02  0.7816164E-02  0.1184000E+00
        -11   -1    0    0    0    0  0.00000000000E+00  0.00000000000E+00  0.45593999997E+02  0.45594000000E+02  0.51100000000E-03 0. -1.
         11   -1    0    0    0    0 -0.00000000000E+00 -0.00000000000E+00 -0.45593999997E+02  0.45594000000E+02  0.51100000000E-03 0.  1.
         23    2    1    2    0    0  0.00000000000E+00 -0.35527136788E-14  0.00000000000E+00  0.91188000000E+02  0.91188000000E+02 0.  0.
    9900012    2    3    3    0    0  0.11489543189E+01  0.30614364001E+02  0.33023532353E+02  0.46142322424E+02  0.10000042519E+02 0.  0.
        -12    1    3    3    0    0 -0.11489543189E+01 -0.30614364001E+02 -0.33023532353E+02  0.45045677576E+02  0.00000000000E+00 0.  1.
         11    1    4    4    0    0 -0.60680508083E+00  0.12982090772E+02  0.93562898409E+01  0.16013839423E+02  0.51100000000E-03 0. -1.
        -11    1    4    4    0    0 -0.16167860155E+01  0.90716371801E+01  0.14191338625E+02  0.16920481387E+02  0.51100000000E-03 0.  1.
         12    1    4    4    0    0  0.33725454153E+01  0.85606360486E+01  0.94759038870E+01  0.13208001613E+02  0.00000000000E+00 0. -1.
</event>
<event>
 8    1  0.8828843E-009  0.9118800E+02  0.7816164E-02  0.1184000E+00
        -11   -1    0    0    0    0  0.00000000000E+00  0.00000000000E+00  0.45593999997E+02  0.45594000000E+02  0.51100000000E-03 0. -1.
         11   -1    0    0    0    0 -0.00000000000E+00 -0.00000000000E+00 -0.45593999997E+02  0.45594000000E+02  0.51100000000E-03 0.  1.
         23    2    1    2    0    0 -0.35527136788E-14  0.22204460493E-15  0.00000000000E+00  0.91188000000E+02  0.91188000000E+02 0.  0.
    9900012    2    3    3    0    0  0.29149987945E+02  0.14526590246E+01  0.34311534000E+02  0.46142318955E+02  0.10000010884E+02 0.  0.
        -12    1    3    3    0    0 -0.29149987945E+02 -0.14526590246E+01 -0.34311534000E+02  0.45045681045E+02  0.00000000000E+00 0.  1.
         11    1    4    4    0    0  0.13823208927E+02  0.43938361040E+01  0.17362432457E+02  0.22623902445E+02  0.51100000000E-03 0. -1.
        -11    1    4    4    0    0  0.82690345507E+01 -0.29827729619E+01  0.12096774121E+02  0.14953454829E+02  0.51100000000E-03 0.  1.
        -12    1    4    4    0    0  0.70577444667E+01  0.41595882547E-01  0.48523274223E+01  0.85649616804E+01  0.00000000000E+00 0.  1.
</event>
<event>
 8    1  0.8828843E-009  0.9118800E+02  0.7816164E-02  0.1184000E+00
        -11   -1    0    0    0    0  0.00000000000E+00  0.00000000000E+00  0.45593999997E+02  0.45594000000E+02  0.51100000000E-03 0. -1.
         11   -1    0    0    0    0 -0.00000000000E+00 -0.00000000000E+00 -0.45593999997E+02  0.45594000000E+02  0.51100000000E-03 0.  1.
         23    2    1    2    0    0  0.00000000000E+00  0.00000000000E+00  0.00000000000E+00  0.91188000000E+02  0.91188000000E+02 0.  0.
    9900012    2    3    3    0    0  0.16097095905E+02 -0.18368620381E+02  0.37849583201E+02  0.46142315859E+02  0.99999826521E+01 0.  0.
        -12    1    3    3    0    0 -0.16097095905E+02  0.18368620381E+02 -0.37849583201E+02  0.45045684141E+02  0.00000000000E+00 0.  1.
         11    1    4    4    0    0  0.80806422057E+01 -0.11709321060E+02  0.22842176856E+02  0.26910407316E+02  0.51100000000E-03 0. -1.
        -11    1    4    4    0    0  0.23471791386E+01 -0.45597890357E+01  0.34259482806E+01  0.61674993183E+01  0.51100000000E-03 0.  1.
         12    1    4    4    0    0  0.56692745607E+01 -0.20995102855E+01  0.11581458064E+02  0.13064409224E+02  0.00000000000E+00 0. -1.
</event>
<event>
 8    1  0.8828843E-009  0.9118800E+02  0.7816164E-02  0.1184000E+00
        -11   -1    0    0    0    0  0.00000000000E+00  0.00000000000E+00  0.45593999997E+02  0.45594000000E+02  0.51100000000E-03 0. -1.
         11   -1    0    0    0    0 -0.00000000000E+00 -0.00000000000E+00 -0.45593999997E+02  0.45594000000E+02  0.51100000000E-03 0.  1.
         23    2    1    2    0    0  0.00000000000E+00 -0.35527136788E-14 -0.71054273576E-14  0.91188000000E+02  0.91188000000E+02 0.  0.
    9900012    2    3    3    0    0 -0.30608382436E+02 -0.24535976300E+02 -0.22141052744E+02  0.46142318465E+02  0.10000006418E+02 0.  0.
         12    1    3    3    0    0  0.30608382436E+02  0.24535976300E+02  0.22141052744E+02  0.45045681535E+02  0.00000000000E+00 0. -1.
         11    1    4    4    0    0 -0.11623830777E+01 -0.75370619538E+00  0.18509534274E+00  0.13976651943E+01  0.51100000000E-03 0. -1.
        -11    1    4    4    0    0 -0.15911080059E+02 -0.14956916537E+02 -0.83450961394E+01  0.23377605754E+02  0.51100000000E-03 0.  1.
         12    1    4    4    0    0 -0.13534919299E+02 -0.88253535676E+01 -0.13981051948E+02  0.21367047517E+02  0.00000000000E+00 0. -1.
</event>
<event>
 8    1  0.8828843E-009  0.9118800E+02  0.7816164E-02  0.1184000E+00
        -11   -1    0    0    0    0  0.00000000000E+00  0.00000000000E+00  0.45593999997E+02  0.45594000000E+02  0.51100000000E-03 0. -1.
         11   -1    0    0    0    0 -0.00000000000E+00 -0.00000000000E+00 -0.45593999997E+02  0.45594000000E+02  0.51100000000E-03 0.  1.
         23    2    1    2    0    0  0.22204460493E-15  0.00000000000E+00  0.00000000000E+00  0.91188000000E+02  0.91188000000E+02 0.  0.
    9900012    2    3    3    0    0 -0.14129949011E+01  0.38943936348E+02 -0.22593954433E+02  0.46142317523E+02  0.99999978321E+01 0.  0.
         12    1    3    3    0    0  0.14129949011E+01 -0.38943936348E+02  0.22593954433E+02  0.45045682477E+02  0.00000000000E+00 0. -1.
         11    1    4    4    0    0  0.72894715408E+00  0.90986248441E+01 -0.33660106371E+01  0.97286363833E+01  0.51100000000E-03 0. -1.
        -11    1    4    4    0    0 -0.38885847518E+01  0.74453324217E+01 -0.42766185942E+01  0.94256847551E+01  0.51100000000E-03 0.  1.
        -12    1    4    4    0    0  0.17466426967E+01  0.22399979082E+02 -0.14951325201E+02  0.26987996385E+02  0.00000000000E+00 0.  1.
</event>
<event>
 8    1  0.8828843E-009  0.9118800E+02  0.7816164E-02  0.1184000E+00
        -11   -1    0    0    0    0  0.00000000000E+00  0.00000000000E+00  0.45593999997E+02  0.45594000000E+02  0.51100000000E-03 0.  1.
         11   -1    0    0    0    0 -0.00000000000E+00 -0.00000000000E+00 -0.45593999997E+02  0.45594000000E+02  0.51100000000E-03 0. -1.
         23    2    1    2    0    0  0.44408920985E-15 -0.71054273576E-14  0.00000000000E+00  0.91188000000E+02  0.91188000000E+02 0.  0.
    9900012    2    3    3    0    0 -0.13690903779E+01 -0.42950747506E+02 -0.13508231027E+02  0.46142318462E+02  0.10000006391E+02 0.  0.
         12    1    3    3    0    0  0.13690903779E+01  0.42950747506E+02  0.13508231027E+02  0.45045681538E+02  0.00000000000E+00 0. -1.
         11    1    4    4    0    0  0.14936007761E+01 -0.10075088787E+02 -0.50163248922E+01  0.11353491667E+02  0.51100000000E-03 0. -1.
        -11    1    4    4    0    0 -0.51534107018E+00 -0.29797833404E+02 -0.81852548354E+01  0.30905903141E+02  0.51100000000E-03 0.  1.
         12    1    4    4    0    0 -0.23473500837E+01 -0.30778253142E+01 -0.30665129927E+00  0.38829236536E+01  0.00000000000E+00 0. -1.
</event>
<event>
 8    1  0.8828843E-009  0.9118800E+02  0.7816164E-02  0.1184000E+00
        -11   -1    0    0    0    0  0.00000000000E+00  0.00000000000E+00  0.45593999997E+02  0.45594000000E+02  0.51100000000E-03 0.  1.
         11   -1    0    0    0    0 -0.00000000000E+00 -0.00000000000E+00 -0.45593999997E+02  0.45594000000E+02  0.51100000000E-03 0. -1.
         23    2    1    2    0    0  0.00000000000E+00  0.00000000000E+00 -0.44408920985E-15  0.91188000000E+02  0.91188000000E+02 0.  0.
    9900012    2    3    3    0    0 -0.15394121822E+02 -0.42188174506E+02  0.35060628371E+01  0.46142317283E+02  0.99999956405E+01 0.  0.
        -12    1    3    3    0    0  0.15394121822E+02  0.42188174506E+02 -0.35060628371E+01  0.45045682717E+02  0.00000000000E+00 0.  1.
         11    1    4    4    0    0 -0.70450194759E+01 -0.81254020401E+01  0.50571119054E+00  0.10766160030E+02  0.51100000000E-03 0. -1.
        -11    1    4    4    0    0 -0.68178128148E+01 -0.25816247956E+02  0.37138462712E+01  0.26958373180E+02  0.51100000000E-03 0.  1.
         12    1    4    4    0    0 -0.15312895310E+01 -0.82465245100E+01 -0.71349462465E+00  0.84177840731E+01  0.00000000000E+00 0. -1.
</event>
<event>
 8    1  0.8828843E-009  0.9118800E+02  0.7816164E-02  0.1184000E+00
        -11   -1    0    0    0    0  0.00000000000E+00  0.00000000000E+00  0.45593999997E+02  0.45594000000E+02  0.51100000000E-03 0. -1.
         11   -1    0    0    0    0 -0.00000000000E+00 -0.00000000000E+00 -0.45593999997E+02  0.45594000000E+02  0.51100000000E-03 0.  1.
         23    2    1    2    0    0  0.00000000000E+00  0.71054273576E-14 -0.17763568394E-14  0.91188000000E+02  0.91188000000E+02 0.  0.
    9900012    2    3    3    0    0  0.41915459142E+01 -0.44293991816E+02  0.70417877558E+01  0.46142317155E+02  0.99999944735E+01 0.  0.
        -12    1    3    3    0    0 -0.41915459142E+01  0.44293991816E+02 -0.70417877558E+01  0.45045682845E+02  0.00000000000E+00 0.  1.
         11    1    4    4    0    0  0.21863851219E+01 -0.16867579984E+02 -0.31241196275E+00  0.17011558891E+02  0.51100000000E-03 0. -1.
        -11    1    4    4    0    0  0.24023677346E+01 -0.12472028562E+02  0.59569535285E+00  0.12715255420E+02  0.51100000000E-03 0.  1.
        -12    1    4    4    0    0 -0.39720694232E+00 -0.14954383271E+02  0.67585043657E+01  0.16415502844E+02  0.00000000000E+00 0.  1.
</event>
<event>
 8    1  0.8828843E-009  0.9118800E+02  0.7816164E-02  0.1184000E+00
        -11   -1    0    0    0    0  0.00000000000E+00  0.00000000000E+00  0.45593999997E+02  0.45594000000E+02  0.51100000000E-03 0. -1.
         11   -1    0    0    0    0 -0.00000000000E+00 -0.00000000000E+00 -0.45593999997E+02  0.45594000000E+02  0.51100000000E-03 0.  1.
         23    2    1    2    0    0  0.00000000000E+00  0.11102230246E-15 -0.71054273576E-14  0.91188000000E+02  0.91188000000E+02 0.  0.
    9900012    2    3    3    0    0  0.18101114722E+02 -0.90708263100E+00 -0.41238820637E+02  0.46142317847E+02  0.10000000788E+02 0.  0.
         12    1    3    3    0    0 -0.18101114722E+02  0.90708263100E+00  0.41238820637E+02  0.45045682153E+02  0.00000000000E+00 0. -1.
         11    1    4    4    0    0  0.42606157610E+01  0.14631098547E+01 -0.81876773345E+01  0.93451376397E+01  0.51100000000E-03 0. -1.
        -11    1    4    4    0    0  0.13421786009E+02  0.11696823715E+00 -0.25211669849E+02  0.28561973288E+02  0.51100000000E-03 0.  1.
         12    1    4    4    0    0  0.41871295201E+00 -0.24871607228E+01 -0.78394734527E+01  0.82352069199E+01  0.00000000000E+00 0. -1.
</event>
<event>
 8    1  0.8828843E-009  0.9118800E+02  0.7816164E-02  0.1184000E+00
        -11   -1    0    0    0    0  0.00000000000E+00  0.00000000000E+00  0.45593999997E+02  0.45594000000E+02  0.51100000000E-03 0. -1.
         11   -1    0    0    0    0 -0.00000000000E+00 -0.00000000000E+00 -0.45593999997E+02  0.45594000000E+02  0.51100000000E-03 0.  1.
         23    2    1    2    0    0 -0.35527136788E-14  0.00000000000E+00  0.00000000000E+00  0.91188000000E+02  0.91188000000E+02 0.  0.
    9900012    2    3    3    0    0  0.21375502300E+02 -0.54152034929E+01  0.39279468899E+02  0.46142320913E+02  0.10000028742E+02 0.  0.
        -12    1    3    3    0    0 -0.21375502300E+02  0.54152034929E+01 -0.39279468899E+02  0.45045679087E+02  0.00000000000E+00 0.  1.
         11    1    4    4    0    0  0.33457600415E+01  0.12150930382E+01  0.73806050547E+01  0.81941376960E+01  0.51100000000E-03 0. -1.
        -11    1    4    4    0    0 -0.50873094498E+00 -0.10051648424E+01  0.24732580002E+01  0.27177507118E+01  0.51100000000E-03 0.  1.
        -12    1    4    4    0    0  0.18538473203E+02 -0.56251316886E+01  0.29425605844E+02  0.35230432505E+02  0.00000000000E+00 0.  1.
</event>
<event>
 8    1  0.8828843E-009  0.9118800E+02  0.7816164E-02  0.1184000E+00
        -11   -1    0    0    0    0  0.00000000000E+00  0.00000000000E+00  0.45593999997E+02  0.45594000000E+02  0.51100000000E-03 0. -1.
         11   -1    0    0    0    0 -0.00000000000E+00 -0.00000000000E+00 -0.45593999997E+02  0.45594000000E+02  0.51100000000E-03 0.  1.
         23    2    1    2    0    0 -0.17763568394E-14  0.71054273576E-14  0.00000000000E+00  0.91188000000E+02  0.91188000000E+02 0.  0.
    9900012    2    3    3    0    0  0.15437384087E+02 -0.40822635138E+02  0.11149580283E+02  0.46142317548E+02  0.99999980534E+01 0.  0.
        -12    1    3    3    0    0 -0.15437384087E+02  0.40822635138E+02 -0.11149580283E+02  0.45045682452E+02  0.00000000000E+00 0.  1.
         11    1    4    4    0    0  0.66965205165E+01 -0.22812596035E+02  0.33037251938E+01  0.24003594008E+02  0.51100000000E-03 0. -1.
        -11    1    4    4    0    0  0.56809895187E+01 -0.99953072030E+01  0.17847775269E+01  0.11634656809E+02  0.51100000000E-03 0.  1.
         12    1    4    4    0    0  0.30598740520E+01 -0.80147319009E+01  0.60610775628E+01  0.10504066731E+02  0.00000000000E+00 0. -1.
</event>
<event>
 8    1  0.1124248E-008  0.9118800E+02  0.7816164E-02  0.1184000E+00
        -11   -1    0    0    0    0  0.00000000000E+00  0.00000000000E+00  0.45593999997E+02  0.45594000000E+02  0.51100000000E-03 0. -1.
         11   -1    0    0    0    0 -0.00000000000E+00 -0.00000000000E+00 -0.45593999997E+02  0.45594000000E+02  0.51100000000E-03 0.  1.
         23    2    1    2    0    0  0.00000000000E+00 -0.71054273576E-14  0.35527136788E-14  0.91188000000E+02  0.91188000000E+02 0.  0.
    9900012    2    3    3    0    0  0.39725498673E+01 -0.32071983073E+02  0.31380254297E+02  0.46142316406E+02  0.99999876476E+01 0.  0.
        -12    1    3    3    0    0 -0.39725498673E+01  0.32071983073E+02 -0.31380254297E+02  0.45045683594E+02  0.00000000000E+00 0.  1.
         11    1    4    4    0    0  0.34630292378E+01 -0.19034518914E+02  0.18871517222E+02  0.27026646931E+02  0.51100000000E-03 0. -1.
        -11    1    4    4    0    0  0.29991642517E+01 -0.52733434228E+01  0.70633783486E+01  0.93109855021E+01  0.51100000000E-03 0.  1.
        -12    1    4    4    0    0 -0.24896436223E+01 -0.77641207355E+01  0.54453587261E+01  0.98046839734E+01  0.00000000000E+00 0.  1.
</event>
<event>
 8    1  0.8828843E-009  0.9118800E+02  0.7816164E-02  0.1184000E+00
        -11   -1    0    0    0    0  0.00000000000E+00  0.00000000000E+00  0.45593999997E+02  0.45594000000E+02  0.51100000000E-03 0. -1.
         11   -1    0    0    0    0 -0.00000000000E+00 -0.00000000000E+00 -0.45593999997E+02  0.45594000000E+02  0.51100000000E-03 0.  1.
         23    2    1    2    0    0  0.00000000000E+00  0.00000000000E+00  0.71054273576E-14  0.91188000000E+02  0.91188000000E+02 0.  0.
    9900012    2    3    3    0    0  0.10513677404E+01 -0.79567806586E+01  0.44324911215E+02  0.46142317779E+02  0.10000000163E+02 0.  0.
        -12    1    3    3    0    0 -0.10513677404E+01  0.79567806586E+01 -0.44324911215E+02  0.45045682221E+02  0.00000000000E+00 0.  1.
         11    1    4    4    0    0  0.67909448823E+00 -0.30828364662E+00  0.18849720033E+02  0.18864468021E+02  0.51100000000E-03 0. -1.
        -11    1    4    4    0    0 -0.21643253123E+01 -0.59414035156E+01  0.20351455791E+02  0.21311178589E+02  0.51100000000E-03 0.  1.
         12    1    4    4    0    0  0.25365985645E+01 -0.17070934964E+01  0.51237353903E+01  0.59666711685E+01  0.00000000000E+00 0. -1.
</event>
<event>
 8    1  0.8828843E-009  0.9118800E+02  0.7816164E-02  0.1184000E+00
        -11   -1    0    0    0    0  0.00000000000E+00  0.00000000000E+00  0.45593999997E+02  0.45594000000E+02  0.51100000000E-03 0. -1.
         11   -1    0    0    0    0 -0.00000000000E+00 -0.00000000000E+00 -0.45593999997E+02  0.45594000000E+02  0.51100000000E-03 0.  1.
         23    2    1    2    0    0  0.00000000000E+00  0.00000000000E+00  0.35527136788E-14  0.91188000000E+02  0.91188000000E+02 0.  0.
    9900012    2    3    3    0    0  0.96586835150E+01  0.38937270776E+02  0.20486881165E+02  0.46142317381E+02  0.99999965336E+01 0.  0.
        -12    1    3    3    0    0 -0.96586835150E+01 -0.38937270776E+02 -0.20486881165E+02  0.45045682619E+02  0.00000000000E+00 0.  1.
         11    1    4    4    0    0  0.39716630592E+01  0.75737572626E+01  0.39174647452E+01  0.94065103423E+01  0.51100000000E-03 0. -1.
        -11    1    4    4    0    0  0.13612592947E+01  0.41015302945E+01 -0.38994240799E+00  0.43390820420E+01  0.51100000000E-03 0.  1.
         12    1    4    4    0    0  0.43257611611E+01  0.27261983219E+02  0.16959358828E+02  0.32396724997E+02  0.00000000000E+00 0. -1.
</event>
<event>
 8    1  0.8828843E-009  0.9118800E+02  0.7816164E-02  0.1184000E+00
        -11   -1    0    0    0    0  0.00000000000E+00  0.00000000000E+00  0.45593999997E+02  0.45594000000E+02  0.51100000000E-03 0. -1.
         11   -1    0    0    0    0 -0.00000000000E+00 -0.00000000000E+00 -0.45593999997E+02  0.45594000000E+02  0.51100000000E-03 0.  1.
         23    2    1    2    0    0  0.88817841970E-15  0.00000000000E+00  0.00000000000E+00  0.91188000000E+02  0.91188000000E+02 0.  0.
    9900012    2    3    3    0    0 -0.72862743566E+01  0.33947379744E+02  0.28698415110E+02  0.46142318573E+02  0.10000007399E+02 0.  0.
        -12    1    3    3    0    0  0.72862743566E+01 -0.33947379744E+02 -0.28698415110E+02  0.45045681427E+02  0.00000000000E+00 0.  1.
         11    1    4    4    0    0 -0.25408863229E+01  0.22485680958E+02  0.14443702327E+02  0.26845530142E+02  0.51100000000E-03 0. -1.
        -11    1    4    4    0    0 -0.99393277455E+00  0.47059526825E+01  0.80890942237E+01  0.94110221885E+01  0.51100000000E-03 0.  1.
        -12    1    4    4    0    0 -0.37514552591E+01  0.67557461033E+01  0.61656185592E+01  0.98857662419E+01  0.00000000000E+00 0.  1.
</event>
<event>
 8    1  0.8828843E-009  0.9118800E+02  0.7816164E-02  0.1184000E+00
        -11   -1    0    0    0    0  0.00000000000E+00  0.00000000000E+00  0.45593999997E+02  0.45594000000E+02  0.51100000000E-03 0. -1.
         11   -1    0    0    0    0 -0.00000000000E+00 -0.00000000000E+00 -0.45593999997E+02  0.45594000000E+02  0.51100000000E-03 0.  1.
         23    2    1    2    0    0  0.00000000000E+00  0.00000000000E+00  0.00000000000E+00  0.91188000000E+02  0.91188000000E+02 0.  0.
    9900012    2    3    3    0    0 -0.18766821486E+02  0.11447571644E+02  0.39317591374E+02  0.46142317891E+02  0.10000001181E+02 0.  0.
        -12    1    3    3    0    0  0.18766821486E+02 -0.11447571644E+02 -0.39317591374E+02  0.45045682109E+02  0.00000000000E+00 0.  1.
         11    1    4    4    0    0 -0.78298036349E+01  0.24132299946E+00  0.10343775195E+02  0.12975274459E+02  0.51100000000E-03 0. -1.
        -11    1    4    4    0    0 -0.71137322879E+00  0.22455569446E+01  0.63406167547E+01  0.67640223945E+01  0.51100000000E-03 0.  1.
         12    1    4    4    0    0 -0.10225644622E+02  0.89606916996E+01  0.22633199425E+02  0.26403021037E+02  0.00000000000E+00 0. -1.
</event>
<event>
 8    1  0.8828843E-009  0.9118800E+02  0.7816164E-02  0.1184000E+00
        -11   -1    0    0    0    0  0.00000000000E+00  0.00000000000E+00  0.45593999997E+02  0.45594000000E+02  0.51100000000E-03 0. -1.
         11   -1    0    0    0    0 -0.00000000000E+00 -0.00000000000E+00 -0.45593999997E+02  0.45594000000E+02  0.51100000000E-03 0.  1.
         23    2    1    2    0    0 -0.16653345369E-15  0.17763568394E-14  0.00000000000E+00  0.91188000000E+02  0.91188000000E+02 0.  0.
    9900012    2    3    3    0    0 -0.28483855745E+00 -0.11990102292E+02  0.43419693887E+02  0.46142317596E+02  0.99999984986E+01 0.  0.
        -12    1    3    3    0    0  0.28483855745E+00  0.11990102292E+02 -0.43419693887E+02  0.45045682404E+02  0.00000000000E+00 0.  1.
         11    1    4    4    0    0 -0.25164018752E+01 -0.84637311920E+01  0.23083533774E+02  0.24714703232E+02  0.51100000000E-03 0. -1.
        -11    1    4    4    0    0 -0.19715815489E-01 -0.38489731491E+00  0.14003070896E+02  0.14008373547E+02  0.51100000000E-03 0.  1.
         12    1    4    4    0    0  0.22512791332E+01 -0.31414737848E+01  0.63330892164E+01  0.74192408169E+01  0.00000000000E+00 0. -1.
</event>
<event>
 8    1  0.8828843E-009  0.9118800E+02  0.7816164E-02  0.1184000E+00
        -11   -1    0    0    0    0  0.00000000000E+00  0.00000000000E+00  0.45593999997E+02  0.45594000000E+02  0.51100000000E-03 0. -1.
         11   -1    0    0    0    0 -0.00000000000E+00 -0.00000000000E+00 -0.45593999997E+02  0.45594000000E+02  0.51100000000E-03 0.  1.
         23    2    1    2    0    0  0.00000000000E+00  0.00000000000E+00  0.00000000000E+00  0.91188000000E+02  0.91188000000E+02 0.  0.
    9900012    2    3    3    0    0 -0.20710498481E+02  0.30871392870E+01  0.39883059486E+02  0.46142316408E+02  0.99999876587E+01 0.  0.
        -12    1    3    3    0    0  0.20710498481E+02 -0.30871392870E+01 -0.39883059486E+02  0.45045683592E+02  0.00000000000E+00 0.  1.
         11    1    4    4    0    0 -0.10695379882E+02 -0.78692446739E+00  0.18862038538E+02  0.21697624271E+02  0.51100000000E-03 0. -1.
        -11    1    4    4    0    0 -0.19613019950E+01  0.27936351469E+01  0.11141555082E+02  0.11652697231E+02  0.51100000000E-03 0.  1.
        -12    1    4    4    0    0 -0.80538166035E+01  0.10804286076E+01  0.98794658664E+01  0.12791994906E+02  0.00000000000E+00 0.  1.
</event>
<event>
 8    1  0.8828843E-009  0.9118800E+02  0.7816164E-02  0.1184000E+00
        -11   -1    0    0    0    0  0.00000000000E+00  0.00000000000E+00  0.45593999997E+02  0.45594000000E+02  0.51100000000E-03 0. -1.
         11   -1    0    0    0    0 -0.00000000000E+00 -0.00000000000E+00 -0.45593999997E+02  0.45594000000E+02  0.51100000000E-03 0.  1.
         23    2    1    2    0    0  0.17000290065E-15  0.00000000000E+00  0.00000000000E+00  0.91188000000E+02  0.91188000000E+02 0.  0.
    9900012    2    3    3    0    0 -0.96786759149E-02 -0.23374276341E+02  0.38506578689E+02  0.46142317738E+02  0.99999997911E+01 0.  0.
        -12    1    3    3    0    0  0.96786759149E-02  0.23374276341E+02 -0.38506578689E+02  0.45045682262E+02  0.00000000000E+00 0.  1.
         11    1    4    4    0    0 -0.39308980953E+01 -0.83448930776E+01  0.12103917748E+02  0.15218213608E+02  0.51100000000E-03 0. -1.
        -11    1    4    4    0    0  0.27563614274E+01 -0.11813820259E+02  0.16735532676E+02  0.20669831437E+02  0.51100000000E-03 0.  1.
         12    1    4    4    0    0  0.11648579920E+01 -0.32155630039E+01  0.96671282643E+01  0.10254272692E+02  0.00000000000E+00 0. -1.
</event>
<event>
 8    1  0.8828843E-009  0.9118800E+02  0.7816164E-02  0.1184000E+00
        -11   -1    0    0    0    0  0.00000000000E+00  0.00000000000E+00  0.45593999997E+02  0.45594000000E+02  0.51100000000E-03 0. -1.
         11   -1    0    0    0    0 -0.00000000000E+00 -0.00000000000E+00 -0.45593999997E+02  0.45594000000E+02  0.51100000000E-03 0.  1.
         23    2    1    2    0    0 -0.44408920985E-15  0.22204460493E-15  0.00000000000E+00  0.91188000000E+02  0.91188000000E+02 0.  0.
    9900012    2    3    3    0    0  0.39042656207E+01  0.15023702910E+01  0.44851010272E+02  0.46142317311E+02  0.99999958965E+01 0.  0.
        -12    1    3    3    0    0 -0.39042656207E+01 -0.15023702910E+01 -0.44851010272E+02  0.45045682689E+02  0.00000000000E+00 0.  1.
         11    1    4    4    0    0  0.34037050141E+01  0.22447744909E+01  0.30618634580E+02  0.30888913936E+02  0.51100000000E-03 0. -1.
        -11    1    4    4    0    0  0.16919307113E+01 -0.26473178947E+01  0.68383609417E+01  0.75255632479E+01  0.51100000000E-03 0.  1.
         12    1    4    4    0    0 -0.11913701047E+01  0.19049136949E+01  0.73940147494E+01  0.77278401268E+01  0.00000000000E+00 0. -1.
</event>
<event>
 8    1  0.8828843E-009  0.9118800E+02  0.7816164E-02  0.1184000E+00
        -11   -1    0    0    0    0  0.00000000000E+00  0.00000000000E+00  0.45593999997E+02  0.45594000000E+02  0.51100000000E-03 0. -1.
         11   -1    0    0    0    0 -0.00000000000E+00 -0.00000000000E+00 -0.45593999997E+02  0.45594000000E+02  0.51100000000E-03 0.  1.
         23    2    1    2    0    0  0.17763568394E-14 -0.71054273576E-14  0.00000000000E+00  0.91188000000E+02  0.91188000000E+02 0.  0.
    9900012    2    3    3    0    0 -0.12848525186E+02  0.37482547974E+02  0.21426325243E+02  0.46142318570E+02  0.10000007375E+02 0.  0.
        -12    1    3    3    0    0  0.12848525186E+02 -0.37482547974E+02 -0.21426325243E+02  0.45045681430E+02  0.00000000000E+00 0.  1.
         11    1    4    4    0    0 -0.38568821562E+01  0.21201953398E+02  0.13371662128E+02  0.25361382379E+02  0.51100000000E-03 0. -1.
        -11    1    4    4    0    0 -0.11103686775E+01  0.63674192438E+01  0.21886136122E+01  0.68240000169E+01  0.51100000000E-03 0.  1.
        -12    1    4    4    0    0 -0.78812743525E+01  0.99131753325E+01  0.58660495024E+01  0.13956936174E+02  0.00000000000E+00 0.  1.
</event>
<event>
 8    1  0.8828843E-009  0.9118800E+02  0.7816164E-02  0.1184000E+00
        -11   -1    0    0    0    0  0.00000000000E+00  0.00000000000E+00  0.45593999997E+02  0.45594000000E+02  0.51100000000E-03 0. -1.
         11   -1    0    0    0    0 -0.00000000000E+00 -0.00000000000E+00 -0.45593999997E+02  0.45594000000E+02  0.51100000000E-03 0.  1.
         23    2    1    2    0    0  0.71054273576E-14  0.71054273576E-14  0.00000000000E+00  0.91188000000E+02  0.91188000000E+02 0.  0.
    9900012    2    3    3    0    0  0.34729617077E+02 -0.22917718863E+02  0.17255298266E+02  0.46142318093E+02  0.10000003027E+02 0.  0.
        -12    1    3    3    0    0 -0.34729617077E+02  0.22917718863E+02 -0.17255298266E+02  0.45045681907E+02  0.00000000000E+00 0.  1.
         11    1    4    4    0    0  0.22406895660E+00 -0.23829987726E+01  0.21076038009E+01  0.31891823545E+01  0.51100000000E-03 0.  1.
        -11    1    4    4    0    0  0.12495513214E+02 -0.82963350091E+01  0.51713356744E+01  0.15865362838E+02  0.51100000000E-03 0. -1.
         12    1    4    4    0    0  0.22010034906E+02 -0.12238385081E+02  0.99763587912E+01  0.27087772900E+02  0.00000000000E+00 0. -1.
</event>
<event>
 8    1  0.8828843E-009  0.9118800E+02  0.7816164E-02  0.1184000E+00
        -11   -1    0    0    0    0  0.00000000000E+00  0.00000000000E+00  0.45593999997E+02  0.45594000000E+02  0.51100000000E-03 0. -1.
         11   -1    0    0    0    0 -0.00000000000E+00 -0.00000000000E+00 -0.45593999997E+02  0.45594000000E+02  0.51100000000E-03 0.  1.
         23    2    1    2    0    0  0.00000000000E+00  0.00000000000E+00 -0.71054273576E-14  0.91188000000E+02  0.91188000000E+02 0.  0.
    9900012    2    3    3    0    0  0.22931910269E+01  0.21494896085E+02 -0.39519922029E+02  0.46142317411E+02  0.99999968030E+01 0.  0.
         12    1    3    3    0    0 -0.22931910269E+01 -0.21494896085E+02  0.39519922029E+02  0.45045682589E+02  0.00000000000E+00 0. -1.
         11    1    4    4    0    0 -0.13764548972E+01  0.33322455410E+01 -0.96024590750E+01  0.10256983425E+02  0.51100000000E-03 0.  1.
        -11    1    4    4    0    0  0.11480128712E+01  0.52933176478E+01 -0.15384965774E+02  0.16310558464E+02  0.51100000000E-03 0. -1.
        -12    1    4    4    0    0  0.25216330529E+01  0.12869332897E+02 -0.14532497180E+02  0.19574775522E+02  0.00000000000E+00 0.  1.
</event>
<event>
 8    1  0.8828843E-009  0.9118800E+02  0.7816164E-02  0.1184000E+00
        -11   -1    0    0    0    0  0.00000000000E+00  0.00000000000E+00  0.45593999997E+02  0.45594000000E+02  0.51100000000E-03 0. -1.
         11   -1    0    0    0    0 -0.00000000000E+00 -0.00000000000E+00 -0.45593999997E+02  0.45594000000E+02  0.51100000000E-03 0.  1.
         23    2    1    2    0    0  0.35527136788E-14  0.00000000000E+00  0.71054273576E-14  0.91188000000E+02  0.91188000000E+02 0.  0.
    9900012    2    3    3    0    0  0.29142553870E+02  0.96559595804E+01  0.32963425816E+02  0.46142318265E+02  0.10000004592E+02 0.  0.
        -12    1    3    3    0    0 -0.29142553870E+02 -0.96559595804E+01 -0.32963425816E+02  0.45045681735E+02  0.00000000000E+00 0.  1.
         11    1    4    4    0    0  0.16757571210E+02  0.96279861511E+01  0.21789361057E+02  0.29125428164E+02  0.51100000000E-03 0. -1.
        -11    1    4    4    0    0  0.23305758933E+01 -0.12779244145E+01  0.28667329085E+01  0.39093263657E+01  0.51100000000E-03 0.  1.
        -12    1    4    4    0    0  0.10054406766E+02  0.13058978438E+01  0.83073318506E+01  0.13107563735E+02  0.00000000000E+00 0.  1.
</event>
<event>
 8    1  0.8828843E-009  0.9118800E+02  0.7816164E-02  0.1184000E+00
        -11   -1    0    0    0    0  0.00000000000E+00  0.00000000000E+00  0.45593999997E+02  0.45594000000E+02  0.51100000000E-03 0. -1.
         11   -1    0    0    0    0 -0.00000000000E+00 -0.00000000000E+00 -0.45593999997E+02  0.45594000000E+02  0.51100000000E-03 0.  1.
         23    2    1    2    0    0  0.00000000000E+00 -0.71054273576E-14  0.00000000000E+00  0.91188000000E+02  0.91188000000E+02 0.  0.
    9900012    2    3    3    0    0 -0.23920805840E+02  0.33266836888E+02 -0.18714328674E+02  0.46142317784E+02  0.10000000209E+02 0.  0.
         12    1    3    3    0    0  0.23920805840E+02 -0.33266836888E+02  0.18714328674E+02  0.45045682216E+02  0.00000000000E+00 0. -1.
         11    1    4    4    0    0  0.15270123300E-01  0.39013454422E+00 -0.12372951132E+01  0.12974350071E+01  0.51100000000E-03 0. -1.
        -11    1    4    4    0    0 -0.35216944364E+01  0.47528436377E+01 -0.55271616701E+01  0.80957625173E+01  0.51100000000E-03 0.  1.
        -12    1    4    4    0    0 -0.20414381527E+02  0.28123858706E+02 -0.11949871891E+02  0.36749120260E+02  0.00000000000E+00 0.  1.
</event>
<event>
 8    1  0.8828843E-009  0.9118800E+02  0.7816164E-02  0.1184000E+00
        -11   -1    0    0    0    0  0.00000000000E+00  0.00000000000E+00  0.45593999997E+02  0.45594000000E+02  0.51100000000E-03 0. -1.
         11   -1    0    0    0    0 -0.00000000000E+00 -0.00000000000E+00 -0.45593999997E+02  0.45594000000E+02  0.51100000000E-03 0.  1.
         23    2    1    2    0    0 -0.71054273576E-14  0.35527136788E-14  0.00000000000E+00  0.91188000000E+02  0.91188000000E+02 0.  0.
    9900012    2    3    3    0    0 -0.29514466537E+02 -0.24702703179E+02 -0.23404834615E+02  0.46142316937E+02  0.99999924816E+01 0.  0.
         12    1    3    3    0    0  0.29514466537E+02  0.24702703179E+02  0.23404834615E+02  0.45045683063E+02  0.00000000000E+00 0. -1.
         11    1    4    4    0    0  0.23969641896E+00 -0.16092828854E+01  0.98939533500E-01  0.16300414323E+01  0.51100000000E-03 0. -1.
        -11    1    4    4    0    0 -0.18362552194E+02 -0.12910801739E+02 -0.12602951897E+02  0.25743086866E+02  0.51100000000E-03 0.  1.
         12    1    4    4    0    0 -0.11391610762E+02 -0.10182618555E+02 -0.10900822252E+02  0.18769188638E+02  0.00000000000E+00 0. -1.
</event>
<event>
 8    1  0.8828843E-009  0.9118800E+02  0.7816164E-02  0.1184000E+00
        -11   -1    0    0    0    0  0.00000000000E+00  0.00000000000E+00  0.45593999997E+02  0.45594000000E+02  0.51100000000E-03 0.  1.
         11   -1    0    0    0    0 -0.00000000000E+00 -0.00000000000E+00 -0.45593999997E+02  0.45594000000E+02  0.51100000000E-03 0. -1.
         23    2    1    2    0    0  0.00000000000E+00  0.00000000000E+00  0.00000000000E+00  0.91188000000E+02  0.91188000000E+02 0.  0.
    9900012    2    3    3    0    0  0.16861234384E+02  0.14667235298E+02 -0.39111180312E+02  0.46142318279E+02  0.10000004726E+02 0.  0.
         12    1    3    3    0    0 -0.16861234384E+02 -0.14667235298E+02  0.39111180312E+02  0.45045681721E+02  0.00000000000E+00 0. -1.
         11    1    4    4    0    0  0.16109485603E+01  0.21909480267E+00 -0.73850997247E+00  0.17856525522E+01  0.51100000000E-03 0. -1.
        -11    1    4    4    0    0  0.11264960523E+02  0.56890233190E+01 -0.22305833473E+02  0.25628393026E+02  0.51100000000E-03 0.  1.
        -12    1    4    4    0    0  0.39853253007E+01  0.87591171765E+01 -0.16066836867E+02  0.18728272701E+02  0.00000000000E+00 0.  1.
</event>
<event>
 8    1  0.8828843E-009  0.9118800E+02  0.7816164E-02  0.1184000E+00
        -11   -1    0    0    0    0  0.00000000000E+00  0.00000000000E+00  0.45593999997E+02  0.45594000000E+02  0.51100000000E-03 0. -1.
         11   -1    0    0    0    0 -0.00000000000E+00 -0.00000000000E+00 -0.45593999997E+02  0.45594000000E+02  0.51100000000E-03 0.  1.
         23    2    1    2    0    0 -0.71054273576E-14  0.00000000000E+00  0.00000000000E+00  0.91188000000E+02  0.91188000000E+02 0.  0.
    9900012    2    3    3    0    0  0.30256523465E+02  0.29559222671E+02 -0.15488982069E+02  0.46142318491E+02  0.10000006652E+02 0.  0.
         12    1    3    3    0    0 -0.30256523465E+02 -0.29559222671E+02  0.15488982069E+02  0.45045681509E+02  0.00000000000E+00 0. -1.
         11    1    4    4    0    0  0.11619122926E+02  0.15492559093E+02 -0.34710234286E+01  0.19674130444E+02  0.51100000000E-03 0. -1.
        -11    1    4    4    0    0  0.14878859254E+02  0.11969691715E+02 -0.84686373717E+01  0.20889513916E+02  0.51100000000E-03 0.  1.
         12    1    4    4    0    0  0.37585412846E+01  0.20969718633E+01 -0.35493212690E+01  0.55786741305E+01  0.00000000000E+00 0. -1.
</event>
<event>
 8    1  0.8828843E-009  0.9118800E+02  0.7816164E-02  0.1184000E+00
        -11   -1    0    0    0    0  0.00000000000E+00  0.00000000000E+00  0.45593999997E+02  0.45594000000E+02  0.51100000000E-03 0. -1.
         11   -1    0    0    0    0 -0.00000000000E+00 -0.00000000000E+00 -0.45593999997E+02  0.45594000000E+02  0.51100000000E-03 0.  1.
         23    2    1    2    0    0  0.00000000000E+00 -0.71054273576E-14  0.00000000000E+00  0.91188000000E+02  0.91188000000E+02 0.  0.
    9900012    2    3    3    0    0  0.26148587724E+02 -0.33479692249E+02  0.14982493486E+02  0.46142317143E+02  0.99999943597E+01 0.  0.
        -12    1    3    3    0    0 -0.26148587724E+02  0.33479692249E+02 -0.14982493486E+02  0.45045682857E+02  0.00000000000E+00 0.  1.
         11    1    4    4    0    0  0.11174576155E+02 -0.15917888813E+02  0.10326467155E+02  0.22020133076E+02  0.51100000000E-03 0. -1.
        -11    1    4    4    0    0  0.38656027353E+01 -0.43433047821E+01  0.35674898479E+01  0.68215954889E+01  0.51100000000E-03 0.  1.
        -12    1    4    4    0    0  0.11108408833E+02 -0.13218498654E+02  0.10885364831E+01  0.17300588578E+02  0.00000000000E+00 0.  1.
</event>
<event>
 8    1  0.8828843E-009  0.9118800E+02  0.7816164E-02  0.1184000E+00
        -11   -1    0    0    0    0  0.00000000000E+00  0.00000000000E+00  0.45593999997E+02  0.45594000000E+02  0.51100000000E-03 0. -1.
         11   -1    0    0    0    0 -0.00000000000E+00 -0.00000000000E+00 -0.45593999997E+02  0.45594000000E+02  0.51100000000E-03 0.  1.
         23    2    1    2    0    0  0.00000000000E+00  0.44408920985E-15  0.00000000000E+00  0.91188000000E+02  0.91188000000E+02 0.  0.
    9900012    2    3    3    0    0 -0.43120621796E+02  0.35127447601E+01  0.12545360316E+02  0.46142318017E+02  0.10000002338E+02 0.  0.
        -12    1    3    3    0    0  0.43120621796E+02 -0.35127447601E+01 -0.12545360316E+02  0.45045681983E+02  0.00000000000E+00 0.  1.
         11    1    4    4    0    0 -0.21701377667E+02 -0.81398441845E+00  0.94967340654E+01  0.23702327342E+02  0.51100000000E-03 0. -1.
        -11    1    4    4    0    0 -0.10579222897E+02  0.37494109664E+01  0.28614120881E+01  0.11582992666E+02  0.51100000000E-03 0.  1.
         12    1    4    4    0    0 -0.10840021232E+02  0.57731821208E+00  0.18721416228E+00  0.10856998009E+02  0.00000000000E+00 0. -1.
</event>
<event>
 8    1  0.8828843E-009  0.9118800E+02  0.7816164E-02  0.1184000E+00
        -11   -1    0    0    0    0  0.00000000000E+00  0.00000000000E+00  0.45593999997E+02  0.45594000000E+02  0.51100000000E-03 0. -1.
         11   -1    0    0    0    0 -0.00000000000E+00 -0.00000000000E+00 -0.45593999997E+02  0.45594000000E+02  0.51100000000E-03 0.  1.
         23    2    1    2    0    0  0.17763568394E-14 -0.17763568394E-14  0.71054273576E-14  0.91188000000E+02  0.91188000000E+02 0.  0.
    9900012    2    3    3    0    0 -0.12080848279E+02  0.83704250433E+01 -0.42580542263E+02  0.46142317743E+02  0.99999998370E+01 0.  0.
         12    1    3    3    0    0  0.12080848279E+02 -0.83704250433E+01  0.42580542263E+02  0.45045682257E+02  0.00000000000E+00 0. -1.
         11    1    4    4    0    0 -0.35572055590E+01  0.47484197289E+01 -0.17388991460E+02  0.18373301978E+02  0.51100000000E-03 0. -1.
        -11    1    4    4    0    0 -0.74937317509E+01  0.54690840070E+01 -0.22559718015E+02  0.24392781157E+02  0.51100000000E-03 0.  1.
         12    1    4    4    0    0 -0.10299109689E+01 -0.18470786926E+01 -0.26318327882E+01  0.33762346076E+01  0.00000000000E+00 0. -1.
</event>
<event>
 8    1  0.8828843E-009  0.9118800E+02  0.7816164E-02  0.1184000E+00
        -11   -1    0    0    0    0  0.00000000000E+00  0.00000000000E+00  0.45593999997E+02  0.45594000000E+02  0.51100000000E-03 0. -1.
         11   -1    0    0    0    0 -0.00000000000E+00 -0.00000000000E+00 -0.45593999997E+02  0.45594000000E+02  0.51100000000E-03 0.  1.
         23    2    1    2    0    0  0.00000000000E+00  0.00000000000E+00  0.00000000000E+00  0.91188000000E+02  0.91188000000E+02 0.  0.
    9900012    2    3    3    0    0 -0.12372595888E+02  0.62641236083E+01 -0.42857823353E+02  0.46142318785E+02  0.10000009337E+02 0.  0.
         12    1    3    3    0    0  0.12372595888E+02 -0.62641236083E+01  0.42857823353E+02  0.45045681215E+02  0.00000000000E+00 0. -1.
         11    1    4    4    0    0 -0.21243658044E+01  0.41739898327E+01 -0.14712201136E+02  0.15439688589E+02  0.51100000000E-03 0.  1.
        -11    1    4    4    0    0 -0.10149810629E+00  0.18625055366E+01 -0.70490785177E+01  0.72916895813E+01  0.51100000000E-03 0. -1.
         12    1    4    4    0    0 -0.10146731977E+02  0.22762823904E+00 -0.21096543699E+02  0.23410940615E+02  0.00000000000E+00 0. -1.
</event>
<event>
 8    1  0.8828843E-009  0.9118800E+02  0.7816164E-02  0.1184000E+00
        -11   -1    0    0    0    0  0.00000000000E+00  0.00000000000E+00  0.45593999997E+02  0.45594000000E+02  0.51100000000E-03 0. -1.
         11   -1    0    0    0    0 -0.00000000000E+00 -0.00000000000E+00 -0.45593999997E+02  0.45594000000E+02  0.51100000000E-03 0.  1.
         23    2    1    2    0    0  0.44408920985E-15  0.17763568394E-14  0.00000000000E+00  0.91188000000E+02  0.91188000000E+02 0.  0.
    9900012    2    3    3    0    0 -0.25819776496E+01 -0.14271608529E+02 -0.42647018630E+02  0.46142316337E+02  0.99999870157E+01 0.  0.
         12    1    3    3    0    0  0.25819776496E+01  0.14271608529E+02  0.42647018630E+02  0.45045683663E+02  0.00000000000E+00 0. -1.
         11    1    4    4    0    0 -0.24617365842E+01 -0.60454782523E+00 -0.33019030982E+01  0.41627141883E+01  0.51100000000E-03 0. -1.
        -11    1    4    4    0    0 -0.24686068735E+01 -0.59169528174E+01 -0.14675113764E+02  0.16014472042E+02  0.51100000000E-03 0.  1.
        -12    1    4    4    0    0  0.23483658080E+01 -0.77501078868E+01 -0.24670001768E+02  0.25965130107E+02  0.00000000000E+00 0.  1.
</event>
<event>
 8    1  0.8828843E-009  0.9118800E+02  0.7816164E-02  0.1184000E+00
        -11   -1    0    0    0    0  0.00000000000E+00  0.00000000000E+00  0.45593999997E+02  0.45594000000E+02  0.51100000000E-03 0. -1.
         11   -1    0    0    0    0 -0.00000000000E+00 -0.00000000000E+00 -0.45593999997E+02  0.45594000000E+02  0.51100000000E-03 0.  1.
         23    2    1    2    0    0  0.00000000000E+00  0.00000000000E+00  0.00000000000E+00  0.91188000000E+02  0.91188000000E+02 0.  0.
    9900012    2    3    3    0    0  0.83979646280E+01  0.23331750454E+02  0.37606080155E+02  0.46142315925E+02  0.99999832549E+01 0.  0.
        -12    1    3    3    0    0 -0.83979646280E+01 -0.23331750454E+02 -0.37606080155E+02  0.45045684075E+02  0.00000000000E+00 0.  1.
         11    1    4    4    0    0  0.59735009685E+01  0.10625557867E+02  0.14913513126E+02  0.19261310127E+02  0.51100000000E-03 0. -1.
        -11    1    4    4    0    0  0.30008560609E+01  0.60290709992E+01  0.16225453060E+02  0.17567588380E+02  0.51100000000E-03 0.  1.
         12    1    4    4    0    0 -0.57639240144E+00  0.66771215881E+01  0.64671139692E+01  0.93134174176E+01  0.00000000000E+00 0. -1.
</event>
<event>
 8    1  0.8828843E-009  0.9118800E+02  0.7816164E-02  0.1184000E+00
        -11   -1    0    0    0    0  0.00000000000E+00  0.00000000000E+00  0.45593999997E+02  0.45594000000E+02  0.51100000000E-03 0. -1.
         11   -1    0    0    0    0 -0.00000000000E+00 -0.00000000000E+00 -0.45593999997E+02  0.45594000000E+02  0.51100000000E-03 0.  1.
         23    2    1    2    0    0  0.00000000000E+00 -0.27755575616E-16 -0.71054273576E-14  0.91188000000E+02  0.91188000000E+02 0.  0.
    9900012    2    3    3    0    0 -0.29578993257E+02 -0.15597126086E+00  0.33973111651E+02  0.46142317805E+02  0.10000000404E+02 0.  0.
        -12    1    3    3    0    0  0.29578993257E+02  0.15597126086E+00 -0.33973111651E+02  0.45045682195E+02  0.00000000000E+00 0.  1.
         11    1    4    4    0    0 -0.46724384814E+01 -0.86769738663E+00  0.61845047314E+01  0.77995307007E+01  0.51100000000E-03 0. -1.
        -11    1    4    4    0    0 -0.86531581360E+01 -0.48890186397E+00  0.40963156885E+01  0.95862387432E+01  0.51100000000E-03 0.  1.
         12    1    4    4    0    0 -0.16253396639E+02  0.12006279897E+01  0.23692291231E+02  0.28756548362E+02  0.00000000000E+00 0. -1.
</event>
<event>
 8    1  0.1250349E-008  0.9118800E+02  0.7816164E-02  0.1184000E+00
        -11   -1    0    0    0    0  0.00000000000E+00  0.00000000000E+00  0.45593999997E+02  0.45594000000E+02  0.51100000000E-03 0. -1.
         11   -1    0    0    0    0 -0.00000000000E+00 -0.00000000000E+00 -0.45593999997E+02  0.45594000000E+02  0.51100000000E-03 0.  1.
         23    2    1    2    0    0  0.00000000000E+00  0.00000000000E+00 -0.71054273576E-14  0.91188000000E+02  0.91188000000E+02 0.  0.
    9900012    2    3    3    0    0 -0.11745082673E+02 -0.14369473811E+02  0.41044911680E+02  0.46142317417E+02  0.99999968577E+01 0.  0.
        -12    1    3    3    0    0  0.11745082673E+02  0.14369473811E+02 -0.41044911680E+02  0.45045682583E+02  0.00000000000E+00 0.  1.
         11    1    4    4    0    0 -0.61379688186E+01 -0.93179621702E+01  0.24955251010E+02  0.27336123234E+02  0.51100000000E-03 0. -1.
        -11    1    4    4    0    0 -0.38956252380E+01 -0.40149606559E+01  0.48930773285E+01  0.74322278670E+01  0.51100000000E-03 0.  1.
        -12    1    4    4    0    0 -0.17114886164E+01 -0.10365509850E+01  0.11196583342E+02  0.11373966316E+02  0.00000000000E+00 0.  1.
</event>
<event>
 8    1  0.8828843E-009  0.9118800E+02  0.7816164E-02  0.1184000E+00
        -11   -1    0    0    0    0  0.00000000000E+00  0.00000000000E+00  0.45593999997E+02  0.45594000000E+02  0.51100000000E-03 0. -1.
         11   -1    0    0    0    0 -0.00000000000E+00 -0.00000000000E+00 -0.45593999997E+02  0.45594000000E+02  0.51100000000E-03 0.  1.
         23    2    1    2    0    0  0.00000000000E+00  0.44408920985E-15  0.00000000000E+00  0.91188000000E+02  0.91188000000E+02 0.  0.
    9900012    2    3    3    0    0  0.34794166547E+02 -0.39685231714E+01 -0.28332501432E+02  0.46142313867E+02  0.99999644871E+01 0.  0.
         12    1    3    3    0    0 -0.34794166547E+02  0.39685231714E+01  0.28332501432E+02  0.45045686133E+02  0.00000000000E+00 0. -1.
         11    1    4    4    0    0  0.98817157639E+01 -0.29666056843E+01 -0.11336951414E+02  0.15328911356E+02  0.51100000000E-03 0. -1.
        -11    1    4    4    0    0  0.54798523402E+01 -0.16761338057E+01 -0.14298779512E+01  0.59061626647E+01  0.51100000000E-03 0.  1.
         12    1    4    4    0    0  0.19432598443E+02  0.67421631848E+00 -0.15565672066E+02  0.24907239846E+02  0.00000000000E+00 0. -1.
</event>
<event>
 8    1  0.8828843E-009  0.9118800E+02  0.7816164E-02  0.1184000E+00
        -11   -1    0    0    0    0  0.00000000000E+00  0.00000000000E+00  0.45593999997E+02  0.45594000000E+02  0.51100000000E-03 0. -1.
         11   -1    0    0    0    0 -0.00000000000E+00 -0.00000000000E+00 -0.45593999997E+02  0.45594000000E+02  0.51100000000E-03 0.  1.
         23    2    1    2    0    0  0.00000000000E+00 -0.35527136788E-14  0.00000000000E+00  0.91188000000E+02  0.91188000000E+02 0.  0.
    9900012    2    3    3    0    0 -0.27124171233E+02 -0.21944313112E+02  0.28492804228E+02  0.46142318344E+02  0.10000005318E+02 0.  0.
        -12    1    3    3    0    0  0.27124171233E+02  0.21944313112E+02 -0.28492804228E+02  0.45045681656E+02  0.00000000000E+00 0.  1.
         11    1    4    4    0    0 -0.10523873999E+02 -0.44242728476E+01  0.10022311778E+02  0.15191209558E+02  0.51100000000E-03 0. -1.
        -11    1    4    4    0    0 -0.29694685782E+01 -0.62801522640E+00  0.14282564030E+01  0.33544095419E+01  0.51100000000E-03 0.  1.
         12    1    4    4    0    0 -0.13630828655E+02 -0.16892025038E+02  0.17042236047E+02  0.27596699245E+02  0.00000000000E+00 0. -1.
</event>
<event>
 8    1  0.8828843E-009  0.9118800E+02  0.7816164E-02  0.1184000E+00
        -11   -1    0    0    0    0  0.00000000000E+00  0.00000000000E+00  0.45593999997E+02  0.45594000000E+02  0.51100000000E-03 0. -1.
         11   -1    0    0    0    0 -0.00000000000E+00 -0.00000000000E+00 -0.45593999997E+02  0.45594000000E+02  0.51100000000E-03 0.  1.
         23    2    1    2    0    0  0.00000000000E+00  0.00000000000E+00 -0.35527136788E-14  0.91188000000E+02  0.91188000000E+02 0.  0.
    9900012    2    3    3    0    0 -0.40816864425E+02  0.32783029781E+01  0.18770982746E+02  0.46142317797E+02  0.10000000329E+02 0.  0.
        -12    1    3    3    0    0  0.40816864425E+02 -0.32783029781E+01 -0.18770982746E+02  0.45045682203E+02  0.00000000000E+00 0.  1.
         11    1    4    4    0    0 -0.18018262528E+02  0.20165356572E+01  0.63984451602E+01  0.19226656010E+02  0.51100000000E-03 0. -1.
        -11    1    4    4    0    0 -0.65142523494E+01  0.30112155301E+01  0.17254916035E+01  0.73810720207E+01  0.51100000000E-03 0.  1.
         12    1    4    4    0    0 -0.16284349547E+02 -0.17494482092E+01  0.10647045982E+02  0.19534589766E+02  0.00000000000E+00 0. -1.
</event>
<event>
 8    1  0.8828843E-009  0.9118800E+02  0.7816164E-02  0.1184000E+00
        -11   -1    0    0    0    0  0.00000000000E+00  0.00000000000E+00  0.45593999997E+02  0.45594000000E+02  0.51100000000E-03 0. -1.
         11   -1    0    0    0    0 -0.00000000000E+00 -0.00000000000E+00 -0.45593999997E+02  0.45594000000E+02  0.51100000000E-03 0.  1.
         23    2    1    2    0    0  0.88817841970E-15 -0.88817841970E-15  0.00000000000E+00  0.91188000000E+02  0.91188000000E+02 0.  0.
    9900012    2    3    3    0    0  0.47973584203E+01  0.43681162613E+01 -0.44575998599E+02  0.46142303884E+02  0.99998734537E+01 0.  0.
         12    1    3    3    0    0 -0.47973584203E+01 -0.43681162613E+01  0.44575998599E+02  0.45045696116E+02  0.00000000000E+00 0. -1.
         11    1    4    4    0    0 -0.86025008043E+00  0.16208549373E-02 -0.80358752939E+00  0.11771941244E+01  0.51100000000E-03 0. -1.
        -11    1    4    4    0    0  0.67885012382E+01  0.15089989555E+01 -0.25279013556E+02  0.26218111174E+02  0.51100000000E-03 0.  1.
        -12    1    4    4    0    0 -0.11308927374E+01  0.28574964508E+01 -0.18493397514E+02  0.18746998585E+02  0.00000000000E+00 0.  1.
</event>
<event>
 8    1  0.8828843E-009  0.9118800E+02  0.7816164E-02  0.1184000E+00
        -11   -1    0    0    0    0  0.00000000000E+00  0.00000000000E+00  0.45593999997E+02  0.45594000000E+02  0.51100000000E-03 0. -1.
         11   -1    0    0    0    0 -0.00000000000E+00 -0.00000000000E+00 -0.45593999997E+02  0.45594000000E+02  0.51100000000E-03 0.  1.
         23    2    1    2    0    0  0.00000000000E+00  0.00000000000E+00 -0.35527136788E-14  0.91188000000E+02  0.91188000000E+02 0.  0.
    9900012    2    3    3    0    0 -0.30536465692E+02 -0.88013679985E+01 -0.31924498130E+02  0.46142318781E+02  0.10000009303E+02 0.  0.
         12    1    3    3    0    0  0.30536465692E+02  0.88013679985E+01  0.31924498130E+02  0.45045681219E+02  0.00000000000E+00 0. -1.
         11    1    4    4    0    0 -0.12344763311E+02 -0.26629579247E+01 -0.14275222946E+02  0.19059551845E+02  0.51100000000E-03 0. -1.
        -11    1    4    4    0    0 -0.14672910343E+02 -0.18385635759E+01 -0.11075059985E+02  0.18475160835E+02  0.51100000000E-03 0.  1.
         12    1    4    4    0    0 -0.35187920385E+01 -0.42998464980E+01 -0.65742151987E+01  0.86076061013E+01  0.00000000000E+00 0. -1.
</event>
<event>
 8    1  0.8828843E-009  0.9118800E+02  0.7816164E-02  0.1184000E+00
        -11   -1    0    0    0    0  0.00000000000E+00  0.00000000000E+00  0.45593999997E+02  0.45594000000E+02  0.51100000000E-03 0. -1.
         11   -1    0    0    0    0 -0.00000000000E+00 -0.00000000000E+00 -0.45593999997E+02  0.45594000000E+02  0.51100000000E-03 0.  1.
         23    2    1    2    0    0 -0.17763568394E-14  0.00000000000E+00  0.00000000000E+00  0.91188000000E+02  0.91188000000E+02 0.  0.
    9900012    2    3    3    0    0 -0.14220839922E+02 -0.67325449838E+01 -0.42208459950E+02  0.46142317172E+02  0.99999946293E+01 0.  0.
         12    1    3    3    0    0  0.14220839922E+02  0.67325449838E+01  0.42208459950E+02  0.45045682828E+02  0.00000000000E+00 0. -1.
         11    1    4    4    0    0 -0.60846571970E+01 -0.15794941054E+01 -0.76320151935E+01  0.98876443610E+01  0.51100000000E-03 0. -1.
        -11    1    4    4    0    0 -0.86814792005E+01 -0.54794162500E+01 -0.32684564569E+02  0.34258908985E+02  0.51100000000E-03 0.  1.
        -12    1    4    4    0    0  0.54529647578E+00  0.32636537159E+00 -0.18918801881E+01  0.19957638258E+01  0.00000000000E+00 0.  1.
</event>
<event>
 8    1  0.8828843E-009  0.9118800E+02  0.7816164E-02  0.1184000E+00
        -11   -1    0    0    0    0  0.00000000000E+00  0.00000000000E+00  0.45593999997E+02  0.45594000000E+02  0.51100000000E-03 0. -1.
         11   -1    0    0    0    0 -0.00000000000E+00 -0.00000000000E+00 -0.45593999997E+02  0.45594000000E+02  0.51100000000E-03 0.  1.
         23    2    1    2    0    0  0.00000000000E+00  0.35527136788E-14  0.00000000000E+00  0.91188000000E+02  0.91188000000E+02 0.  0.
    9900012    2    3    3    0    0  0.10894104736E+02  0.26902011714E+02  0.34448711087E+02  0.46142318211E+02  0.10000004106E+02 0.  0.
        -12    1    3    3    0    0 -0.10894104736E+02 -0.26902011714E+02 -0.34448711087E+02  0.45045681789E+02  0.00000000000E+00 0.  1.
         11    1    4    4    0    0 -0.28344535027E+00  0.39458772017E+01  0.13204933555E+01  0.41706104014E+01  0.51100000000E-03 0. -1.
        -11    1    4    4    0    0  0.76282976881E+01  0.13853816151E+02  0.22868497721E+02  0.27804448131E+02  0.51100000000E-03 0.  1.
         12    1    4    4    0    0  0.35492523983E+01  0.91023183613E+01  0.10259720010E+02  0.14167259679E+02  0.00000000000E+00 0. -1.
</event>
<event>
 8    1  0.8828843E-009  0.9118800E+02  0.7816164E-02  0.1184000E+00
        -11   -1    0    0    0    0  0.00000000000E+00  0.00000000000E+00  0.45593999997E+02  0.45594000000E+02  0.51100000000E-03 0. -1.
         11   -1    0    0    0    0 -0.00000000000E+00 -0.00000000000E+00 -0.45593999997E+02  0.45594000000E+02  0.51100000000E-03 0.  1.
         23    2    1    2    0    0  0.22204460493E-15 -0.17763568394E-14  0.71054273576E-14  0.91188000000E+02  0.91188000000E+02 0.  0.
    9900012    2    3    3    0    0  0.16371415880E+01 -0.10974378995E+02  0.43657717029E+02  0.46142317820E+02  0.10000000538E+02 0.  0.
        -12    1    3    3    0    0 -0.16371415880E+01  0.10974378995E+02 -0.43657717029E+02  0.45045682180E+02  0.00000000000E+00 0.  1.
         11    1    4    4    0    0 -0.13113094842E+01 -0.89919753328E+00  0.36125270346E+01  0.39469533319E+01  0.51100000000E-03 0. -1.
        -11    1    4    4    0    0 -0.27475224024E+01 -0.22161971037E+01  0.12565651370E+02  0.13052049784E+02  0.51100000000E-03 0.  1.
         12    1    4    4    0    0  0.56959734745E+01 -0.78589843577E+01  0.27479538624E+02  0.29143314704E+02  0.00000000000E+00 0. -1.
</event>
<event>
 8    1  0.8828843E-009  0.9118800E+02  0.7816164E-02  0.1184000E+00
        -11   -1    0    0    0    0  0.00000000000E+00  0.00000000000E+00  0.45593999997E+02  0.45594000000E+02  0.51100000000E-03 0. -1.
         11   -1    0    0    0    0 -0.00000000000E+00 -0.00000000000E+00 -0.45593999997E+02  0.45594000000E+02  0.51100000000E-03 0.  1.
         23    2    1    2    0    0  0.00000000000E+00  0.44408920985E-15  0.00000000000E+00  0.91188000000E+02  0.91188000000E+02 0.  0.
    9900012    2    3    3    0    0  0.24225888075E+02  0.30012237060E+01  0.37857793176E+02  0.46142317622E+02  0.99999987318E+01 0.  0.
        -12    1    3    3    0    0 -0.24225888075E+02 -0.30012237060E+01 -0.37857793176E+02  0.45045682378E+02  0.00000000000E+00 0.  1.
         11    1    4    4    0    0  0.57136302315E+01  0.88706493104E+00  0.13706125141E+02  0.14875830103E+02  0.51100000000E-03 0. -1.
        -11    1    4    4    0    0  0.15531116927E+01 -0.17150665403E+01  0.17052369711E+01  0.28742725265E+01  0.51100000000E-03 0.  1.
         12    1    4    4    0    0  0.16959146151E+02  0.38292253154E+01  0.22446431064E+02  0.28392214992E+02  0.00000000000E+00 0. -1.
</event>
<event>
 8    1  0.8828843E-009  0.9118800E+02  0.7816164E-02  0.1184000E+00
        -11   -1    0    0    0    0  0.00000000000E+00  0.00000000000E+00  0.45593999997E+02  0.45594000000E+02  0.51100000000E-03 0. -1.
         11   -1    0    0    0    0 -0.00000000000E+00 -0.00000000000E+00 -0.45593999997E+02  0.45594000000E+02  0.51100000000E-03 0.  1.
         23    2    1    2    0    0  0.00000000000E+00  0.00000000000E+00  0.00000000000E+00  0.91188000000E+02  0.91188000000E+02 0.  0.
    9900012    2    3    3    0    0  0.24058139980E+02  0.11194759580E+02  0.36400504175E+02  0.46142318236E+02  0.10000004334E+02 0.  0.
        -12    1    3    3    0    0 -0.24058139980E+02 -0.11194759580E+02 -0.36400504175E+02  0.45045681764E+02  0.00000000000E+00 0.  1.
         11    1    4    4    0    0  0.17709794913E+02  0.80029358172E+01  0.28860391590E+02  0.34793764105E+02  0.51100000000E-03 0. -1.
        -11    1    4    4    0    0  0.56207937360E+01  0.76270753916E+00  0.37913086317E+01  0.68226876240E+01  0.51100000000E-03 0.  1.
         12    1    4    4    0    0  0.72755133048E+00  0.24291162235E+01  0.37488039533E+01  0.45258665078E+01  0.00000000000E+00 0. -1.
</event>
<event>
 8    1  0.8828843E-009  0.9118800E+02  0.7816164E-02  0.1184000E+00
        -11   -1    0    0    0    0  0.00000000000E+00  0.00000000000E+00  0.45593999997E+02  0.45594000000E+02  0.51100000000E-03 0. -1.
         11   -1    0    0    0    0 -0.00000000000E+00 -0.00000000000E+00 -0.45593999997E+02  0.45594000000E+02  0.51100000000E-03 0.  1.
         23    2    1    2    0    0  0.00000000000E+00  0.00000000000E+00  0.00000000000E+00  0.91188000000E+02  0.91188000000E+02 0.  0.
    9900012    2    3    3    0    0 -0.17612388548E+02  0.34500842888E+02 -0.22991499695E+02  0.46142318203E+02  0.10000004029E+02 0.  0.
         12    1    3    3    0    0  0.17612388548E+02 -0.34500842888E+02  0.22991499695E+02  0.45045681797E+02  0.00000000000E+00 0. -1.
         11    1    4    4    0    0 -0.79620621203E+01  0.23131614432E+02 -0.11208720573E+02  0.26909132959E+02  0.51100000000E-03 0. -1.
        -11    1    4    4    0    0 -0.53847522713E+01  0.70857285636E+01 -0.52507088953E+01  0.10333104590E+02  0.51100000000E-03 0.  1.
         12    1    4    4    0    0 -0.42655741565E+01  0.42834998922E+01 -0.65320702261E+01  0.89000806541E+01  0.00000000000E+00 0. -1.
</event>
<event>
 8    1  0.8828843E-009  0.9118800E+02  0.7816164E-02  0.1184000E+00
        -11   -1    0    0    0    0  0.00000000000E+00  0.00000000000E+00  0.45593999997E+02  0.45594000000E+02  0.51100000000E-03 0. -1.
         11   -1    0    0    0    0 -0.00000000000E+00 -0.00000000000E+00 -0.45593999997E+02  0.45594000000E+02  0.51100000000E-03 0.  1.
         23    2    1    2    0    0  0.00000000000E+00 -0.88817841970E-15  0.00000000000E+00  0.91188000000E+02  0.91188000000E+02 0.  0.
    9900012    2    3    3    0    0 -0.21010161443E+02 -0.68512648658E+01  0.39252336145E+02  0.46142327545E+02  0.10000089213E+02 0.  0.
        -12    1    3    3    0    0  0.21010161443E+02  0.68512648658E+01 -0.39252336145E+02  0.45045672455E+02  0.00000000000E+00 0.  1.
         11    1    4    4    0    0 -0.10976637823E+01 -0.91483992622E+00  0.18622862309E+01  0.23473193512E+01  0.51100000000E-03 0. -1.
        -11    1    4    4    0    0 -0.93757787129E+01 -0.66996088560E+01  0.14019406840E+02  0.18147555033E+02  0.51100000000E-03 0.  1.
         12    1    4    4    0    0 -0.10536718947E+02  0.76318391647E+00  0.23370643075E+02  0.25647453160E+02  0.00000000000E+00 0. -1.
</event>
<event>
 8    1  0.8828843E-009  0.9118800E+02  0.7816164E-02  0.1184000E+00
        -11   -1    0    0    0    0  0.00000000000E+00  0.00000000000E+00  0.45593999997E+02  0.45594000000E+02  0.51100000000E-03 0. -1.
         11   -1    0    0    0    0 -0.00000000000E+00 -0.00000000000E+00 -0.45593999997E+02  0.45594000000E+02  0.51100000000E-03 0.  1.
         23    2    1    2    0    0  0.00000000000E+00 -0.88817841970E-15  0.00000000000E+00  0.91188000000E+02  0.91188000000E+02 0.  0.
    9900012    2    3    3    0    0 -0.44399199126E+02 -0.58849712391E+01 -0.48158522717E+01  0.46142309833E+02  0.99999277046E+01 0.  0.
         12    1    3    3    0    0  0.44399199126E+02  0.58849712391E+01  0.48158522717E+01  0.45045690167E+02  0.00000000000E+00 0. -1.
         11    1    4    4    0    0 -0.86037800703E+01 -0.90588266056E+00 -0.25995668711E+00  0.86552430718E+01  0.51100000000E-03 0. -1.
        -11    1    4    4    0    0 -0.29346931259E+02 -0.95928691989E+00 -0.18498770902E+01  0.29420820029E+02  0.51100000000E-03 0.  1.
         12    1    4    4    0    0 -0.64484877972E+01 -0.40198016586E+01 -0.27060184944E+01  0.80662467317E+01  0.00000000000E+00 0. -1.
</event>
<event>
 8    1  0.8828843E-009  0.9118800E+02  0.7816164E-02  0.1184000E+00
        -11   -1    0    0    0    0  0.00000000000E+00  0.00000000000E+00  0.45593999997E+02  0.45594000000E+02  0.51100000000E-03 0. -1.
         11   -1    0    0    0    0 -0.00000000000E+00 -0.00000000000E+00 -0.45593999997E+02  0.45594000000E+02  0.51100000000E-03 0.  1.
         23    2    1    2    0    0  0.88817841970E-15  0.22204460493E-15  0.14210854715E-13  0.91188000000E+02  0.91188000000E+02 0.  0.
    9900012    2    3    3    0    0  0.74991676587E+01  0.11717045093E+01  0.44401612695E+02  0.46142316334E+02  0.99999869895E+01 0.  0.
        -12    1    3    3    0    0 -0.74991676587E+01 -0.11717045093E+01 -0.44401612695E+02  0.45045683666E+02  0.00000000000E+00 0.  1.
         11    1    4    4    0    0  0.27589000315E+01 -0.44633136632E+00  0.90497408124E+01  0.94714597663E+01  0.51100000000E-03 0. -1.
        -11    1    4    4    0    0  0.21318804860E+01 -0.26559369659E+00  0.13941977778E+01  0.25611017400E+01  0.51100000000E-03 0.  1.
        -12    1    4    4    0    0  0.26083871412E+01  0.18836295722E+01  0.33957674104E+02  0.34109754828E+02  0.00000000000E+00 0.  1.
</event>
<event>
 8    1  0.8828843E-009  0.9118800E+02  0.7816164E-02  0.1184000E+00
        -11   -1    0    0    0    0  0.00000000000E+00  0.00000000000E+00  0.45593999997E+02  0.45594000000E+02  0.51100000000E-03 0. -1.
         11   -1    0    0    0    0 -0.00000000000E+00 -0.00000000000E+00 -0.45593999997E+02  0.45594000000E+02  0.51100000000E-03 0.  1.
         23    2    1    2    0    0  0.00000000000E+00  0.00000000000E+00  0.71054273576E-14  0.91188000000E+02  0.91188000000E+02 0.  0.
    9900012    2    3    3    0    0 -0.85911264678E+01  0.18144365254E+02 -0.40324785508E+02  0.46142314627E+02  0.99999714222E+01 0.  0.
         12    1    3    3    0    0  0.85911264678E+01 -0.18144365254E+02  0.40324785508E+02  0.45045685373E+02  0.00000000000E+00 0. -1.
         11    1    4    4    0    0 -0.31305986198E+01  0.14183961848E+00 -0.93381311159E+01  0.98499471671E+01  0.51100000000E-03 0. -1.
        -11    1    4    4    0    0 -0.10944762533E+01  0.28142466508E+01 -0.62027299846E+01  0.68986753803E+01  0.51100000000E-03 0.  1.
         12    1    4    4    0    0 -0.43660515947E+01  0.15188278985E+02 -0.24783924407E+02  0.29393692080E+02  0.00000000000E+00 0. -1.
</event>
<event>
 8    1  0.8828843E-009  0.9118800E+02  0.7816164E-02  0.1184000E+00
        -11   -1    0    0    0    0  0.00000000000E+00  0.00000000000E+00  0.45593999997E+02  0.45594000000E+02  0.51100000000E-03 0. -1.
         11   -1    0    0    0    0 -0.00000000000E+00 -0.00000000000E+00 -0.45593999997E+02  0.45594000000E+02  0.51100000000E-03 0.  1.
         23    2    1    2    0    0  0.35527136788E-14  0.00000000000E+00  0.00000000000E+00  0.91188000000E+02  0.91188000000E+02 0.  0.
    9900012    2    3    3    0    0 -0.29392773356E+02 -0.25909953714E+02  0.22222796975E+02  0.46142317273E+02  0.99999955453E+01 0.  0.
        -12    1    3    3    0    0  0.29392773356E+02  0.25909953714E+02 -0.22222796975E+02  0.45045682727E+02  0.00000000000E+00 0.  1.
         11    1    4    4    0    0 -0.15748392780E+02 -0.95741298602E+01  0.98470030092E+01  0.20895916019E+02  0.51100000000E-03 0. -1.
        -11    1    4    4    0    0 -0.14672044913E+01 -0.20379779484E+00 -0.11579571572E+00  0.14858100381E+01  0.51100000000E-03 0.  1.
         12    1    4    4    0    0 -0.12177176084E+02 -0.16132026059E+02  0.12491589681E+02  0.23760591216E+02  0.00000000000E+00 0. -1.
</event>
<event>
 8    1  0.8828843E-009  0.9118800E+02  0.7816164E-02  0.1184000E+00
        -11   -1    0    0    0    0  0.00000000000E+00  0.00000000000E+00  0.45593999997E+02  0.45594000000E+02  0.51100000000E-03 0. -1.
         11   -1    0    0    0    0 -0.00000000000E+00 -0.00000000000E+00 -0.45593999997E+02  0.45594000000E+02  0.51100000000E-03 0.  1.
         23    2    1    2    0    0  0.35527136788E-14  0.00000000000E+00  0.00000000000E+00  0.91188000000E+02  0.91188000000E+02 0.  0.
    9900012    2    3    3    0    0 -0.20011602806E+02 -0.16696470530E+02  0.36740673685E+02  0.46142317877E+02  0.10000001060E+02 0.  0.
        -12    1    3    3    0    0  0.20011602806E+02  0.16696470530E+02 -0.36740673685E+02  0.45045682123E+02  0.00000000000E+00 0.  1.
         11    1    4    4    0    0 -0.38760655484E+01 -0.29334584114E+01  0.45093399577E+01  0.66304758127E+01  0.51100000000E-03 0.  1.
        -11    1    4    4    0    0 -0.19672355119E+01 -0.50321087216E+01  0.39342870027E+01  0.66836178994E+01  0.51100000000E-03 0. -1.
         12    1    4    4    0    0 -0.14168301745E+02 -0.87309033975E+01  0.28297046725E+02  0.32828224165E+02  0.00000000000E+00 0. -1.
</event>
<event>
 8    1  0.8828843E-009  0.9118800E+02  0.7816164E-02  0.1184000E+00
        -11   -1    0    0    0    0  0.00000000000E+00  0.00000000000E+00  0.45593999997E+02  0.45594000000E+02  0.51100000000E-03 0. -1.
         11   -1    0    0    0    0 -0.00000000000E+00 -0.00000000000E+00 -0.45593999997E+02  0.45594000000E+02  0.51100000000E-03 0.  1.
         23    2    1    2    0    0  0.35527136788E-14  0.35527136788E-14  0.35527136788E-14  0.91188000000E+02  0.91188000000E+02 0.  0.
    9900012    2    3    3    0    0  0.17013656661E+02  0.29341067174E+02  0.29643722140E+02  0.46142323202E+02  0.10000049612E+02 0.  0.
        -12    1    3    3    0    0 -0.17013656661E+02 -0.29341067174E+02 -0.29643722140E+02  0.45045676798E+02  0.00000000000E+00 0.  1.
         11    1    4    4    0    0 -0.52160191996E+00  0.13514043353E+01  0.11202583124E-01  0.14486158909E+01  0.51100000000E-03 0. -1.
        -11    1    4    4    0    0  0.40646018613E+01  0.30828898475E+01  0.53389191771E+01  0.73843927539E+01  0.51100000000E-03 0.  1.
         12    1    4    4    0    0  0.13470656720E+02  0.24906772991E+02  0.24293600380E+02  0.37309314557E+02  0.00000000000E+00 0. -1.
</event>
<event>
 8    1  0.8828843E-009  0.9118800E+02  0.7816164E-02  0.1184000E+00
        -11   -1    0    0    0    0  0.00000000000E+00  0.00000000000E+00  0.45593999997E+02  0.45594000000E+02  0.51100000000E-03 0. -1.
         11   -1    0    0    0    0 -0.00000000000E+00 -0.00000000000E+00 -0.45593999997E+02  0.45594000000E+02  0.51100000000E-03 0.  1.
         23    2    1    2    0    0 -0.35527136788E-14  0.00000000000E+00 -0.35527136788E-14  0.91188000000E+02  0.91188000000E+02 0.  0.
    9900012    2    3    3    0    0 -0.24746733621E+02 -0.28030503778E+02 -0.25119783684E+02  0.46142317640E+02  0.99999988946E+01 0.  0.
         12    1    3    3    0    0  0.24746733621E+02  0.28030503778E+02  0.25119783684E+02  0.45045682360E+02  0.00000000000E+00 0. -1.
         11    1    4    4    0    0 -0.68142641637E+00 -0.10913940946E+01 -0.28835577625E+01  0.31575922254E+01  0.51100000000E-03 0. -1.
        -11    1    4    4    0    0 -0.83902821155E+01 -0.54997372091E+01 -0.41716904652E+01  0.10864941093E+02  0.51100000000E-03 0.  1.
        -12    1    4    4    0    0 -0.15675025089E+02 -0.21439372475E+02 -0.18064535456E+02  0.32119784322E+02  0.00000000000E+00 0.  1.
</event>
<event>
 8    1  0.8828843E-009  0.9118800E+02  0.7816164E-02  0.1184000E+00
        -11   -1    0    0    0    0  0.00000000000E+00  0.00000000000E+00  0.45593999997E+02  0.45594000000E+02  0.51100000000E-03 0. -1.
         11   -1    0    0    0    0 -0.00000000000E+00 -0.00000000000E+00 -0.45593999997E+02  0.45594000000E+02  0.51100000000E-03 0.  1.
         23    2    1    2    0    0  0.00000000000E+00  0.88817841970E-15  0.00000000000E+00  0.91188000000E+02  0.91188000000E+02 0.  0.
    9900012    2    3    3    0    0  0.26752606749E+02 -0.73313764559E+01  0.35491724287E+02  0.46142317172E+02  0.99999946303E+01 0.  0.
        -12    1    3    3    0    0 -0.26752606749E+02  0.73313764559E+01 -0.35491724287E+02  0.45045682828E+02  0.00000000000E+00 0.  1.
         11    1    4    4    0    0  0.22251570734E+02 -0.39787739520E+01  0.27391534608E+02  0.35514211391E+02  0.51100000000E-03 0. -1.
        -11    1    4    4    0    0  0.35539316782E+01 -0.28286716256E+01  0.83606495956E+01  0.95148450045E+01  0.51100000000E-03 0.  1.
        -12    1    4    4    0    0  0.94710433648E+00 -0.52393087822E+00 -0.26045991659E+00  0.11132607769E+01  0.00000000000E+00 0.  1.
</event>
<event>
 8    1  0.8828843E-009  0.9118800E+02  0.7816164E-02  0.1184000E+00
        -11   -1    0    0    0    0  0.00000000000E+00  0.00000000000E+00  0.45593999997E+02  0.45594000000E+02  0.51100000000E-03 0. -1.
         11   -1    0    0    0    0 -0.00000000000E+00 -0.00000000000E+00 -0.45593999997E+02  0.45594000000E+02  0.51100000000E-03 0.  1.
         23    2    1    2    0    0 -0.35527136788E-14 -0.35527136788E-14  0.00000000000E+00  0.91188000000E+02  0.91188000000E+02 0.  0.
    9900012    2    3    3    0    0 -0.27474936123E+02 -0.17389955072E+02 -0.31174201328E+02  0.46142317845E+02  0.10000000764E+02 0.  0.
         12    1    3    3    0    0  0.27474936123E+02  0.17389955072E+02  0.31174201328E+02  0.45045682155E+02  0.00000000000E+00 0. -1.
         11    1    4    4    0    0 -0.27682332764E+01 -0.77507536259E+00 -0.19349377569E+01  0.34652332785E+01  0.51100000000E-03 0. -1.
        -11    1    4    4    0    0 -0.17582598085E+02 -0.10191422832E+02 -0.14028779848E+02  0.24694524070E+02  0.51100000000E-03 0.  1.
        -12    1    4    4    0    0 -0.71241047615E+01 -0.64234568772E+01 -0.15210483723E+02  0.17982560496E+02  0.00000000000E+00 0.  1.
</event>
<event>
 8    1  0.8828843E-009  0.9118800E+02  0.7816164E-02  0.1184000E+00
        -11   -1    0    0    0    0  0.00000000000E+00  0.00000000000E+00  0.45593999997E+02  0.45594000000E+02  0.51100000000E-03 0. -1.
         11   -1    0    0    0    0 -0.00000000000E+00 -0.00000000000E+00 -0.45593999997E+02  0.45594000000E+02  0.51100000000E-03 0.  1.
         23    2    1    2    0    0  0.00000000000E+00  0.00000000000E+00  0.00000000000E+00  0.91188000000E+02  0.91188000000E+02 0.  0.
    9900012    2    3    3    0    0 -0.10177265776E+02 -0.27117123394E+02 -0.34499251395E+02  0.46142318002E+02  0.10000002199E+02 0.  0.
         12    1    3    3    0    0  0.10177265776E+02  0.27117123394E+02  0.34499251395E+02  0.45045681998E+02  0.00000000000E+00 0. -1.
         11    1    4    4    0    0 -0.10750319292E+01 -0.99424132756E+00 -0.18246469349E+01  0.23395611051E+01  0.51100000000E-03 0.  1.
        -11    1    4    4    0    0 -0.40601430225E+01 -0.58242077204E+01 -0.14287012235E+02  0.15953835771E+02  0.51100000000E-03 0. -1.
        -12    1    4    4    0    0 -0.50420908246E+01 -0.20298674346E+02 -0.18387592225E+02  0.27848921127E+02  0.00000000000E+00 0.  1.
</event>
<event>
 8    1  0.8828843E-009  0.9118800E+02  0.7816164E-02  0.1184000E+00
        -11   -1    0    0    0    0  0.00000000000E+00  0.00000000000E+00  0.45593999997E+02  0.45594000000E+02  0.51100000000E-03 0. -1.
         11   -1    0    0    0    0 -0.00000000000E+00 -0.00000000000E+00 -0.45593999997E+02  0.45594000000E+02  0.51100000000E-03 0.  1.
         23    2    1    2    0    0 -0.35527136788E-14  0.00000000000E+00  0.00000000000E+00  0.91188000000E+02  0.91188000000E+02 0.  0.
    9900012    2    3    3    0    0  0.25338013167E+02  0.26181243654E+02 -0.26488509057E+02  0.46142317160E+02  0.99999945147E+01 0.  0.
         12    1    3    3    0    0 -0.25338013167E+02 -0.26181243654E+02  0.26488509057E+02  0.45045682840E+02  0.00000000000E+00 0. -1.
         11    1    4    4    0    0  0.99826905966E+00  0.18834289274E+01  0.44610422142E+00  0.21778096514E+01  0.51100000000E-03 0. -1.
        -11    1    4    4    0    0  0.13490373465E+02  0.12652879873E+02 -0.17500220167E+02  0.25462585326E+02  0.51100000000E-03 0.  1.
         12    1    4    4    0    0  0.10849370642E+02  0.11644934854E+02 -0.94343931108E+01  0.18501922182E+02  0.00000000000E+00 0. -1.
</event>
<event>
 8    1  0.8828843E-009  0.9118800E+02  0.7816164E-02  0.1184000E+00
        -11   -1    0    0    0    0  0.00000000000E+00  0.00000000000E+00  0.45593999997E+02  0.45594000000E+02  0.51100000000E-03 0. -1.
         11   -1    0    0    0    0 -0.00000000000E+00 -0.00000000000E+00 -0.45593999997E+02  0.45594000000E+02  0.51100000000E-03 0.  1.
         23    2    1    2    0    0 -0.17763568394E-14  0.44408920985E-15 -0.71054273576E-14  0.91188000000E+02  0.91188000000E+02 0.  0.
    9900012    2    3    3    0    0  0.13621094596E+02 -0.24124183151E+01  0.42869097769E+02  0.46142317370E+02  0.99999964304E+01 0.  0.
        -12    1    3    3    0    0 -0.13621094596E+02  0.24124183151E+01 -0.42869097769E+02  0.45045682630E+02  0.00000000000E+00 0.  1.
         11    1    4    4    0    0  0.20527292018E+01  0.11912191901E+01  0.24221887694E+01  0.33911206157E+01  0.51100000000E-03 0. -1.
        -11    1    4    4    0    0  0.83985424023E+01  0.37481489110E+00  0.20297973795E+02  0.21970064660E+02  0.51100000000E-03 0.  1.
         12    1    4    4    0    0  0.31698229923E+01 -0.39784523963E+01  0.20148935204E+02  0.20781132094E+02  0.00000000000E+00 0. -1.
</event>
<event>
 8    1  0.8828843E-009  0.9118800E+02  0.7816164E-02  0.1184000E+00
        -11   -1    0    0    0    0  0.00000000000E+00  0.00000000000E+00  0.45593999997E+02  0.45594000000E+02  0.51100000000E-03 0. -1.
         11   -1    0    0    0    0 -0.00000000000E+00 -0.00000000000E+00 -0.45593999997E+02  0.45594000000E+02  0.51100000000E-03 0.  1.
         23    2    1    2    0    0  0.00000000000E+00  0.00000000000E+00  0.71054273576E-14  0.91188000000E+02  0.91188000000E+02 0.  0.
    9900012    2    3    3    0    0 -0.25115376734E+02  0.19271649489E+02 -0.32045824638E+02  0.46142317640E+02  0.99999988945E+01 0.  0.
         12    1    3    3    0    0  0.25115376734E+02 -0.19271649489E+02  0.32045824638E+02  0.45045682360E+02  0.00000000000E+00 0. -1.
         11    1    4    4    0    0 -0.11977852089E+02  0.66606874154E+01 -0.96608978853E+01  0.16768024503E+02  0.51100000000E-03 0. -1.
        -11    1    4    4    0    0 -0.72345815948E+01  0.35133360853E+01 -0.11267648087E+02  0.13843503711E+02  0.51100000000E-03 0.  1.
        -12    1    4    4    0    0 -0.59029430502E+01  0.90976259885E+01 -0.11117278665E+02  0.15530789426E+02  0.00000000000E+00 0.  1.
</event>
<event>
 8    1  0.8828843E-009  0.9118800E+02  0.7816164E-02  0.1184000E+00
        -11   -1    0    0    0    0  0.00000000000E+00  0.00000000000E+00  0.45593999997E+02  0.45594000000E+02  0.51100000000E-03 0. -1.
         11   -1    0    0    0    0 -0.00000000000E+00 -0.00000000000E+00 -0.45593999997E+02  0.45594000000E+02  0.51100000000E-03 0.  1.
         23    2    1    2    0    0  0.88817841970E-15 -0.88817841970E-15  0.00000000000E+00  0.91188000000E+02  0.91188000000E+02 0.  0.
    9900012    2    3    3    0    0  0.63350820504E+01  0.65687710709E+01  0.44111581397E+02  0.46142316175E+02  0.99999855352E+01 0.  0.
        -12    1    3    3    0    0 -0.63350820504E+01 -0.65687710709E+01 -0.44111581397E+02  0.45045683825E+02  0.00000000000E+00 0.  1.
         11    1    4    4    0    0  0.12658600378E+01  0.21247383593E+00  0.17108452769E+01  0.21388171004E+01  0.51100000000E-03 0. -1.
        -11    1    4    4    0    0  0.43694473493E+00  0.35943243319E+01  0.47716374999E+01  0.59898758581E+01  0.51100000000E-03 0.  1.
         12    1    4    4    0    0  0.46322772776E+01  0.27619729031E+01  0.37629098620E+02  0.38013623216E+02  0.00000000000E+00 0. -1.
</event>
<event>
 8    1  0.8828843E-009  0.9118800E+02  0.7816164E-02  0.1184000E+00
        -11   -1    0    0    0    0  0.00000000000E+00  0.00000000000E+00  0.45593999997E+02  0.45594000000E+02  0.51100000000E-03 0. -1.
         11   -1    0    0    0    0 -0.00000000000E+00 -0.00000000000E+00 -0.45593999997E+02  0.45594000000E+02  0.51100000000E-03 0.  1.
         23    2    1    2    0    0  0.35527136788E-14 -0.35527136788E-14  0.00000000000E+00  0.91188000000E+02  0.91188000000E+02 0.  0.
    9900012    2    3    3    0    0 -0.26131416770E+02 -0.25790525850E+02 -0.26098111207E+02  0.46142316804E+02  0.99999912725E+01 0.  0.
         12    1    3    3    0    0  0.26131416770E+02  0.25790525850E+02  0.26098111207E+02  0.45045683196E+02  0.00000000000E+00 0. -1.
         11    1    4    4    0    0 -0.53792499302E+01 -0.46319704112E+01 -0.10204012051E+02  0.12430339573E+02  0.51100000000E-03 0. -1.
        -11    1    4    4    0    0 -0.10640072184E+02 -0.12501726650E+02 -0.85834085721E+01  0.18525096714E+02  0.51100000000E-03 0.  1.
         12    1    4    4    0    0 -0.10112094656E+02 -0.86568287892E+01 -0.73106905839E+01  0.15186880516E+02  0.00000000000E+00 0. -1.
</event>
<event>
 8    1  0.8828843E-009  0.9118800E+02  0.7816164E-02  0.1184000E+00
        -11   -1    0    0    0    0  0.00000000000E+00  0.00000000000E+00  0.45593999997E+02  0.45594000000E+02  0.51100000000E-03 0. -1.
         11   -1    0    0    0    0 -0.00000000000E+00 -0.00000000000E+00 -0.45593999997E+02  0.45594000000E+02  0.51100000000E-03 0.  1.
         23    2    1    2    0    0  0.00000000000E+00  0.35527136788E-14 -0.71054273576E-14  0.91188000000E+02  0.91188000000E+02 0.  0.
    9900012    2    3    3    0    0  0.19732235523E+02  0.17757441813E+02  0.36392667680E+02  0.46142310757E+02  0.99999361342E+01 0.  0.
        -12    1    3    3    0    0 -0.19732235523E+02 -0.17757441813E+02 -0.36392667680E+02  0.45045689243E+02  0.00000000000E+00 0.  1.
         11    1    4    4    0    0  0.17370109643E+02  0.16598586698E+02  0.31074183727E+02  0.39278985271E+02  0.51100000000E-03 0. -1.
        -11    1    4    4    0    0  0.25184538790E+01  0.21589491630E+01  0.38856735682E+01  0.51090244439E+01  0.51100000000E-03 0.  1.
        -12    1    4    4    0    0 -0.15632799844E+00 -0.10000940482E+01  0.14328103851E+01  0.17543010426E+01  0.00000000000E+00 0.  1.
</event>
<event>
 8    1  0.8828843E-009  0.9118800E+02  0.7816164E-02  0.1184000E+00
        -11   -1    0    0    0    0  0.00000000000E+00  0.00000000000E+00  0.45593999997E+02  0.45594000000E+02  0.51100000000E-03 0. -1.
         11   -1    0    0    0    0 -0.00000000000E+00 -0.00000000000E+00 -0.45593999997E+02  0.45594000000E+02  0.51100000000E-03 0.  1.
         23    2    1    2    0    0  0.17763568394E-14  0.00000000000E+00  0.00000000000E+00  0.91188000000E+02  0.91188000000E+02 0.  0.
    9900012    2    3    3    0    0  0.85373599358E+01  0.75832618207E+01  0.43574317203E+02  0.46142317696E+02  0.99999994103E+01 0.  0.
        -12    1    3    3    0    0 -0.85373599358E+01 -0.75832618207E+01 -0.43574317203E+02  0.45045682304E+02  0.00000000000E+00 0.  1.
         11    1    4    4    0    0  0.64310092240E+01  0.19396693339E+01  0.17817647492E+02  0.19041763552E+02  0.51100000000E-03 0. -1.
        -11    1    4    4    0    0 -0.28246251642E+00  0.60036683075E+01  0.18098545720E+02  0.19070426729E+02  0.51100000000E-03 0.  1.
        -12    1    4    4    0    0  0.23888132282E+01 -0.36007582073E+00  0.76581239913E+01  0.80301274150E+01  0.00000000000E+00 0.  1.
</event>
<event>
 8    1  0.8828843E-009  0.9118800E+02  0.7816164E-02  0.1184000E+00
        -11   -1    0    0    0    0  0.00000000000E+00  0.00000000000E+00  0.45593999997E+02  0.45594000000E+02  0.51100000000E-03 0.  1.
         11   -1    0    0    0    0 -0.00000000000E+00 -0.00000000000E+00 -0.45593999997E+02  0.45594000000E+02  0.51100000000E-03 0. -1.
         23    2    1    2    0    0  0.00000000000E+00  0.00000000000E+00  0.00000000000E+00  0.91188000000E+02  0.91188000000E+02 0.  0.
    9900012    2    3    3    0    0 -0.38122298939E+02  0.14447374545E+02 -0.19159259771E+02  0.46142317159E+02  0.99999945077E+01 0.  0.
         12    1    3    3    0    0  0.38122298939E+02 -0.14447374545E+02  0.19159259771E+02  0.45045682841E+02  0.00000000000E+00 0. -1.
         11    1    4    4    0    0 -0.59937081141E+01  0.34955818780E+01 -0.48667946598E+00  0.69556082973E+01  0.51100000000E-03 0. -1.
        -11    1    4    4    0    0 -0.94220136283E+01  0.63749361272E+00 -0.40388732392E+01  0.10270990031E+02  0.51100000000E-03 0.  1.
        -12    1    4    4    0    0 -0.22706577197E+02  0.10314299054E+02 -0.14633707066E+02  0.28915718830E+02  0.00000000000E+00 0.  1.
</event>
<event>
 8    1  0.8828843E-009  0.9118800E+02  0.7816164E-02  0.1184000E+00
        -11   -1    0    0    0    0  0.00000000000E+00  0.00000000000E+00  0.45593999997E+02  0.45594000000E+02  0.51100000000E-03 0.  1.
         11   -1    0    0    0    0 -0.00000000000E+00 -0.00000000000E+00 -0.45593999997E+02  0.45594000000E+02  0.51100000000E-03 0. -1.
         23    2    1    2    0    0  0.71054273576E-14 -0.35527136788E-14  0.00000000000E+00  0.91188000000E+02  0.91188000000E+02 0.  0.
    9900012    2    3    3    0    0  0.38051551804E+02  0.24089885834E+02  0.93290452394E+00  0.46142317576E+02  0.99999983129E+01 0.  0.
         12    1    3    3    0    0 -0.38051551804E+02 -0.24089885834E+02 -0.93290452394E+00  0.45045682424E+02  0.00000000000E+00 0. -1.
         11    1    4    4    0    0  0.25284307832E+01 -0.26003821375E+00  0.11280056010E+01  0.27808234383E+01  0.51100000000E-03 0. -1.
        -11    1    4    4    0    0  0.83129155857E+01  0.35139017400E+01 -0.10017953422E+01  0.90805101807E+01  0.51100000000E-03 0.  1.
         12    1    4    4    0    0  0.27210205435E+02  0.20836022308E+02  0.80669426517E+00  0.34280983957E+02  0.00000000000E+00 0. -1.
</event>
<event>
 8    1  0.8828843E-009  0.9118800E+02  0.7816164E-02  0.1184000E+00
        -11   -1    0    0    0    0  0.00000000000E+00  0.00000000000E+00  0.45593999997E+02  0.45594000000E+02  0.51100000000E-03 0.  1.
         11   -1    0    0    0    0 -0.00000000000E+00 -0.00000000000E+00 -0.45593999997E+02  0.45594000000E+02  0.51100000000E-03 0. -1.
         23    2    1    2    0    0  0.00000000000E+00  0.00000000000E+00  0.35527136788E-14  0.91188000000E+02  0.91188000000E+02 0.  0.
    9900012    2    3    3    0    0 -0.21361482070E+02 -0.27227329099E+02 -0.28835276336E+02  0.46142317327E+02  0.99999960394E+01 0.  0.
         12    1    3    3    0    0  0.21361482070E+02  0.27227329099E+02  0.28835276336E+02  0.45045682673E+02  0.00000000000E+00 0. -1.
         11    1    4    4    0    0 -0.99853535287E+01 -0.13585635862E+02 -0.10425803195E+02  0.19823575847E+02  0.51100000000E-03 0. -1.
        -11    1    4    4    0    0 -0.14950331838E+01 -0.38929028741E+01 -0.14770922057E+01  0.44239822167E+01  0.51100000000E-03 0.  1.
         12    1    4    4    0    0 -0.98810953579E+01 -0.97487903631E+01 -0.16932380936E+02  0.21894759263E+02  0.00000000000E+00 0. -1.
</event>
<event>
 8    1  0.8828843E-009  0.9118800E+02  0.7816164E-02  0.1184000E+00
        -11   -1    0    0    0    0  0.00000000000E+00  0.00000000000E+00  0.45593999997E+02  0.45594000000E+02  0.51100000000E-03 0. -1.
         11   -1    0    0    0    0 -0.00000000000E+00 -0.00000000000E+00 -0.45593999997E+02  0.45594000000E+02  0.51100000000E-03 0.  1.
         23    2    1    2    0    0  0.17763568394E-14  0.00000000000E+00  0.00000000000E+00  0.91188000000E+02  0.91188000000E+02 0.  0.
    9900012    2    3    3    0    0  0.15956994814E+02 -0.78177820603E+01 -0.41392883847E+02  0.46142309495E+02  0.99999246237E+01 0.  0.
         12    1    3    3    0    0 -0.15956994814E+02  0.78177820603E+01  0.41392883847E+02  0.45045690505E+02  0.00000000000E+00 0. -1.
         11    1    4    4    0    0 -0.11210719142E+01 -0.11588075383E+00 -0.67171962941E+00  0.13120358637E+01  0.51100000000E-03 0. -1.
        -11    1    4    4    0    0  0.10891264171E+02 -0.50041819916E+01 -0.25207244291E+02  0.27911765219E+02  0.51100000000E-03 0.  1.
         12    1    4    4    0    0  0.61868025581E+01 -0.26977193149E+01 -0.15513919927E+02  0.16918508412E+02  0.00000000000E+00 0. -1.
</event>
<event>
 8    1  0.8828843E-009  0.9118800E+02  0.7816164E-02  0.1184000E+00
        -11   -1    0    0    0    0  0.00000000000E+00  0.00000000000E+00  0.45593999997E+02  0.45594000000E+02  0.51100000000E-03 0. -1.
         11   -1    0    0    0    0 -0.00000000000E+00 -0.00000000000E+00 -0.45593999997E+02  0.45594000000E+02  0.51100000000E-03 0.  1.
         23    2    1    2    0    0  0.00000000000E+00  0.44408920985E-15  0.00000000000E+00  0.91188000000E+02  0.91188000000E+02 0.  0.
    9900012    2    3    3    0    0 -0.29053613972E+02 -0.31884509402E+01 -0.34275863579E+02  0.46142317317E+02  0.99999959535E+01 0.  0.
         12    1    3    3    0    0  0.29053613972E+02  0.31884509402E+01  0.34275863579E+02  0.45045682683E+02  0.00000000000E+00 0. -1.
         11    1    4    4    0    0 -0.92237107101E+01 -0.36625578133E+01 -0.10320241602E+02  0.14317770636E+02  0.51100000000E-03 0. -1.
        -11    1    4    4    0    0 -0.58548035968E+01  0.33593695956E+00 -0.28732000659E+01  0.65304561616E+01  0.51100000000E-03 0.  1.
        -12    1    4    4    0    0 -0.13975099665E+02  0.13816991357E+00 -0.21082421911E+02  0.25294090520E+02  0.00000000000E+00 0.  1.
</event>
<event>
 8    1  0.8828843E-009  0.9118800E+02  0.7816164E-02  0.1184000E+00
        -11   -1    0    0    0    0  0.00000000000E+00  0.00000000000E+00  0.45593999997E+02  0.45594000000E+02  0.51100000000E-03 0. -1.
         11   -1    0    0    0    0 -0.00000000000E+00 -0.00000000000E+00 -0.45593999997E+02  0.45594000000E+02  0.51100000000E-03 0.  1.
         23    2    1    2    0    0  0.00000000000E+00  0.35527136788E-14  0.00000000000E+00  0.91188000000E+02  0.91188000000E+02 0.  0.
    9900012    2    3    3    0    0  0.22865097939E+02  0.31335309431E+02 -0.22899762907E+02  0.46142318052E+02  0.10000002655E+02 0.  0.
         12    1    3    3    0    0 -0.22865097939E+02 -0.31335309431E+02  0.22899762907E+02  0.45045681948E+02  0.00000000000E+00 0. -1.
         11    1    4    4    0    0  0.95827194133E+01  0.73487602715E+01 -0.10030474397E+02  0.15698509667E+02  0.51100000000E-03 0. -1.
        -11    1    4    4    0    0  0.56995511887E+01  0.10365132991E+02 -0.38848961945E+01  0.12450433100E+02  0.51100000000E-03 0.  1.
        -12    1    4    4    0    0  0.75828273375E+01  0.13621416169E+02 -0.89843923157E+01  0.17993375286E+02  0.00000000000E+00 0.  1.
</event>
<event>
 8    1  0.8828843E-009  0.9118800E+02  0.7816164E-02  0.1184000E+00
        -11   -1    0    0    0    0  0.00000000000E+00  0.00000000000E+00  0.45593999997E+02  0.45594000000E+02  0.51100000000E-03 0. -1.
         11   -1    0    0    0    0 -0.00000000000E+00 -0.00000000000E+00 -0.45593999997E+02  0.45594000000E+02  0.51100000000E-03 0.  1.
         23    2    1    2    0    0  0.00000000000E+00 -0.35527136788E-14  0.00000000000E+00  0.91188000000E+02  0.91188000000E+02 0.  0.
    9900012    2    3    3    0    0  0.35605158492E+02  0.25712398511E+02  0.10012927813E+02  0.46142317944E+02  0.10000001672E+02 0.  0.
        -12    1    3    3    0    0 -0.35605158492E+02 -0.25712398511E+02 -0.10012927813E+02  0.45045682056E+02  0.00000000000E+00 0.  1.
         11    1    4    4    0    0  0.15636628003E+02  0.11662486762E+02  0.78729233073E+01  0.21035699524E+02  0.51100000000E-03 0. -1.
        -11    1    4    4    0    0  0.10019421565E+02  0.10214780568E+02  0.19631903419E+01  0.14442460564E+02  0.51100000000E-03 0.  1.
        -12    1    4    4    0    0  0.99491089236E+01  0.38351311812E+01  0.17681416392E+00  0.10664157857E+02  0.00000000000E+00 0.  1.
</event>
<event>
 8    1  0.8828843E-009  0.9118800E+02  0.7816164E-02  0.1184000E+00
        -11   -1    0    0    0    0  0.00000000000E+00  0.00000000000E+00  0.45593999997E+02  0.45594000000E+02  0.51100000000E-03 0. -1.
         11   -1    0    0    0    0 -0.00000000000E+00 -0.00000000000E+00 -0.45593999997E+02  0.45594000000E+02  0.51100000000E-03 0.  1.
         23    2    1    2    0    0  0.00000000000E+00  0.00000000000E+00  0.00000000000E+00  0.91188000000E+02  0.91188000000E+02 0.  0.
    9900012    2    3    3    0    0  0.12601394700E+02  0.35298469239E+01  0.43102880767E+02  0.46142319873E+02  0.10000019260E+02 0.  0.
        -12    1    3    3    0    0 -0.12601394700E+02 -0.35298469239E+01 -0.43102880767E+02  0.45045680127E+02  0.00000000000E+00 0.  1.
         11    1    4    4    0    0  0.74380326177E+01  0.32500668667E+01  0.33842932655E+02  0.34802749242E+02  0.51100000000E-03 0. -1.
        -11    1    4    4    0    0  0.21106074149E+01  0.74551349969E+00  0.74078960707E+01  0.77386935909E+01  0.51100000000E-03 0.  1.
         12    1    4    4    0    0  0.30527546670E+01 -0.46573344248E+00  0.18520520414E+01  0.36008770405E+01  0.00000000000E+00 0. -1.
</event>
<event>
 8    1  0.8828843E-009  0.9118800E+02  0.7816164E-02  0.1184000E+00
        -11   -1    0    0    0    0  0.00000000000E+00  0.00000000000E+00  0.45593999997E+02  0.45594000000E+02  0.51100000000E-03 0.  1.
         11   -1    0    0    0    0 -0.00000000000E+00 -0.00000000000E+00 -0.45593999997E+02  0.45594000000E+02  0.51100000000E-03 0. -1.
         23    2    1    2    0    0  0.00000000000E+00  0.17763568394E-14  0.00000000000E+00  0.91188000000E+02  0.91188000000E+02 0.  0.
    9900012    2    3    3    0    0 -0.39574501788E+02  0.12660436139E+02 -0.17397862259E+02  0.46142318230E+02  0.10000004271E+02 0.  0.
         12    1    3    3    0    0  0.39574501788E+02 -0.12660436139E+02  0.17397862259E+02  0.45045681770E+02  0.00000000000E+00 0. -1.
         11    1    4    4    0    0 -0.29726528006E+01  0.15250994181E+01 -0.42023374594E+01  0.53686342110E+01  0.51100000000E-03 0. -1.
        -11    1    4    4    0    0 -0.11675694950E+02  0.17534767586E+01 -0.24722549291E+01  0.12062693646E+02  0.51100000000E-03 0.  1.
        -12    1    4    4    0    0 -0.24926154037E+02  0.93818599622E+01 -0.10723269871E+02  0.28710990372E+02  0.00000000000E+00 0.  1.
</event>
<event>
 8    1  0.8828843E-009  0.9118800E+02  0.7816164E-02  0.1184000E+00
        -11   -1    0    0    0    0  0.00000000000E+00  0.00000000000E+00  0.45593999997E+02  0.45594000000E+02  0.51100000000E-03 0. -1.
         11   -1    0    0    0    0 -0.00000000000E+00 -0.00000000000E+00 -0.45593999997E+02  0.45594000000E+02  0.51100000000E-03 0.  1.
         23    2    1    2    0    0  0.11102230246E-15  0.00000000000E+00  0.00000000000E+00  0.91188000000E+02  0.91188000000E+02 0.  0.
    9900012    2    3    3    0    0  0.86567962164E+00 -0.11961548798E+02 -0.43419873998E+02  0.46142317534E+02  0.99999979252E+01 0.  0.
         12    1    3    3    0    0 -0.86567962164E+00  0.11961548798E+02  0.43419873998E+02  0.45045682466E+02  0.00000000000E+00 0. -1.
         11    1    4    4    0    0  0.11774032662E+01  0.99829399935E+00 -0.16749067639E+01  0.22777581719E+01  0.51100000000E-03 0. -1.
        -11    1    4    4    0    0 -0.23067454741E+00 -0.19727464865E+01 -0.30484262903E+01  0.36383846079E+01  0.51100000000E-03 0.  1.
        -12    1    4    4    0    0 -0.81049097203E-01 -0.10987096311E+02 -0.38696540944E+02  0.40226174754E+02  0.00000000000E+00 0.  1.
</event>
<event>
 8    1  0.1445718E-008  0.9118800E+02  0.7816164E-02  0.1184000E+00
        -11   -1    0    0    0    0  0.00000000000E+00  0.00000000000E+00  0.45593999997E+02  0.45594000000E+02  0.51100000000E-03 0. -1.
         11   -1    0    0    0    0 -0.00000000000E+00 -0.00000000000E+00 -0.45593999997E+02  0.45594000000E+02  0.51100000000E-03 0.  1.
         23    2    1    2    0    0 -0.88817841970E-15  0.00000000000E+00  0.14210854715E-13  0.91188000000E+02  0.91188000000E+02 0.  0.
    9900012    2    3    3    0    0 -0.55057406821E+01 -0.88419753238E+01  0.43824874802E+02  0.46142319191E+02  0.10000013040E+02 0.  0.
        -12    1    3    3    0    0  0.55057406821E+01  0.88419753238E+01 -0.43824874802E+02  0.45045680809E+02  0.00000000000E+00 0.  1.
         11    1    4    4    0    0 -0.59606249526E+01 -0.38596674403E+01  0.18223581818E+02  0.19558246780E+02  0.51100000000E-03 0. -1.
        -11    1    4    4    0    0 -0.18411683996E+01 -0.21161800821E+01  0.57708551058E+01  0.64164544828E+01  0.51100000000E-03 0.  1.
        -12    1    4    4    0    0  0.22960526701E+01 -0.28661278014E+01  0.19830437879E+02  0.20167617928E+02  0.00000000000E+00 0.  1.
</event>
<event>
 8    1  0.8828843E-009  0.9118800E+02  0.7816164E-02  0.1184000E+00
        -11   -1    0    0    0    0  0.00000000000E+00  0.00000000000E+00  0.45593999997E+02  0.45594000000E+02  0.51100000000E-03 0. -1.
         11   -1    0    0    0    0 -0.00000000000E+00 -0.00000000000E+00 -0.45593999997E+02  0.45594000000E+02  0.51100000000E-03 0.  1.
         23    2    1    2    0    0 -0.17763568394E-14  0.00000000000E+00  0.71054273576E-14  0.91188000000E+02  0.91188000000E+02 0.  0.
    9900012    2    3    3    0    0  0.83325912035E+01  0.21038391368E+02 -0.38949550747E+02  0.46142317732E+02  0.99999997389E+01 0.  0.
         12    1    3    3    0    0 -0.83325912035E+01 -0.21038391368E+02  0.38949550747E+02  0.45045682268E+02  0.00000000000E+00 0. -1.
         11    1    4    4    0    0  0.43508007802E+01  0.74251675462E+01 -0.11561905953E+02  0.14413197079E+02  0.51100000000E-03 0. -1.
        -11    1    4    4    0    0  0.22661246359E+01  0.40858670757E-02 -0.46870312376E+01  0.52061117587E+01  0.51100000000E-03 0.  1.
        -12    1    4    4    0    0  0.17156657873E+01  0.13609137955E+02 -0.22700613556E+02  0.26523008894E+02  0.00000000000E+00 0.  1.
</event>
<event>
 8    1  0.8828843E-009  0.9118800E+02  0.7816164E-02  0.1184000E+00
        -11   -1    0    0    0    0  0.00000000000E+00  0.00000000000E+00  0.45593999997E+02  0.45594000000E+02  0.51100000000E-03 0. -1.
         11   -1    0    0    0    0 -0.00000000000E+00 -0.00000000000E+00 -0.45593999997E+02  0.45594000000E+02  0.51100000000E-03 0.  1.
         23    2    1    2    0    0  0.00000000000E+00  0.00000000000E+00  0.00000000000E+00  0.91188000000E+02  0.91188000000E+02 0.  0.
    9900012    2    3    3    0    0  0.18213572358E+02 -0.82622935622E+01 -0.40362281918E+02  0.46142317470E+02  0.99999973489E+01 0.  0.
         12    1    3    3    0    0 -0.18213572358E+02  0.82622935622E+01  0.40362281918E+02  0.45045682530E+02  0.00000000000E+00 0. -1.
         11    1    4    4    0    0  0.20149498939E+01  0.42875909498E+00 -0.36348621935E+01  0.41780474941E+01  0.51100000000E-03 0. -1.
        -11    1    4    4    0    0  0.11858721926E+02 -0.16323223625E+01 -0.23039052350E+02  0.25963275900E+02  0.51100000000E-03 0.  1.
        -12    1    4    4    0    0  0.43399005383E+01 -0.70587302947E+01 -0.13688367374E+02  0.16000994076E+02  0.00000000000E+00 0.  1.
</event>
<event>
 8    1  0.8828843E-009  0.9118800E+02  0.7816164E-02  0.1184000E+00
        -11   -1    0    0    0    0  0.00000000000E+00  0.00000000000E+00  0.45593999997E+02  0.45594000000E+02  0.51100000000E-03 0.  1.
         11   -1    0    0    0    0 -0.00000000000E+00 -0.00000000000E+00 -0.45593999997E+02  0.45594000000E+02  0.51100000000E-03 0. -1.
         23    2    1    2    0    0  0.00000000000E+00  0.00000000000E+00  0.35527136788E-14  0.91188000000E+02  0.91188000000E+02 0.  0.
    9900012    2    3    3    0    0 -0.32898171322E+02  0.20257097462E+02 -0.23161904237E+02  0.46142317834E+02  0.10000000664E+02 0.  0.
         12    1    3    3    0    0  0.32898171322E+02 -0.20257097462E+02  0.23161904237E+02  0.45045682166E+02  0.00000000000E+00 0. -1.
         11    1    4    4    0    0 -0.15299651243E+02  0.11333327728E+02 -0.73343756216E+01  0.20403840608E+02  0.51100000000E-03 0. -1.
        -11    1    4    4    0    0 -0.10391682730E+02  0.27812570478E+01 -0.73488566688E+01  0.13027975872E+02  0.51100000000E-03 0.  1.
        -12    1    4    4    0    0 -0.72068373486E+01  0.61425126868E+01 -0.84786719467E+01  0.12710501353E+02  0.00000000000E+00 0.  1.
</event>
<event>
 8    1  0.8828843E-009  0.9118800E+02  0.7816164E-02  0.1184000E+00
        -11   -1    0    0    0    0  0.00000000000E+00  0.00000000000E+00  0.45593999997E+02  0.45594000000E+02  0.51100000000E-03 0. -1.
         11   -1    0    0    0    0 -0.00000000000E+00 -0.00000000000E+00 -0.45593999997E+02  0.45594000000E+02  0.51100000000E-03 0.  1.
         23    2    1    2    0    0  0.17763568394E-14  0.00000000000E+00 -0.35527136788E-14  0.91188000000E+02  0.91188000000E+02 0.  0.
    9900012    2    3    3    0    0  0.12275546733E+02 -0.32312957529E+02  0.28884205247E+02  0.46142316693E+02  0.99999902561E+01 0.  0.
        -12    1    3    3    0    0 -0.12275546733E+02  0.32312957529E+02 -0.28884205247E+02  0.45045683307E+02  0.00000000000E+00 0.  1.
         11    1    4    4    0    0  0.30981618547E+00 -0.19870721049E+01  0.18509734895E+01  0.27332297266E+01  0.51100000000E-03 0. -1.
        -11    1    4    4    0    0  0.55488548063E+01 -0.57026410038E+01  0.10041212195E+02  0.12811551299E+02  0.51100000000E-03 0.  1.
         12    1    4    4    0    0  0.64168757413E+01 -0.24623244421E+02  0.16992019562E+02  0.30597535667E+02  0.00000000000E+00 0. -1.
</event>
<event>
 8    1  0.8828843E-009  0.9118800E+02  0.7816164E-02  0.1184000E+00
        -11   -1    0    0    0    0  0.00000000000E+00  0.00000000000E+00  0.45593999997E+02  0.45594000000E+02  0.51100000000E-03 0. -1.
         11   -1    0    0    0    0 -0.00000000000E+00 -0.00000000000E+00 -0.45593999997E+02  0.45594000000E+02  0.51100000000E-03 0.  1.
         23    2    1    2    0    0  0.00000000000E+00  0.00000000000E+00 -0.35527136788E-14  0.91188000000E+02  0.91188000000E+02 0.  0.
    9900012    2    3    3    0    0 -0.80032163041E+01  0.36445811796E+02  0.25234198548E+02  0.46142318242E+02  0.10000004386E+02 0.  0.
        -12    1    3    3    0    0  0.80032163041E+01 -0.36445811796E+02 -0.25234198548E+02  0.45045681758E+02  0.00000000000E+00 0.  1.
         11    1    4    4    0    0 -0.26546922419E+00  0.20821390670E+01  0.20465909530E+01  0.29316056681E+01  0.51100000000E-03 0. -1.
        -11    1    4    4    0    0 -0.11254013179E+01  0.17895076703E+02  0.16111116937E+02  0.24105360141E+02  0.51100000000E-03 0.  1.
        -12    1    4    4    0    0 -0.66123457619E+01  0.16468596026E+02  0.70764906587E+01  0.19105352433E+02  0.00000000000E+00 0.  1.
</event>
<event>
 8    1  0.8828843E-009  0.9118800E+02  0.7816164E-02  0.1184000E+00
        -11   -1    0    0    0    0  0.00000000000E+00  0.00000000000E+00  0.45593999997E+02  0.45594000000E+02  0.51100000000E-03 0. -1.
         11   -1    0    0    0    0 -0.00000000000E+00 -0.00000000000E+00 -0.45593999997E+02  0.45594000000E+02  0.51100000000E-03 0.  1.
         23    2    1    2    0    0  0.00000000000E+00  0.00000000000E+00  0.00000000000E+00  0.91188000000E+02  0.91188000000E+02 0.  0.
    9900012    2    3    3    0    0 -0.18261823820E+02 -0.25158137299E+02 -0.32598886234E+02  0.46142318017E+02  0.10000002333E+02 0.  0.
         12    1    3    3    0    0  0.18261823820E+02  0.25158137299E+02  0.32598886234E+02  0.45045681983E+02  0.00000000000E+00 0. -1.
         11    1    4    4    0    0 -0.40106851443E+01 -0.45426304760E+01 -0.37374359165E+01  0.71196569060E+01  0.51100000000E-03 0. -1.
        -11    1    4    4    0    0 -0.77220897276E+01 -0.13242171410E+02 -0.11887341738E+02  0.19398316094E+02  0.51100000000E-03 0.  1.
        -12    1    4    4    0    0 -0.65290489478E+01 -0.73733354134E+01 -0.16974108580E+02  0.19624345017E+02  0.00000000000E+00 0.  1.
</event>
<event>
 8    1  0.8828843E-009  0.9118800E+02  0.7816164E-02  0.1184000E+00
        -11   -1    0    0    0    0  0.00000000000E+00  0.00000000000E+00  0.45593999997E+02  0.45594000000E+02  0.51100000000E-03 0. -1.
         11   -1    0    0    0    0 -0.00000000000E+00 -0.00000000000E+00 -0.45593999997E+02  0.45594000000E+02  0.51100000000E-03 0.  1.
         23    2    1    2    0    0 -0.71054273576E-14  0.00000000000E+00  0.35527136788E-14  0.91188000000E+02  0.91188000000E+02 0.  0.
    9900012    2    3    3    0    0  0.35441405522E+02  0.32327417918E+01 -0.27614665524E+02  0.46142316557E+02  0.99999890233E+01 0.  0.
         12    1    3    3    0    0 -0.35441405522E+02 -0.32327417918E+01  0.27614665524E+02  0.45045683443E+02  0.00000000000E+00 0. -1.
         11    1    4    4    0    0  0.42967775236E+01 -0.45243297819E+00 -0.30308743744E+00  0.43311493790E+01  0.51100000000E-03 0. -1.
        -11    1    4    4    0    0  0.16405013990E+02  0.15307551687E+01 -0.17130645901E+02  0.23768187240E+02  0.51100000000E-03 0.  1.
        -12    1    4    4    0    0  0.14739614008E+02  0.21544196013E+01 -0.10180932185E+02  0.18042979939E+02  0.00000000000E+00 0.  1.
</event>
<event>
 8    1  0.8828843E-009  0.9118800E+02  0.7816164E-02  0.1184000E+00
        -11   -1    0    0    0    0  0.00000000000E+00  0.00000000000E+00  0.45593999997E+02  0.45594000000E+02  0.51100000000E-03 0. -1.
         11   -1    0    0    0    0 -0.00000000000E+00 -0.00000000000E+00 -0.45593999997E+02  0.45594000000E+02  0.51100000000E-03 0.  1.
         23    2    1    2    0    0  0.00000000000E+00  0.00000000000E+00  0.00000000000E+00  0.91188000000E+02  0.91188000000E+02 0.  0.
    9900012    2    3    3    0    0 -0.19242233843E+02  0.14039685701E+02 -0.38232670586E+02  0.46142318321E+02  0.10000005103E+02 0.  0.
         12    1    3    3    0    0  0.19242233843E+02 -0.14039685701E+02  0.38232670586E+02  0.45045681679E+02  0.00000000000E+00 0. -1.
         11    1    4    4    0    0 -0.76028745211E+00  0.21406129533E+01 -0.67427968942E+01  0.71151648641E+01  0.51100000000E-03 0. -1.
        -11    1    4    4    0    0 -0.84127731386E+01  0.30072117493E+01 -0.17401166654E+02  0.19560640981E+02  0.51100000000E-03 0.  1.
        -12    1    4    4    0    0 -0.10069173252E+02  0.88918609988E+01 -0.14088707037E+02  0.19466512476E+02  0.00000000000E+00 0.  1.
</event>
<event>
 8    1  0.8828843E-009  0.9118800E+02  0.7816164E-02  0.1184000E+00
        -11   -1    0    0    0    0  0.00000000000E+00  0.00000000000E+00  0.45593999997E+02  0.45594000000E+02  0.51100000000E-03 0. -1.
         11   -1    0    0    0    0 -0.00000000000E+00 -0.00000000000E+00 -0.45593999997E+02  0.45594000000E+02  0.51100000000E-03 0.  1.
         23    2    1    2    0    0  0.35527136788E-14 -0.88817841970E-15 -0.71054273576E-14  0.91188000000E+02  0.91188000000E+02 0.  0.
    9900012    2    3    3    0    0 -0.25145547779E+02  0.58737866565E+01  0.36909530738E+02  0.46142318719E+02  0.10000008737E+02 0.  0.
        -12    1    3    3    0    0  0.25145547779E+02 -0.58737866565E+01 -0.36909530738E+02  0.45045681281E+02  0.00000000000E+00 0.  1.
         11    1    4    4    0    0 -0.53499239567E+01  0.23391406912E+01  0.12407523659E+02  0.13712764460E+02  0.51100000000E-03 0.  1.
        -11    1    4    4    0    0 -0.13405678168E+02  0.52030850781E+01  0.19035047763E+02  0.23856180438E+02  0.51100000000E-03 0. -1.
        -12    1    4    4    0    0 -0.63899456540E+01 -0.16684391128E+01  0.54669593157E+01  0.85733738221E+01  0.00000000000E+00 0.  1.
</event>
<event>
 8    1  0.8828843E-009  0.9118800E+02  0.7816164E-02  0.1184000E+00
        -11   -1    0    0    0    0  0.00000000000E+00  0.00000000000E+00  0.45593999997E+02  0.45594000000E+02  0.51100000000E-03 0. -1.
         11   -1    0    0    0    0 -0.00000000000E+00 -0.00000000000E+00 -0.45593999997E+02  0.45594000000E+02  0.51100000000E-03 0.  1.
         23    2    1    2    0    0  0.88817841970E-15 -0.71054273576E-14  0.00000000000E+00  0.91188000000E+02  0.91188000000E+02 0.  0.
    9900012    2    3    3    0    0  0.74274388207E+01 -0.35491995283E+02  0.26725735670E+02  0.46142317369E+02  0.99999964264E+01 0.  0.
        -12    1    3    3    0    0 -0.74274388207E+01  0.35491995283E+02 -0.26725735670E+02  0.45045682631E+02  0.00000000000E+00 0.  1.
         11    1    4    4    0    0  0.48854565407E+01 -0.15061943247E+02  0.12809824952E+02  0.20367165624E+02  0.51100000000E-03 0. -1.
        -11    1    4    4    0    0 -0.23335621968E+01 -0.50874945160E+01  0.35952464897E+01  0.66523612770E+01  0.51100000000E-03 0.  1.
        -12    1    4    4    0    0  0.48755444768E+01 -0.15342557519E+02  0.10320664228E+02  0.19122790468E+02  0.00000000000E+00 0.  1.
</event>
<event>
 8    1  0.8828843E-009  0.9118800E+02  0.7816164E-02  0.1184000E+00
        -11   -1    0    0    0    0  0.00000000000E+00  0.00000000000E+00  0.45593999997E+02  0.45594000000E+02  0.51100000000E-03 0. -1.
         11   -1    0    0    0    0 -0.00000000000E+00 -0.00000000000E+00 -0.45593999997E+02  0.45594000000E+02  0.51100000000E-03 0.  1.
         23    2    1    2    0    0  0.17763568394E-14  0.71054273576E-14 -0.88817841970E-15  0.91188000000E+02  0.91188000000E+02 0.  0.
    9900012    2    3    3    0    0  0.84367894314E+01  0.43581713511E+02 -0.76529772121E+01  0.46142320644E+02  0.10000026286E+02 0.  0.
         12    1    3    3    0    0 -0.84367894314E+01 -0.43581713511E+02  0.76529772121E+01  0.45045679356E+02  0.00000000000E+00 0. -1.
         11    1    4    4    0    0  0.23112585867E+01  0.60748076524E+01 -0.44322045805E+01  0.78669970111E+01  0.51100000000E-03 0. -1.
        -11    1    4    4    0    0  0.25874035255E+01  0.10136495407E+02 -0.19945444611E+01  0.10649948545E+02  0.51100000000E-03 0.  1.
         12    1    4    4    0    0  0.35381273191E+01  0.27370410452E+02 -0.12262281705E+01  0.27625375088E+02  0.00000000000E+00 0. -1.
</event>
<event>
 8    1  0.8828843E-009  0.9118800E+02  0.7816164E-02  0.1184000E+00
        -11   -1    0    0    0    0  0.00000000000E+00  0.00000000000E+00  0.45593999997E+02  0.45594000000E+02  0.51100000000E-03 0.  1.
         11   -1    0    0    0    0 -0.00000000000E+00 -0.00000000000E+00 -0.45593999997E+02  0.45594000000E+02  0.51100000000E-03 0. -1.
         23    2    1    2    0    0  0.00000000000E+00  0.00000000000E+00  0.00000000000E+00  0.91188000000E+02  0.91188000000E+02 0.  0.
    9900012    2    3    3    0    0 -0.36797847579E+02  0.20139432528E+02 -0.16414480258E+02  0.46142317730E+02  0.99999997157E+01 0.  0.
         12    1    3    3    0    0  0.36797847579E+02 -0.20139432528E+02  0.16414480258E+02  0.45045682270E+02  0.00000000000E+00 0. -1.
         11    1    4    4    0    0 -0.55898107411E+01  0.23768948356E+01 -0.30548140515E+00  0.60818527055E+01  0.51100000000E-03 0. -1.
        -11    1    4    4    0    0 -0.97749848535E+01  0.42358419374E+01 -0.13679847387E+01  0.10740766654E+02  0.51100000000E-03 0.  1.
        -12    1    4    4    0    0 -0.21433051985E+02  0.13526695755E+02 -0.14741014114E+02  0.29319698371E+02  0.00000000000E+00 0.  1.
</event>
<event>
 8    1  0.8828843E-009  0.9118800E+02  0.7816164E-02  0.1184000E+00
        -11   -1    0    0    0    0  0.00000000000E+00  0.00000000000E+00  0.45593999997E+02  0.45594000000E+02  0.51100000000E-03 0. -1.
         11   -1    0    0    0    0 -0.00000000000E+00 -0.00000000000E+00 -0.45593999997E+02  0.45594000000E+02  0.51100000000E-03 0.  1.
         23    2    1    2    0    0 -0.35527136788E-14  0.17763568394E-14  0.71054273576E-14  0.91188000000E+02  0.91188000000E+02 0.  0.
    9900012    2    3    3    0    0  0.25187597999E+02 -0.14856417104E+02 -0.34263468515E+02  0.46142317668E+02  0.99999991466E+01 0.  0.
         12    1    3    3    0    0 -0.25187597999E+02  0.14856417104E+02  0.34263468515E+02  0.45045682332E+02  0.00000000000E+00 0. -1.
         11    1    4    4    0    0 -0.38542828542E+00 -0.28978014011E+00  0.63217198750E-01  0.48633750435E+00  0.51100000000E-03 0.  1.
        -11    1    4    4    0    0  0.67266423080E+01 -0.24593585146E+01 -0.49190716643E+01  0.86886953763E+01  0.51100000000E-03 0. -1.
        -12    1    4    4    0    0  0.18846383976E+02 -0.12107278449E+02 -0.29407614050E+02  0.36967284787E+02  0.00000000000E+00 0.  1.
</event>
<event>
 8    1  0.8828843E-009  0.9118800E+02  0.7816164E-02  0.1184000E+00
        -11   -1    0    0    0    0  0.00000000000E+00  0.00000000000E+00  0.45593999997E+02  0.45594000000E+02  0.51100000000E-03 0. -1.
         11   -1    0    0    0    0 -0.00000000000E+00 -0.00000000000E+00 -0.45593999997E+02  0.45594000000E+02  0.51100000000E-03 0.  1.
         23    2    1    2    0    0  0.71054273576E-14  0.35527136788E-14  0.35527136788E-14  0.91188000000E+02  0.91188000000E+02 0.  0.
    9900012    2    3    3    0    0  0.30653932798E+02  0.14463585918E+02  0.29669083354E+02  0.46142318513E+02  0.10000006854E+02 0.  0.
        -12    1    3    3    0    0 -0.30653932798E+02 -0.14463585918E+02 -0.29669083354E+02  0.45045681487E+02  0.00000000000E+00 0.  1.
         11    1    4    4    0    0 -0.21263852680E+00  0.13922931570E+00 -0.26879573192E+00  0.36993425368E+00  0.51100000000E-03 0. -1.
        -11    1    4    4    0    0  0.73125824101E+00  0.18402504209E+01  0.21386117972E+01  0.29146047600E+01  0.51100000000E-03 0.  1.
         12    1    4    4    0    0  0.30135313084E+02  0.12484106181E+02  0.27799267289E+02  0.42857779499E+02  0.00000000000E+00 0. -1.
</event>
<event>
 8    1  0.8828843E-009  0.9118800E+02  0.7816164E-02  0.1184000E+00
        -11   -1    0    0    0    0  0.00000000000E+00  0.00000000000E+00  0.45593999997E+02  0.45594000000E+02  0.51100000000E-03 0.  1.
         11   -1    0    0    0    0 -0.00000000000E+00 -0.00000000000E+00 -0.45593999997E+02  0.45594000000E+02  0.51100000000E-03 0. -1.
         23    2    1    2    0    0 -0.71054273576E-14  0.17763568394E-14 -0.17763568394E-14  0.91188000000E+02  0.91188000000E+02 0.  0.
    9900012    2    3    3    0    0 -0.41623682438E+02 -0.12450076010E+02 -0.11898661702E+02  0.46142317825E+02  0.10000000580E+02 0.  0.
        -12    1    3    3    0    0  0.41623682438E+02  0.12450076010E+02  0.11898661702E+02  0.45045682175E+02  0.00000000000E+00 0.  1.
         11    1    4    4    0    0 -0.28249770934E+01 -0.11177047951E+01  0.20811407444E+00  0.30451718041E+01  0.51100000000E-03 0. -1.
        -11    1    4    4    0    0 -0.20859960286E+01 -0.27040922685E+01 -0.23401570626E+01  0.41400277495E+01  0.51100000000E-03 0.  1.
         12    1    4    4    0    0 -0.36712709316E+02 -0.86282789458E+01 -0.97666187143E+01  0.38957118271E+02  0.00000000000E+00 0. -1.
</event>
<event>
 8    1  0.8828843E-009  0.9118800E+02  0.7816164E-02  0.1184000E+00
        -11   -1    0    0    0    0  0.00000000000E+00  0.00000000000E+00  0.45593999997E+02  0.45594000000E+02  0.51100000000E-03 0. -1.
         11   -1    0    0    0    0 -0.00000000000E+00 -0.00000000000E+00 -0.45593999997E+02  0.45594000000E+02  0.51100000000E-03 0.  1.
         23    2    1    2    0    0  0.00000000000E+00 -0.35527136788E-14 -0.35527136788E-14  0.91188000000E+02  0.91188000000E+02 0.  0.
    9900012    2    3    3    0    0 -0.24680670861E+02 -0.25705001317E+02 -0.27554144522E+02  0.46142317774E+02  0.10000000121E+02 0.  0.
         12    1    3    3    0    0  0.24680670861E+02  0.25705001317E+02  0.27554144522E+02  0.45045682226E+02  0.00000000000E+00 0. -1.
         11    1    4    4    0    0 -0.13173701035E+01 -0.58775033874E+01 -0.23801435179E+01  0.64765417844E+01  0.51100000000E-03 0. -1.
        -11    1    4    4    0    0 -0.18675483416E+02 -0.15801875549E+02 -0.19669908694E+02  0.31390735257E+02  0.51100000000E-03 0.  1.
         12    1    4    4    0    0 -0.46878173410E+01 -0.40256223804E+01 -0.55040923096E+01  0.82750407325E+01  0.00000000000E+00 0. -1.
</event>
<event>
 8    1  0.8828843E-009  0.9118800E+02  0.7816164E-02  0.1184000E+00
        -11   -1    0    0    0    0  0.00000000000E+00  0.00000000000E+00  0.45593999997E+02  0.45594000000E+02  0.51100000000E-03 0. -1.
         11   -1    0    0    0    0 -0.00000000000E+00 -0.00000000000E+00 -0.45593999997E+02  0.45594000000E+02  0.51100000000E-03 0.  1.
         23    2    1    2    0    0 -0.71054273576E-14  0.88817841970E-15  0.71054273576E-14  0.91188000000E+02  0.91188000000E+02 0.  0.
    9900012    2    3    3    0    0  0.30716375995E+02 -0.27803751012E+01 -0.32831193123E+02  0.46142317834E+02  0.10000000663E+02 0.  0.
         12    1    3    3    0    0 -0.30716375995E+02  0.27803751012E+01  0.32831193123E+02  0.45045682166E+02  0.00000000000E+00 0. -1.
         11    1    4    4    0    0  0.52003057301E+01 -0.42962721525E+00 -0.28295886729E+01  0.59358513753E+01  0.51100000000E-03 0.  1.
        -11    1    4    4    0    0  0.11255180020E+02 -0.18290700862E+01 -0.78045668356E+01  0.13817953481E+02  0.51100000000E-03 0. -1.
         12    1    4    4    0    0  0.14260890245E+02 -0.52167779974E+00 -0.22197037614E+02  0.26388512977E+02  0.00000000000E+00 0. -1.
</event>
<event>
 8    1  0.8828843E-009  0.9118800E+02  0.7816164E-02  0.1184000E+00
        -11   -1    0    0    0    0  0.00000000000E+00  0.00000000000E+00  0.45593999997E+02  0.45594000000E+02  0.51100000000E-03 0.  1.
         11   -1    0    0    0    0 -0.00000000000E+00 -0.00000000000E+00 -0.45593999997E+02  0.45594000000E+02  0.51100000000E-03 0. -1.
         23    2    1    2    0    0  0.22204460493E-15  0.71054273576E-14  0.22204460493E-15  0.91188000000E+02  0.91188000000E+02 0.  0.
    9900012    2    3    3    0    0  0.11904375385E+01  0.45019384400E+02  0.97539941018E+00  0.46142317440E+02  0.99999970755E+01 0.  0.
        -12    1    3    3    0    0 -0.11904375385E+01 -0.45019384400E+02 -0.97539941018E+00  0.45045682560E+02  0.00000000000E+00 0.  1.
         11    1    4    4    0    0  0.15621215018E+01  0.24812259965E+02 -0.11511931773E+01  0.24888023508E+02  0.51100000000E-03 0. -1.
        -11    1    4    4    0    0 -0.21386002635E+01  0.16726399251E+02  0.32912101591E+01  0.17180748167E+02  0.51100000000E-03 0.  1.
        -12    1    4    4    0    0  0.17669163002E+01  0.34807251833E+01 -0.11646175716E+01  0.40735457653E+01  0.00000000000E+00 0.  1.
</event>
<event>
 8    1  0.8828843E-009  0.9118800E+02  0.7816164E-02  0.1184000E+00
        -11   -1    0    0    0    0  0.00000000000E+00  0.00000000000E+00  0.45593999997E+02  0.45594000000E+02  0.51100000000E-03 0. -1.
         11   -1    0    0    0    0 -0.00000000000E+00 -0.00000000000E+00 -0.45593999997E+02  0.45594000000E+02  0.51100000000E-03 0.  1.
         23    2    1    2    0    0 -0.71054273576E-14  0.00000000000E+00  0.00000000000E+00  0.91188000000E+02  0.91188000000E+02 0.  0.
    9900012    2    3    3    0    0 -0.39760684723E+02  0.51133363723E+01 -0.20543978314E+02  0.46142319813E+02  0.10000018712E+02 0.  0.
         12    1    3    3    0    0  0.39760684723E+02 -0.51133363723E+01  0.20543978314E+02  0.45045680187E+02  0.00000000000E+00 0. -1.
         11    1    4    4    0    0 -0.67240093172E+01  0.75393127135E+00 -0.13320737428E+00  0.67674558089E+01  0.51100000000E-03 0. -1.
        -11    1    4    4    0    0 -0.23281041278E+02  0.19748108158E+01 -0.11950925414E+02  0.26243692180E+02  0.51100000000E-03 0.  1.
         12    1    4    4    0    0 -0.97556341285E+01  0.23845942852E+01 -0.84598455260E+01  0.13131171824E+02  0.00000000000E+00 0. -1.
</event>
<event>
 8    1  0.8828843E-009  0.9118800E+02  0.7816164E-02  0.1184000E+00
        -11   -1    0    0    0    0  0.00000000000E+00  0.00000000000E+00  0.45593999997E+02  0.45594000000E+02  0.51100000000E-03 0. -1.
         11   -1    0    0    0    0 -0.00000000000E+00 -0.00000000000E+00 -0.45593999997E+02  0.45594000000E+02  0.51100000000E-03 0.  1.
         23    2    1    2    0    0  0.00000000000E+00  0.00000000000E+00  0.00000000000E+00  0.91188000000E+02  0.91188000000E+02 0.  0.
    9900012    2    3    3    0    0  0.20764307070E+02  0.49834369417E+01 -0.39662607380E+02  0.46142317454E+02  0.99999971989E+01 0.  0.
         12    1    3    3    0    0 -0.20764307070E+02 -0.49834369417E+01  0.39662607380E+02  0.45045682546E+02  0.00000000000E+00 0. -1.
         11    1    4    4    0    0  0.92141185526E+01  0.12045584090E+01 -0.82318251964E+01  0.12414261476E+02  0.51100000000E-03 0. -1.
        -11    1    4    4    0    0  0.24915590571E+01  0.14391729654E+01 -0.71748004136E+01  0.77302552736E+01  0.51100000000E-03 0.  1.
         12    1    4    4    0    0  0.90586294602E+01  0.23397055674E+01 -0.24255981770E+02  0.25997800705E+02  0.00000000000E+00 0. -1.
</event>
<event>
 8    1  0.8828843E-009  0.9118800E+02  0.7816164E-02  0.1184000E+00
        -11   -1    0    0    0    0  0.00000000000E+00  0.00000000000E+00  0.45593999997E+02  0.45594000000E+02  0.51100000000E-03 0. -1.
         11   -1    0    0    0    0 -0.00000000000E+00 -0.00000000000E+00 -0.45593999997E+02  0.45594000000E+02  0.51100000000E-03 0.  1.
         23    2    1    2    0    0  0.00000000000E+00  0.00000000000E+00  0.00000000000E+00  0.91188000000E+02  0.91188000000E+02 0.  0.
    9900012    2    3    3    0    0 -0.30172688754E+02  0.24960652323E+02 -0.22264055705E+02  0.46142317771E+02  0.10000000090E+02 0.  0.
         12    1    3    3    0    0  0.30172688754E+02 -0.24960652323E+02  0.22264055705E+02  0.45045682229E+02  0.00000000000E+00 0. -1.
         11    1    4    4    0    0 -0.61562520406E+01  0.27662223636E+01 -0.64227648333E+01  0.93168306691E+01  0.51100000000E-03 0. -1.
        -11    1    4    4    0    0 -0.19027510480E+02  0.14401014998E+02 -0.99392920348E+01  0.25850046701E+02  0.51100000000E-03 0.  1.
        -12    1    4    4    0    0 -0.49889262341E+01  0.77934149608E+01 -0.59019988371E+01  0.10975440401E+02  0.00000000000E+00 0.  1.
</event>
<event>
 8    1  0.8828843E-009  0.9118800E+02  0.7816164E-02  0.1184000E+00
        -11   -1    0    0    0    0  0.00000000000E+00  0.00000000000E+00  0.45593999997E+02  0.45594000000E+02  0.51100000000E-03 0. -1.
         11   -1    0    0    0    0 -0.00000000000E+00 -0.00000000000E+00 -0.45593999997E+02  0.45594000000E+02  0.51100000000E-03 0.  1.
         23    2    1    2    0    0  0.00000000000E+00  0.00000000000E+00  0.00000000000E+00  0.91188000000E+02  0.91188000000E+02 0.  0.
    9900012    2    3    3    0    0  0.29582038676E+02  0.10178208262E+02  0.32410191693E+02  0.46142318062E+02  0.10000002747E+02 0.  0.
        -12    1    3    3    0    0 -0.29582038676E+02 -0.10178208262E+02 -0.32410191693E+02  0.45045681938E+02  0.00000000000E+00 0.  1.
         11    1    4    4    0    0  0.22004242151E+02  0.47169545019E+01  0.27200700126E+02  0.35303178610E+02  0.51100000000E-03 0. -1.
        -11    1    4    4    0    0  0.39257877130E+01  0.28887876269E+01  0.37157945965E+01  0.61289503886E+01  0.51100000000E-03 0.  1.
         12    1    4    4    0    0  0.36520088129E+01  0.25724661333E+01  0.14936969706E+01  0.47101890637E+01  0.00000000000E+00 0. -1.
</event>
<event>
 8    1  0.8828843E-009  0.9118800E+02  0.7816164E-02  0.1184000E+00
        -11   -1    0    0    0    0  0.00000000000E+00  0.00000000000E+00  0.45593999997E+02  0.45594000000E+02  0.51100000000E-03 0. -1.
         11   -1    0    0    0    0 -0.00000000000E+00 -0.00000000000E+00 -0.45593999997E+02  0.45594000000E+02  0.51100000000E-03 0.  1.
         23    2    1    2    0    0  0.00000000000E+00  0.00000000000E+00  0.00000000000E+00  0.91188000000E+02  0.91188000000E+02 0.  0.
    9900012    2    3    3    0    0 -0.18972226539E+02 -0.40768559122E+02  0.26632074765E+01  0.46142318001E+02  0.10000002185E+02 0.  0.
         12    1    3    3    0    0  0.18972226539E+02  0.40768559122E+02 -0.26632074765E+01  0.45045681999E+02  0.00000000000E+00 0. -1.
         11    1    4    4    0    0 -0.49192634061E+01 -0.15190833768E+02  0.19713949424E+01  0.16088722177E+02  0.51100000000E-03 0. -1.
        -11    1    4    4    0    0 -0.90162306081E+01 -0.21020169888E+02 -0.14857283382E+01  0.22920456921E+02  0.51100000000E-03 0.  1.
        -12    1    4    4    0    0 -0.50367325251E+01 -0.45575554661E+01  0.21775408723E+01  0.71331389028E+01  0.00000000000E+00 0.  1.
</event>
<event>
 8    1  0.8828843E-009  0.9118800E+02  0.7816164E-02  0.1184000E+00
        -11   -1    0    0    0    0  0.00000000000E+00  0.00000000000E+00  0.45593999997E+02  0.45594000000E+02  0.51100000000E-03 0. -1.
         11   -1    0    0    0    0 -0.00000000000E+00 -0.00000000000E+00 -0.45593999997E+02  0.45594000000E+02  0.51100000000E-03 0.  1.
         23    2    1    2    0    0  0.00000000000E+00 -0.44408920985E-15  0.00000000000E+00  0.91188000000E+02  0.91188000000E+02 0.  0.
    9900012    2    3    3    0    0  0.17908768007E+02  0.16452548299E+01 -0.41299910708E+02  0.46142318082E+02  0.10000002928E+02 0.  0.
         12    1    3    3    0    0 -0.17908768007E+02 -0.16452548299E+01  0.41299910708E+02  0.45045681918E+02  0.00000000000E+00 0. -1.
         11    1    4    4    0    0  0.32333387844E+01 -0.25568643162E+01 -0.13328157668E+02  0.13951050925E+02  0.51100000000E-03 0. -1.
        -11    1    4    4    0    0  0.94677327550E+01  0.36223619691E+01 -0.22145612326E+02  0.24355443238E+02  0.51100000000E-03 0.  1.
         12    1    4    4    0    0  0.52076964677E+01  0.57975717703E+00 -0.58261407141E+01  0.78358239200E+01  0.00000000000E+00 0. -1.
</event>
<event>
 8    1  0.8828843E-009  0.9118800E+02  0.7816164E-02  0.1184000E+00
        -11   -1    0    0    0    0  0.00000000000E+00  0.00000000000E+00  0.45593999997E+02  0.45594000000E+02  0.51100000000E-03 0. -1.
         11   -1    0    0    0    0 -0.00000000000E+00 -0.00000000000E+00 -0.45593999997E+02  0.45594000000E+02  0.51100000000E-03 0.  1.
         23    2    1    2    0    0  0.00000000000E+00  0.00000000000E+00  0.00000000000E+00  0.91188000000E+02  0.91188000000E+02 0.  0.
    9900012    2    3    3    0    0  0.27347820047E+02 -0.33614326298E+02 -0.12299890144E+02  0.46142317728E+02  0.99999996973E+01 0.  0.
         12    1    3    3    0    0 -0.27347820047E+02  0.33614326298E+02  0.12299890144E+02  0.45045682272E+02  0.00000000000E+00 0. -1.
         11    1    4    4    0    0  0.49489481175E+01 -0.83767264088E+01 -0.23801817925E+01  0.10016331585E+02  0.51100000000E-03 0.  1.
        -11    1    4    4    0    0  0.12019884039E+02 -0.15565177436E+02 -0.17236673009E+01  0.19741413074E+02  0.51100000000E-03 0. -1.
        -12    1    4    4    0    0  0.10378987891E+02 -0.96724224533E+01 -0.81960410507E+01  0.16384573069E+02  0.00000000000E+00 0.  1.
</event>
<event>
 8    1  0.8828843E-009  0.9118800E+02  0.7816164E-02  0.1184000E+00
        -11   -1    0    0    0    0  0.00000000000E+00  0.00000000000E+00  0.45593999997E+02  0.45594000000E+02  0.51100000000E-03 0. -1.
         11   -1    0    0    0    0 -0.00000000000E+00 -0.00000000000E+00 -0.45593999997E+02  0.45594000000E+02  0.51100000000E-03 0.  1.
         23    2    1    2    0    0  0.00000000000E+00  0.00000000000E+00 -0.71054273576E-14  0.91188000000E+02  0.91188000000E+02 0.  0.
    9900012    2    3    3    0    0  0.83203177672E+01 -0.18103244759E+02 -0.40399979087E+02  0.46142317978E+02  0.10000001981E+02 0.  0.
         12    1    3    3    0    0 -0.83203177672E+01  0.18103244759E+02  0.40399979087E+02  0.45045682022E+02  0.00000000000E+00 0. -1.
         11    1    4    4    0    0  0.21548290787E+01 -0.33538855964E+01 -0.16779918295E+02  0.17246956114E+02  0.51100000000E-03 0. -1.
        -11    1    4    4    0    0  0.15133310447E+01 -0.91136626112E+01 -0.14727787644E+02  0.17385532669E+02  0.51100000000E-03 0.  1.
         12    1    4    4    0    0  0.46521576438E+01 -0.56356965511E+01 -0.88922731482E+01  0.11509829195E+02  0.00000000000E+00 0. -1.
</event>
<event>
 8    1  0.8828843E-009  0.9118800E+02  0.7816164E-02  0.1184000E+00
        -11   -1    0    0    0    0  0.00000000000E+00  0.00000000000E+00  0.45593999997E+02  0.45594000000E+02  0.51100000000E-03 0. -1.
         11   -1    0    0    0    0 -0.00000000000E+00 -0.00000000000E+00 -0.45593999997E+02  0.45594000000E+02  0.51100000000E-03 0.  1.
         23    2    1    2    0    0  0.00000000000E+00  0.00000000000E+00  0.00000000000E+00  0.91188000000E+02  0.91188000000E+02 0.  0.
    9900012    2    3    3    0    0  0.75015492199E+01  0.11576671222E+01  0.44401575570E+02  0.46142319330E+02  0.10000014309E+02 0.  0.
        -12    1    3    3    0    0 -0.75015492199E+01 -0.11576671222E+01 -0.44401575570E+02  0.45045680670E+02  0.00000000000E+00 0.  1.
         11    1    4    4    0    0  0.82726486981E+01  0.33488226840E+01  0.30292577017E+02  0.31579923249E+02  0.51100000000E-03 0. -1.
        -11    1    4    4    0    0 -0.93960346982E+00  0.35646961307E+00  0.51271327449E+01  0.52246928819E+01  0.51100000000E-03 0.  1.
         12    1    4    4    0    0  0.16850399160E+00 -0.25476251749E+01  0.89818658091E+01  0.93377031994E+01  0.00000000000E+00 0. -1.
</event>
<event>
 8    1  0.8828843E-009  0.9118800E+02  0.7816164E-02  0.1184000E+00
        -11   -1    0    0    0    0  0.00000000000E+00  0.00000000000E+00  0.45593999997E+02  0.45594000000E+02  0.51100000000E-03 0. -1.
         11   -1    0    0    0    0 -0.00000000000E+00 -0.00000000000E+00 -0.45593999997E+02  0.45594000000E+02  0.51100000000E-03 0.  1.
         23    2    1    2    0    0 -0.17763568394E-14  0.27755575616E-16  0.00000000000E+00  0.91188000000E+02  0.91188000000E+02 0.  0.
    9900012    2    3    3    0    0 -0.83772300035E+01 -0.22552887206E+00 -0.44259292300E+02  0.46142314294E+02  0.99999683830E+01 0.  0.
         12    1    3    3    0    0  0.83772300035E+01  0.22552887206E+00  0.44259292300E+02  0.45045685706E+02  0.00000000000E+00 0. -1.
         11    1    4    4    0    0 -0.14793777781E+01 -0.45621585882E+00 -0.11818190752E+02  0.11919157874E+02  0.51100000000E-03 0. -1.
        -11    1    4    4    0    0  0.13168114736E+01 -0.11859118086E+01 -0.12272380008E+02  0.12399664939E+02  0.51100000000E-03 0.  1.
         12    1    4    4    0    0 -0.82146636990E+01  0.14165987954E+01 -0.20168721540E+02  0.21823491481E+02  0.00000000000E+00 0. -1.
</event>
<event>
 8    1  0.8828843E-009  0.9118800E+02  0.7816164E-02  0.1184000E+00
        -11   -1    0    0    0    0  0.00000000000E+00  0.00000000000E+00  0.45593999997E+02  0.45594000000E+02  0.51100000000E-03 0. -1.
         11   -1    0    0    0    0 -0.00000000000E+00 -0.00000000000E+00 -0.45593999997E+02  0.45594000000E+02  0.51100000000E-03 0.  1.
         23    2    1    2    0    0  0.00000000000E+00  0.00000000000E+00 -0.71054273576E-14  0.91188000000E+02  0.91188000000E+02 0.  0.
    9900012    2    3    3    0    0  0.21735485217E+02 -0.55792111487E+01  0.39058350635E+02  0.46142315756E+02  0.99999817183E+01 0.  0.
        -12    1    3    3    0    0 -0.21735485217E+02  0.55792111487E+01 -0.39058350635E+02  0.45045684244E+02  0.00000000000E+00 0.  1.
         11    1    4    4    0    0  0.33555979361E+01 -0.28422166195E+01  0.12925676489E+02  0.13653254036E+02  0.51100000000E-03 0. -1.
        -11    1    4    4    0    0  0.60362739944E+01 -0.26271639487E+01  0.61971066373E+01  0.90411683473E+01  0.51100000000E-03 0.  1.
        -12    1    4    4    0    0  0.12343613287E+02 -0.10983058055E+00  0.19935567509E+02  0.23447893373E+02  0.00000000000E+00 0.  1.
</event>
<event>
 8    1  0.8828843E-009  0.9118800E+02  0.7816164E-02  0.1184000E+00
        -11   -1    0    0    0    0  0.00000000000E+00  0.00000000000E+00  0.45593999997E+02  0.45594000000E+02  0.51100000000E-03 0. -1.
         11   -1    0    0    0    0 -0.00000000000E+00 -0.00000000000E+00 -0.45593999997E+02  0.45594000000E+02  0.51100000000E-03 0.  1.
         23    2    1    2    0    0  0.00000000000E+00  0.00000000000E+00  0.35527136788E-14  0.91188000000E+02  0.91188000000E+02 0.  0.
    9900012    2    3    3    0    0 -0.26645059319E+02 -0.18410379533E+02  0.31308344143E+02  0.46142315705E+02  0.99999812499E+01 0.  0.
        -12    1    3    3    0    0  0.26645059319E+02  0.18410379533E+02 -0.31308344143E+02  0.45045684295E+02  0.00000000000E+00 0.  1.
         11    1    4    4    0    0 -0.20968997860E+02 -0.12860137911E+02  0.23737357386E+02  0.34183975110E+02  0.51100000000E-03 0. -1.
        -11    1    4    4    0    0 -0.38566110302E+01 -0.10446378236E+01  0.17128348783E+01  0.43472428506E+01  0.51100000000E-03 0.  1.
         12    1    4    4    0    0 -0.18194504282E+01 -0.45056037984E+01  0.58581518784E+01  0.76110977447E+01  0.00000000000E+00 0. -1.
</event>
<event>
 8    1  0.8828843E-009  0.9118800E+02  0.7816164E-02  0.1184000E+00
        -11   -1    0    0    0    0  0.00000000000E+00  0.00000000000E+00  0.45593999997E+02  0.45594000000E+02  0.51100000000E-03 0. -1.
         11   -1    0    0    0    0 -0.00000000000E+00 -0.00000000000E+00 -0.45593999997E+02  0.45594000000E+02  0.51100000000E-03 0.  1.
         23    2    1    2    0    0  0.00000000000E+00 -0.88817841970E-15  0.00000000000E+00  0.91188000000E+02  0.91188000000E+02 0.  0.
    9900012    2    3    3    0    0 -0.34515700142E+02  0.74001618132E+01  0.27982447757E+02  0.46142319479E+02  0.10000015667E+02 0.  0.
        -12    1    3    3    0    0  0.34515700142E+02 -0.74001618132E+01 -0.27982447757E+02  0.45045680521E+02  0.00000000000E+00 0.  1.
         11    1    4    4    0    0 -0.23800370793E+02  0.55966688675E+01  0.14499064855E+02  0.28425397697E+02  0.51100000000E-03 0. -1.
        -11    1    4    4    0    0 -0.73711350185E+01  0.63550217965E+00  0.63395128537E+01  0.97430445942E+01  0.51100000000E-03 0.  1.
        -12    1    4    4    0    0 -0.33441943298E+01  0.11679907660E+01  0.71438700478E+01  0.79738771877E+01  0.00000000000E+00 0.  1.
</event>
<event>
 8    1  0.8828843E-009  0.9118800E+02  0.7816164E-02  0.1184000E+00
        -11   -1    0    0    0    0  0.00000000000E+00  0.00000000000E+00  0.45593999997E+02  0.45594000000E+02  0.51100000000E-03 0. -1.
         11   -1    0    0    0    0 -0.00000000000E+00 -0.00000000000E+00 -0.45593999997E+02  0.45594000000E+02  0.51100000000E-03 0.  1.
         23    2    1    2    0    0  0.00000000000E+00  0.00000000000E+00  0.00000000000E+00  0.91188000000E+02  0.91188000000E+02 0.  0.
    9900012    2    3    3    0    0 -0.14518048201E+02  0.39869605666E+02  0.15124626435E+02  0.46142317584E+02  0.99999983824E+01 0.  0.
        -12    1    3    3    0    0  0.14518048201E+02 -0.39869605666E+02 -0.15124626435E+02  0.45045682416E+02  0.00000000000E+00 0.  1.
         11    1    4    4    0    0 -0.23855505946E+01  0.11971841217E+02  0.33078213898E+01  0.12647431217E+02  0.51100000000E-03 0. -1.
        -11    1    4    4    0    0 -0.10792457838E+02  0.27980467577E+02  0.11469084820E+02  0.32107999298E+02  0.51100000000E-03 0.  1.
        -12    1    4    4    0    0 -0.13400397685E+01 -0.82703128277E-01  0.34772022512E+00  0.13868870695E+01  0.00000000000E+00 0.  1.
</event>
<event>
 8    1  0.8828843E-009  0.9118800E+02  0.7816164E-02  0.1184000E+00
        -11   -1    0    0    0    0  0.00000000000E+00  0.00000000000E+00  0.45593999997E+02  0.45594000000E+02  0.51100000000E-03 0. -1.
         11   -1    0    0    0    0 -0.00000000000E+00 -0.00000000000E+00 -0.45593999997E+02  0.45594000000E+02  0.51100000000E-03 0.  1.
         23    2    1    2    0    0  0.00000000000E+00 -0.71054273576E-14  0.00000000000E+00  0.91188000000E+02  0.91188000000E+02 0.  0.
    9900012    2    3    3    0    0  0.19312928980E+02 -0.39367417259E+02 -0.10311680073E+02  0.46142317483E+02  0.99999974657E+01 0.  0.
         12    1    3    3    0    0 -0.19312928980E+02  0.39367417259E+02  0.10311680073E+02  0.45045682517E+02  0.00000000000E+00 0. -1.
         11    1    4    4    0    0  0.14861720005E+01 -0.71741136702E+01 -0.48911889497E+01  0.88091057305E+01  0.51100000000E-03 0. -1.
        -11    1    4    4    0    0  0.77184822889E+01 -0.11022150430E+02 -0.13685363364E+01  0.13525371009E+02  0.51100000000E-03 0.  1.
         12    1    4    4    0    0  0.10108274691E+02 -0.21171153159E+02 -0.40519547868E+01  0.23807840744E+02  0.00000000000E+00 0. -1.
</event>
<event>
 8    1  0.8828843E-009  0.9118800E+02  0.7816164E-02  0.1184000E+00
        -11   -1    0    0    0    0  0.00000000000E+00  0.00000000000E+00  0.45593999997E+02  0.45594000000E+02  0.51100000000E-03 0. -1.
         11   -1    0    0    0    0 -0.00000000000E+00 -0.00000000000E+00 -0.45593999997E+02  0.45594000000E+02  0.51100000000E-03 0.  1.
         23    2    1    2    0    0  0.35527136788E-14  0.35527136788E-14  0.35527136788E-14  0.91188000000E+02  0.91188000000E+02 0.  0.
    9900012    2    3    3    0    0  0.31523042544E+02  0.19961237583E+02  0.25238071542E+02  0.46142317940E+02  0.10000001631E+02 0.  0.
        -12    1    3    3    0    0 -0.31523042544E+02 -0.19961237583E+02 -0.25238071542E+02  0.45045682060E+02  0.00000000000E+00 0.  1.
         11    1    4    4    0    0  0.12936713645E+01  0.21364631474E+01  0.18722802517E+01  0.31214570286E+01  0.51100000000E-03 0.  1.
        -11    1    4    4    0    0  0.17364671744E+01  0.41846678630E+01  0.27705314908E+01  0.53106128059E+01  0.51100000000E-03 0. -1.
         12    1    4    4    0    0  0.28492904005E+02  0.13640106573E+02  0.20595259800E+02  0.37710248106E+02  0.00000000000E+00 0. -1.
</event>
<event>
 8    1  0.8828843E-009  0.9118800E+02  0.7816164E-02  0.1184000E+00
        -11   -1    0    0    0    0  0.00000000000E+00  0.00000000000E+00  0.45593999997E+02  0.45594000000E+02  0.51100000000E-03 0. -1.
         11   -1    0    0    0    0 -0.00000000000E+00 -0.00000000000E+00 -0.45593999997E+02  0.45594000000E+02  0.51100000000E-03 0.  1.
         23    2    1    2    0    0 -0.88817841970E-15  0.35527136788E-14  0.71054273576E-14  0.91188000000E+02  0.91188000000E+02 0.  0.
    9900012    2    3    3    0    0  0.71899703524E+01 -0.28211032049E+02 -0.34373760170E+02  0.46142318840E+02  0.10000009834E+02 0.  0.
         12    1    3    3    0    0 -0.71899703524E+01  0.28211032049E+02  0.34373760170E+02  0.45045681160E+02  0.00000000000E+00 0. -1.
         11    1    4    4    0    0  0.53160007621E+01 -0.11367652315E+02 -0.90591097690E+01  0.15477430450E+02  0.51100000000E-03 0. -1.
        -11    1    4    4    0    0  0.69702716174E+00 -0.73591727788E+01 -0.14181036386E+02  0.15992031269E+02  0.51100000000E-03 0.  1.
        -12    1    4    4    0    0  0.11769424285E+01 -0.94842069553E+01 -0.11133614015E+02  0.14672857121E+02  0.00000000000E+00 0.  1.
</event>
<event>
 8    1  0.8828843E-009  0.9118800E+02  0.7816164E-02  0.1184000E+00
        -11   -1    0    0    0    0  0.00000000000E+00  0.00000000000E+00  0.45593999997E+02  0.45594000000E+02  0.51100000000E-03 0. -1.
         11   -1    0    0    0    0 -0.00000000000E+00 -0.00000000000E+00 -0.45593999997E+02  0.45594000000E+02  0.51100000000E-03 0.  1.
         23    2    1    2    0    0  0.00000000000E+00 -0.44408920985E-15  0.00000000000E+00  0.91188000000E+02  0.91188000000E+02 0.  0.
    9900012    2    3    3    0    0  0.85527755657E+01 -0.24878346079E+01 -0.44156247395E+02  0.46142317910E+02  0.10000001361E+02 0.  0.
         12    1    3    3    0    0 -0.85527755657E+01  0.24878346079E+01  0.44156247395E+02  0.45045682090E+02  0.00000000000E+00 0. -1.
         11    1    4    4    0    0 -0.11994917435E+00  0.16649499596E+01 -0.28458892905E+01  0.32993230044E+01  0.51100000000E-03 0.  1.
        -11    1    4    4    0    0  0.66939947576E+00  0.88700646698E+00 -0.11842696784E+02  0.11894719144E+02  0.51100000000E-03 0. -1.
        -12    1    4    4    0    0  0.80033252643E+01 -0.50397910344E+01 -0.29467661321E+02  0.30948275762E+02  0.00000000000E+00 0.  1.
</event>
<event>
 8    1  0.8828843E-009  0.9118800E+02  0.7816164E-02  0.1184000E+00
        -11   -1    0    0    0    0  0.00000000000E+00  0.00000000000E+00  0.45593999997E+02  0.45594000000E+02  0.51100000000E-03 0.  1.
         11   -1    0    0    0    0 -0.00000000000E+00 -0.00000000000E+00 -0.45593999997E+02  0.45594000000E+02  0.51100000000E-03 0. -1.
         23    2    1    2    0    0 -0.35527136788E-14  0.17763568394E-14  0.00000000000E+00  0.91188000000E+02  0.91188000000E+02 0.  0.
    9900012    2    3    3    0    0 -0.26336769307E+02  0.10290538874E+02  0.35065550898E+02  0.46142317991E+02  0.10000002100E+02 0.  0.
        -12    1    3    3    0    0  0.26336769307E+02 -0.10290538874E+02 -0.35065550898E+02  0.45045682009E+02  0.00000000000E+00 0.  1.
         11    1    4    4    0    0 -0.45255900393E+01  0.24339060272E+01  0.38882740870E+01  0.64438761153E+01  0.51100000000E-03 0. -1.
        -11    1    4    4    0    0 -0.14843610494E+02  0.44239840469E+01  0.14132802012E+02  0.20967605975E+02  0.51100000000E-03 0.  1.
        -12    1    4    4    0    0 -0.69675687741E+01  0.34326487996E+01  0.17044474798E+02  0.18730835901E+02  0.00000000000E+00 0.  1.
</event>
<event>
 8    1  0.8828843E-009  0.9118800E+02  0.7816164E-02  0.1184000E+00
        -11   -1    0    0    0    0  0.00000000000E+00  0.00000000000E+00  0.45593999997E+02  0.45594000000E+02  0.51100000000E-03 0. -1.
         11   -1    0    0    0    0 -0.00000000000E+00 -0.00000000000E+00 -0.45593999997E+02  0.45594000000E+02  0.51100000000E-03 0.  1.
         23    2    1    2    0    0  0.00000000000E+00  0.35527136788E-14  0.71054273576E-14  0.91188000000E+02  0.91188000000E+02 0.  0.
    9900012    2    3    3    0    0 -0.12026022381E+02 -0.14713148531E+02 -0.40841295926E+02  0.46142318665E+02  0.10000008245E+02 0.  0.
         12    1    3    3    0    0  0.12026022381E+02  0.14713148531E+02  0.40841295926E+02  0.45045681335E+02  0.00000000000E+00 0. -1.
         11    1    4    4    0    0 -0.26971665043E+01 -0.25486834507E+01 -0.12438615970E+02  0.12980356774E+02  0.51100000000E-03 0. -1.
        -11    1    4    4    0    0 -0.94897020209E+01 -0.80889975246E+01 -0.24627402979E+02  0.27604262409E+02  0.51100000000E-03 0.  1.
         12    1    4    4    0    0  0.16084614399E+00 -0.40754675552E+01 -0.37752769770E+01  0.55576994817E+01  0.00000000000E+00 0. -1.
</event>
<event>
 8    1  0.8828843E-009  0.9118800E+02  0.7816164E-02  0.1184000E+00
        -11   -1    0    0    0    0  0.00000000000E+00  0.00000000000E+00  0.45593999997E+02  0.45594000000E+02  0.51100000000E-03 0.  1.
         11   -1    0    0    0    0 -0.00000000000E+00 -0.00000000000E+00 -0.45593999997E+02  0.45594000000E+02  0.51100000000E-03 0. -1.
         23    2    1    2    0    0  0.00000000000E+00  0.00000000000E+00  0.00000000000E+00  0.91188000000E+02  0.91188000000E+02 0.  0.
    9900012    2    3    3    0    0  0.13343789601E+02 -0.41301830951E+02  0.12050539362E+02  0.46142318079E+02  0.10000002897E+02 0.  0.
        -12    1    3    3    0    0 -0.13343789601E+02  0.41301830951E+02 -0.12050539362E+02  0.45045681921E+02  0.00000000000E+00 0.  1.
         11    1    4    4    0    0  0.18724844338E+01 -0.76249824644E+01  0.35666119588E+01  0.86236463670E+01  0.51100000000E-03 0. -1.
        -11    1    4    4    0    0  0.10824952494E+02 -0.33741542573E+02  0.91402003821E+01  0.36595280502E+02  0.51100000000E-03 0.  1.
        -12    1    4    4    0    0  0.64635267336E+00  0.64694086685E-01 -0.65627297921E+00  0.92339120986E+00  0.00000000000E+00 0.  1.
</event>
<event>
 8    1  0.8828843E-009  0.9118800E+02  0.7816164E-02  0.1184000E+00
        -11   -1    0    0    0    0  0.00000000000E+00  0.00000000000E+00  0.45593999997E+02  0.45594000000E+02  0.51100000000E-03 0. -1.
         11   -1    0    0    0    0 -0.00000000000E+00 -0.00000000000E+00 -0.45593999997E+02  0.45594000000E+02  0.51100000000E-03 0.  1.
         23    2    1    2    0    0 -0.71054273576E-14  0.00000000000E+00  0.00000000000E+00  0.91188000000E+02  0.91188000000E+02 0.  0.
    9900012    2    3    3    0    0 -0.36562082608E+02  0.65096270946E+01  0.25494163280E+02  0.46142317733E+02  0.99999997473E+01 0.  0.
        -12    1    3    3    0    0  0.36562082608E+02 -0.65096270946E+01 -0.25494163280E+02  0.45045682267E+02  0.00000000000E+00 0.  1.
         11    1    4    4    0    0 -0.20033022562E+02  0.51888019437E+01  0.19293125064E+02  0.28292584428E+02  0.51100000000E-03 0. -1.
        -11    1    4    4    0    0 -0.80519423482E+01  0.91078557033E-01  0.19412553236E+01  0.82831481560E+01  0.51100000000E-03 0.  1.
         12    1    4    4    0    0 -0.84771176972E+01  0.12297465938E+01  0.42597828917E+01  0.95665851495E+01  0.00000000000E+00 0. -1.
</event>
<event>
 8    1  0.8828843E-009  0.9118800E+02  0.7816164E-02  0.1184000E+00
        -11   -1    0    0    0    0  0.00000000000E+00  0.00000000000E+00  0.45593999997E+02  0.45594000000E+02  0.51100000000E-03 0.  1.
         11   -1    0    0    0    0 -0.00000000000E+00 -0.00000000000E+00 -0.45593999997E+02  0.45594000000E+02  0.51100000000E-03 0. -1.
         23    2    1    2    0    0 -0.17763568394E-14  0.00000000000E+00 -0.17763568394E-14  0.91188000000E+02  0.91188000000E+02 0.  0.
    9900012    2    3    3    0    0  0.14217821423E+02 -0.40896009333E+02 -0.12429134950E+02  0.46142318509E+02  0.10000006823E+02 0.  0.
         12    1    3    3    0    0 -0.14217821423E+02  0.40896009333E+02  0.12429134950E+02  0.45045681491E+02  0.00000000000E+00 0. -1.
         11    1    4    4    0    0  0.17449668624E+00 -0.19909642771E+01  0.35287611071E+00  0.20295097085E+01  0.51100000000E-03 0. -1.
        -11    1    4    4    0    0  0.75994747724E+01 -0.21998514099E+02 -0.11538053718E+02  0.25977169269E+02  0.51100000000E-03 0.  1.
         12    1    4    4    0    0  0.64438499648E+01 -0.16906530957E+02 -0.12439573427E+01  0.18135639532E+02  0.00000000000E+00 0. -1.
</event>
<event>
 8    1  0.8828843E-009  0.9118800E+02  0.7816164E-02  0.1184000E+00
        -11   -1    0    0    0    0  0.00000000000E+00  0.00000000000E+00  0.45593999997E+02  0.45594000000E+02  0.51100000000E-03 0.  1.
         11   -1    0    0    0    0 -0.00000000000E+00 -0.00000000000E+00 -0.45593999997E+02  0.45594000000E+02  0.51100000000E-03 0. -1.
         23    2    1    2    0    0  0.00000000000E+00  0.00000000000E+00 -0.17763568394E-14  0.91188000000E+02  0.91188000000E+02 0.  0.
    9900012    2    3    3    0    0  0.19989774565E+02  0.38975354877E+02 -0.10509240940E+02  0.46142317409E+02  0.99999967873E+01 0.  0.
        -12    1    3    3    0    0 -0.19989774565E+02 -0.38975354877E+02  0.10509240940E+02  0.45045682591E+02  0.00000000000E+00 0.  1.
         11    1    4    4    0    0  0.93968886961E+00  0.50435296923E+01 -0.20166368939E+01  0.55124433377E+01  0.51100000000E-03 0.  1.
        -11    1    4    4    0    0  0.35787711190E+00  0.53332657035E+01  0.29181956565E+00  0.53532194062E+01  0.51100000000E-03 0. -1.
        -12    1    4    4    0    0  0.18692208584E+02  0.28598559481E+02 -0.87844236116E+01  0.35276654665E+02  0.00000000000E+00 0.  1.
</event>
<event>
 8    1  0.8828843E-009  0.9118800E+02  0.7816164E-02  0.1184000E+00
        -11   -1    0    0    0    0  0.00000000000E+00  0.00000000000E+00  0.45593999997E+02  0.45594000000E+02  0.51100000000E-03 0. -1.
         11   -1    0    0    0    0 -0.00000000000E+00 -0.00000000000E+00 -0.45593999997E+02  0.45594000000E+02  0.51100000000E-03 0.  1.
         23    2    1    2    0    0  0.00000000000E+00  0.35527136788E-14  0.00000000000E+00  0.91188000000E+02  0.91188000000E+02 0.  0.
    9900012    2    3    3    0    0 -0.14886425960E+02  0.23782241301E+02 -0.35240783775E+02  0.46142317407E+02  0.99999967751E+01 0.  0.
         12    1    3    3    0    0  0.14886425960E+02 -0.23782241301E+02  0.35240783775E+02  0.45045682593E+02  0.00000000000E+00 0. -1.
         11    1    4    4    0    0 -0.17406267534E+01  0.30239502586E+01 -0.94008245845E+01  0.10027440341E+02  0.51100000000E-03 0. -1.
        -11    1    4    4    0    0 -0.32225156929E+01  0.36065131557E+01 -0.85193398677E+01  0.97964634729E+01  0.51100000000E-03 0.  1.
         12    1    4    4    0    0 -0.99232835139E+01  0.17151777886E+02 -0.17320619323E+02  0.26318413594E+02  0.00000000000E+00 0. -1.
</event>
<event>
 8    1  0.8828843E-009  0.9118800E+02  0.7816164E-02  0.1184000E+00
        -11   -1    0    0    0    0  0.00000000000E+00  0.00000000000E+00  0.45593999997E+02  0.45594000000E+02  0.51100000000E-03 0. -1.
         11   -1    0    0    0    0 -0.00000000000E+00 -0.00000000000E+00 -0.45593999997E+02  0.45594000000E+02  0.51100000000E-03 0.  1.
         23    2    1    2    0    0 -0.17763568394E-14  0.00000000000E+00  0.00000000000E+00  0.91188000000E+02  0.91188000000E+02 0.  0.
    9900012    2    3    3    0    0  0.15489906676E+02  0.27806617333E+02 -0.31874257311E+02  0.46142318127E+02  0.10000003332E+02 0.  0.
         12    1    3    3    0    0 -0.15489906676E+02 -0.27806617333E+02  0.31874257311E+02  0.45045681873E+02  0.00000000000E+00 0. -1.
         11    1    4    4    0    0  0.14033172314E+01  0.62079593767E+01 -0.77179128932E+01  0.10003711240E+02  0.51100000000E-03 0. -1.
        -11    1    4    4    0    0  0.32064163884E-01  0.16840467058E+00 -0.27258895834E+01  0.27312748902E+01  0.51100000000E-03 0.  1.
         12    1    4    4    0    0  0.14054525281E+02  0.21430253285E+02 -0.21430454834E+02  0.33407331997E+02  0.00000000000E+00 0. -1.
</event>
<event>
 8    1  0.8828843E-009  0.9118800E+02  0.7816164E-02  0.1184000E+00
        -11   -1    0    0    0    0  0.00000000000E+00  0.00000000000E+00  0.45593999997E+02  0.45594000000E+02  0.51100000000E-03 0. -1.
         11   -1    0    0    0    0 -0.00000000000E+00 -0.00000000000E+00 -0.45593999997E+02  0.45594000000E+02  0.51100000000E-03 0.  1.
         23    2    1    2    0    0  0.00000000000E+00  0.00000000000E+00  0.00000000000E+00  0.91188000000E+02  0.91188000000E+02 0.  0.
    9900012    2    3    3    0    0  0.18044257461E+02  0.14409331991E+02  0.38676730259E+02  0.46142317196E+02  0.99999948454E+01 0.  0.
        -12    1    3    3    0    0 -0.18044257461E+02 -0.14409331991E+02 -0.38676730259E+02  0.45045682804E+02  0.00000000000E+00 0.  1.
         11    1    4    4    0    0  0.73198721036E+01  0.42740626375E+01  0.79968075214E+01  0.11653199983E+02  0.51100000000E-03 0. -1.
        -11    1    4    4    0    0  0.28142276339E+01  0.18294412158E+00  0.80921464730E+01  0.85694912643E+01  0.51100000000E-03 0.  1.
         12    1    4    4    0    0  0.79101577232E+01  0.99523252322E+01  0.22587776265E+02  0.25919625949E+02  0.00000000000E+00 0. -1.
</event>
<event>
 8    1  0.8828843E-009  0.9118800E+02  0.7816164E-02  0.1184000E+00
        -11   -1    0    0    0    0  0.00000000000E+00  0.00000000000E+00  0.45593999997E+02  0.45594000000E+02  0.51100000000E-03 0. -1.
         11   -1    0    0    0    0 -0.00000000000E+00 -0.00000000000E+00 -0.45593999997E+02  0.45594000000E+02  0.51100000000E-03 0.  1.
         23    2    1    2    0    0  0.35527136788E-14  0.17763568394E-14  0.71054273576E-14  0.91188000000E+02  0.91188000000E+02 0.  0.
    9900012    2    3    3    0    0  0.11902465033E+02  0.59154975769E+01  0.43040116681E+02  0.46142318416E+02  0.10000005975E+02 0.  0.
        -12    1    3    3    0    0 -0.11902465033E+02 -0.59154975769E+01 -0.43040116681E+02  0.45045681584E+02  0.00000000000E+00 0.  1.
         11    1    4    4    0    0  0.27368519936E+01 -0.10267179760E+01  0.53154531770E+01  0.60661809547E+01  0.51100000000E-03 0. -1.
        -11    1    4    4    0    0  0.44045910073E+01  0.12525116798E+01  0.63048731743E+01  0.77923445415E+01  0.51100000000E-03 0.  1.
         12    1    4    4    0    0  0.47610220318E+01  0.56897038732E+01  0.31419790330E+02  0.32283792920E+02  0.00000000000E+00 0. -1.
</event>
<event>
 8    1  0.8828843E-009  0.9118800E+02  0.7816164E-02  0.1184000E+00
        -11   -1    0    0    0    0  0.00000000000E+00  0.00000000000E+00  0.45593999997E+02  0.45594000000E+02  0.51100000000E-03 0. -1.
         11   -1    0    0    0    0 -0.00000000000E+00 -0.00000000000E+00 -0.45593999997E+02  0.45594000000E+02  0.51100000000E-03 0.  1.
         23    2    1    2    0    0  0.17763568394E-14 -0.35527136788E-14 -0.35527136788E-14  0.91188000000E+02  0.91188000000E+02 0.  0.
    9900012    2    3    3    0    0  0.14407246638E+02  0.29510828401E+02 -0.30832705333E+02  0.46142318002E+02  0.10000002193E+02 0.  0.
         12    1    3    3    0    0 -0.14407246638E+02 -0.29510828401E+02  0.30832705333E+02  0.45045681998E+02  0.00000000000E+00 0. -1.
         11    1    4    4    0    0  0.36232382725E+01  0.22113573893E+01 -0.28828173583E+01  0.51311395679E+01  0.51100000000E-03 0. -1.
        -11    1    4    4    0    0  0.49180074798E+01  0.53458121067E+01 -0.60756162422E+01  0.94698266951E+01  0.51100000000E-03 0.  1.
        -12    1    4    4    0    0  0.58660008853E+01  0.21953658905E+02 -0.21874271732E+02  0.31541351739E+02  0.00000000000E+00 0.  1.
</event>
<event>
 8    1  0.8828843E-009  0.9118800E+02  0.7816164E-02  0.1184000E+00
        -11   -1    0    0    0    0  0.00000000000E+00  0.00000000000E+00  0.45593999997E+02  0.45594000000E+02  0.51100000000E-03 0. -1.
         11   -1    0    0    0    0 -0.00000000000E+00 -0.00000000000E+00 -0.45593999997E+02  0.45594000000E+02  0.51100000000E-03 0.  1.
         23    2    1    2    0    0  0.00000000000E+00  0.00000000000E+00  0.00000000000E+00  0.91188000000E+02  0.91188000000E+02 0.  0.
    9900012    2    3    3    0    0  0.22635600370E+02  0.83030161313E+01 -0.38050006889E+02  0.46142317574E+02  0.99999982943E+01 0.  0.
         12    1    3    3    0    0 -0.22635600370E+02 -0.83030161313E+01  0.38050006889E+02  0.45045682426E+02  0.00000000000E+00 0. -1.
         11    1    4    4    0    0  0.51373705320E+01  0.90447681518E+00 -0.55214099843E+01  0.75958293009E+01  0.51100000000E-03 0. -1.
        -11    1    4    4    0    0  0.75447038397E+01  0.15161720298E+01 -0.65288725780E+01  0.10091952787E+02  0.51100000000E-03 0.  1.
         12    1    4    4    0    0  0.99535259985E+01  0.58823672862E+01 -0.25999724326E+02  0.28454535486E+02  0.00000000000E+00 0. -1.
</event>
<event>
 8    1  0.8828843E-009  0.9118800E+02  0.7816164E-02  0.1184000E+00
        -11   -1    0    0    0    0  0.00000000000E+00  0.00000000000E+00  0.45593999997E+02  0.45594000000E+02  0.51100000000E-03 0. -1.
         11   -1    0    0    0    0 -0.00000000000E+00 -0.00000000000E+00 -0.45593999997E+02  0.45594000000E+02  0.51100000000E-03 0.  1.
         23    2    1    2    0    0 -0.17763568394E-14  0.35527136788E-14  0.71054273576E-14  0.91188000000E+02  0.91188000000E+02 0.  0.
    9900012    2    3    3    0    0  0.14645471676E+02 -0.26310772786E+02 -0.33501745618E+02  0.46142316914E+02  0.99999922774E+01 0.  0.
         12    1    3    3    0    0 -0.14645471676E+02  0.26310772786E+02  0.33501745618E+02  0.45045683086E+02  0.00000000000E+00 0. -1.
         11    1    4    4    0    0  0.33580823509E+01 -0.24715363784E+01 -0.53798236524E+01  0.68064463516E+01  0.51100000000E-03 0. -1.
        -11    1    4    4    0    0  0.97454191648E+01 -0.22017076927E+02 -0.28023974138E+02  0.36946826627E+02  0.51100000000E-03 0.  1.
         12    1    4    4    0    0  0.15419701600E+01 -0.18221594811E+01 -0.97947828168E-01  0.23890439356E+01  0.00000000000E+00 0. -1.
</event>
<event>
 8    1  0.8828843E-009  0.9118800E+02  0.7816164E-02  0.1184000E+00
        -11   -1    0    0    0    0  0.00000000000E+00  0.00000000000E+00  0.45593999997E+02  0.45594000000E+02  0.51100000000E-03 0. -1.
         11   -1    0    0    0    0 -0.00000000000E+00 -0.00000000000E+00 -0.45593999997E+02  0.45594000000E+02  0.51100000000E-03 0.  1.
         23    2    1    2    0    0  0.22204460493E-15  0.00000000000E+00  0.00000000000E+00  0.91188000000E+02  0.91188000000E+02 0.  0.
    9900012    2    3    3    0    0  0.40810998114E+00  0.18866909973E+02 -0.40902160368E+02  0.46142316872E+02  0.99999918896E+01 0.  0.
         12    1    3    3    0    0 -0.40810998114E+00 -0.18866909973E+02  0.40902160368E+02  0.45045683128E+02  0.00000000000E+00 0. -1.
         11    1    4    4    0    0  0.18403584009E+01  0.61416536920E+01 -0.68837896420E+01  0.94070924952E+01  0.51100000000E-03 0. -1.
        -11    1    4    4    0    0 -0.29107422452E+01  0.11025763519E+02 -0.25682745200E+02  0.28100592215E+02  0.51100000000E-03 0.  1.
        -12    1    4    4    0    0  0.14784938254E+01  0.16994927625E+01 -0.83356255264E+01  0.86346321612E+01  0.00000000000E+00 0.  1.
</event>
<event>
 8    1  0.8828843E-009  0.9118800E+02  0.7816164E-02  0.1184000E+00
        -11   -1    0    0    0    0  0.00000000000E+00  0.00000000000E+00  0.45593999997E+02  0.45594000000E+02  0.51100000000E-03 0. -1.
         11   -1    0    0    0    0 -0.00000000000E+00 -0.00000000000E+00 -0.45593999997E+02  0.45594000000E+02  0.51100000000E-03 0.  1.
         23    2    1    2    0    0  0.00000000000E+00 -0.71054273576E-14  0.00000000000E+00  0.91188000000E+02  0.91188000000E+02 0.  0.
    9900012    2    3    3    0    0  0.15044209962E+02  0.33968826744E+02 -0.25473598480E+02  0.46142315820E+02  0.99999822984E+01 0.  0.
         12    1    3    3    0    0 -0.15044209962E+02 -0.33968826744E+02  0.25473598480E+02  0.45045684180E+02  0.00000000000E+00 0. -1.
         11    1    4    4    0    0  0.27655923989E+00  0.89272216493E+01 -0.37809896678E+01  0.96988481026E+01  0.51100000000E-03 0. -1.
        -11    1    4    4    0    0  0.61946205794E+01  0.79489996439E+01 -0.61919931247E+01  0.11827962571E+02  0.51100000000E-03 0.  1.
        -12    1    4    4    0    0  0.85730301430E+01  0.17092605451E+02 -0.15500615687E+02  0.24615505146E+02  0.00000000000E+00 0.  1.
</event>
<event>
 8    1  0.8828843E-009  0.9118800E+02  0.7816164E-02  0.1184000E+00
        -11   -1    0    0    0    0  0.00000000000E+00  0.00000000000E+00  0.45593999997E+02  0.45594000000E+02  0.51100000000E-03 0. -1.
         11   -1    0    0    0    0 -0.00000000000E+00 -0.00000000000E+00 -0.45593999997E+02  0.45594000000E+02  0.51100000000E-03 0.  1.
         23    2    1    2    0    0  0.00000000000E+00  0.00000000000E+00 -0.71054273576E-14  0.91188000000E+02  0.91188000000E+02 0.  0.
    9900012    2    3    3    0    0  0.29312160970E+02  0.22624795466E+01 -0.34129047633E+02  0.46142317779E+02  0.10000000165E+02 0.  0.
         12    1    3    3    0    0 -0.29312160970E+02 -0.22624795466E+01  0.34129047633E+02  0.45045682221E+02  0.00000000000E+00 0. -1.
         11    1    4    4    0    0  0.12586125856E+02 -0.21094100050E+01 -0.15910165200E+02  0.20395919484E+02  0.51100000000E-03 0.  1.
        -11    1    4    4    0    0  0.13399032562E+01 -0.12129683559E+01 -0.21508628909E+01  0.28094206529E+01  0.51100000000E-03 0. -1.
         12    1    4    4    0    0  0.15386131857E+02  0.55848579075E+01 -0.16068019542E+02  0.22936977642E+02  0.00000000000E+00 0. -1.
</event>
<event>
 8    1  0.8828843E-009  0.9118800E+02  0.7816164E-02  0.1184000E+00
        -11   -1    0    0    0    0  0.00000000000E+00  0.00000000000E+00  0.45593999997E+02  0.45594000000E+02  0.51100000000E-03 0. -1.
         11   -1    0    0    0    0 -0.00000000000E+00 -0.00000000000E+00 -0.45593999997E+02  0.45594000000E+02  0.51100000000E-03 0.  1.
         23    2    1    2    0    0  0.00000000000E+00  0.17763568394E-14 -0.35527136788E-14  0.91188000000E+02  0.91188000000E+02 0.  0.
    9900012    2    3    3    0    0  0.35636350219E+02  0.10591942113E+02 -0.25435697634E+02  0.46142318645E+02  0.10000008058E+02 0.  0.
         12    1    3    3    0    0 -0.35636350219E+02 -0.10591942113E+02  0.25435697634E+02  0.45045681355E+02  0.00000000000E+00 0. -1.
         11    1    4    4    0    0  0.79639007000E+01  0.86435201077E+00 -0.81208025467E+01  0.11406938810E+02  0.51100000000E-03 0. -1.
        -11    1    4    4    0    0  0.20907590506E+02  0.83156219454E+01 -0.16222578559E+02  0.27738943103E+02  0.51100000000E-03 0.  1.
        -12    1    4    4    0    0  0.67648590132E+01  0.14119681565E+01 -0.10923165281E+01  0.69964367317E+01  0.00000000000E+00 0.  1.
</event>
<event>
 8    1  0.8828843E-009  0.9118800E+02  0.7816164E-02  0.1184000E+00
        -11   -1    0    0    0    0  0.00000000000E+00  0.00000000000E+00  0.45593999997E+02  0.45594000000E+02  0.51100000000E-03 0.  1.
         11   -1    0    0    0    0 -0.00000000000E+00 -0.00000000000E+00 -0.45593999997E+02  0.45594000000E+02  0.51100000000E-03 0. -1.
         23    2    1    2    0    0 -0.17763568394E-14  0.00000000000E+00  0.00000000000E+00  0.91188000000E+02  0.91188000000E+02 0.  0.
    9900012    2    3    3    0    0  0.10503924651E+02 -0.40637530403E+02 -0.16351518814E+02  0.46142317878E+02  0.10000001067E+02 0.  0.
        -12    1    3    3    0    0 -0.10503924651E+02  0.40637530403E+02  0.16351518814E+02  0.45045682122E+02  0.00000000000E+00 0.  1.
         11    1    4    4    0    0  0.43729304105E+01 -0.24417001137E+02 -0.97418736209E+01  0.26649888683E+02  0.51100000000E-03 0. -1.
        -11    1    4    4    0    0  0.14314131041E+01 -0.11546345660E+02 -0.33586514790E+01  0.12109813442E+02  0.51100000000E-03 0.  1.
        -12    1    4    4    0    0  0.46995811362E+01 -0.46741836055E+01 -0.32509937143E+01  0.73826157535E+01  0.00000000000E+00 0.  1.
</event>
<event>
 8    1  0.8828843E-009  0.9118800E+02  0.7816164E-02  0.1184000E+00
        -11   -1    0    0    0    0  0.00000000000E+00  0.00000000000E+00  0.45593999997E+02  0.45594000000E+02  0.51100000000E-03 0. -1.
         11   -1    0    0    0    0 -0.00000000000E+00 -0.00000000000E+00 -0.45593999997E+02  0.45594000000E+02  0.51100000000E-03 0.  1.
         23    2    1    2    0    0  0.35527136788E-14  0.71054273576E-14  0.71054273576E-14  0.91188000000E+02  0.91188000000E+02 0.  0.
    9900012    2    3    3    0    0 -0.18519157681E+02 -0.22099280546E+02 -0.34608900705E+02  0.46142318633E+02  0.10000007948E+02 0.  0.
         12    1    3    3    0    0  0.18519157681E+02  0.22099280546E+02  0.34608900705E+02  0.45045681367E+02  0.00000000000E+00 0. -1.
         11    1    4    4    0    0 -0.73485282776E+01 -0.75336238646E+01 -0.95423208690E+01  0.14206063642E+02  0.51100000000E-03 0. -1.
        -11    1    4    4    0    0 -0.10981330851E+02 -0.99634844548E+01 -0.16313256220E+02  0.22045021626E+02  0.51100000000E-03 0.  1.
         12    1    4    4    0    0 -0.18929855221E+00 -0.46021722268E+01 -0.87533236153E+01  0.98912333640E+01  0.00000000000E+00 0. -1.
</event>
<event>
 8    1  0.8828843E-009  0.9118800E+02  0.7816164E-02  0.1184000E+00
        -11   -1    0    0    0    0  0.00000000000E+00  0.00000000000E+00  0.45593999997E+02  0.45594000000E+02  0.51100000000E-03 0.  1.
         11   -1    0    0    0    0 -0.00000000000E+00 -0.00000000000E+00 -0.45593999997E+02  0.45594000000E+02  0.51100000000E-03 0. -1.
         23    2    1    2    0    0  0.00000000000E+00  0.00000000000E+00  0.00000000000E+00  0.91188000000E+02  0.91188000000E+02 0.  0.
    9900012    2    3    3    0    0  0.18252550137E+01 -0.41567436792E+02 -0.17260652058E+02  0.46142318001E+02  0.10000002188E+02 0.  0.
         12    1    3    3    0    0 -0.18252550137E+01  0.41567436792E+02  0.17260652058E+02  0.45045681999E+02  0.00000000000E+00 0. -1.
         11    1    4    4    0    0 -0.13533661099E+01 -0.51913387677E+01 -0.16953758781E+01  0.56263574058E+01  0.51100000000E-03 0. -1.
        -11    1    4    4    0    0 -0.16257553913E+01 -0.53756784090E+01 -0.28876351547E+00  0.56235561327E+01  0.51100000000E-03 0.  1.
         12    1    4    4    0    0  0.48043765149E+01 -0.31000419615E+02 -0.15276512664E+02  0.34892404463E+02  0.00000000000E+00 0. -1.
</event>
<event>
 8    1  0.8828843E-009  0.9118800E+02  0.7816164E-02  0.1184000E+00
        -11   -1    0    0    0    0  0.00000000000E+00  0.00000000000E+00  0.45593999997E+02  0.45594000000E+02  0.51100000000E-03 0. -1.
         11   -1    0    0    0    0 -0.00000000000E+00 -0.00000000000E+00 -0.45593999997E+02  0.45594000000E+02  0.51100000000E-03 0.  1.
         23    2    1    2    0    0  0.00000000000E+00  0.00000000000E+00  0.00000000000E+00  0.91188000000E+02  0.91188000000E+02 0.  0.
    9900012    2    3    3    0    0 -0.12037077946E+02 -0.52296282822E+01 -0.43091451807E+02  0.46142317896E+02  0.10000001227E+02 0.  0.
         12    1    3    3    0    0  0.12037077946E+02  0.52296282822E+01  0.43091451807E+02  0.45045682104E+02  0.00000000000E+00 0. -1.
         11    1    4    4    0    0 -0.70973152456E+01 -0.16686055140E+01 -0.19776427205E+02  0.21077552071E+02  0.51100000000E-03 0.  1.
        -11    1    4    4    0    0 -0.46267376210E+01 -0.39958308090E+01 -0.98757059293E+01  0.11614772177E+02  0.51100000000E-03 0. -1.
         12    1    4    4    0    0 -0.31302507940E+00  0.43480804086E+00 -0.13439318673E+02  0.13449993648E+02  0.00000000000E+00 0. -1.
</event>
<event>
 8    1  0.8828843E-009  0.9118800E+02  0.7816164E-02  0.1184000E+00
        -11   -1    0    0    0    0  0.00000000000E+00  0.00000000000E+00  0.45593999997E+02  0.45594000000E+02  0.51100000000E-03 0. -1.
         11   -1    0    0    0    0 -0.00000000000E+00 -0.00000000000E+00 -0.45593999997E+02  0.45594000000E+02  0.51100000000E-03 0.  1.
         23    2    1    2    0    0  0.71054273576E-14 -0.88817841970E-15  0.71054273576E-14  0.91188000000E+02  0.91188000000E+02 0.  0.
    9900012    2    3    3    0    0  0.33455469943E+02 -0.34587964748E+01  0.29964674757E+02  0.46142317905E+02  0.10000001308E+02 0.  0.
        -12    1    3    3    0    0 -0.33455469943E+02  0.34587964748E+01 -0.29964674757E+02  0.45045682095E+02  0.00000000000E+00 0.  1.
         11    1    4    4    0    0  0.77827843832E+01  0.19354919783E+01  0.50825789575E+01  0.94947601905E+01  0.51100000000E-03 0. -1.
        -11    1    4    4    0    0 -0.22212719367E+00 -0.40530782516E-01 -0.12069233906E+00  0.25602760853E+00  0.51100000000E-03 0.  1.
         12    1    4    4    0    0  0.25894812753E+02 -0.53537576706E+01  0.25002788139E+02  0.36391530106E+02  0.00000000000E+00 0. -1.
</event>
<event>
 8    1  0.8828843E-009  0.9118800E+02  0.7816164E-02  0.1184000E+00
        -11   -1    0    0    0    0  0.00000000000E+00  0.00000000000E+00  0.45593999997E+02  0.45594000000E+02  0.51100000000E-03 0. -1.
         11   -1    0    0    0    0 -0.00000000000E+00 -0.00000000000E+00 -0.45593999997E+02  0.45594000000E+02  0.51100000000E-03 0.  1.
         23    2    1    2    0    0  0.71054273576E-14 -0.35527136788E-14  0.71054273576E-14  0.91188000000E+02  0.91188000000E+02 0.  0.
    9900012    2    3    3    0    0 -0.35021124002E+02  0.12954496793E+02 -0.25195542768E+02  0.46142317755E+02  0.99999999467E+01 0.  0.
         12    1    3    3    0    0  0.35021124002E+02 -0.12954496793E+02  0.25195542768E+02  0.45045682245E+02  0.00000000000E+00 0. -1.
         11    1    4    4    0    0 -0.14052122603E+01  0.18367366541E+01  0.40594897485E+00  0.23479816576E+01  0.51100000000E-03 0. -1.
        -11    1    4    4    0    0 -0.63385251020E+01  0.26241537380E+01 -0.63172677081E+01  0.93258219405E+01  0.51100000000E-03 0.  1.
        -12    1    4    4    0    0 -0.27277386639E+02  0.84936064013E+01 -0.19284224035E+02  0.34468514157E+02  0.00000000000E+00 0.  1.
</event>
<event>
 8    1  0.9537989E-009  0.9118800E+02  0.7816164E-02  0.1184000E+00
        -11   -1    0    0    0    0  0.00000000000E+00  0.00000000000E+00  0.45593999997E+02  0.45594000000E+02  0.51100000000E-03 0. -1.
         11   -1    0    0    0    0 -0.00000000000E+00 -0.00000000000E+00 -0.45593999997E+02  0.45594000000E+02  0.51100000000E-03 0.  1.
         23    2    1    2    0    0  0.17763568394E-14 -0.71054273576E-14 -0.71054273576E-14  0.91188000000E+02  0.91188000000E+02 0.  0.
    9900012    2    3    3    0    0  0.15299287730E+02  0.26358754248E+02  0.33170187307E+02  0.46142318115E+02  0.10000003225E+02 0.  0.
        -12    1    3    3    0    0 -0.15299287730E+02 -0.26358754248E+02 -0.33170187307E+02  0.45045681885E+02  0.00000000000E+00 0.  1.
         11    1    4    4    0    0  0.68318219418E+01  0.17286340273E+02  0.23118463145E+02  0.29664030231E+02  0.51100000000E-03 0. -1.
        -11    1    4    4    0    0  0.46328283542E+01  0.66514002420E+01  0.83425272513E+01  0.11631938142E+02  0.51100000000E-03 0.  1.
        -12    1    4    4    0    0  0.38346374341E+01  0.24210137326E+01  0.17091969107E+01  0.48463497422E+01  0.00000000000E+00 0.  1.
</event>
<event>
 8    1  0.8828843E-009  0.9118800E+02  0.7816164E-02  0.1184000E+00
        -11   -1    0    0    0    0  0.00000000000E+00  0.00000000000E+00  0.45593999997E+02  0.45594000000E+02  0.51100000000E-03 0.  1.
         11   -1    0    0    0    0 -0.00000000000E+00 -0.00000000000E+00 -0.45593999997E+02  0.45594000000E+02  0.51100000000E-03 0. -1.
         23    2    1    2    0    0 -0.14210854715E-13 -0.71054273576E-14 -0.35527136788E-14  0.91188000000E+02  0.91188000000E+02 0.  0.
    9900012    2    3    3    0    0 -0.32999990225E+02 -0.28615827092E+02 -0.11011281196E+02  0.46142320645E+02  0.10000026295E+02 0.  0.
        -12    1    3    3    0    0  0.32999990225E+02  0.28615827092E+02  0.11011281196E+02  0.45045679355E+02  0.00000000000E+00 0.  1.
         11    1    4    4    0    0 -0.24671048635E+02 -0.21587721515E+02 -0.62522813338E+01  0.33373363377E+02  0.51100000000E-03 0. -1.
        -11    1    4    4    0    0 -0.44430346264E+01 -0.44847781997E+01 -0.28367105419E+00  0.63193561159E+01  0.51100000000E-03 0.  1.
        -12    1    4    4    0    0 -0.38859069632E+01 -0.25433273776E+01 -0.44753288077E+01  0.64496011515E+01  0.00000000000E+00 0.  1.
</event>
<event>
 8    1  0.8828843E-009  0.9118800E+02  0.7816164E-02  0.1184000E+00
        -11   -1    0    0    0    0  0.00000000000E+00  0.00000000000E+00  0.45593999997E+02  0.45594000000E+02  0.51100000000E-03 0.  1.
         11   -1    0    0    0    0 -0.00000000000E+00 -0.00000000000E+00 -0.45593999997E+02  0.45594000000E+02  0.51100000000E-03 0. -1.
         23    2    1    2    0    0  0.00000000000E+00  0.00000000000E+00  0.00000000000E+00  0.91188000000E+02  0.91188000000E+02 0.  0.
    9900012    2    3    3    0    0  0.37854415735E+02 -0.18497705007E+02  0.15937112554E+02  0.46142318324E+02  0.10000005129E+02 0.  0.
        -12    1    3    3    0    0 -0.37854415735E+02  0.18497705007E+02 -0.15937112554E+02  0.45045681676E+02  0.00000000000E+00 0.  1.
         11    1    4    4    0    0  0.67577567095E+01 -0.48400065299E+01  0.38867208688E+01  0.91760306412E+01  0.51100000000E-03 0. -1.
        -11    1    4    4    0    0  0.36208070473E+01 -0.18077891949E+01  0.46069851412E+01  0.61321006025E+01  0.51100000000E-03 0.  1.
        -12    1    4    4    0    0  0.27475851978E+02 -0.11849909282E+02  0.74434065439E+01  0.30834187080E+02  0.00000000000E+00 0.  1.
</event>
<event>
 8    1  0.8828843E-009  0.9118800E+02  0.7816164E-02  0.1184000E+00
        -11   -1    0    0    0    0  0.00000000000E+00  0.00000000000E+00  0.45593999997E+02  0.45594000000E+02  0.51100000000E-03 0. -1.
         11   -1    0    0    0    0 -0.00000000000E+00 -0.00000000000E+00 -0.45593999997E+02  0.45594000000E+02  0.51100000000E-03 0.  1.
         23    2    1    2    0    0  0.00000000000E+00  0.35527136788E-14  0.00000000000E+00  0.91188000000E+02  0.91188000000E+02 0.  0.
    9900012    2    3    3    0    0 -0.18202237740E+02 -0.17913643591E+02 -0.37106514977E+02  0.46142317197E+02  0.99999948575E+01 0.  0.
         12    1    3    3    0    0  0.18202237740E+02  0.17913643591E+02  0.37106514977E+02  0.45045682803E+02  0.00000000000E+00 0. -1.
         11    1    4    4    0    0 -0.22980974410E+00 -0.10060643691E+01 -0.47369024498E+01  0.48480122847E+01  0.51100000000E-03 0. -1.
        -11    1    4    4    0    0 -0.65820168152E+01 -0.74108318153E+01 -0.78716158290E+01  0.12657239413E+02  0.51100000000E-03 0.  1.
         12    1    4    4    0    0 -0.11390411181E+02 -0.94967474062E+01 -0.24497996698E+02  0.28637065499E+02  0.00000000000E+00 0. -1.
</event>
<event>
 8    1  0.8828843E-009  0.9118800E+02  0.7816164E-02  0.1184000E+00
        -11   -1    0    0    0    0  0.00000000000E+00  0.00000000000E+00  0.45593999997E+02  0.45594000000E+02  0.51100000000E-03 0. -1.
         11   -1    0    0    0    0 -0.00000000000E+00 -0.00000000000E+00 -0.45593999997E+02  0.45594000000E+02  0.51100000000E-03 0.  1.
         23    2    1    2    0    0  0.00000000000E+00  0.00000000000E+00  0.35527136788E-14  0.91188000000E+02  0.91188000000E+02 0.  0.
    9900012    2    3    3    0    0  0.35990994176E+02  0.10289573128E+02 -0.25057664443E+02  0.46142317363E+02  0.99999963689E+01 0.  0.
         12    1    3    3    0    0 -0.35990994176E+02 -0.10289573128E+02  0.25057664443E+02  0.45045682637E+02  0.00000000000E+00 0. -1.
         11    1    4    4    0    0  0.85292697043E+01  0.59192409231E+00 -0.54218330628E+01  0.10123985867E+02  0.51100000000E-03 0. -1.
        -11    1    4    4    0    0  0.72587329783E+01  0.94639622153E+00 -0.14511225144E+01  0.74626152970E+01  0.51100000000E-03 0.  1.
        -12    1    4    4    0    0  0.20202991493E+02  0.87512528142E+01 -0.18184708865E+02  0.28555716199E+02  0.00000000000E+00 0.  1.
</event>
<event>
 8    1  0.8828843E-009  0.9118800E+02  0.7816164E-02  0.1184000E+00
        -11   -1    0    0    0    0  0.00000000000E+00  0.00000000000E+00  0.45593999997E+02  0.45594000000E+02  0.51100000000E-03 0. -1.
         11   -1    0    0    0    0 -0.00000000000E+00 -0.00000000000E+00 -0.45593999997E+02  0.45594000000E+02  0.51100000000E-03 0.  1.
         23    2    1    2    0    0  0.77715611724E-15  0.00000000000E+00  0.00000000000E+00  0.91188000000E+02  0.91188000000E+02 0.  0.
    9900012    2    3    3    0    0 -0.36865550998E+00  0.38535453095E+01 -0.44879036917E+02  0.46142315712E+02  0.99999813156E+01 0.  0.
         12    1    3    3    0    0  0.36865550998E+00 -0.38535453095E+01  0.44879036917E+02  0.45045684288E+02  0.00000000000E+00 0. -1.
         11    1    4    4    0    0 -0.15435627805E+01  0.15074980690E+01 -0.13799437048E+02  0.13967089876E+02  0.51100000000E-03 0. -1.
        -11    1    4    4    0    0  0.31397090187E+01 -0.14119601511E+01 -0.20329832874E+02  0.20619250936E+02  0.51100000000E-03 0.  1.
        -12    1    4    4    0    0 -0.19648017482E+01  0.37580073917E+01 -0.10749766995E+02  0.11555974901E+02  0.00000000000E+00 0.  1.
</event>
<event>
 8    1  0.8828843E-009  0.9118800E+02  0.7816164E-02  0.1184000E+00
        -11   -1    0    0    0    0  0.00000000000E+00  0.00000000000E+00  0.45593999997E+02  0.45594000000E+02  0.51100000000E-03 0. -1.
         11   -1    0    0    0    0 -0.00000000000E+00 -0.00000000000E+00 -0.45593999997E+02  0.45594000000E+02  0.51100000000E-03 0.  1.
         23    2    1    2    0    0  0.00000000000E+00  0.00000000000E+00  0.71054273576E-14  0.91188000000E+02  0.91188000000E+02 0.  0.
    9900012    2    3    3    0    0 -0.48129269505E+01 -0.19447742306E+02 -0.40345191894E+02  0.46142318125E+02  0.10000003319E+02 0.  0.
         12    1    3    3    0    0  0.48129269505E+01  0.19447742306E+02  0.40345191894E+02  0.45045681875E+02  0.00000000000E+00 0. -1.
         11    1    4    4    0    0 -0.71647397150E+00  0.11304736351E+01 -0.31947847810E+01  0.34638065260E+01  0.51100000000E-03 0. -1.
        -11    1    4    4    0    0 -0.29194719305E+01 -0.16733227789E+02 -0.30092443409E+02  0.34555453683E+02  0.51100000000E-03 0.  1.
         12    1    4    4    0    0 -0.11769810485E+01 -0.38449881514E+01 -0.70579637035E+01  0.81230579164E+01  0.00000000000E+00 0. -1.
</event>
<event>
 8    1  0.8828843E-009  0.9118800E+02  0.7816164E-02  0.1184000E+00
        -11   -1    0    0    0    0  0.00000000000E+00  0.00000000000E+00  0.45593999997E+02  0.45594000000E+02  0.51100000000E-03 0. -1.
         11   -1    0    0    0    0 -0.00000000000E+00 -0.00000000000E+00 -0.45593999997E+02  0.45594000000E+02  0.51100000000E-03 0.  1.
         23    2    1    2    0    0  0.00000000000E+00  0.00000000000E+00  0.00000000000E+00  0.91188000000E+02  0.91188000000E+02 0.  0.
    9900012    2    3    3    0    0  0.54437459696E+01 -0.36175453055E+02  0.26283373339E+02  0.46142317766E+02  0.10000000041E+02 0.  0.
        -12    1    3    3    0    0 -0.54437459696E+01  0.36175453055E+02 -0.26283373339E+02  0.45045682234E+02  0.00000000000E+00 0.  1.
         11    1    4    4    0    0  0.43876459927E+01 -0.73390348767E+01  0.43172556142E+01  0.95787038047E+01  0.51100000000E-03 0. -1.
        -11    1    4    4    0    0  0.36915851792E+00 -0.32119475162E+00 -0.10205975005E+00  0.49986051407E+00  0.51100000000E-03 0.  1.
        -12    1    4    4    0    0  0.68694145897E+00 -0.28515223427E+02  0.22068177474E+02  0.36063753447E+02  0.00000000000E+00 0.  1.
</event>
<event>
 8    1  0.8828843E-009  0.9118800E+02  0.7816164E-02  0.1184000E+00
        -11   -1    0    0    0    0  0.00000000000E+00  0.00000000000E+00  0.45593999997E+02  0.45594000000E+02  0.51100000000E-03 0. -1.
         11   -1    0    0    0    0 -0.00000000000E+00 -0.00000000000E+00 -0.45593999997E+02  0.45594000000E+02  0.51100000000E-03 0.  1.
         23    2    1    2    0    0  0.71054273576E-14  0.00000000000E+00  0.35527136788E-14  0.91188000000E+02  0.91188000000E+02 0.  0.
    9900012    2    3    3    0    0 -0.33681194753E+02 -0.19623293705E+02 -0.22574698694E+02  0.46142317000E+02  0.99999930559E+01 0.  0.
         12    1    3    3    0    0  0.33681194753E+02  0.19623293705E+02  0.22574698694E+02  0.45045683000E+02  0.00000000000E+00 0. -1.
         11    1    4    4    0    0 -0.26868864453E+01  0.89570438195E+00 -0.80611130556E+00  0.29447344206E+01  0.51100000000E-03 0. -1.
        -11    1    4    4    0    0 -0.28499690048E+02 -0.17845282714E+02 -0.20128859628E+02  0.39190017072E+02  0.51100000000E-03 0.  1.
         12    1    4    4    0    0 -0.24946182604E+01 -0.26737153730E+01 -0.16397277606E+01  0.40075655067E+01  0.00000000000E+00 0. -1.
</event>
<event>
 8    1  0.8828843E-009  0.9118800E+02  0.7816164E-02  0.1184000E+00
        -11   -1    0    0    0    0  0.00000000000E+00  0.00000000000E+00  0.45593999997E+02  0.45594000000E+02  0.51100000000E-03 0. -1.
         11   -1    0    0    0    0 -0.00000000000E+00 -0.00000000000E+00 -0.45593999997E+02  0.45594000000E+02  0.51100000000E-03 0.  1.
         23    2    1    2    0    0 -0.88817841970E-15  0.00000000000E+00  0.00000000000E+00  0.91188000000E+02  0.91188000000E+02 0.  0.
    9900012    2    3    3    0    0  0.60010291752E+01  0.90614300658E+01 -0.43714889456E+02  0.46142318452E+02  0.10000006298E+02 0.  0.
         12    1    3    3    0    0 -0.60010291752E+01 -0.90614300658E+01  0.43714889456E+02  0.45045681548E+02  0.00000000000E+00 0. -1.
         11    1    4    4    0    0  0.12912583148E+01  0.56437337033E+01 -0.25650488515E+02  0.26295753259E+02  0.51100000000E-03 0. -1.
        -11    1    4    4    0    0  0.59960766972E+01  0.34194823229E+01 -0.15807227843E+02  0.17248601318E+02  0.51100000000E-03 0.  1.
         12    1    4    4    0    0 -0.12863058368E+01 -0.17859604669E-02 -0.22571730985E+01  0.25979638743E+01  0.00000000000E+00 0. -1.
</event>
<event>
 8    1  0.8828843E-009  0.9118800E+02  0.7816164E-02  0.1184000E+00
        -11   -1    0    0    0    0  0.00000000000E+00  0.00000000000E+00  0.45593999997E+02  0.45594000000E+02  0.51100000000E-03 0. -1.
         11   -1    0    0    0    0 -0.00000000000E+00 -0.00000000000E+00 -0.45593999997E+02  0.45594000000E+02  0.51100000000E-03 0.  1.
         23    2    1    2    0    0  0.17763568394E-14 -0.71054273576E-14  0.00000000000E+00  0.91188000000E+02  0.91188000000E+02 0.  0.
    9900012    2    3    3    0    0  0.63358392282E+01 -0.37347793080E+02 -0.24374419408E+02  0.46142325090E+02  0.10000066829E+02 0.  0.
         12    1    3    3    0    0 -0.63358392282E+01  0.37347793080E+02  0.24374419408E+02  0.45045674910E+02  0.00000000000E+00 0. -1.
         11    1    4    4    0    0  0.14984931819E+01 -0.26864153364E+01 -0.34810423582E+01  0.46454241288E+01  0.51100000000E-03 0. -1.
        -11    1    4    4    0    0  0.99294924184E+00 -0.23330402900E+01  0.44038517655E+00  0.25735121054E+01  0.51100000000E-03 0.  1.
        -12    1    4    4    0    0  0.38443968045E+01 -0.32328337453E+02 -0.21333762226E+02  0.38923388856E+02  0.00000000000E+00 0.  1.
</event>
<event>
 8    1  0.8828843E-009  0.9118800E+02  0.7816164E-02  0.1184000E+00
        -11   -1    0    0    0    0  0.00000000000E+00  0.00000000000E+00  0.45593999997E+02  0.45594000000E+02  0.51100000000E-03 0. -1.
         11   -1    0    0    0    0 -0.00000000000E+00 -0.00000000000E+00 -0.45593999997E+02  0.45594000000E+02  0.51100000000E-03 0.  1.
         23    2    1    2    0    0 -0.17763568394E-14  0.00000000000E+00  0.00000000000E+00  0.91188000000E+02  0.91188000000E+02 0.  0.
    9900012    2    3    3    0    0 -0.13533294748E+02 -0.13486033103E+02  0.40793264262E+02  0.46142316913E+02  0.99999922668E+01 0.  0.
        -12    1    3    3    0    0  0.13533294748E+02  0.13486033103E+02 -0.40793264262E+02  0.45045683087E+02  0.00000000000E+00 0.  1.
         11    1    4    4    0    0 -0.10298019692E+02 -0.85641207687E+01  0.35163030836E+02  0.37627544591E+02  0.51100000000E-03 0. -1.
        -11    1    4    4    0    0 -0.25784317808E+01 -0.41600284366E+01  0.56920928242E+01  0.75069346622E+01  0.51100000000E-03 0.  1.
         12    1    4    4    0    0 -0.65684327572E+00 -0.76188389822E+00 -0.61859398294E-01  0.10078376597E+01  0.00000000000E+00 0. -1.
</event>
<event>
 8    1  0.8828843E-009  0.9118800E+02  0.7816164E-02  0.1184000E+00
        -11   -1    0    0    0    0  0.00000000000E+00  0.00000000000E+00  0.45593999997E+02  0.45594000000E+02  0.51100000000E-03 0. -1.
         11   -1    0    0    0    0 -0.00000000000E+00 -0.00000000000E+00 -0.45593999997E+02  0.45594000000E+02  0.51100000000E-03 0.  1.
         23    2    1    2    0    0  0.35527136788E-14  0.00000000000E+00  0.00000000000E+00  0.91188000000E+02  0.91188000000E+02 0.  0.
    9900012    2    3    3    0    0  0.11508310230E+02  0.12945710919E+02  0.41582217997E+02  0.46142317753E+02  0.99999999253E+01 0.  0.
        -12    1    3    3    0    0 -0.11508310230E+02 -0.12945710919E+02 -0.41582217997E+02  0.45045682247E+02  0.00000000000E+00 0.  1.
         11    1    4    4    0    0  0.26348584141E+01  0.35923419218E+01  0.23097430812E+02  0.23523152632E+02  0.51100000000E-03 0. -1.
        -11    1    4    4    0    0  0.33984576516E+01  0.40822724942E+01  0.61013600872E+01  0.80895647782E+01  0.51100000000E-03 0.  1.
         12    1    4    4    0    0  0.54749941647E+01  0.52710965032E+01  0.12383427097E+02  0.14529600343E+02  0.00000000000E+00 0. -1.
</event>
<event>
 8    1  0.8828843E-009  0.9118800E+02  0.7816164E-02  0.1184000E+00
        -11   -1    0    0    0    0  0.00000000000E+00  0.00000000000E+00  0.45593999997E+02  0.45594000000E+02  0.51100000000E-03 0. -1.
         11   -1    0    0    0    0 -0.00000000000E+00 -0.00000000000E+00 -0.45593999997E+02  0.45594000000E+02  0.51100000000E-03 0.  1.
         23    2    1    2    0    0  0.00000000000E+00 -0.35527136788E-14  0.71054273576E-14  0.91188000000E+02  0.91188000000E+02 0.  0.
    9900012    2    3    3    0    0 -0.11456738089E+02  0.25362642300E+02 -0.35420234534E+02  0.46142317782E+02  0.10000000189E+02 0.  0.
         12    1    3    3    0    0  0.11456738089E+02 -0.25362642300E+02  0.35420234534E+02  0.45045682218E+02  0.00000000000E+00 0. -1.
         11    1    4    4    0    0 -0.61919961187E+01  0.88353318511E+01 -0.18850676028E+02  0.21719850180E+02  0.51100000000E-03 0. -1.
        -11    1    4    4    0    0 -0.16611697194E+01  0.40553446036E+01 -0.17449172570E+01  0.47169949317E+01  0.51100000000E-03 0.  1.
        -12    1    4    4    0    0 -0.36035722510E+01  0.12471965845E+02 -0.14824641248E+02  0.19705472670E+02  0.00000000000E+00 0.  1.
</event>
<event>
 8    1  0.8828843E-009  0.9118800E+02  0.7816164E-02  0.1184000E+00
        -11   -1    0    0    0    0  0.00000000000E+00  0.00000000000E+00  0.45593999997E+02  0.45594000000E+02  0.51100000000E-03 0. -1.
         11   -1    0    0    0    0 -0.00000000000E+00 -0.00000000000E+00 -0.45593999997E+02  0.45594000000E+02  0.51100000000E-03 0.  1.
         23    2    1    2    0    0  0.35527136788E-14 -0.71054273576E-14  0.35527136788E-14  0.91188000000E+02  0.91188000000E+02 0.  0.
    9900012    2    3    3    0    0  0.22689654039E+02 -0.32118018334E+02  0.21971024928E+02  0.46142318315E+02  0.10000005048E+02 0.  0.
        -12    1    3    3    0    0 -0.22689654039E+02  0.32118018334E+02 -0.21971024928E+02  0.45045681685E+02  0.00000000000E+00 0.  1.
         11    1    4    4    0    0  0.96107956081E+01 -0.95285627170E+01  0.87628227228E+01  0.16122901786E+02  0.51100000000E-03 0. -1.
        -11    1    4    4    0    0  0.11562405219E+02 -0.13834331779E+02  0.80516856974E+01  0.19746077916E+02  0.51100000000E-03 0.  1.
        -12    1    4    4    0    0  0.15164532119E+01 -0.87551238381E+01  0.51565165077E+01  0.10273338613E+02  0.00000000000E+00 0.  1.
</event>
<event>
 8    1  0.8828843E-009  0.9118800E+02  0.7816164E-02  0.1184000E+00
        -11   -1    0    0    0    0  0.00000000000E+00  0.00000000000E+00  0.45593999997E+02  0.45594000000E+02  0.51100000000E-03 0. -1.
         11   -1    0    0    0    0 -0.00000000000E+00 -0.00000000000E+00 -0.45593999997E+02  0.45594000000E+02  0.51100000000E-03 0.  1.
         23    2    1    2    0    0  0.00000000000E+00 -0.35527136788E-14 -0.35527136788E-14  0.91188000000E+02  0.91188000000E+02 0.  0.
    9900012    2    3    3    0    0  0.19024932765E+02 -0.27322376347E+02 -0.30342267705E+02  0.46142317349E+02  0.99999962433E+01 0.  0.
         12    1    3    3    0    0 -0.19024932765E+02  0.27322376347E+02  0.30342267705E+02  0.45045682651E+02  0.00000000000E+00 0. -1.
         11    1    4    4    0    0  0.28293709574E+01 -0.35942077488E+01 -0.31894478841E+01  0.55764009381E+01  0.51100000000E-03 0. -1.
        -11    1    4    4    0    0  0.83603581910E+01 -0.50362338398E+01 -0.72336488991E+01  0.12148453277E+02  0.51100000000E-03 0.  1.
         12    1    4    4    0    0  0.78352036166E+01 -0.18691934759E+02 -0.19919170922E+02  0.28417463134E+02  0.00000000000E+00 0. -1.
</event>
<event>
 8    1  0.8828843E-009  0.9118800E+02  0.7816164E-02  0.1184000E+00
        -11   -1    0    0    0    0  0.00000000000E+00  0.00000000000E+00  0.45593999997E+02  0.45594000000E+02  0.51100000000E-03 0. -1.
         11   -1    0    0    0    0 -0.00000000000E+00 -0.00000000000E+00 -0.45593999997E+02  0.45594000000E+02  0.51100000000E-03 0.  1.
         23    2    1    2    0    0 -0.71054273576E-14 -0.88817841970E-15 -0.71054273576E-14  0.91188000000E+02  0.91188000000E+02 0.  0.
    9900012    2    3    3    0    0 -0.37216871052E+02 -0.79541610501E+01 -0.24098742958E+02  0.46142316732E+02  0.99999906180E+01 0.  0.
         12    1    3    3    0    0  0.37216871052E+02  0.79541610501E+01  0.24098742958E+02  0.45045683268E+02  0.00000000000E+00 0. -1.
         11    1    4    4    0    0 -0.94530104115E+01 -0.35130235785E+00 -0.84206182537E+01  0.12664502802E+02  0.51100000000E-03 0. -1.
        -11    1    4    4    0    0 -0.97326675295E+01 -0.27938182015E+01 -0.19525108628E+01  0.10312251758E+02  0.51100000000E-03 0.  1.
        -12    1    4    4    0    0 -0.18031193111E+02 -0.48090404907E+01 -0.13725613842E+02  0.23165562173E+02  0.00000000000E+00 0.  1.
</event>
<event>
 8    1  0.1129540E-008  0.9118800E+02  0.7816164E-02  0.1184000E+00
        -11   -1    0    0    0    0  0.00000000000E+00  0.00000000000E+00  0.45593999997E+02  0.45594000000E+02  0.51100000000E-03 0. -1.
         11   -1    0    0    0    0 -0.00000000000E+00 -0.00000000000E+00 -0.45593999997E+02  0.45594000000E+02  0.51100000000E-03 0.  1.
         23    2    1    2    0    0  0.00000000000E+00 -0.23592239273E-15  0.00000000000E+00  0.91188000000E+02  0.91188000000E+02 0.  0.
    9900012    2    3    3    0    0 -0.75841328008E+01  0.85891386560E-01  0.44402556549E+02  0.46142317901E+02  0.10000001279E+02 0.  0.
        -12    1    3    3    0    0  0.75841328008E+01 -0.85891386560E-01 -0.44402556549E+02  0.45045682099E+02  0.00000000000E+00 0.  1.
         11    1    4    4    0    0 -0.49782092270E+01  0.24105945983E+01  0.30443955191E+02  0.30942332513E+02  0.51100000000E-03 0. -1.
        -11    1    4    4    0    0 -0.39812018117E+01 -0.20225183242E+01  0.11859577462E+02  0.12672415952E+02  0.51100000000E-03 0.  1.
        -12    1    4    4    0    0  0.13752782379E+01 -0.30218488756E+00  0.20990238962E+01  0.25275694362E+01  0.00000000000E+00 0.  1.
</event>
<event>
 8    1  0.8828843E-009  0.9118800E+02  0.7816164E-02  0.1184000E+00
        -11   -1    0    0    0    0  0.00000000000E+00  0.00000000000E+00  0.45593999997E+02  0.45594000000E+02  0.51100000000E-03 0.  1.
         11   -1    0    0    0    0 -0.00000000000E+00 -0.00000000000E+00 -0.45593999997E+02  0.45594000000E+02  0.51100000000E-03 0. -1.
         23    2    1    2    0    0 -0.35527136788E-14  0.00000000000E+00  0.00000000000E+00  0.91188000000E+02  0.91188000000E+02 0.  0.
    9900012    2    3    3    0    0 -0.30497518231E+02 -0.23588854498E+02 -0.23293361490E+02  0.46142319138E+02  0.10000012557E+02 0.  0.
         12    1    3    3    0    0  0.30497518231E+02  0.23588854498E+02  0.23293361490E+02  0.45045680862E+02  0.00000000000E+00 0. -1.
         11    1    4    4    0    0 -0.13632757078E+02 -0.47929584239E+01 -0.82236774222E+01  0.16626887460E+02  0.51100000000E-03 0. -1.
        -11    1    4    4    0    0 -0.62536742165E+01 -0.52227632950E+01 -0.46622104042E+01  0.93873267631E+01  0.51100000000E-03 0.  1.
        -12    1    4    4    0    0 -0.10611086937E+02 -0.13573132779E+02 -0.10407473664E+02  0.20128104915E+02  0.00000000000E+00 0.  1.
</event>
<event>
 8    1  0.8828843E-009  0.9118800E+02  0.7816164E-02  0.1184000E+00
        -11   -1    0    0    0    0  0.00000000000E+00  0.00000000000E+00  0.45593999997E+02  0.45594000000E+02  0.51100000000E-03 0.  1.
         11   -1    0    0    0    0 -0.00000000000E+00 -0.00000000000E+00 -0.45593999997E+02  0.45594000000E+02  0.51100000000E-03 0. -1.
         23    2    1    2    0    0  0.00000000000E+00 -0.17763568394E-14  0.00000000000E+00  0.91188000000E+02  0.91188000000E+02 0.  0.
    9900012    2    3    3    0    0 -0.43324176434E+02 -0.12025952069E+02 -0.27396896378E+01  0.46142315565E+02  0.99999799782E+01 0.  0.
        -12    1    3    3    0    0  0.43324176434E+02  0.12025952069E+02  0.27396896378E+01  0.45045684435E+02  0.00000000000E+00 0.  1.
         11    1    4    4    0    0 -0.84698365836E+01 -0.71073327055E-01 -0.24377143379E+01  0.88139454630E+01  0.51100000000E-03 0. -1.
        -11    1    4    4    0    0  0.13274511281E+00 -0.43037492669E+00 -0.19794018721E+00  0.49195977613E+00  0.51100000000E-03 0.  1.
        -12    1    4    4    0    0 -0.34987084963E+02 -0.11524503815E+02 -0.10403511270E+00  0.36836410326E+02  0.00000000000E+00 0.  1.
</event>
<event>
 8    1  0.8828843E-009  0.9118800E+02  0.7816164E-02  0.1184000E+00
        -11   -1    0    0    0    0  0.00000000000E+00  0.00000000000E+00  0.45593999997E+02  0.45594000000E+02  0.51100000000E-03 0. -1.
         11   -1    0    0    0    0 -0.00000000000E+00 -0.00000000000E+00 -0.45593999997E+02  0.45594000000E+02  0.51100000000E-03 0.  1.
         23    2    1    2    0    0  0.35527136788E-14  0.00000000000E+00  0.00000000000E+00  0.91188000000E+02  0.91188000000E+02 0.  0.
    9900012    2    3    3    0    0 -0.16691303014E+02  0.29345000359E+02 -0.29822537207E+02  0.46142330199E+02  0.10000113417E+02 0.  0.
         12    1    3    3    0    0  0.16691303014E+02 -0.29345000359E+02  0.29822537207E+02  0.45045669801E+02  0.00000000000E+00 0. -1.
         11    1    4    4    0    0  0.14634734713E+00  0.61644526398E+00 -0.11583925253E+01  0.13203392796E+01  0.51100000000E-03 0.  1.
        -11    1    4    4    0    0 -0.14957360387E+02  0.28038209122E+02 -0.28698020698E+02  0.42818689760E+02  0.51100000000E-03 0. -1.
         12    1    4    4    0    0 -0.18802899745E+01  0.69034597277E+00  0.33876016401E-01  0.20033011593E+01  0.00000000000E+00 0. -1.
</event>
<event>
 8    1  0.8828843E-009  0.9118800E+02  0.7816164E-02  0.1184000E+00
        -11   -1    0    0    0    0  0.00000000000E+00  0.00000000000E+00  0.45593999997E+02  0.45594000000E+02  0.51100000000E-03 0.  1.
         11   -1    0    0    0    0 -0.00000000000E+00 -0.00000000000E+00 -0.45593999997E+02  0.45594000000E+02  0.51100000000E-03 0. -1.
         23    2    1    2    0    0 -0.71054273576E-14  0.00000000000E+00  0.00000000000E+00  0.91188000000E+02  0.91188000000E+02 0.  0.
    9900012    2    3    3    0    0  0.34076135984E+02  0.17935858207E+02  0.23371680975E+02  0.46142317357E+02  0.99999963129E+01 0.  0.
        -12    1    3    3    0    0 -0.34076135984E+02 -0.17935858207E+02 -0.23371680975E+02  0.45045682643E+02  0.00000000000E+00 0.  1.
         11    1    4    4    0    0  0.92469282035E+01  0.48338074597E+01  0.56630117511E+01  0.11871860769E+02  0.51100000000E-03 0. -1.
        -11    1    4    4    0    0  0.15468762378E+02  0.51528666537E+01  0.62099156474E+01  0.17446996787E+02  0.51100000000E-03 0.  1.
         12    1    4    4    0    0  0.93604454020E+01  0.79491840934E+01  0.11498753576E+02  0.16823459801E+02  0.00000000000E+00 0. -1.
</event>
<event>
 8    1  0.8828843E-009  0.9118800E+02  0.7816164E-02  0.1184000E+00
        -11   -1    0    0    0    0  0.00000000000E+00  0.00000000000E+00  0.45593999997E+02  0.45594000000E+02  0.51100000000E-03 0. -1.
         11   -1    0    0    0    0 -0.00000000000E+00 -0.00000000000E+00 -0.45593999997E+02  0.45594000000E+02  0.51100000000E-03 0.  1.
         23    2    1    2    0    0  0.00000000000E+00  0.00000000000E+00  0.00000000000E+00  0.91188000000E+02  0.91188000000E+02 0.  0.
    9900012    2    3    3    0    0 -0.26126490572E+02  0.25219512864E+02 -0.26655134309E+02  0.46142317368E+02  0.99999964187E+01 0.  0.
         12    1    3    3    0    0  0.26126490572E+02 -0.25219512864E+02  0.26655134309E+02  0.45045682632E+02  0.00000000000E+00 0. -1.
         11    1    4    4    0    0 -0.39249161767E+01  0.26821374216E+01 -0.13773964299E+01  0.49493483742E+01  0.51100000000E-03 0. -1.
        -11    1    4    4    0    0 -0.79935800537E+01  0.64351894130E+01 -0.12620173405E+02  0.16265846486E+02  0.51100000000E-03 0.  1.
        -12    1    4    4    0    0 -0.14207994342E+02  0.16102186030E+02 -0.12657564474E+02  0.24927122508E+02  0.00000000000E+00 0.  1.
</event>
<event>
 8    1  0.8828843E-009  0.9118800E+02  0.7816164E-02  0.1184000E+00
        -11   -1    0    0    0    0  0.00000000000E+00  0.00000000000E+00  0.45593999997E+02  0.45594000000E+02  0.51100000000E-03 0. -1.
         11   -1    0    0    0    0 -0.00000000000E+00 -0.00000000000E+00 -0.45593999997E+02  0.45594000000E+02  0.51100000000E-03 0.  1.
         23    2    1    2    0    0  0.71054273576E-14  0.00000000000E+00  0.00000000000E+00  0.91188000000E+02  0.91188000000E+02 0.  0.
    9900012    2    3    3    0    0 -0.33534970817E+02  0.22780732449E+02 -0.19635616662E+02  0.46142317850E+02  0.10000000813E+02 0.  0.
         12    1    3    3    0    0  0.33534970817E+02 -0.22780732449E+02  0.19635616662E+02  0.45045682150E+02  0.00000000000E+00 0. -1.
         11    1    4    4    0    0 -0.58076200656E+01  0.70906766381E+01 -0.39038130980E+01  0.99622237968E+01  0.51100000000E-03 0. -1.
        -11    1    4    4    0    0 -0.15938625135E+02  0.98557532649E+01 -0.12828496187E+02  0.22710040914E+02  0.51100000000E-03 0.  1.
        -12    1    4    4    0    0 -0.11788725617E+02  0.58343025460E+01 -0.29033073766E+01  0.13470053140E+02  0.00000000000E+00 0.  1.
</event>
<event>
 8    1  0.8828843E-009  0.9118800E+02  0.7816164E-02  0.1184000E+00
        -11   -1    0    0    0    0  0.00000000000E+00  0.00000000000E+00  0.45593999997E+02  0.45594000000E+02  0.51100000000E-03 0. -1.
         11   -1    0    0    0    0 -0.00000000000E+00 -0.00000000000E+00 -0.45593999997E+02  0.45594000000E+02  0.51100000000E-03 0.  1.
         23    2    1    2    0    0  0.71054273576E-14 -0.71054273576E-14  0.00000000000E+00  0.91188000000E+02  0.91188000000E+02 0.  0.
    9900012    2    3    3    0    0  0.29374611433E+02 -0.27382261339E+02 -0.20407289945E+02  0.46142317457E+02  0.99999972256E+01 0.  0.
         12    1    3    3    0    0 -0.29374611433E+02  0.27382261339E+02  0.20407289945E+02  0.45045682543E+02  0.00000000000E+00 0. -1.
         11    1    4    4    0    0  0.48688096213E+01 -0.52980711071E+01 -0.70322607144E+01  0.10061190566E+02  0.51100000000E-03 0. -1.
        -11    1    4    4    0    0  0.38261173455E+00 -0.18599083753E+01 -0.15602228295E+01  0.24576302494E+01  0.51100000000E-03 0.  1.
        -12    1    4    4    0    0  0.24123190077E+02 -0.20224281857E+02 -0.11814806401E+02  0.33623496642E+02  0.00000000000E+00 0.  1.
</event>
<event>
 8    1  0.8828843E-009  0.9118800E+02  0.7816164E-02  0.1184000E+00
        -11   -1    0    0    0    0  0.00000000000E+00  0.00000000000E+00  0.45593999997E+02  0.45594000000E+02  0.51100000000E-03 0. -1.
         11   -1    0    0    0    0 -0.00000000000E+00 -0.00000000000E+00 -0.45593999997E+02  0.45594000000E+02  0.51100000000E-03 0.  1.
         23    2    1    2    0    0  0.00000000000E+00  0.00000000000E+00  0.71054273576E-14  0.91188000000E+02  0.91188000000E+02 0.  0.
    9900012    2    3    3    0    0  0.17775730759E+02 -0.20111126024E+02 -0.36175675233E+02  0.46142317937E+02  0.10000001604E+02 0.  0.
         12    1    3    3    0    0 -0.17775730759E+02  0.20111126024E+02  0.36175675233E+02  0.45045682063E+02  0.00000000000E+00 0. -1.
         11    1    4    4    0    0  0.80806472282E+00 -0.32175879081E+01 -0.16058046758E+01  0.36857088138E+01  0.51100000000E-03 0. -1.
        -11    1    4    4    0    0  0.72935538682E+01 -0.11102702778E+02 -0.20478936513E+02  0.24410095821E+02  0.51100000000E-03 0.  1.
        -12    1    4    4    0    0  0.96741121683E+01 -0.57908353381E+01 -0.14090934043E+02  0.18046513302E+02  0.00000000000E+00 0.  1.
</event>
<event>
 8    1  0.8828843E-009  0.9118800E+02  0.7816164E-02  0.1184000E+00
        -11   -1    0    0    0    0  0.00000000000E+00  0.00000000000E+00  0.45593999997E+02  0.45594000000E+02  0.51100000000E-03 0. -1.
         11   -1    0    0    0    0 -0.00000000000E+00 -0.00000000000E+00 -0.45593999997E+02  0.45594000000E+02  0.51100000000E-03 0.  1.
         23    2    1    2    0    0  0.00000000000E+00 -0.88817841970E-15  0.00000000000E+00  0.91188000000E+02  0.91188000000E+02 0.  0.
    9900012    2    3    3    0    0  0.15020039993E+02 -0.49140842791E+01 -0.42182504548E+02  0.46142317458E+02  0.99999972368E+01 0.  0.
         12    1    3    3    0    0 -0.15020039993E+02  0.49140842791E+01  0.42182504548E+02  0.45045682542E+02  0.00000000000E+00 0. -1.
         11    1    4    4    0    0 -0.11371190685E+01 -0.91242176790E+00 -0.49055020496E+01  0.51175681606E+01  0.51100000000E-03 0. -1.
        -11    1    4    4    0    0  0.87530397669E+01 -0.13976226952E+01 -0.24211486109E+02  0.25783039275E+02  0.51100000000E-03 0.  1.
         12    1    4    4    0    0  0.74041192951E+01 -0.26040398159E+01 -0.13065516389E+02  0.15241710023E+02  0.00000000000E+00 0. -1.
</event>
<event>
 8    1  0.8828843E-009  0.9118800E+02  0.7816164E-02  0.1184000E+00
        -11   -1    0    0    0    0  0.00000000000E+00  0.00000000000E+00  0.45593999997E+02  0.45594000000E+02  0.51100000000E-03 0. -1.
         11   -1    0    0    0    0 -0.00000000000E+00 -0.00000000000E+00 -0.45593999997E+02  0.45594000000E+02  0.51100000000E-03 0.  1.
         23    2    1    2    0    0 -0.35527136788E-14  0.00000000000E+00  0.00000000000E+00  0.91188000000E+02  0.91188000000E+02 0.  0.
    9900012    2    3    3    0    0 -0.30502944427E+02  0.91671675305E+01  0.31853523468E+02  0.46142317225E+02  0.99999951153E+01 0.  0.
        -12    1    3    3    0    0  0.30502944427E+02 -0.91671675305E+01 -0.31853523468E+02  0.45045682775E+02  0.00000000000E+00 0.  1.
         11    1    4    4    0    0  0.58725824028E-01  0.60837497454E+00  0.19045720039E+01  0.20002408883E+01  0.51100000000E-03 0. -1.
        -11    1    4    4    0    0 -0.11281513119E+02  0.41366817900E+01  0.15666520858E+02  0.19743975044E+02  0.51100000000E-03 0.  1.
        -12    1    4    4    0    0 -0.19280157132E+02  0.44221107660E+01  0.14282430606E+02  0.24398101293E+02  0.00000000000E+00 0.  1.
</event>
<event>
 8    1  0.8828843E-009  0.9118800E+02  0.7816164E-02  0.1184000E+00
        -11   -1    0    0    0    0  0.00000000000E+00  0.00000000000E+00  0.45593999997E+02  0.45594000000E+02  0.51100000000E-03 0.  1.
         11   -1    0    0    0    0 -0.00000000000E+00 -0.00000000000E+00 -0.45593999997E+02  0.45594000000E+02  0.51100000000E-03 0. -1.
         23    2    1    2    0    0 -0.88817841970E-15 -0.71054273576E-14  0.35527136788E-14  0.91188000000E+02  0.91188000000E+02 0.  0.
    9900012    2    3    3    0    0 -0.66707969019E+01 -0.33203878264E+02  0.29700445419E+02  0.46142317397E+02  0.99999966812E+01 0.  0.
        -12    1    3    3    0    0  0.66707969019E+01  0.33203878264E+02 -0.29700445419E+02  0.45045682603E+02  0.00000000000E+00 0.  1.
         11    1    4    4    0    0 -0.56457030835E+01 -0.13053638061E+02  0.12747362759E+02  0.19098866131E+02  0.51100000000E-03 0.  1.
        -11    1    4    4    0    0 -0.88004346374E+00 -0.42448891893E+01  0.71427506487E+01  0.83553843609E+01  0.51100000000E-03 0. -1.
         12    1    4    4    0    0 -0.14505035466E+00 -0.15905351014E+02  0.98103320115E+01  0.18688066905E+02  0.00000000000E+00 0. -1.
</event>
<event>
 8    1  0.8828843E-009  0.9118800E+02  0.7816164E-02  0.1184000E+00
        -11   -1    0    0    0    0  0.00000000000E+00  0.00000000000E+00  0.45593999997E+02  0.45594000000E+02  0.51100000000E-03 0. -1.
         11   -1    0    0    0    0 -0.00000000000E+00 -0.00000000000E+00 -0.45593999997E+02  0.45594000000E+02  0.51100000000E-03 0.  1.
         23    2    1    2    0    0  0.00000000000E+00  0.35527136788E-14  0.35527136788E-14  0.91188000000E+02  0.91188000000E+02 0.  0.
    9900012    2    3    3    0    0 -0.28119500039E+02  0.26048990667E+02  0.23661318405E+02  0.46142310019E+02  0.99999293980E+01 0.  0.
        -12    1    3    3    0    0  0.28119500039E+02 -0.26048990667E+02 -0.23661318405E+02  0.45045689981E+02  0.00000000000E+00 0.  1.
         11    1    4    4    0    0 -0.20858884505E+02  0.18935623149E+02  0.14018639081E+02  0.31467016522E+02  0.51100000000E-03 0. -1.
        -11    1    4    4    0    0 -0.41922283407E+01  0.23604949031E+01  0.21066768979E+01  0.52521236145E+01  0.51100000000E-03 0.  1.
         12    1    4    4    0    0 -0.30683871932E+01  0.47528726150E+01  0.75360024266E+01  0.94231698826E+01  0.00000000000E+00 0. -1.
</event>
<event>
 8    1  0.8828843E-009  0.9118800E+02  0.7816164E-02  0.1184000E+00
        -11   -1    0    0    0    0  0.00000000000E+00  0.00000000000E+00  0.45593999997E+02  0.45594000000E+02  0.51100000000E-03 0. -1.
         11   -1    0    0    0    0 -0.00000000000E+00 -0.00000000000E+00 -0.45593999997E+02  0.45594000000E+02  0.51100000000E-03 0.  1.
         23    2    1    2    0    0  0.30531133177E-15 -0.71054273576E-14  0.35527136788E-14  0.91188000000E+02  0.91188000000E+02 0.  0.
    9900012    2    3    3    0    0 -0.76611326268E-01  0.34462118475E+02  0.29008102735E+02  0.46142317595E+02  0.99999984822E+01 0.  0.
        -12    1    3    3    0    0  0.76611326268E-01 -0.34462118475E+02 -0.29008102735E+02  0.45045682405E+02  0.00000000000E+00 0.  1.
         11    1    4    4    0    0  0.56951451739E+00  0.16910368558E+02  0.19285089990E+02  0.25655401141E+02  0.51100000000E-03 0. -1.
        -11    1    4    4    0    0 -0.20044619513E+01  0.15075221069E+02  0.81669577955E+01  0.17262078609E+02  0.51100000000E-03 0.  1.
        -12    1    4    4    0    0  0.13583361077E+01  0.24765288488E+01  0.15560549489E+01  0.32248378446E+01  0.00000000000E+00 0.  1.
</event>
<event>
 8    1  0.8828843E-009  0.9118800E+02  0.7816164E-02  0.1184000E+00
        -11   -1    0    0    0    0  0.00000000000E+00  0.00000000000E+00  0.45593999997E+02  0.45594000000E+02  0.51100000000E-03 0. -1.
         11   -1    0    0    0    0 -0.00000000000E+00 -0.00000000000E+00 -0.45593999997E+02  0.45594000000E+02  0.51100000000E-03 0.  1.
         23    2    1    2    0    0 -0.71054273576E-14 -0.17763568394E-14 -0.35527136788E-14  0.91188000000E+02  0.91188000000E+02 0.  0.
    9900012    2    3    3    0    0 -0.38953041417E+02 -0.13628367706E+02 -0.18056622640E+02  0.46142318041E+02  0.10000002552E+02 0.  0.
         12    1    3    3    0    0  0.38953041417E+02  0.13628367706E+02  0.18056622640E+02  0.45045681959E+02  0.00000000000E+00 0. -1.
         11    1    4    4    0    0 -0.16292527448E+02 -0.46964294880E+01 -0.42145606974E+01  0.17471846574E+02  0.51100000000E-03 0. -1.
        -11    1    4    4    0    0 -0.36665904561E+01 -0.29715908730E+01 -0.59117488257E+00  0.47564404645E+01  0.51100000000E-03 0.  1.
        -12    1    4    4    0    0 -0.18993923513E+02 -0.59603473453E+01 -0.13250887060E+02  0.23914031002E+02  0.00000000000E+00 0.  1.
</event>
<event>
 8    1  0.1085641E-008  0.9118800E+02  0.7816164E-02  0.1184000E+00
        -11   -1    0    0    0    0  0.00000000000E+00  0.00000000000E+00  0.45593999997E+02  0.45594000000E+02  0.51100000000E-03 0. -1.
         11   -1    0    0    0    0 -0.00000000000E+00 -0.00000000000E+00 -0.45593999997E+02  0.45594000000E+02  0.51100000000E-03 0.  1.
         23    2    1    2    0    0  0.00000000000E+00  0.44408920985E-15  0.00000000000E+00  0.91188000000E+02  0.91188000000E+02 0.  0.
    9900012    2    3    3    0    0  0.12089303015E+02  0.25336170602E+01  0.43319083570E+02  0.46142318030E+02  0.10000002452E+02 0.  0.
        -12    1    3    3    0    0 -0.12089303015E+02 -0.25336170602E+01 -0.43319083570E+02  0.45045681970E+02  0.00000000000E+00 0.  1.
         11    1    4    4    0    0  0.23649381611E+01  0.27256829227E+01  0.17956578816E+02  0.18315594529E+02  0.51100000000E-03 0. -1.
        -11    1    4    4    0    0  0.36985782021E+00 -0.18963986856E+01  0.46835646248E+01  0.50664485231E+01  0.51100000000E-03 0.  1.
        -12    1    4    4    0    0  0.93545070342E+01  0.17043328231E+01  0.20678940129E+02  0.22760274978E+02  0.00000000000E+00 0.  1.
</event>
<event>
 8    1  0.8828843E-009  0.9118800E+02  0.7816164E-02  0.1184000E+00
        -11   -1    0    0    0    0  0.00000000000E+00  0.00000000000E+00  0.45593999997E+02  0.45594000000E+02  0.51100000000E-03 0. -1.
         11   -1    0    0    0    0 -0.00000000000E+00 -0.00000000000E+00 -0.45593999997E+02  0.45594000000E+02  0.51100000000E-03 0.  1.
         23    2    1    2    0    0 -0.35527136788E-14  0.17763568394E-14  0.71054273576E-14  0.91188000000E+02  0.91188000000E+02 0.  0.
    9900012    2    3    3    0    0  0.21897940741E+02 -0.83624542105E+01 -0.38466388209E+02  0.46142317954E+02  0.10000001763E+02 0.  0.
         12    1    3    3    0    0 -0.21897940741E+02  0.83624542105E+01  0.38466388209E+02  0.45045682046E+02  0.00000000000E+00 0. -1.
         11    1    4    4    0    0  0.32554698452E+01 -0.13579668639E+00 -0.96925652345E+01  0.10225573125E+02  0.51100000000E-03 0. -1.
        -11    1    4    4    0    0  0.46773430254E+01  0.95663016339E+00 -0.59944855327E+01  0.76633240901E+01  0.51100000000E-03 0.  1.
        -12    1    4    4    0    0  0.13965127871E+02 -0.91832876875E+01 -0.22779337441E+02  0.28253420739E+02  0.00000000000E+00 0.  1.
</event>
<event>
 8    1  0.8828843E-009  0.9118800E+02  0.7816164E-02  0.1184000E+00
        -11   -1    0    0    0    0  0.00000000000E+00  0.00000000000E+00  0.45593999997E+02  0.45594000000E+02  0.51100000000E-03 0.  1.
         11   -1    0    0    0    0 -0.00000000000E+00 -0.00000000000E+00 -0.45593999997E+02  0.45594000000E+02  0.51100000000E-03 0. -1.
         23    2    1    2    0    0  0.35527136788E-14  0.00000000000E+00  0.00000000000E+00  0.91188000000E+02  0.91188000000E+02 0.  0.
    9900012    2    3    3    0    0  0.15662169329E+02 -0.35372308864E+02  0.23078362677E+02  0.46142305352E+02  0.99998868462E+01 0.  0.
        -12    1    3    3    0    0 -0.15662169329E+02  0.35372308864E+02 -0.23078362677E+02  0.45045694648E+02  0.00000000000E+00 0.  1.
         11    1    4    4    0    0  0.36113773904E+01 -0.13061933005E+02  0.11339358263E+02  0.17670234479E+02  0.51100000000E-03 0. -1.
        -11    1    4    4    0    0  0.21206783273E+01 -0.89004806087E+01  0.53866438211E+01  0.10617521535E+02  0.51100000000E-03 0.  1.
         12    1    4    4    0    0  0.99301136115E+01 -0.13409895250E+02  0.63523605932E+01  0.17854549338E+02  0.00000000000E+00 0. -1.
</event>
<event>
 8    1  0.8828843E-009  0.9118800E+02  0.7816164E-02  0.1184000E+00
        -11   -1    0    0    0    0  0.00000000000E+00  0.00000000000E+00  0.45593999997E+02  0.45594000000E+02  0.51100000000E-03 0. -1.
         11   -1    0    0    0    0 -0.00000000000E+00 -0.00000000000E+00 -0.45593999997E+02  0.45594000000E+02  0.51100000000E-03 0.  1.
         23    2    1    2    0    0  0.00000000000E+00  0.17763568394E-14  0.71054273576E-14  0.91188000000E+02  0.91188000000E+02 0.  0.
    9900012    2    3    3    0    0  0.12294352658E+02 -0.13754989908E+02 -0.41094557316E+02  0.46142317681E+02  0.99999992657E+01 0.  0.
         12    1    3    3    0    0 -0.12294352658E+02  0.13754989908E+02  0.41094557316E+02  0.45045682319E+02  0.00000000000E+00 0. -1.
         11    1    4    4    0    0  0.14778985065E+01 -0.38607545074E+01 -0.14256617363E+02  0.14843879152E+02  0.51100000000E-03 0. -1.
        -11    1    4    4    0    0  0.87341748111E+01 -0.60069048178E+01 -0.23459089986E+02  0.25742913945E+02  0.51100000000E-03 0.  1.
        -12    1    4    4    0    0  0.20822793407E+01 -0.38873305830E+01 -0.33788499661E+01  0.55555245844E+01  0.00000000000E+00 0.  1.
</event>
<event>
 8    1  0.8828843E-009  0.9118800E+02  0.7816164E-02  0.1184000E+00
        -11   -1    0    0    0    0  0.00000000000E+00  0.00000000000E+00  0.45593999997E+02  0.45594000000E+02  0.51100000000E-03 0. -1.
         11   -1    0    0    0    0 -0.00000000000E+00 -0.00000000000E+00 -0.45593999997E+02  0.45594000000E+02  0.51100000000E-03 0.  1.
         23    2    1    2    0    0  0.35527136788E-14  0.00000000000E+00  0.00000000000E+00  0.91188000000E+02  0.91188000000E+02 0.  0.
    9900012    2    3    3    0    0 -0.21676110284E+02 -0.32827672497E+02 -0.21945468676E+02  0.46142318364E+02  0.10000005501E+02 0.  0.
         12    1    3    3    0    0  0.21676110284E+02  0.32827672497E+02  0.21945468676E+02  0.45045681636E+02  0.00000000000E+00 0. -1.
         11    1    4    4    0    0 -0.75392136031E+01 -0.11016145813E+02 -0.10854220413E+02  0.17204921138E+02  0.51100000000E-03 0. -1.
        -11    1    4    4    0    0 -0.75940682440E+01 -0.13535474509E+02 -0.96847905045E+01  0.18294100417E+02  0.51100000000E-03 0.  1.
        -12    1    4    4    0    0 -0.65428284371E+01 -0.82760521749E+01 -0.14064577589E+01  0.10643296810E+02  0.00000000000E+00 0.  1.
</event>
<event>
 8    1  0.8828843E-009  0.9118800E+02  0.7816164E-02  0.1184000E+00
        -11   -1    0    0    0    0  0.00000000000E+00  0.00000000000E+00  0.45593999997E+02  0.45594000000E+02  0.51100000000E-03 0. -1.
         11   -1    0    0    0    0 -0.00000000000E+00 -0.00000000000E+00 -0.45593999997E+02  0.45594000000E+02  0.51100000000E-03 0.  1.
         23    2    1    2    0    0  0.35527136788E-14  0.00000000000E+00  0.00000000000E+00  0.91188000000E+02  0.91188000000E+02 0.  0.
    9900012    2    3    3    0    0 -0.31151707798E+02 -0.22857267619E+02  0.23156626526E+02  0.46142323917E+02  0.10000056131E+02 0.  0.
        -12    1    3    3    0    0  0.31151707798E+02  0.22857267619E+02 -0.23156626526E+02  0.45045676083E+02  0.00000000000E+00 0.  1.
         11    1    4    4    0    0 -0.16829240660E+01 -0.42253392379E-01  0.25172640416E+00  0.17021707331E+01  0.51100000000E-03 0.  1.
        -11    1    4    4    0    0 -0.13514229877E+02 -0.85910424444E+01  0.14051730472E+02  0.21304730671E+02  0.51100000000E-03 0. -1.
        -12    1    4    4    0    0 -0.15954553856E+02 -0.14223971782E+02  0.88531696494E+01  0.23135422513E+02  0.00000000000E+00 0.  1.
</event>
<event>
 8    1  0.8828843E-009  0.9118800E+02  0.7816164E-02  0.1184000E+00
        -11   -1    0    0    0    0  0.00000000000E+00  0.00000000000E+00  0.45593999997E+02  0.45594000000E+02  0.51100000000E-03 0. -1.
         11   -1    0    0    0    0 -0.00000000000E+00 -0.00000000000E+00 -0.45593999997E+02  0.45594000000E+02  0.51100000000E-03 0.  1.
         23    2    1    2    0    0 -0.88817841970E-15  0.00000000000E+00  0.00000000000E+00  0.91188000000E+02  0.91188000000E+02 0.  0.
    9900012    2    3    3    0    0 -0.55922824948E+01  0.10250757672E+02  0.43505879988E+02  0.46142320408E+02  0.10000024139E+02 0.  0.
        -12    1    3    3    0    0  0.55922824948E+01 -0.10250757672E+02 -0.43505879988E+02  0.45045679592E+02  0.00000000000E+00 0.  1.
         11    1    4    4    0    0 -0.56287844551E+01  0.45241399910E+01  0.31014711204E+02  0.31844361643E+02  0.51100000000E-03 0. -1.
        -11    1    4    4    0    0  0.98609560443E+00  0.11275860246E+01  0.79843501100E+00  0.16974491191E+01  0.51100000000E-03 0.  1.
         12    1    4    4    0    0 -0.94959364414E+00  0.45990316569E+01  0.11692733773E+02  0.12600509646E+02  0.00000000000E+00 0. -1.
</event>
<event>
 8    1  0.8828843E-009  0.9118800E+02  0.7816164E-02  0.1184000E+00
        -11   -1    0    0    0    0  0.00000000000E+00  0.00000000000E+00  0.45593999997E+02  0.45594000000E+02  0.51100000000E-03 0. -1.
         11   -1    0    0    0    0 -0.00000000000E+00 -0.00000000000E+00 -0.45593999997E+02  0.45594000000E+02  0.51100000000E-03 0.  1.
         23    2    1    2    0    0 -0.35527136788E-14 -0.88817841970E-15  0.00000000000E+00  0.91188000000E+02  0.91188000000E+02 0.  0.
    9900012    2    3    3    0    0 -0.28932478344E+02 -0.50903227081E+01 -0.34148408529E+02  0.46142317704E+02  0.99999994836E+01 0.  0.
         12    1    3    3    0    0  0.28932478344E+02  0.50903227081E+01  0.34148408529E+02  0.45045682296E+02  0.00000000000E+00 0. -1.
         11    1    4    4    0    0 -0.12694945588E+02  0.83000332981E+00 -0.13443630133E+02  0.18508963786E+02  0.51100000000E-03 0. -1.
        -11    1    4    4    0    0 -0.14400945213E+02 -0.40162152703E+01 -0.14234425640E+02  0.20643063767E+02  0.51100000000E-03 0.  1.
         12    1    4    4    0    0 -0.18365875434E+01 -0.19041107676E+01 -0.64703527563E+01  0.69902901521E+01  0.00000000000E+00 0. -1.
</event>
<event>
 8    1  0.8828843E-009  0.9118800E+02  0.7816164E-02  0.1184000E+00
        -11   -1    0    0    0    0  0.00000000000E+00  0.00000000000E+00  0.45593999997E+02  0.45594000000E+02  0.51100000000E-03 0. -1.
         11   -1    0    0    0    0 -0.00000000000E+00 -0.00000000000E+00 -0.45593999997E+02  0.45594000000E+02  0.51100000000E-03 0.  1.
         23    2    1    2    0    0  0.00000000000E+00  0.00000000000E+00 -0.17763568394E-14  0.91188000000E+02  0.91188000000E+02 0.  0.
    9900012    2    3    3    0    0  0.32785035483E+02 -0.26575359369E+02 -0.15748187871E+02  0.46142315429E+02  0.99999787381E+01 0.  0.
         12    1    3    3    0    0 -0.32785035483E+02  0.26575359369E+02  0.15748187871E+02  0.45045684571E+02  0.00000000000E+00 0. -1.
         11    1    4    4    0    0  0.13256923528E+02 -0.11292179136E+02 -0.88383777150E+01  0.19528856904E+02  0.51100000000E-03 0. -1.
        -11    1    4    4    0    0  0.19667611873E+01 -0.49286162340E+01 -0.11673880136E+01  0.54334337748E+01  0.51100000000E-03 0.  1.
        -12    1    4    4    0    0  0.17561350767E+02 -0.10354563999E+02 -0.57424221423E+01  0.21180024751E+02  0.00000000000E+00 0.  1.
</event>
<event>
 8    1  0.8828843E-009  0.9118800E+02  0.7816164E-02  0.1184000E+00
        -11   -1    0    0    0    0  0.00000000000E+00  0.00000000000E+00  0.45593999997E+02  0.45594000000E+02  0.51100000000E-03 0. -1.
         11   -1    0    0    0    0 -0.00000000000E+00 -0.00000000000E+00 -0.45593999997E+02  0.45594000000E+02  0.51100000000E-03 0.  1.
         23    2    1    2    0    0 -0.35527136788E-14 -0.35527136788E-14 -0.71054273576E-14  0.91188000000E+02  0.91188000000E+02 0.  0.
    9900012    2    3    3    0    0  0.19294347773E+02  0.19338165864E+02  0.35817272343E+02  0.46142317487E+02  0.99999974996E+01 0.  0.
        -12    1    3    3    0    0 -0.19294347773E+02 -0.19338165864E+02 -0.35817272343E+02  0.45045682513E+02  0.00000000000E+00 0.  1.
         11    1    4    4    0    0  0.45376768465E+01  0.57667721410E+01  0.13768765345E+02  0.15602085485E+02  0.51100000000E-03 0. -1.
        -11    1    4    4    0    0  0.14452468211E+02  0.14259436135E+02  0.21680737998E+02  0.29702857719E+02  0.51100000000E-03 0.  1.
        -12    1    4    4    0    0  0.30420271563E+00 -0.68804241153E+00  0.36776899906E+00  0.83737428246E+00  0.00000000000E+00 0.  1.
</event>
<event>
 8    1  0.8828843E-009  0.9118800E+02  0.7816164E-02  0.1184000E+00
        -11   -1    0    0    0    0  0.00000000000E+00  0.00000000000E+00  0.45593999997E+02  0.45594000000E+02  0.51100000000E-03 0. -1.
         11   -1    0    0    0    0 -0.00000000000E+00 -0.00000000000E+00 -0.45593999997E+02  0.45594000000E+02  0.51100000000E-03 0.  1.
         23    2    1    2    0    0  0.00000000000E+00  0.00000000000E+00  0.00000000000E+00  0.91188000000E+02  0.91188000000E+02 0.  0.
    9900012    2    3    3    0    0 -0.23002053918E+02  0.99219438886E+01 -0.37437602064E+02  0.46142317595E+02  0.99999984889E+01 0.  0.
         12    1    3    3    0    0  0.23002053918E+02 -0.99219438886E+01  0.37437602064E+02  0.45045682405E+02  0.00000000000E+00 0. -1.
         11    1    4    4    0    0 -0.10489737466E+02  0.19150074019E+00 -0.17453758575E+02  0.20364305863E+02  0.51100000000E-03 0. -1.
        -11    1    4    4    0    0 -0.47207185396E+01  0.59082318648E+01 -0.10235211018E+02  0.12726033637E+02  0.51100000000E-03 0.  1.
         12    1    4    4    0    0 -0.77915979121E+01  0.38222112836E+01 -0.97486324722E+01  0.13051978095E+02  0.00000000000E+00 0. -1.
</event>
<event>
 8    1  0.8828843E-009  0.9118800E+02  0.7816164E-02  0.1184000E+00
        -11   -1    0    0    0    0  0.00000000000E+00  0.00000000000E+00  0.45593999997E+02  0.45594000000E+02  0.51100000000E-03 0. -1.
         11   -1    0    0    0    0 -0.00000000000E+00 -0.00000000000E+00 -0.45593999997E+02  0.45594000000E+02  0.51100000000E-03 0.  1.
         23    2    1    2    0    0  0.00000000000E+00  0.00000000000E+00  0.00000000000E+00  0.91188000000E+02  0.91188000000E+02 0.  0.
    9900012    2    3    3    0    0 -0.33603886876E+02 -0.61684044747E+01  0.29357164473E+02  0.46142317268E+02  0.99999955026E+01 0.  0.
        -12    1    3    3    0    0  0.33603886876E+02  0.61684044747E+01 -0.29357164473E+02  0.45045682732E+02  0.00000000000E+00 0.  1.
         11    1    4    4    0    0 -0.77218215435E+01 -0.22900236205E+00  0.45845346340E+01  0.89831468931E+01  0.51100000000E-03 0. -1.
        -11    1    4    4    0    0 -0.13692075060E+02  0.54684802623E+00  0.10191572653E+02  0.17077473924E+02  0.51100000000E-03 0.  1.
         12    1    4    4    0    0 -0.12189990272E+02 -0.64862501389E+01  0.14581057185E+02  0.20081696451E+02  0.00000000000E+00 0. -1.
</event>
<event>
 8    1  0.8828843E-009  0.9118800E+02  0.7816164E-02  0.1184000E+00
        -11   -1    0    0    0    0  0.00000000000E+00  0.00000000000E+00  0.45593999997E+02  0.45594000000E+02  0.51100000000E-03 0. -1.
         11   -1    0    0    0    0 -0.00000000000E+00 -0.00000000000E+00 -0.45593999997E+02  0.45594000000E+02  0.51100000000E-03 0.  1.
         23    2    1    2    0    0  0.00000000000E+00  0.35527136788E-14  0.00000000000E+00  0.91188000000E+02  0.91188000000E+02 0.  0.
    9900012    2    3    3    0    0 -0.21585937639E+02 -0.20373054973E+02  0.33883615586E+02  0.46142317877E+02  0.10000001057E+02 0.  0.
        -12    1    3    3    0    0  0.21585937639E+02  0.20373054973E+02 -0.33883615586E+02  0.45045682123E+02  0.00000000000E+00 0.  1.
         11    1    4    4    0    0 -0.14710443945E+02 -0.84050639473E+01  0.18692721272E+02  0.25228160651E+02  0.51100000000E-03 0. -1.
        -11    1    4    4    0    0 -0.46615352910E+01 -0.73735639297E+01  0.66607214612E+01  0.10975635150E+02  0.51100000000E-03 0.  1.
         12    1    4    4    0    0 -0.22139584031E+01 -0.45944270964E+01  0.85301728528E+01  0.99385220759E+01  0.00000000000E+00 0. -1.
</event>
<event>
 8    1  0.8828843E-009  0.9118800E+02  0.7816164E-02  0.1184000E+00
        -11   -1    0    0    0    0  0.00000000000E+00  0.00000000000E+00  0.45593999997E+02  0.45594000000E+02  0.51100000000E-03 0. -1.
         11   -1    0    0    0    0 -0.00000000000E+00 -0.00000000000E+00 -0.45593999997E+02  0.45594000000E+02  0.51100000000E-03 0.  1.
         23    2    1    2    0    0  0.44408920985E-15  0.00000000000E+00  0.35527136788E-14  0.91188000000E+02  0.91188000000E+02 0.  0.
    9900012    2    3    3    0    0 -0.39604920185E+01 -0.38856603671E+02 -0.22440864433E+02  0.46142317161E+02  0.99999945305E+01 0.  0.
         12    1    3    3    0    0  0.39604920185E+01  0.38856603671E+02  0.22440864433E+02  0.45045682839E+02  0.00000000000E+00 0. -1.
         11    1    4    4    0    0  0.19339717613E+00  0.47857403957E+00 -0.20256828584E+00  0.55449954972E+00  0.51100000000E-03 0. -1.
        -11    1    4    4    0    0 -0.49606258178E+01 -0.29355597059E+02 -0.17122358109E+02  0.34344345017E+02  0.51100000000E-03 0.  1.
        -12    1    4    4    0    0  0.80673662314E+00 -0.99795806520E+01 -0.51159380388E+01  0.11243472595E+02  0.00000000000E+00 0.  1.
</event>
<event>
 8    1  0.8828843E-009  0.9118800E+02  0.7816164E-02  0.1184000E+00
        -11   -1    0    0    0    0  0.00000000000E+00  0.00000000000E+00  0.45593999997E+02  0.45594000000E+02  0.51100000000E-03 0. -1.
         11   -1    0    0    0    0 -0.00000000000E+00 -0.00000000000E+00 -0.45593999997E+02  0.45594000000E+02  0.51100000000E-03 0.  1.
         23    2    1    2    0    0  0.00000000000E+00  0.00000000000E+00  0.00000000000E+00  0.91188000000E+02  0.91188000000E+02 0.  0.
    9900012    2    3    3    0    0  0.11613354038E+02  0.30403209468E+02 -0.31143030768E+02  0.46142317594E+02  0.99999984784E+01 0.  0.
         12    1    3    3    0    0 -0.11613354038E+02 -0.30403209468E+02  0.31143030768E+02  0.45045682406E+02  0.00000000000E+00 0. -1.
         11    1    4    4    0    0  0.34463677683E+01  0.54346594695E+01 -0.24989857964E+01  0.69034704762E+01  0.51100000000E-03 0. -1.
        -11    1    4    4    0    0 -0.16163440580E+00  0.69622189138E+01 -0.80200093928E+01  0.10621636823E+02  0.51100000000E-03 0.  1.
        -12    1    4    4    0    0  0.83286206755E+01  0.18006331085E+02 -0.20624035579E+02  0.28617210295E+02  0.00000000000E+00 0.  1.
</event>
<event>
 8    1  0.8828843E-009  0.9118800E+02  0.7816164E-02  0.1184000E+00
        -11   -1    0    0    0    0  0.00000000000E+00  0.00000000000E+00  0.45593999997E+02  0.45594000000E+02  0.51100000000E-03 0. -1.
         11   -1    0    0    0    0 -0.00000000000E+00 -0.00000000000E+00 -0.45593999997E+02  0.45594000000E+02  0.51100000000E-03 0.  1.
         23    2    1    2    0    0  0.00000000000E+00  0.00000000000E+00  0.00000000000E+00  0.91188000000E+02  0.91188000000E+02 0.  0.
    9900012    2    3    3    0    0 -0.26835021215E+02  0.49911112327E+01 -0.35834116305E+02  0.46142318228E+02  0.10000004260E+02 0.  0.
         12    1    3    3    0    0  0.26835021215E+02 -0.49911112327E+01  0.35834116305E+02  0.45045681772E+02  0.00000000000E+00 0. -1.
         11    1    4    4    0    0 -0.25516931549E+00 -0.13635553821E+00  0.25675312880E+00  0.38681603203E+00  0.51100000000E-03 0. -1.
        -11    1    4    4    0    0 -0.18728834433E+02  0.70184214002E+01 -0.24463831493E+02  0.31599153941E+02  0.51100000000E-03 0.  1.
        -12    1    4    4    0    0 -0.78510174658E+01 -0.18909546293E+01 -0.11627037941E+02  0.14156348256E+02  0.00000000000E+00 0.  1.
</event>
<event>
 8    1  0.8828843E-009  0.9118800E+02  0.7816164E-02  0.1184000E+00
        -11   -1    0    0    0    0  0.00000000000E+00  0.00000000000E+00  0.45593999997E+02  0.45594000000E+02  0.51100000000E-03 0. -1.
         11   -1    0    0    0    0 -0.00000000000E+00 -0.00000000000E+00 -0.45593999997E+02  0.45594000000E+02  0.51100000000E-03 0.  1.
         23    2    1    2    0    0  0.00000000000E+00  0.00000000000E+00 -0.71054273576E-14  0.91188000000E+02  0.91188000000E+02 0.  0.
    9900012    2    3    3    0    0  0.12717365226E+02 -0.28818880627E+02  0.32200222063E+02  0.46142316968E+02  0.99999927698E+01 0.  0.
        -12    1    3    3    0    0 -0.12717365226E+02  0.28818880627E+02 -0.32200222063E+02  0.45045683032E+02  0.00000000000E+00 0.  1.
         11    1    4    4    0    0  0.74356217212E+01 -0.11454445959E+02  0.16889674096E+02  0.21719896269E+02  0.51100000000E-03 0. -1.
        -11    1    4    4    0    0  0.29933542602E+01 -0.60367641775E+01  0.25446453731E+01  0.72026322826E+01  0.51100000000E-03 0.  1.
        -12    1    4    4    0    0  0.22883892449E+01 -0.11327670490E+02  0.12765902594E+02  0.17219788416E+02  0.00000000000E+00 0.  1.
</event>
<event>
 8    1  0.8828843E-009  0.9118800E+02  0.7816164E-02  0.1184000E+00
        -11   -1    0    0    0    0  0.00000000000E+00  0.00000000000E+00  0.45593999997E+02  0.45594000000E+02  0.51100000000E-03 0. -1.
         11   -1    0    0    0    0 -0.00000000000E+00 -0.00000000000E+00 -0.45593999997E+02  0.45594000000E+02  0.51100000000E-03 0.  1.
         23    2    1    2    0    0  0.17763568394E-14  0.00000000000E+00 -0.71054273576E-14  0.91188000000E+02  0.91188000000E+02 0.  0.
    9900012    2    3    3    0    0  0.13654446779E+02 -0.11176381411E+02 -0.41445845246E+02  0.46142317560E+02  0.99999981696E+01 0.  0.
         12    1    3    3    0    0 -0.13654446779E+02  0.11176381411E+02  0.41445845246E+02  0.45045682440E+02  0.00000000000E+00 0. -1.
         11    1    4    4    0    0  0.61055622309E+01 -0.51840800940E+01 -0.11961138169E+02  0.14395186805E+02  0.51100000000E-03 0. -1.
        -11    1    4    4    0    0  0.61342363438E+01 -0.49518542511E+01 -0.13251432506E+02  0.15419149775E+02  0.51100000000E-03 0.  1.
        -12    1    4    4    0    0  0.14146482048E+01 -0.10404470663E+01 -0.16233274570E+02  0.16327980981E+02  0.00000000000E+00 0.  1.
</event>
<event>
 8    1  0.8828843E-009  0.9118800E+02  0.7816164E-02  0.1184000E+00
        -11   -1    0    0    0    0  0.00000000000E+00  0.00000000000E+00  0.45593999997E+02  0.45594000000E+02  0.51100000000E-03 0.  1.
         11   -1    0    0    0    0 -0.00000000000E+00 -0.00000000000E+00 -0.45593999997E+02  0.45594000000E+02  0.51100000000E-03 0. -1.
         23    2    1    2    0    0  0.00000000000E+00  0.00000000000E+00  0.00000000000E+00  0.91188000000E+02  0.91188000000E+02 0.  0.
    9900012    2    3    3    0    0  0.35424092831E+02 -0.27685645847E+02  0.27842501966E+01  0.46142318874E+02  0.10000010152E+02 0.  0.
        -12    1    3    3    0    0 -0.35424092831E+02  0.27685645847E+02 -0.27842501966E+01  0.45045681126E+02  0.00000000000E+00 0.  1.
         11    1    4    4    0    0  0.15020098282E+02 -0.87744216522E+01 -0.33589963942E+00  0.17398467075E+02  0.51100000000E-03 0. -1.
        -11    1    4    4    0    0  0.14876954743E+02 -0.12127678414E+02 -0.67596575624E+00  0.19205762055E+02  0.51100000000E-03 0.  1.
        -12    1    4    4    0    0  0.55270398063E+01 -0.67835457810E+01  0.37961155923E+01  0.95380897445E+01  0.00000000000E+00 0.  1.
</event>
<event>
 8    1  0.8828843E-009  0.9118800E+02  0.7816164E-02  0.1184000E+00
        -11   -1    0    0    0    0  0.00000000000E+00  0.00000000000E+00  0.45593999997E+02  0.45594000000E+02  0.51100000000E-03 0. -1.
         11   -1    0    0    0    0 -0.00000000000E+00 -0.00000000000E+00 -0.45593999997E+02  0.45594000000E+02  0.51100000000E-03 0.  1.
         23    2    1    2    0    0  0.00000000000E+00  0.00000000000E+00  0.00000000000E+00  0.91188000000E+02  0.91188000000E+02 0.  0.
    9900012    2    3    3    0    0  0.23042637265E+02 -0.44662095728E+01 -0.38447418023E+02  0.46142310831E+02  0.99999368061E+01 0.  0.
         12    1    3    3    0    0 -0.23042637265E+02  0.44662095728E+01  0.38447418023E+02  0.45045689169E+02  0.00000000000E+00 0. -1.
         11    1    4    4    0    0  0.90354699234E+01  0.18222698268E+01 -0.14467735918E+02  0.17154467841E+02  0.51100000000E-03 0. -1.
        -11    1    4    4    0    0  0.51997346627E+01 -0.27915590199E+01 -0.14163655585E+02  0.15344027571E+02  0.51100000000E-03 0.  1.
         12    1    4    4    0    0  0.88074326788E+01 -0.34969203798E+01 -0.98160265206E+01  0.13643815419E+02  0.00000000000E+00 0. -1.
</event>
<event>
 8    1  0.8828843E-009  0.9118800E+02  0.7816164E-02  0.1184000E+00
        -11   -1    0    0    0    0  0.00000000000E+00  0.00000000000E+00  0.45593999997E+02  0.45594000000E+02  0.51100000000E-03 0. -1.
         11   -1    0    0    0    0 -0.00000000000E+00 -0.00000000000E+00 -0.45593999997E+02  0.45594000000E+02  0.51100000000E-03 0.  1.
         23    2    1    2    0    0  0.00000000000E+00  0.17763568394E-14  0.00000000000E+00  0.91188000000E+02  0.91188000000E+02 0.  0.
    9900012    2    3    3    0    0 -0.25320733296E+02  0.15562148643E+02  0.33849568886E+02  0.46142319644E+02  0.10000017166E+02 0.  0.
        -12    1    3    3    0    0  0.25320733296E+02 -0.15562148643E+02 -0.33849568886E+02  0.45045680356E+02  0.00000000000E+00 0.  1.
         11    1    4    4    0    0 -0.33714262880E+01  0.13040183847E+01  0.16494141995E+01  0.39733545809E+01  0.51100000000E-03 0.  1.
        -11    1    4    4    0    0 -0.16372841863E+02  0.96046097379E+01  0.17711724241E+02  0.25961965541E+02  0.51100000000E-03 0. -1.
        -12    1    4    4    0    0 -0.55764651450E+01  0.46535205203E+01  0.14488430445E+02  0.16206999522E+02  0.00000000000E+00 0.  1.
</event>
<event>
 8    1  0.8828843E-009  0.9118800E+02  0.7816164E-02  0.1184000E+00
        -11   -1    0    0    0    0  0.00000000000E+00  0.00000000000E+00  0.45593999997E+02  0.45594000000E+02  0.51100000000E-03 0. -1.
         11   -1    0    0    0    0 -0.00000000000E+00 -0.00000000000E+00 -0.45593999997E+02  0.45594000000E+02  0.51100000000E-03 0.  1.
         23    2    1    2    0    0  0.00000000000E+00  0.00000000000E+00  0.00000000000E+00  0.91188000000E+02  0.91188000000E+02 0.  0.
    9900012    2    3    3    0    0  0.74162128561E+01 -0.20205616306E+02  0.39570777413E+02  0.46142316872E+02  0.99999918939E+01 0.  0.
        -12    1    3    3    0    0 -0.74162128561E+01  0.20205616306E+02 -0.39570777413E+02  0.45045683128E+02  0.00000000000E+00 0.  1.
         11    1    4    4    0    0  0.84442231972E+00 -0.50022114072E-01  0.20383178693E+01  0.22068736401E+01  0.51100000000E-03 0. -1.
        -11    1    4    4    0    0  0.71214808043E+01 -0.13494777858E+02  0.19884145528E+02  0.25063993336E+02  0.51100000000E-03 0.  1.
        -12    1    4    4    0    0 -0.54969026791E+00 -0.66608163339E+01  0.17648314015E+02  0.18871449896E+02  0.00000000000E+00 0.  1.
</event>
<event>
 8    1  0.8828843E-009  0.9118800E+02  0.7816164E-02  0.1184000E+00
        -11   -1    0    0    0    0  0.00000000000E+00  0.00000000000E+00  0.45593999997E+02  0.45594000000E+02  0.51100000000E-03 0. -1.
         11   -1    0    0    0    0 -0.00000000000E+00 -0.00000000000E+00 -0.45593999997E+02  0.45594000000E+02  0.51100000000E-03 0.  1.
         23    2    1    2    0    0  0.00000000000E+00  0.00000000000E+00  0.71054273576E-14  0.91188000000E+02  0.91188000000E+02 0.  0.
    9900012    2    3    3    0    0 -0.17183927249E+02  0.11365287744E+01  0.41623725154E+02  0.46142317087E+02  0.99999938548E+01 0.  0.
        -12    1    3    3    0    0  0.17183927249E+02 -0.11365287744E+01 -0.41623725154E+02  0.45045682913E+02  0.00000000000E+00 0.  1.
         11    1    4    4    0    0 -0.23666499169E+00  0.48043169590E+00  0.29507423060E+01  0.29989507082E+01  0.51100000000E-03 0. -1.
        -11    1    4    4    0    0 -0.15688653986E+02  0.34452880673E+01  0.32715530810E+02  0.36445985104E+02  0.51100000000E-03 0.  1.
        -12    1    4    4    0    0 -0.12586082712E+01 -0.27891909888E+01  0.59574520380E+01  0.66973812746E+01  0.00000000000E+00 0.  1.
</event>
<event>
 8    1  0.8828843E-009  0.9118800E+02  0.7816164E-02  0.1184000E+00
        -11   -1    0    0    0    0  0.00000000000E+00  0.00000000000E+00  0.45593999997E+02  0.45594000000E+02  0.51100000000E-03 0. -1.
         11   -1    0    0    0    0 -0.00000000000E+00 -0.00000000000E+00 -0.45593999997E+02  0.45594000000E+02  0.51100000000E-03 0.  1.
         23    2    1    2    0    0  0.00000000000E+00  0.44408920985E-15  0.00000000000E+00  0.91188000000E+02  0.91188000000E+02 0.  0.
    9900012    2    3    3    0    0 -0.27109826280E+02 -0.38009788002E+01  0.35773220911E+02  0.46142318130E+02  0.10000003363E+02 0.  0.
        -12    1    3    3    0    0  0.27109826280E+02  0.38009788002E+01 -0.35773220911E+02  0.45045681870E+02  0.00000000000E+00 0.  1.
         11    1    4    4    0    0 -0.34865612842E+01 -0.28048481877E+01  0.85200093878E+01  0.96236086357E+01  0.51100000000E-03 0. -1.
        -11    1    4    4    0    0 -0.20762302115E+02 -0.69604527751E-01  0.25969430847E+02  0.33248900323E+02  0.51100000000E-03 0.  1.
        -12    1    4    4    0    0 -0.28609628806E+01 -0.92652608469E+00  0.12837806764E+01  0.32698091710E+01  0.00000000000E+00 0.  1.
</event>
<event>
 8    1  0.8828843E-009  0.9118800E+02  0.7816164E-02  0.1184000E+00
        -11   -1    0    0    0    0  0.00000000000E+00  0.00000000000E+00  0.45593999997E+02  0.45594000000E+02  0.51100000000E-03 0. -1.
         11   -1    0    0    0    0 -0.00000000000E+00 -0.00000000000E+00 -0.45593999997E+02  0.45594000000E+02  0.51100000000E-03 0.  1.
         23    2    1    2    0    0  0.00000000000E+00  0.00000000000E+00  0.00000000000E+00  0.91188000000E+02  0.91188000000E+02 0.  0.
    9900012    2    3    3    0    0 -0.23625303703E+02 -0.43282981948E+01  0.38108061900E+02  0.46142317387E+02  0.99999965887E+01 0.  0.
        -12    1    3    3    0    0  0.23625303703E+02  0.43282981948E+01 -0.38108061900E+02  0.45045682613E+02  0.00000000000E+00 0.  1.
         11    1    4    4    0    0 -0.15180050005E+02 -0.64008602420E+00  0.18518391272E+02  0.23953589372E+02  0.51100000000E-03 0. -1.
        -11    1    4    4    0    0  0.44939843206E+00  0.89604941480E-01  0.26252150686E+01  0.26649094570E+01  0.51100000000E-03 0.  1.
        -12    1    4    4    0    0 -0.88946521306E+01 -0.37778171121E+01  0.16964455559E+02  0.19523818558E+02  0.00000000000E+00 0.  1.
</event>
<event>
 8    1  0.8828843E-009  0.9118800E+02  0.7816164E-02  0.1184000E+00
        -11   -1    0    0    0    0  0.00000000000E+00  0.00000000000E+00  0.45593999997E+02  0.45594000000E+02  0.51100000000E-03 0. -1.
         11   -1    0    0    0    0 -0.00000000000E+00 -0.00000000000E+00 -0.45593999997E+02  0.45594000000E+02  0.51100000000E-03 0.  1.
         23    2    1    2    0    0  0.00000000000E+00  0.00000000000E+00  0.00000000000E+00  0.91188000000E+02  0.91188000000E+02 0.  0.
    9900012    2    3    3    0    0 -0.34817277385E+01 -0.43923804756E+02  0.93643202333E+01  0.46142317125E+02  0.99999941952E+01 0.  0.
        -12    1    3    3    0    0  0.34817277385E+01  0.43923804756E+02 -0.93643202333E+01  0.45045682875E+02  0.00000000000E+00 0.  1.
         11    1    4    4    0    0 -0.17585570956E+01 -0.79141689865E+01  0.41335352011E+01  0.91001487529E+01  0.51100000000E-03 0. -1.
        -11    1    4    4    0    0  0.45900781990E+00 -0.38086133328E+01 -0.14174629989E+01  0.40896730079E+01  0.51100000000E-03 0.  1.
         12    1    4    4    0    0 -0.21821784628E+01 -0.32201022437E+02  0.66482480311E+01  0.32952495364E+02  0.00000000000E+00 0. -1.
</event>
<event>
 8    1  0.8828843E-009  0.9118800E+02  0.7816164E-02  0.1184000E+00
        -11   -1    0    0    0    0  0.00000000000E+00  0.00000000000E+00  0.45593999997E+02  0.45594000000E+02  0.51100000000E-03 0. -1.
         11   -1    0    0    0    0 -0.00000000000E+00 -0.00000000000E+00 -0.45593999997E+02  0.45594000000E+02  0.51100000000E-03 0.  1.
         23    2    1    2    0    0  0.00000000000E+00  0.00000000000E+00  0.00000000000E+00  0.91188000000E+02  0.91188000000E+02 0.  0.
    9900012    2    3    3    0    0 -0.71803817341E+01  0.15057395507E+02 -0.41842925319E+02  0.46142318292E+02  0.10000004839E+02 0.  0.
         12    1    3    3    0    0  0.71803817341E+01 -0.15057395507E+02  0.41842925319E+02  0.45045681708E+02  0.00000000000E+00 0. -1.
         11    1    4    4    0    0  0.16944945966E+01  0.19165924946E+01 -0.26778039744E+01  0.37034137109E+01  0.51100000000E-03 0. -1.
        -11    1    4    4    0    0 -0.33350409646E+01  0.60179127204E+01 -0.21937492001E+02  0.22991114095E+02  0.51100000000E-03 0.  1.
         12    1    4    4    0    0 -0.55398353661E+01  0.71228902920E+01 -0.17227629343E+02  0.19447790486E+02  0.00000000000E+00 0. -1.
</event>
<event>
 8    1  0.8828843E-009  0.9118800E+02  0.7816164E-02  0.1184000E+00
        -11   -1    0    0    0    0  0.00000000000E+00  0.00000000000E+00  0.45593999997E+02  0.45594000000E+02  0.51100000000E-03 0. -1.
         11   -1    0    0    0    0 -0.00000000000E+00 -0.00000000000E+00 -0.45593999997E+02  0.45594000000E+02  0.51100000000E-03 0.  1.
         23    2    1    2    0    0 -0.17763568394E-14  0.00000000000E+00 -0.35527136788E-14  0.91188000000E+02  0.91188000000E+02 0.  0.
    9900012    2    3    3    0    0  0.98904989259E+01 -0.33287497409E+02  0.28692054547E+02  0.46142318222E+02  0.10000004199E+02 0.  0.
        -12    1    3    3    0    0 -0.98904989259E+01  0.33287497409E+02 -0.28692054547E+02  0.45045681778E+02  0.00000000000E+00 0.  1.
         11    1    4    4    0    0  0.15977497523E+01 -0.69711898321E+01  0.40367399254E+01  0.82125246686E+01  0.51100000000E-03 0. -1.
        -11    1    4    4    0    0  0.42357529609E-01 -0.60857694550E+01  0.18806549808E+01  0.63698702842E+01  0.51100000000E-03 0.  1.
         12    1    4    4    0    0  0.82503916441E+01 -0.20230538122E+02  0.22774659641E+02  0.31559923269E+02  0.00000000000E+00 0. -1.
</event>
<event>
 8    1  0.8828843E-009  0.9118800E+02  0.7816164E-02  0.1184000E+00
        -11   -1    0    0    0    0  0.00000000000E+00  0.00000000000E+00  0.45593999997E+02  0.45594000000E+02  0.51100000000E-03 0. -1.
         11   -1    0    0    0    0 -0.00000000000E+00 -0.00000000000E+00 -0.45593999997E+02  0.45594000000E+02  0.51100000000E-03 0.  1.
         23    2    1    2    0    0 -0.35527136788E-14 -0.22204460493E-15 -0.71054273576E-14  0.91188000000E+02  0.91188000000E+02 0.  0.
    9900012    2    3    3    0    0 -0.16904829174E+02  0.92266954439E+00 -0.41743130219E+02  0.46142317754E+02  0.99999999373E+01 0.  0.
         12    1    3    3    0    0  0.16904829174E+02 -0.92266954439E+00  0.41743130219E+02  0.45045682246E+02  0.00000000000E+00 0. -1.
         11    1    4    4    0    0 -0.59064531242E+01  0.40309210496E-01 -0.71241978565E+01  0.92542967697E+01  0.51100000000E-03 0. -1.
        -11    1    4    4    0    0 -0.37985022933E+01  0.31833176646E+01 -0.17200904789E+02  0.17900649621E+02  0.51100000000E-03 0.  1.
        -12    1    4    4    0    0 -0.71998737566E+01 -0.23009573307E+01 -0.17418027574E+02  0.18987371364E+02  0.00000000000E+00 0.  1.
</event>
<event>
 8    1  0.8828843E-009  0.9118800E+02  0.7816164E-02  0.1184000E+00
        -11   -1    0    0    0    0  0.00000000000E+00  0.00000000000E+00  0.45593999997E+02  0.45594000000E+02  0.51100000000E-03 0. -1.
         11   -1    0    0    0    0 -0.00000000000E+00 -0.00000000000E+00 -0.45593999997E+02  0.45594000000E+02  0.51100000000E-03 0.  1.
         23    2    1    2    0    0  0.33306690739E-15  0.71054273576E-14  0.00000000000E+00  0.91188000000E+02  0.91188000000E+02 0.  0.
    9900012    2    3    3    0    0 -0.86456050447E+00 -0.35719980530E+02  0.27430803748E+02  0.46142317985E+02  0.10000002040E+02 0.  0.
        -12    1    3    3    0    0  0.86456050447E+00  0.35719980530E+02 -0.27430803748E+02  0.45045682015E+02  0.00000000000E+00 0.  1.
         11    1    4    4    0    0  0.23802106220E+01 -0.26718146696E+02  0.20659830937E+02  0.33857840748E+02  0.51100000000E-03 0. -1.
        -11    1    4    4    0    0 -0.74318446283E+00 -0.65427828652E+01  0.54087231673E+01  0.85214210862E+01  0.51100000000E-03 0.  1.
        -12    1    4    4    0    0 -0.25015866636E+01 -0.24590509687E+01  0.13622496436E+01  0.37630561508E+01  0.00000000000E+00 0.  1.
</event>
<event>
 8    1  0.8828843E-009  0.9118800E+02  0.7816164E-02  0.1184000E+00
        -11   -1    0    0    0    0  0.00000000000E+00  0.00000000000E+00  0.45593999997E+02  0.45594000000E+02  0.51100000000E-03 0. -1.
         11   -1    0    0    0    0 -0.00000000000E+00 -0.00000000000E+00 -0.45593999997E+02  0.45594000000E+02  0.51100000000E-03 0.  1.
         23    2    1    2    0    0  0.00000000000E+00  0.00000000000E+00 -0.17763568394E-14  0.91188000000E+02  0.91188000000E+02 0.  0.
    9900012    2    3    3    0    0 -0.34330918745E+02 -0.26947848691E+02  0.11149663102E+02  0.46142317430E+02  0.99999969766E+01 0.  0.
        -12    1    3    3    0    0  0.34330918745E+02  0.26947848691E+02 -0.11149663102E+02  0.45045682570E+02  0.00000000000E+00 0.  1.
         11    1    4    4    0    0 -0.10231031984E+02 -0.10281058963E+02  0.71006721612E+01  0.16149109395E+02  0.51100000000E-03 0. -1.
        -11    1    4    4    0    0 -0.79629009419E+01 -0.35812993128E+01 -0.42367404184E+00  0.87414527473E+01  0.51100000000E-03 0.  1.
        -12    1    4    4    0    0 -0.16136985819E+02 -0.13085490416E+02  0.44726649824E+01  0.21251755287E+02  0.00000000000E+00 0.  1.
</event>
<event>
 8    1  0.8828843E-009  0.9118800E+02  0.7816164E-02  0.1184000E+00
        -11   -1    0    0    0    0  0.00000000000E+00  0.00000000000E+00  0.45593999997E+02  0.45594000000E+02  0.51100000000E-03 0. -1.
         11   -1    0    0    0    0 -0.00000000000E+00 -0.00000000000E+00 -0.45593999997E+02  0.45594000000E+02  0.51100000000E-03 0.  1.
         23    2    1    2    0    0  0.88817841970E-15 -0.22204460493E-15  0.00000000000E+00  0.91188000000E+02  0.91188000000E+02 0.  0.
    9900012    2    3    3    0    0 -0.55603333120E+01  0.27122114128E+00  0.44700365484E+02  0.46142317168E+02  0.99999945898E+01 0.  0.
        -12    1    3    3    0    0  0.55603333120E+01 -0.27122114128E+00 -0.44700365484E+02  0.45045682832E+02  0.00000000000E+00 0.  1.
         11    1    4    4    0    0 -0.69479096668E+01 -0.64622756795E+00  0.38078952966E+02  0.38713017424E+02  0.51100000000E-03 0. -1.
        -11    1    4    4    0    0  0.47634558568E-01  0.11227932537E+01  0.63391197234E+00  0.12902629157E+01  0.51100000000E-03 0.  1.
         12    1    4    4    0    0  0.13399417963E+01 -0.20534454452E+00  0.59875005449E+01  0.61390368279E+01  0.00000000000E+00 0. -1.
</event>
<event>
 8    1  0.8828843E-009  0.9118800E+02  0.7816164E-02  0.1184000E+00
        -11   -1    0    0    0    0  0.00000000000E+00  0.00000000000E+00  0.45593999997E+02  0.45594000000E+02  0.51100000000E-03 0.  1.
         11   -1    0    0    0    0 -0.00000000000E+00 -0.00000000000E+00 -0.45593999997E+02  0.45594000000E+02  0.51100000000E-03 0. -1.
         23    2    1    2    0    0  0.00000000000E+00  0.00000000000E+00  0.22204460493E-15  0.91188000000E+02  0.91188000000E+02 0.  0.
    9900012    2    3    3    0    0  0.46910387310E+01 -0.44764697945E+02 -0.17971539760E+01  0.46142314425E+02  0.99999695776E+01 0.  0.
         12    1    3    3    0    0 -0.46910387310E+01  0.44764697945E+02  0.17971539760E+01  0.45045685575E+02  0.00000000000E+00 0. -1.
         11    1    4    4    0    0 -0.34509687111E+00 -0.19332750935E+00  0.15845512430E+00  0.42611696030E+00  0.51100000000E-03 0. -1.
        -11    1    4    4    0    0  0.62641475815E+01 -0.17765361429E+02 -0.10570876586E+01  0.18867035968E+02  0.51100000000E-03 0.  1.
         12    1    4    4    0    0 -0.12280119794E+01 -0.26806009007E+02 -0.89852144170E+00  0.26849161497E+02  0.00000000000E+00 0. -1.
</event>
<event>
 8    1  0.8828843E-009  0.9118800E+02  0.7816164E-02  0.1184000E+00
        -11   -1    0    0    0    0  0.00000000000E+00  0.00000000000E+00  0.45593999997E+02  0.45594000000E+02  0.51100000000E-03 0. -1.
         11   -1    0    0    0    0 -0.00000000000E+00 -0.00000000000E+00 -0.45593999997E+02  0.45594000000E+02  0.51100000000E-03 0.  1.
         23    2    1    2    0    0 -0.44408920985E-15 -0.71054273576E-14 -0.35527136788E-14  0.91188000000E+02  0.91188000000E+02 0.  0.
    9900012    2    3    3    0    0  0.22517532691E+01 -0.36068320198E+02 -0.26890879283E+02  0.46142317595E+02  0.99999984878E+01 0.  0.
         12    1    3    3    0    0 -0.22517532691E+01  0.36068320198E+02  0.26890879283E+02  0.45045682405E+02  0.00000000000E+00 0. -1.
         11    1    4    4    0    0 -0.14525889801E+01 -0.20343320324E+01 -0.74320395605E+00  0.26078485279E+01  0.51100000000E-03 0. -1.
        -11    1    4    4    0    0 -0.45144672317E+00 -0.23179934504E+02 -0.17531416270E+02  0.29066539602E+02  0.51100000000E-03 0.  1.
         12    1    4    4    0    0  0.41557889724E+01 -0.10854053662E+02 -0.86162590576E+01  0.14467929466E+02  0.00000000000E+00 0. -1.
</event>
<event>
 8    1  0.8828843E-009  0.9118800E+02  0.7816164E-02  0.1184000E+00
        -11   -1    0    0    0    0  0.00000000000E+00  0.00000000000E+00  0.45593999997E+02  0.45594000000E+02  0.51100000000E-03 0. -1.
         11   -1    0    0    0    0 -0.00000000000E+00 -0.00000000000E+00 -0.45593999997E+02  0.45594000000E+02  0.51100000000E-03 0.  1.
         23    2    1    2    0    0 -0.71054273576E-14  0.17763568394E-14  0.00000000000E+00  0.91188000000E+02  0.91188000000E+02 0.  0.
    9900012    2    3    3    0    0  0.27242968898E+02 -0.12686607625E+02  0.33555686544E+02  0.46142318000E+02  0.10000002178E+02 0.  0.
        -12    1    3    3    0    0 -0.27242968898E+02  0.12686607625E+02 -0.33555686544E+02  0.45045682000E+02  0.00000000000E+00 0.  1.
         11    1    4    4    0    0  0.27417023046E+01 -0.13043534192E+01  0.83067620313E+00  0.31477440469E+01  0.51100000000E-03 0. -1.
        -11    1    4    4    0    0  0.82231565702E+01 -0.95123129586E+00  0.71786770985E+01  0.10957123258E+02  0.51100000000E-03 0.  1.
        -12    1    4    4    0    0  0.16278110023E+02 -0.10431022910E+02  0.25546333242E+02  0.32037450695E+02  0.00000000000E+00 0.  1.
</event>
<event>
 8    1  0.8828843E-009  0.9118800E+02  0.7816164E-02  0.1184000E+00
        -11   -1    0    0    0    0  0.00000000000E+00  0.00000000000E+00  0.45593999997E+02  0.45594000000E+02  0.51100000000E-03 0. -1.
         11   -1    0    0    0    0 -0.00000000000E+00 -0.00000000000E+00 -0.45593999997E+02  0.45594000000E+02  0.51100000000E-03 0.  1.
         23    2    1    2    0    0 -0.35527136788E-14 -0.35527136788E-14  0.00000000000E+00  0.91188000000E+02  0.91188000000E+02 0.  0.
    9900012    2    3    3    0    0  0.24046548207E+02  0.17220699775E+02 -0.33975351362E+02  0.46142317837E+02  0.10000000689E+02 0.  0.
         12    1    3    3    0    0 -0.24046548207E+02 -0.17220699775E+02  0.33975351362E+02  0.45045682163E+02  0.00000000000E+00 0. -1.
         11    1    4    4    0    0  0.27112188887E+01  0.37000227172E-02 -0.31589418460E+01  0.41628878679E+01  0.51100000000E-03 0. -1.
        -11    1    4    4    0    0  0.79000753259E+01  0.73388920008E+01 -0.17856760468E+02  0.20859875853E+02  0.51100000000E-03 0.  1.
         12    1    4    4    0    0  0.13435253992E+02  0.98781077516E+01 -0.12959649048E+02  0.21119554115E+02  0.00000000000E+00 0. -1.
</event>
<event>
 8    1  0.8828843E-009  0.9118800E+02  0.7816164E-02  0.1184000E+00
        -11   -1    0    0    0    0  0.00000000000E+00  0.00000000000E+00  0.45593999997E+02  0.45594000000E+02  0.51100000000E-03 0. -1.
         11   -1    0    0    0    0 -0.00000000000E+00 -0.00000000000E+00 -0.45593999997E+02  0.45594000000E+02  0.51100000000E-03 0.  1.
         23    2    1    2    0    0  0.00000000000E+00  0.00000000000E+00  0.71054273576E-14  0.91188000000E+02  0.91188000000E+02 0.  0.
    9900012    2    3    3    0    0  0.15151511798E+02  0.16933044679E+02  0.38894952271E+02  0.46142316256E+02  0.99999862709E+01 0.  0.
        -12    1    3    3    0    0 -0.15151511798E+02 -0.16933044679E+02 -0.38894952271E+02  0.45045683744E+02  0.00000000000E+00 0.  1.
         11    1    4    4    0    0  0.77683458608E+01  0.87430092296E+01  0.14039960677E+02  0.18273147071E+02  0.51100000000E-03 0. -1.
        -11    1    4    4    0    0  0.25713718305E+01  0.41550706837E+01  0.47825296498E+01  0.68373354159E+01  0.51100000000E-03 0.  1.
         12    1    4    4    0    0  0.48117941067E+01  0.40349647657E+01  0.20072461944E+02  0.21031833769E+02  0.00000000000E+00 0. -1.
</event>
<event>
 8    1  0.9990885E-009  0.9118800E+02  0.7816164E-02  0.1184000E+00
        -11   -1    0    0    0    0  0.00000000000E+00  0.00000000000E+00  0.45593999997E+02  0.45594000000E+02  0.51100000000E-03 0. -1.
         11   -1    0    0    0    0 -0.00000000000E+00 -0.00000000000E+00 -0.45593999997E+02  0.45594000000E+02  0.51100000000E-03 0.  1.
         23    2    1    2    0    0  0.00000000000E+00  0.17763568394E-14  0.71054273576E-14  0.91188000000E+02  0.91188000000E+02 0.  0.
    9900012    2    3    3    0    0  0.12371527680E+02  0.14361578023E+02  0.40863233237E+02  0.46142318176E+02  0.10000003783E+02 0.  0.
        -12    1    3    3    0    0 -0.12371527680E+02 -0.14361578023E+02 -0.40863233237E+02  0.45045681824E+02  0.00000000000E+00 0.  1.
         11    1    4    4    0    0  0.59190083447E+01  0.52920434996E+01  0.11582041169E+02  0.14042224257E+02  0.51100000000E-03 0. -1.
        -11    1    4    4    0    0  0.41242008187E+00  0.23227002312E+01  0.13073734758E+01  0.26970821927E+01  0.51100000000E-03 0.  1.
         12    1    4    4    0    0  0.60400992531E+01  0.67468342922E+01  0.27973818592E+02  0.29403011726E+02  0.00000000000E+00 0. -1.
</event>
<event>
 8    1  0.8828843E-009  0.9118800E+02  0.7816164E-02  0.1184000E+00
        -11   -1    0    0    0    0  0.00000000000E+00  0.00000000000E+00  0.45593999997E+02  0.45594000000E+02  0.51100000000E-03 0. -1.
         11   -1    0    0    0    0 -0.00000000000E+00 -0.00000000000E+00 -0.45593999997E+02  0.45594000000E+02  0.51100000000E-03 0.  1.
         23    2    1    2    0    0  0.00000000000E+00  0.00000000000E+00  0.00000000000E+00  0.91188000000E+02  0.91188000000E+02 0.  0.
    9900012    2    3    3    0    0 -0.52919771946E+01 -0.96967169895E+01  0.43670154004E+02  0.46142315481E+02  0.99999792106E+01 0.  0.
        -12    1    3    3    0    0  0.52919771946E+01  0.96967169895E+01 -0.43670154004E+02  0.45045684519E+02  0.00000000000E+00 0.  1.
         11    1    4    4    0    0 -0.20391993547E+01 -0.21656928087E+01  0.55724605509E+01  0.63167140352E+01  0.51100000000E-03 0.  1.
        -11    1    4    4    0    0 -0.24976405323E+01 -0.49165596790E+01  0.86887789086E+01  0.10291046909E+02  0.51100000000E-03 0. -1.
        -12    1    4    4    0    0 -0.75513730762E+00 -0.26144645019E+01  0.29408914545E+02  0.29534554537E+02  0.00000000000E+00 0.  1.
</event>
<event>
 8    1  0.8828843E-009  0.9118800E+02  0.7816164E-02  0.1184000E+00
        -11   -1    0    0    0    0  0.00000000000E+00  0.00000000000E+00  0.45593999997E+02  0.45594000000E+02  0.51100000000E-03 0. -1.
         11   -1    0    0    0    0 -0.00000000000E+00 -0.00000000000E+00 -0.45593999997E+02  0.45594000000E+02  0.51100000000E-03 0.  1.
         23    2    1    2    0    0 -0.35527136788E-14 -0.17763568394E-14  0.71054273576E-14  0.91188000000E+02  0.91188000000E+02 0.  0.
    9900012    2    3    3    0    0 -0.20713591213E+02 -0.84258192819E+01  0.39103283309E+02  0.46142311449E+02  0.99999424423E+01 0.  0.
        -12    1    3    3    0    0  0.20713591213E+02  0.84258192819E+01 -0.39103283309E+02  0.45045688551E+02  0.00000000000E+00 0.  1.
         11    1    4    4    0    0 -0.15110002057E+02 -0.54967771342E+01  0.27473461630E+02  0.31832653286E+02  0.51100000000E-03 0. -1.
        -11    1    4    4    0    0  0.21746025337E-01  0.10630607563E+01  0.34473202641E+01  0.36075737450E+01  0.51100000000E-03 0.  1.
        -12    1    4    4    0    0 -0.56253351811E+01 -0.39921029040E+01  0.81825014151E+01  0.10702084419E+02  0.00000000000E+00 0.  1.
</event>
<event>
 8    1  0.8828843E-009  0.9118800E+02  0.7816164E-02  0.1184000E+00
        -11   -1    0    0    0    0  0.00000000000E+00  0.00000000000E+00  0.45593999997E+02  0.45594000000E+02  0.51100000000E-03 0. -1.
         11   -1    0    0    0    0 -0.00000000000E+00 -0.00000000000E+00 -0.45593999997E+02  0.45594000000E+02  0.51100000000E-03 0.  1.
         23    2    1    2    0    0 -0.35527136788E-14  0.00000000000E+00  0.17763568394E-14  0.91188000000E+02  0.91188000000E+02 0.  0.
    9900012    2    3    3    0    0 -0.27927237557E+02  0.34067749406E+02 -0.94112398269E+01  0.46142316719E+02  0.99999904970E+01 0.  0.
         12    1    3    3    0    0  0.27927237557E+02 -0.34067749406E+02  0.94112398269E+01  0.45045683281E+02  0.00000000000E+00 0. -1.
         11    1    4    4    0    0 -0.33134175155E+01  0.13428344258E+01 -0.15442053321E+01  0.38944204056E+01  0.51100000000E-03 0. -1.
        -11    1    4    4    0    0 -0.14904336716E+01  0.88753159944E+00 -0.16819070295E+01  0.24161780535E+01  0.51100000000E-03 0.  1.
        -12    1    4    4    0    0 -0.23123386370E+02  0.31837383381E+02 -0.61851274654E+01  0.39831718260E+02  0.00000000000E+00 0.  1.
</event>
<event>
 8    1  0.8828843E-009  0.9118800E+02  0.7816164E-02  0.1184000E+00
        -11   -1    0    0    0    0  0.00000000000E+00  0.00000000000E+00  0.45593999997E+02  0.45594000000E+02  0.51100000000E-03 0. -1.
         11   -1    0    0    0    0 -0.00000000000E+00 -0.00000000000E+00 -0.45593999997E+02  0.45594000000E+02  0.51100000000E-03 0.  1.
         23    2    1    2    0    0  0.88817841970E-15  0.35527136788E-14  0.00000000000E+00  0.91188000000E+02  0.91188000000E+02 0.  0.
    9900012    2    3    3    0    0 -0.58684999051E+01 -0.13298890760E+02  0.42635830343E+02  0.46142314129E+02  0.99999668762E+01 0.  0.
        -12    1    3    3    0    0  0.58684999051E+01  0.13298890760E+02 -0.42635830343E+02  0.45045685871E+02  0.00000000000E+00 0.  1.
         11    1    4    4    0    0 -0.89800584214E-01 -0.99029956473E+00  0.47137142656E+01  0.48174536647E+01  0.51100000000E-03 0. -1.
        -11    1    4    4    0    0 -0.29773519517E+01  0.68678806327E+00  0.56816539900E+01  0.64511622837E+01  0.51100000000E-03 0.  1.
        -12    1    4    4    0    0 -0.28013473692E+01 -0.12995379258E+02  0.32240462088E+02  0.34873698180E+02  0.00000000000E+00 0.  1.
</event>
<event>
 8    1  0.8828843E-009  0.9118800E+02  0.7816164E-02  0.1184000E+00
        -11   -1    0    0    0    0  0.00000000000E+00  0.00000000000E+00  0.45593999997E+02  0.45594000000E+02  0.51100000000E-03 0. -1.
         11   -1    0    0    0    0 -0.00000000000E+00 -0.00000000000E+00 -0.45593999997E+02  0.45594000000E+02  0.51100000000E-03 0.  1.
         23    2    1    2    0    0 -0.44408920985E-15  0.00000000000E+00  0.22204460493E-15  0.91188000000E+02  0.91188000000E+02 0.  0.
    9900012    2    3    3    0    0 -0.24286754009E+01 -0.44962025248E+02  0.12771651128E+01  0.46142319526E+02  0.10000016097E+02 0.  0.
        -12    1    3    3    0    0  0.24286754009E+01  0.44962025248E+02 -0.12771651128E+01  0.45045680474E+02  0.00000000000E+00 0.  1.
         11    1    4    4    0    0 -0.60911292929E+00 -0.18821690286E+02  0.40575633047E+01  0.19263718852E+02  0.51100000000E-03 0.  1.
        -11    1    4    4    0    0 -0.66338790566E-01 -0.20261758371E+01 -0.17511975680E+01  0.26788957690E+01  0.51100000000E-03 0. -1.
         12    1    4    4    0    0 -0.17532236811E+01 -0.24114159125E+02 -0.10292006239E+01  0.24199704905E+02  0.00000000000E+00 0. -1.
</event>
<event>
 8    1  0.8828843E-009  0.9118800E+02  0.7816164E-02  0.1184000E+00
        -11   -1    0    0    0    0  0.00000000000E+00  0.00000000000E+00  0.45593999997E+02  0.45594000000E+02  0.51100000000E-03 0. -1.
         11   -1    0    0    0    0 -0.00000000000E+00 -0.00000000000E+00 -0.45593999997E+02  0.45594000000E+02  0.51100000000E-03 0.  1.
         23    2    1    2    0    0 -0.88817841970E-15  0.22204460493E-15 -0.71054273576E-14  0.91188000000E+02  0.91188000000E+02 0.  0.
    9900012    2    3    3    0    0 -0.70861543870E+01 -0.18484424261E+01 -0.44446407883E+02  0.46142317664E+02  0.99999991166E+01 0.  0.
         12    1    3    3    0    0  0.70861543870E+01  0.18484424261E+01  0.44446407883E+02  0.45045682336E+02  0.00000000000E+00 0. -1.
         11    1    4    4    0    0 -0.14295962381E+01 -0.45519099113E+01 -0.10694206810E+02  0.11710238632E+02  0.51100000000E-03 0. -1.
        -11    1    4    4    0    0 -0.57629271301E+01  0.20050388275E+01 -0.30141655619E+02  0.30753063481E+02  0.51100000000E-03 0.  1.
         12    1    4    4    0    0  0.10636898121E+00  0.69842865778E+00 -0.36105454542E+01  0.36790155513E+01  0.00000000000E+00 0. -1.
</event>
<event>
 8    1  0.8828843E-009  0.9118800E+02  0.7816164E-02  0.1184000E+00
        -11   -1    0    0    0    0  0.00000000000E+00  0.00000000000E+00  0.45593999997E+02  0.45594000000E+02  0.51100000000E-03 0. -1.
         11   -1    0    0    0    0 -0.00000000000E+00 -0.00000000000E+00 -0.45593999997E+02  0.45594000000E+02  0.51100000000E-03 0.  1.
         23    2    1    2    0    0  0.00000000000E+00  0.17763568394E-14  0.00000000000E+00  0.91188000000E+02  0.91188000000E+02 0.  0.
    9900012    2    3    3    0    0 -0.41309614178E+02 -0.10906253886E+02  0.14271751246E+02  0.46142317843E+02  0.10000000745E+02 0.  0.
        -12    1    3    3    0    0  0.41309614178E+02  0.10906253886E+02 -0.14271751246E+02  0.45045682157E+02  0.00000000000E+00 0.  1.
         11    1    4    4    0    0 -0.23111227446E+02 -0.26924497481E+01  0.44185744192E+01  0.23683368001E+02  0.51100000000E-03 0. -1.
        -11    1    4    4    0    0 -0.10031032179E+02 -0.59946656893E+01  0.50791788494E+01  0.12741886883E+02  0.51100000000E-03 0.  1.
         12    1    4    4    0    0 -0.81673545529E+01 -0.22191384490E+01  0.47739979776E+01  0.97170629585E+01  0.00000000000E+00 0. -1.
</event>
<event>
 8    1  0.8828843E-009  0.9118800E+02  0.7816164E-02  0.1184000E+00
        -11   -1    0    0    0    0  0.00000000000E+00  0.00000000000E+00  0.45593999997E+02  0.45594000000E+02  0.51100000000E-03 0.  1.
         11   -1    0    0    0    0 -0.00000000000E+00 -0.00000000000E+00 -0.45593999997E+02  0.45594000000E+02  0.51100000000E-03 0. -1.
         23    2    1    2    0    0  0.00000000000E+00  0.00000000000E+00 -0.35527136788E-14  0.91188000000E+02  0.91188000000E+02 0.  0.
    9900012    2    3    3    0    0 -0.32049513098E+02 -0.17396230668E+02  0.26444534560E+02  0.46142317194E+02  0.99999948330E+01 0.  0.
        -12    1    3    3    0    0  0.32049513098E+02  0.17396230668E+02 -0.26444534560E+02  0.45045682806E+02  0.00000000000E+00 0.  1.
         11    1    4    4    0    0 -0.10536187557E+02 -0.62567159101E+01  0.11224180120E+02  0.16617459548E+02  0.51100000000E-03 0. -1.
        -11    1    4    4    0    0 -0.14725379432E+01  0.86292201048E-01  0.33675430937E+01  0.36764332018E+01  0.51100000000E-03 0.  1.
         12    1    4    4    0    0 -0.20040787598E+02 -0.11225806959E+02  0.11852811347E+02  0.25848424444E+02  0.00000000000E+00 0. -1.
</event>
<event>
 8    1  0.8828843E-009  0.9118800E+02  0.7816164E-02  0.1184000E+00
        -11   -1    0    0    0    0  0.00000000000E+00  0.00000000000E+00  0.45593999997E+02  0.45594000000E+02  0.51100000000E-03 0. -1.
         11   -1    0    0    0    0 -0.00000000000E+00 -0.00000000000E+00 -0.45593999997E+02  0.45594000000E+02  0.51100000000E-03 0.  1.
         23    2    1    2    0    0  0.00000000000E+00 -0.35527136788E-14  0.00000000000E+00  0.91188000000E+02  0.91188000000E+02 0.  0.
    9900012    2    3    3    0    0 -0.10387582281E+02 -0.22179334151E+02  0.37805921694E+02  0.46142329351E+02  0.10000105689E+02 0.  0.
        -12    1    3    3    0    0  0.10387582281E+02  0.22179334151E+02 -0.37805921694E+02  0.45045670649E+02  0.00000000000E+00 0.  1.
         11    1    4    4    0    0  0.80804785340E+00 -0.42691613065E+01  0.10114218767E+02  0.11008001686E+02  0.51100000000E-03 0. -1.
        -11    1    4    4    0    0 -0.45962199461E+01 -0.42991029414E+01  0.10439587774E+02  0.12189853036E+02  0.51100000000E-03 0.  1.
         12    1    4    4    0    0 -0.65994101883E+01 -0.13611069903E+02  0.17252115154E+02  0.22944474629E+02  0.00000000000E+00 0. -1.
</event>
<event>
 8    1  0.8828843E-009  0.9118800E+02  0.7816164E-02  0.1184000E+00
        -11   -1    0    0    0    0  0.00000000000E+00  0.00000000000E+00  0.45593999997E+02  0.45594000000E+02  0.51100000000E-03 0. -1.
         11   -1    0    0    0    0 -0.00000000000E+00 -0.00000000000E+00 -0.45593999997E+02  0.45594000000E+02  0.51100000000E-03 0.  1.
         23    2    1    2    0    0  0.00000000000E+00  0.44408920985E-15 -0.35527136788E-14  0.91188000000E+02  0.91188000000E+02 0.  0.
    9900012    2    3    3    0    0 -0.40306767171E+02 -0.33567489116E+01  0.19829530594E+02  0.46142317336E+02  0.99999961253E+01 0.  0.
        -12    1    3    3    0    0  0.40306767171E+02  0.33567489116E+01 -0.19829530594E+02  0.45045682664E+02  0.00000000000E+00 0.  1.
         11    1    4    4    0    0 -0.11994958610E+02 -0.66655041901E+00  0.91264191173E+01  0.15086909812E+02  0.51100000000E-03 0. -1.
        -11    1    4    4    0    0 -0.20872060347E+02  0.37187689252E+00  0.94439528382E+01  0.22912211613E+02  0.51100000000E-03 0.  1.
        -12    1    4    4    0    0 -0.74397482145E+01 -0.30620753851E+01  0.12591586385E+01  0.81431959105E+01  0.00000000000E+00 0.  1.
</event>
<event>
 8    1  0.8828843E-009  0.9118800E+02  0.7816164E-02  0.1184000E+00
        -11   -1    0    0    0    0  0.00000000000E+00  0.00000000000E+00  0.45593999997E+02  0.45594000000E+02  0.51100000000E-03 0. -1.
         11   -1    0    0    0    0 -0.00000000000E+00 -0.00000000000E+00 -0.45593999997E+02  0.45594000000E+02  0.51100000000E-03 0.  1.
         23    2    1    2    0    0  0.00000000000E+00  0.00000000000E+00  0.00000000000E+00  0.91188000000E+02  0.91188000000E+02 0.  0.
    9900012    2    3    3    0    0 -0.38018172709E+02  0.22060284680E+01  0.24059624077E+02  0.46142317316E+02  0.99999959373E+01 0.  0.
        -12    1    3    3    0    0  0.38018172709E+02 -0.22060284680E+01 -0.24059624077E+02  0.45045682684E+02  0.00000000000E+00 0.  1.
         11    1    4    4    0    0 -0.72807536486E+01  0.26020665004E+01  0.58921449421E+01  0.97209822572E+01  0.51100000000E-03 0. -1.
        -11    1    4    4    0    0 -0.24994344764E+02  0.20126325746E+01  0.12577675375E+02  0.28052912116E+02  0.51100000000E-03 0.  1.
         12    1    4    4    0    0 -0.57430742964E+01 -0.24086706070E+01  0.55898037603E+01  0.83684229426E+01  0.00000000000E+00 0. -1.
</event>
<event>
 8    1  0.8828843E-009  0.9118800E+02  0.7816164E-02  0.1184000E+00
        -11   -1    0    0    0    0  0.00000000000E+00  0.00000000000E+00  0.45593999997E+02  0.45594000000E+02  0.51100000000E-03 0. -1.
         11   -1    0    0    0    0 -0.00000000000E+00 -0.00000000000E+00 -0.45593999997E+02  0.45594000000E+02  0.51100000000E-03 0.  1.
         23    2    1    2    0    0  0.71054273576E-14  0.17763568394E-14 -0.71054273576E-14  0.91188000000E+02  0.91188000000E+02 0.  0.
    9900012    2    3    3    0    0  0.34302333743E+02  0.11139718003E+02 -0.26988331626E+02  0.46142318061E+02  0.10000002735E+02 0.  0.
         12    1    3    3    0    0 -0.34302333743E+02 -0.11139718003E+02  0.26988331626E+02  0.45045681939E+02  0.00000000000E+00 0. -1.
         11    1    4    4    0    0  0.11095085076E+02  0.25876331089E+01 -0.34079569063E+01  0.11891632709E+02  0.51100000000E-03 0. -1.
        -11    1    4    4    0    0  0.37452463435E+01  0.15440123796E+01 -0.27621379124E+01  0.49030858151E+01  0.51100000000E-03 0.  1.
        -12    1    4    4    0    0  0.19462002323E+02  0.70080725144E+01 -0.20818236808E+02  0.29347599537E+02  0.00000000000E+00 0.  1.
</event>
<event>
 8    1  0.8828843E-009  0.9118800E+02  0.7816164E-02  0.1184000E+00
        -11   -1    0    0    0    0  0.00000000000E+00  0.00000000000E+00  0.45593999997E+02  0.45594000000E+02  0.51100000000E-03 0. -1.
         11   -1    0    0    0    0 -0.00000000000E+00 -0.00000000000E+00 -0.45593999997E+02  0.45594000000E+02  0.51100000000E-03 0.  1.
         23    2    1    2    0    0  0.00000000000E+00  0.44408920985E-15  0.00000000000E+00  0.91188000000E+02  0.91188000000E+02 0.  0.
    9900012    2    3    3    0    0 -0.76525225662E+01  0.39468472101E+01  0.44215097093E+02  0.46142317460E+02  0.99999972554E+01 0.  0.
        -12    1    3    3    0    0  0.76525225662E+01 -0.39468472101E+01 -0.44215097093E+02  0.45045682540E+02  0.00000000000E+00 0.  1.
         11    1    4    4    0    0 -0.34780900968E+01  0.38609891673E+01  0.34597740851E+02  0.34985825992E+02  0.51100000000E-03 0. -1.
        -11    1    4    4    0    0  0.25144185404E+00  0.10254401094E+01  0.11862036213E+01  0.15880269885E+01  0.51100000000E-03 0.  1.
         12    1    4    4    0    0 -0.44258743234E+01 -0.93958206651E+00  0.84311526210E+01  0.95684644800E+01  0.00000000000E+00 0. -1.
</event>
<event>
 8    1  0.8828843E-009  0.9118800E+02  0.7816164E-02  0.1184000E+00
        -11   -1    0    0    0    0  0.00000000000E+00  0.00000000000E+00  0.45593999997E+02  0.45594000000E+02  0.51100000000E-03 0. -1.
         11   -1    0    0    0    0 -0.00000000000E+00 -0.00000000000E+00 -0.45593999997E+02  0.45594000000E+02  0.51100000000E-03 0.  1.
         23    2    1    2    0    0 -0.35527136788E-14  0.00000000000E+00  0.00000000000E+00  0.91188000000E+02  0.91188000000E+02 0.  0.
    9900012    2    3    3    0    0  0.20884100602E+02 -0.13678910934E+02 -0.37494735601E+02  0.46142318075E+02  0.10000002861E+02 0.  0.
         12    1    3    3    0    0 -0.20884100602E+02  0.13678910934E+02  0.37494735601E+02  0.45045681925E+02  0.00000000000E+00 0. -1.
         11    1    4    4    0    0  0.40337786687E+01 -0.29162427824E+01 -0.12453628549E+02  0.13411513957E+02  0.51100000000E-03 0. -1.
        -11    1    4    4    0    0  0.10132881331E+02 -0.10106486890E+02 -0.16406953909E+02  0.21771644361E+02  0.51100000000E-03 0.  1.
         12    1    4    4    0    0  0.67174406016E+01 -0.65618126136E+00 -0.86341531438E+01  0.10959159758E+02  0.00000000000E+00 0. -1.
</event>
<event>
 8    1  0.8828843E-009  0.9118800E+02  0.7816164E-02  0.1184000E+00
        -11   -1    0    0    0    0  0.00000000000E+00  0.00000000000E+00  0.45593999997E+02  0.45594000000E+02  0.51100000000E-03 0. -1.
         11   -1    0    0    0    0 -0.00000000000E+00 -0.00000000000E+00 -0.45593999997E+02  0.45594000000E+02  0.51100000000E-03 0.  1.
         23    2    1    2    0    0  0.00000000000E+00  0.00000000000E+00  0.00000000000E+00  0.91188000000E+02  0.91188000000E+02 0.  0.
    9900012    2    3    3    0    0 -0.11217247546E+02 -0.28560616692E+02 -0.32978445240E+02  0.46142319644E+02  0.10000017168E+02 0.  0.
         12    1    3    3    0    0  0.11217247546E+02  0.28560616692E+02  0.32978445240E+02  0.45045680356E+02  0.00000000000E+00 0. -1.
         11    1    4    4    0    0  0.17450319152E+00 -0.27183909990E+01 -0.12360788148E+01  0.29913194555E+01  0.51100000000E-03 0. -1.
        -11    1    4    4    0    0 -0.24594172536E+00 -0.51844033946E+01 -0.94384270319E+01  0.10771370896E+02  0.51100000000E-03 0.  1.
         12    1    4    4    0    0 -0.11145809012E+02 -0.20657822298E+02 -0.22303939393E+02  0.32379629292E+02  0.00000000000E+00 0. -1.
</event>
<event>
 8    1  0.8828843E-009  0.9118800E+02  0.7816164E-02  0.1184000E+00
        -11   -1    0    0    0    0  0.00000000000E+00  0.00000000000E+00  0.45593999997E+02  0.45594000000E+02  0.51100000000E-03 0. -1.
         11   -1    0    0    0    0 -0.00000000000E+00 -0.00000000000E+00 -0.45593999997E+02  0.45594000000E+02  0.51100000000E-03 0.  1.
         23    2    1    2    0    0  0.00000000000E+00  0.35527136788E-14 -0.35527136788E-14  0.91188000000E+02  0.91188000000E+02 0.  0.
    9900012    2    3    3    0    0  0.25429893087E+02 -0.25442526118E+02  0.27112947533E+02  0.46142317392E+02  0.99999966361E+01 0.  0.
        -12    1    3    3    0    0 -0.25429893087E+02  0.25442526118E+02 -0.27112947533E+02  0.45045682608E+02  0.00000000000E+00 0.  1.
         11    1    4    4    0    0  0.42663515274E+00  0.29633302602E+00  0.16203199315E+00  0.54413733909E+00  0.51100000000E-03 0. -1.
        -11    1    4    4    0    0  0.63242855334E+01 -0.79818608301E+01  0.35432087527E+01  0.10782440278E+02  0.51100000000E-03 0.  1.
         12    1    4    4    0    0  0.18678972401E+02 -0.17756998314E+02  0.23407706787E+02  0.34815739775E+02  0.00000000000E+00 0. -1.
</event>
<event>
 8    1  0.8828843E-009  0.9118800E+02  0.7816164E-02  0.1184000E+00
        -11   -1    0    0    0    0  0.00000000000E+00  0.00000000000E+00  0.45593999997E+02  0.45594000000E+02  0.51100000000E-03 0. -1.
         11   -1    0    0    0    0 -0.00000000000E+00 -0.00000000000E+00 -0.45593999997E+02  0.45594000000E+02  0.51100000000E-03 0.  1.
         23    2    1    2    0    0  0.00000000000E+00  0.00000000000E+00  0.00000000000E+00  0.91188000000E+02  0.91188000000E+02 0.  0.
    9900012    2    3    3    0    0 -0.22355707068E+02  0.15529958144E+02 -0.35890891926E+02  0.46142319167E+02  0.10000012821E+02 0.  0.
         12    1    3    3    0    0  0.22355707068E+02 -0.15529958144E+02  0.35890891926E+02  0.45045680833E+02  0.00000000000E+00 0. -1.
         11    1    4    4    0    0 -0.81524504642E+01  0.48806364329E+01 -0.15603812477E+02  0.18269155007E+02  0.51100000000E-03 0. -1.
        -11    1    4    4    0    0 -0.13377817076E+02  0.92056422325E+01 -0.20547525282E+02  0.26189895649E+02  0.51100000000E-03 0.  1.
         12    1    4    4    0    0 -0.82543952818E+00  0.14436794785E+01  0.26044583329E+00  0.16832685120E+01  0.00000000000E+00 0. -1.
</event>
<event>
 8    1  0.8828843E-009  0.9118800E+02  0.7816164E-02  0.1184000E+00
        -11   -1    0    0    0    0  0.00000000000E+00  0.00000000000E+00  0.45593999997E+02  0.45594000000E+02  0.51100000000E-03 0. -1.
         11   -1    0    0    0    0 -0.00000000000E+00 -0.00000000000E+00 -0.45593999997E+02  0.45594000000E+02  0.51100000000E-03 0.  1.
         23    2    1    2    0    0  0.00000000000E+00  0.17763568394E-14  0.00000000000E+00  0.91188000000E+02  0.91188000000E+02 0.  0.
    9900012    2    3    3    0    0  0.41240423212E+02  0.11879955777E+02 -0.13682386980E+02  0.46142316861E+02  0.99999917953E+01 0.  0.
         12    1    3    3    0    0 -0.41240423212E+02 -0.11879955777E+02  0.13682386980E+02  0.45045683139E+02  0.00000000000E+00 0. -1.
         11    1    4    4    0    0  0.59718275610E+01  0.45453351454E+01 -0.39906320040E+01  0.84998788259E+01  0.51100000000E-03 0. -1.
        -11    1    4    4    0    0  0.32320428170E+02  0.76134333729E+01 -0.99662063681E+01  0.34668425324E+02  0.51100000000E-03 0.  1.
        -12    1    4    4    0    0  0.29481674807E+01 -0.27881274155E+00  0.27445139238E+00  0.29740127111E+01  0.00000000000E+00 0.  1.
</event>
<event>
 8    1  0.8828843E-009  0.9118800E+02  0.7816164E-02  0.1184000E+00
        -11   -1    0    0    0    0  0.00000000000E+00  0.00000000000E+00  0.45593999997E+02  0.45594000000E+02  0.51100000000E-03 0.  1.
         11   -1    0    0    0    0 -0.00000000000E+00 -0.00000000000E+00 -0.45593999997E+02  0.45594000000E+02  0.51100000000E-03 0. -1.
         23    2    1    2    0    0  0.00000000000E+00  0.00000000000E+00  0.00000000000E+00  0.91188000000E+02  0.91188000000E+02 0.  0.
    9900012    2    3    3    0    0  0.19016549555E+02  0.37547704125E+02  0.16051613579E+02  0.46142317182E+02  0.99999947236E+01 0.  0.
         12    1    3    3    0    0 -0.19016549555E+02 -0.37547704125E+02 -0.16051613579E+02  0.45045682818E+02  0.00000000000E+00 0. -1.
         11    1    4    4    0    0  0.16533123072E+01  0.24257840250E+01  0.10220268124E+01  0.31084415368E+01  0.51100000000E-03 0. -1.
        -11    1    4    4    0    0  0.17828416581E+02  0.35425928914E+02  0.14396101065E+02  0.42191191063E+02  0.51100000000E-03 0.  1.
         12    1    4    4    0    0 -0.46517933295E+00 -0.30400881459E+00  0.63348570161E+00  0.84268458233E+00  0.00000000000E+00 0. -1.
</event>
<event>
 8    1  0.8828843E-009  0.9118800E+02  0.7816164E-02  0.1184000E+00
        -11   -1    0    0    0    0  0.00000000000E+00  0.00000000000E+00  0.45593999997E+02  0.45594000000E+02  0.51100000000E-03 0. -1.
         11   -1    0    0    0    0 -0.00000000000E+00 -0.00000000000E+00 -0.45593999997E+02  0.45594000000E+02  0.51100000000E-03 0.  1.
         23    2    1    2    0    0  0.35527136788E-14 -0.17763568394E-14  0.00000000000E+00  0.91188000000E+02  0.91188000000E+02 0.  0.
    9900012    2    3    3    0    0 -0.27808922513E+02  0.14101433632E+02 -0.32510410946E+02  0.46142318502E+02  0.10000006752E+02 0.  0.
         12    1    3    3    0    0  0.27808922513E+02 -0.14101433632E+02  0.32510410946E+02  0.45045681498E+02  0.00000000000E+00 0. -1.
         11    1    4    4    0    0 -0.12842388716E+01  0.18588457670E+01 -0.65433315084E+01  0.69224103140E+01  0.51100000000E-03 0. -1.
        -11    1    4    4    0    0 -0.75761631304E+01  0.41342086751E+01 -0.95325639151E+01  0.12859226423E+02  0.51100000000E-03 0.  1.
         12    1    4    4    0    0 -0.18948520510E+02  0.81083791895E+01 -0.16434515523E+02  0.26360681764E+02  0.00000000000E+00 0. -1.
</event>
<event>
 8    1  0.8828843E-009  0.9118800E+02  0.7816164E-02  0.1184000E+00
        -11   -1    0    0    0    0  0.00000000000E+00  0.00000000000E+00  0.45593999997E+02  0.45594000000E+02  0.51100000000E-03 0. -1.
         11   -1    0    0    0    0 -0.00000000000E+00 -0.00000000000E+00 -0.45593999997E+02  0.45594000000E+02  0.51100000000E-03 0.  1.
         23    2    1    2    0    0  0.17763568394E-14 -0.35527136788E-14 -0.71054273576E-14  0.91188000000E+02  0.91188000000E+02 0.  0.
    9900012    2    3    3    0    0 -0.12080609337E+02  0.17418125651E+02  0.39746462014E+02  0.46142318012E+02  0.10000002286E+02 0.  0.
        -12    1    3    3    0    0  0.12080609337E+02 -0.17418125651E+02 -0.39746462014E+02  0.45045681988E+02  0.00000000000E+00 0.  1.
         11    1    4    4    0    0 -0.78232711220E+00  0.24559813905E+01  0.75758169462E+01  0.80023048533E+01  0.51100000000E-03 0.  1.
        -11    1    4    4    0    0 -0.46777359527E+01  0.68202699243E+00  0.81471863023E+01  0.94192897486E+01  0.51100000000E-03 0. -1.
         12    1    4    4    0    0 -0.66205462717E+01  0.14280117268E+02  0.24023458766E+02  0.28720723410E+02  0.00000000000E+00 0. -1.
</event>
<event>
 8    1  0.8828843E-009  0.9118800E+02  0.7816164E-02  0.1184000E+00
        -11   -1    0    0    0    0  0.00000000000E+00  0.00000000000E+00  0.45593999997E+02  0.45594000000E+02  0.51100000000E-03 0. -1.
         11   -1    0    0    0    0 -0.00000000000E+00 -0.00000000000E+00 -0.45593999997E+02  0.45594000000E+02  0.51100000000E-03 0.  1.
         23    2    1    2    0    0  0.00000000000E+00  0.00000000000E+00  0.00000000000E+00  0.91188000000E+02  0.91188000000E+02 0.  0.
    9900012    2    3    3    0    0  0.22757352661E+02 -0.33767859432E+02 -0.19260012599E+02  0.46142317454E+02  0.99999971993E+01 0.  0.
         12    1    3    3    0    0 -0.22757352661E+02  0.33767859432E+02  0.19260012599E+02  0.45045682546E+02  0.00000000000E+00 0. -1.
         11    1    4    4    0    0  0.13597812282E+02 -0.21803540846E+02 -0.10323438310E+02  0.27692386519E+02  0.51100000000E-03 0. -1.
        -11    1    4    4    0    0  0.63017640583E+01 -0.10293007591E+02 -0.44261455322E+01  0.12854921239E+02  0.51100000000E-03 0.  1.
         12    1    4    4    0    0  0.28577763202E+01 -0.16713109941E+01 -0.45104287565E+01  0.55950096964E+01  0.00000000000E+00 0. -1.
</event>
<event>
 8    1  0.8828843E-009  0.9118800E+02  0.7816164E-02  0.1184000E+00
        -11   -1    0    0    0    0  0.00000000000E+00  0.00000000000E+00  0.45593999997E+02  0.45594000000E+02  0.51100000000E-03 0. -1.
         11   -1    0    0    0    0 -0.00000000000E+00 -0.00000000000E+00 -0.45593999997E+02  0.45594000000E+02  0.51100000000E-03 0.  1.
         23    2    1    2    0    0  0.00000000000E+00  0.88817841970E-15  0.00000000000E+00  0.91188000000E+02  0.91188000000E+02 0.  0.
    9900012    2    3    3    0    0  0.18807175887E+02  0.49742309091E+01 -0.40628323060E+02  0.46142317936E+02  0.10000001592E+02 0.  0.
         12    1    3    3    0    0 -0.18807175887E+02 -0.49742309091E+01  0.40628323060E+02  0.45045682064E+02  0.00000000000E+00 0. -1.
         11    1    4    4    0    0  0.11659730571E+02  0.27368221782E+01 -0.28113770158E+02  0.30558527213E+02  0.51100000000E-03 0. -1.
        -11    1    4    4    0    0  0.45934503469E+01  0.19171164699E+01 -0.11954830527E+02  0.12949636861E+02  0.51100000000E-03 0.  1.
         12    1    4    4    0    0  0.25539949685E+01  0.32029226094E+00 -0.55972237485E+00  0.26341538620E+01  0.00000000000E+00 0. -1.
</event>
<event>
 8    1  0.8828843E-009  0.9118800E+02  0.7816164E-02  0.1184000E+00
        -11   -1    0    0    0    0  0.00000000000E+00  0.00000000000E+00  0.45593999997E+02  0.45594000000E+02  0.51100000000E-03 0. -1.
         11   -1    0    0    0    0 -0.00000000000E+00 -0.00000000000E+00 -0.45593999997E+02  0.45594000000E+02  0.51100000000E-03 0.  1.
         23    2    1    2    0    0  0.44408920985E-15  0.00000000000E+00  0.00000000000E+00  0.91188000000E+02  0.91188000000E+02 0.  0.
    9900012    2    3    3    0    0 -0.16274357113E+01 -0.32609426623E+02  0.31033695811E+02  0.46142317328E+02  0.99999960513E+01 0.  0.
        -12    1    3    3    0    0  0.16274357113E+01  0.32609426623E+02 -0.31033695811E+02  0.45045682672E+02  0.00000000000E+00 0.  1.
         11    1    4    4    0    0 -0.14309147257E+01 -0.73255488093E+01  0.80322499089E+01  0.10964863026E+02  0.51100000000E-03 0. -1.
        -11    1    4    4    0    0  0.39539751479E+01 -0.14100841078E+02  0.11685188223E+02  0.18735294571E+02  0.51100000000E-03 0.  1.
        -12    1    4    4    0    0 -0.41504961336E+01 -0.11183036736E+02  0.11316257679E+02  0.16442159732E+02  0.00000000000E+00 0.  1.
</event>
<event>
 8    1  0.8828843E-009  0.9118800E+02  0.7816164E-02  0.1184000E+00
        -11   -1    0    0    0    0  0.00000000000E+00  0.00000000000E+00  0.45593999997E+02  0.45594000000E+02  0.51100000000E-03 0. -1.
         11   -1    0    0    0    0 -0.00000000000E+00 -0.00000000000E+00 -0.45593999997E+02  0.45594000000E+02  0.51100000000E-03 0.  1.
         23    2    1    2    0    0  0.71054273576E-14 -0.17763568394E-14  0.71054273576E-14  0.91188000000E+02  0.91188000000E+02 0.  0.
    9900012    2    3    3    0    0  0.33697116752E+02 -0.85105159017E+01  0.28656392990E+02  0.46142318548E+02  0.10000007173E+02 0.  0.
        -12    1    3    3    0    0 -0.33697116752E+02  0.85105159017E+01 -0.28656392990E+02  0.45045681452E+02  0.00000000000E+00 0.  1.
         11    1    4    4    0    0  0.13468200511E+01 -0.66255798299E+00  0.10916926422E+01  0.18559904141E+01  0.51100000000E-03 0. -1.
        -11    1    4    4    0    0  0.20753719333E+02 -0.45783359315E+01  0.11375463804E+02  0.24105584479E+02  0.51100000000E-03 0.  1.
         12    1    4    4    0    0  0.11596577368E+02 -0.32696219872E+01  0.16189236543E+02  0.20180743654E+02  0.00000000000E+00 0. -1.
</event>
<event>
 8    1  0.8828843E-009  0.9118800E+02  0.7816164E-02  0.1184000E+00
        -11   -1    0    0    0    0  0.00000000000E+00  0.00000000000E+00  0.45593999997E+02  0.45594000000E+02  0.51100000000E-03 0. -1.
         11   -1    0    0    0    0 -0.00000000000E+00 -0.00000000000E+00 -0.45593999997E+02  0.45594000000E+02  0.51100000000E-03 0.  1.
         23    2    1    2    0    0  0.00000000000E+00  0.00000000000E+00  0.00000000000E+00  0.91188000000E+02  0.91188000000E+02 0.  0.
    9900012    2    3    3    0    0 -0.38108924728E+02  0.18569363620E+02  0.15231614597E+02  0.46142317716E+02  0.99999995894E+01 0.  0.
        -12    1    3    3    0    0  0.38108924728E+02 -0.18569363620E+02 -0.15231614597E+02  0.45045682284E+02  0.00000000000E+00 0.  1.
         11    1    4    4    0    0 -0.21930771786E+02  0.11317269587E+02  0.50646069951E+01  0.25193046388E+02  0.51100000000E-03 0. -1.
        -11    1    4    4    0    0 -0.65291132907E+01  0.51687225066E+01  0.58406125174E+01  0.10171419151E+02  0.51100000000E-03 0.  1.
        -12    1    4    4    0    0 -0.96490396516E+01  0.20833715261E+01  0.43263950847E+01  0.10777852177E+02  0.00000000000E+00 0.  1.
</event>
<event>
 8    1  0.8828843E-009  0.9118800E+02  0.7816164E-02  0.1184000E+00
        -11   -1    0    0    0    0  0.00000000000E+00  0.00000000000E+00  0.45593999997E+02  0.45594000000E+02  0.51100000000E-03 0. -1.
         11   -1    0    0    0    0 -0.00000000000E+00 -0.00000000000E+00 -0.45593999997E+02  0.45594000000E+02  0.51100000000E-03 0.  1.
         23    2    1    2    0    0  0.00000000000E+00  0.00000000000E+00  0.00000000000E+00  0.91188000000E+02  0.91188000000E+02 0.  0.
    9900012    2    3    3    0    0  0.11860844164E+02  0.33472364230E+02 -0.27713440907E+02  0.46142316541E+02  0.99999888707E+01 0.  0.
         12    1    3    3    0    0 -0.11860844164E+02 -0.33472364230E+02  0.27713440907E+02  0.45045683459E+02  0.00000000000E+00 0. -1.
         11    1    4    4    0    0  0.20995812423E+01  0.16187237073E+02 -0.12874571411E+02  0.20789167245E+02  0.51100000000E-03 0.  1.
        -11    1    4    4    0    0  0.49006214829E+01  0.42520323418E+01 -0.62284007794E+01  0.89938226848E+01  0.51100000000E-03 0. -1.
         12    1    4    4    0    0  0.48606414388E+01  0.13033094815E+02 -0.86104687169E+01  0.16359326611E+02  0.00000000000E+00 0. -1.
</event>
<event>
 8    1  0.8828843E-009  0.9118800E+02  0.7816164E-02  0.1184000E+00
        -11   -1    0    0    0    0  0.00000000000E+00  0.00000000000E+00  0.45593999997E+02  0.45594000000E+02  0.51100000000E-03 0. -1.
         11   -1    0    0    0    0 -0.00000000000E+00 -0.00000000000E+00 -0.45593999997E+02  0.45594000000E+02  0.51100000000E-03 0.  1.
         23    2    1    2    0    0  0.00000000000E+00  0.13322676296E-14  0.00000000000E+00  0.91188000000E+02  0.91188000000E+02 0.  0.
    9900012    2    3    3    0    0 -0.98641943974E+01  0.34731011438E+01 -0.43814937497E+02  0.46142317515E+02  0.99999977537E+01 0.  0.
         12    1    3    3    0    0  0.98641943974E+01 -0.34731011438E+01  0.43814937497E+02  0.45045682485E+02  0.00000000000E+00 0. -1.
         11    1    4    4    0    0 -0.19888411741E+01 -0.18265304347E+01 -0.15120939167E+02  0.15360159641E+02  0.51100000000E-03 0. -1.
        -11    1    4    4    0    0 -0.48721541632E+01  0.18508211733E-01 -0.15688365406E+02  0.16427508580E+02  0.51100000000E-03 0.  1.
         12    1    4    4    0    0 -0.30031990600E+01  0.52811233667E+01 -0.13005632924E+02  0.14354649294E+02  0.00000000000E+00 0. -1.
</event>
<event>
 8    1  0.8828843E-009  0.9118800E+02  0.7816164E-02  0.1184000E+00
        -11   -1    0    0    0    0  0.00000000000E+00  0.00000000000E+00  0.45593999997E+02  0.45594000000E+02  0.51100000000E-03 0. -1.
         11   -1    0    0    0    0 -0.00000000000E+00 -0.00000000000E+00 -0.45593999997E+02  0.45594000000E+02  0.51100000000E-03 0.  1.
         23    2    1    2    0    0  0.00000000000E+00  0.00000000000E+00  0.00000000000E+00  0.91188000000E+02  0.91188000000E+02 0.  0.
    9900012    2    3    3    0    0 -0.21977575013E+02 -0.16313468959E+02 -0.35776675230E+02  0.46142316928E+02  0.99999924011E+01 0.  0.
         12    1    3    3    0    0  0.21977575013E+02  0.16313468959E+02  0.35776675230E+02  0.45045683072E+02  0.00000000000E+00 0. -1.
         11    1    4    4    0    0 -0.17263964594E+01  0.10444973895E+01 -0.11936373847E+01  0.23443954443E+01  0.51100000000E-03 0. -1.
        -11    1    4    4    0    0 -0.55824104583E+01 -0.67745438601E+01 -0.11825860426E+02  0.14727821499E+02  0.51100000000E-03 0.  1.
        -12    1    4    4    0    0 -0.14668768095E+02 -0.10583422489E+02 -0.22757177419E+02  0.29070099984E+02  0.00000000000E+00 0.  1.
</event>
<event>
 8    1  0.8828843E-009  0.9118800E+02  0.7816164E-02  0.1184000E+00
        -11   -1    0    0    0    0  0.00000000000E+00  0.00000000000E+00  0.45593999997E+02  0.45594000000E+02  0.51100000000E-03 0. -1.
         11   -1    0    0    0    0 -0.00000000000E+00 -0.00000000000E+00 -0.45593999997E+02  0.45594000000E+02  0.51100000000E-03 0.  1.
         23    2    1    2    0    0  0.35527136788E-14  0.00000000000E+00  0.00000000000E+00  0.91188000000E+02  0.91188000000E+02 0.  0.
    9900012    2    3    3    0    0 -0.28355654750E+02  0.26168739410E+01 -0.34903043320E+02  0.46142316316E+02  0.99999868263E+01 0.  0.
         12    1    3    3    0    0  0.28355654750E+02 -0.26168739410E+01  0.34903043320E+02  0.45045683684E+02  0.00000000000E+00 0. -1.
         11    1    4    4    0    0 -0.37815778923E+01  0.19337422929E+00 -0.14435416944E+01  0.40523496681E+01  0.51100000000E-03 0. -1.
        -11    1    4    4    0    0 -0.17007856339E+02 -0.13599993017E+01 -0.21725802043E+02  0.27624757918E+02  0.51100000000E-03 0.  1.
         12    1    4    4    0    0 -0.75662205188E+01  0.37834990133E+01 -0.11733699582E+02  0.14465208730E+02  0.00000000000E+00 0. -1.
</event>
<event>
 8    1  0.8828843E-009  0.9118800E+02  0.7816164E-02  0.1184000E+00
        -11   -1    0    0    0    0  0.00000000000E+00  0.00000000000E+00  0.45593999997E+02  0.45594000000E+02  0.51100000000E-03 0. -1.
         11   -1    0    0    0    0 -0.00000000000E+00 -0.00000000000E+00 -0.45593999997E+02  0.45594000000E+02  0.51100000000E-03 0.  1.
         23    2    1    2    0    0  0.00000000000E+00 -0.35527136788E-14  0.00000000000E+00  0.91188000000E+02  0.91188000000E+02 0.  0.
    9900012    2    3    3    0    0  0.35858719681E+02 -0.25336138992E+02 -0.10067064084E+02  0.46142317682E+02  0.99999992806E+01 0.  0.
         12    1    3    3    0    0 -0.35858719681E+02  0.25336138992E+02  0.10067064084E+02  0.45045682318E+02  0.00000000000E+00 0. -1.
         11    1    4    4    0    0  0.18661813354E+02 -0.12580186568E+02 -0.68925617245E+01  0.23537879665E+02  0.51100000000E-03 0. -1.
        -11    1    4    4    0    0  0.17606670755E+02 -0.11427212909E+02 -0.29858831310E+01  0.21201215726E+02  0.51100000000E-03 0.  1.
         12    1    4    4    0    0 -0.40976442717E+00 -0.13287395154E+01 -0.18861922831E+00  0.14032222913E+01  0.00000000000E+00 0. -1.
</event>
<event>
 8    1  0.8828843E-009  0.9118800E+02  0.7816164E-02  0.1184000E+00
        -11   -1    0    0    0    0  0.00000000000E+00  0.00000000000E+00  0.45593999997E+02  0.45594000000E+02  0.51100000000E-03 0. -1.
         11   -1    0    0    0    0 -0.00000000000E+00 -0.00000000000E+00 -0.45593999997E+02  0.45594000000E+02  0.51100000000E-03 0.  1.
         23    2    1    2    0    0  0.00000000000E+00  0.00000000000E+00  0.00000000000E+00  0.91188000000E+02  0.91188000000E+02 0.  0.
    9900012    2    3    3    0    0 -0.45983459341E+01 -0.16036295497E+02  0.41842632587E+02  0.46142318072E+02  0.10000002834E+02 0.  0.
        -12    1    3    3    0    0  0.45983459341E+01  0.16036295497E+02 -0.41842632587E+02  0.45045681928E+02  0.00000000000E+00 0.  1.
         11    1    4    4    0    0 -0.18851062422E+01 -0.15337761382E+02  0.38741280324E+02  0.41709559470E+02  0.51100000000E-03 0. -1.
        -11    1    4    4    0    0 -0.11268033625E+01 -0.10436022951E+01  0.13524222140E+01  0.20464206982E+01  0.51100000000E-03 0.  1.
         12    1    4    4    0    0 -0.15864363294E+01  0.34506818063E+00  0.17489300489E+01  0.23863379041E+01  0.00000000000E+00 0. -1.
</event>
<event>
 8    1  0.8828843E-009  0.9118800E+02  0.7816164E-02  0.1184000E+00
        -11   -1    0    0    0    0  0.00000000000E+00  0.00000000000E+00  0.45593999997E+02  0.45594000000E+02  0.51100000000E-03 0. -1.
         11   -1    0    0    0    0 -0.00000000000E+00 -0.00000000000E+00 -0.45593999997E+02  0.45594000000E+02  0.51100000000E-03 0.  1.
         23    2    1    2    0    0  0.00000000000E+00  0.00000000000E+00  0.00000000000E+00  0.91188000000E+02  0.91188000000E+02 0.  0.
    9900012    2    3    3    0    0  0.10892738417E+02 -0.13063264855E+02  0.41711063718E+02  0.46142317905E+02  0.10000001316E+02 0.  0.
        -12    1    3    3    0    0 -0.10892738417E+02  0.13063264855E+02 -0.41711063718E+02  0.45045682095E+02  0.00000000000E+00 0.  1.
         11    1    4    4    0    0  0.23916349536E+01 -0.14099031644E+01  0.59958332168E+01  0.66074019788E+01  0.51100000000E-03 0. -1.
        -11    1    4    4    0    0 -0.18212350234E+01 -0.14594172198E+01  0.35378179448E+01  0.42382722545E+01  0.51100000000E-03 0.  1.
        -12    1    4    4    0    0  0.10322338486E+02 -0.10193944471E+02  0.32177412556E+02  0.35296643672E+02  0.00000000000E+00 0.  1.
</event>
<event>
 8    1  0.8828843E-009  0.9118800E+02  0.7816164E-02  0.1184000E+00
        -11   -1    0    0    0    0  0.00000000000E+00  0.00000000000E+00  0.45593999997E+02  0.45594000000E+02  0.51100000000E-03 0.  1.
         11   -1    0    0    0    0 -0.00000000000E+00 -0.00000000000E+00 -0.45593999997E+02  0.45594000000E+02  0.51100000000E-03 0. -1.
         23    2    1    2    0    0  0.00000000000E+00  0.00000000000E+00  0.35527136788E-14  0.91188000000E+02  0.91188000000E+02 0.  0.
    9900012    2    3    3    0    0 -0.33896249419E+02 -0.15194715328E+02  0.25480940060E+02  0.46142318687E+02  0.10000008445E+02 0.  0.
        -12    1    3    3    0    0  0.33896249419E+02  0.15194715328E+02 -0.25480940060E+02  0.45045681313E+02  0.00000000000E+00 0.  1.
         11    1    4    4    0    0 -0.17517123837E+02 -0.89493870612E+01  0.14109347734E+02  0.24207743597E+02  0.51100000000E-03 0. -1.
        -11    1    4    4    0    0 -0.93787436456E+01 -0.44211404578E+01  0.10311648538E+02  0.14623180610E+02  0.51100000000E-03 0.  1.
         12    1    4    4    0    0 -0.70003819363E+01 -0.18241878086E+01  0.10599437882E+01  0.73113944805E+01  0.00000000000E+00 0. -1.
</event>
<event>
 8    1  0.8828843E-009  0.9118800E+02  0.7816164E-02  0.1184000E+00
        -11   -1    0    0    0    0  0.00000000000E+00  0.00000000000E+00  0.45593999997E+02  0.45594000000E+02  0.51100000000E-03 0. -1.
         11   -1    0    0    0    0 -0.00000000000E+00 -0.00000000000E+00 -0.45593999997E+02  0.45594000000E+02  0.51100000000E-03 0.  1.
         23    2    1    2    0    0  0.88817841970E-15 -0.35527136788E-14  0.71054273576E-14  0.91188000000E+02  0.91188000000E+02 0.  0.
    9900012    2    3    3    0    0  0.77417275658E+01 -0.25778910270E+02  0.36119616927E+02  0.46142319993E+02  0.10000020348E+02 0.  0.
        -12    1    3    3    0    0 -0.77417275658E+01  0.25778910270E+02 -0.36119616927E+02  0.45045680007E+02  0.00000000000E+00 0.  1.
         11    1    4    4    0    0  0.91712702853E+00 -0.58986085454E+01  0.48305980340E+01  0.76791524523E+01  0.51100000000E-03 0. -1.
        -11    1    4    4    0    0  0.78010907958E+01 -0.15028779782E+02  0.20468425455E+02  0.26564594486E+02  0.51100000000E-03 0.  1.
        -12    1    4    4    0    0 -0.97649025851E+00 -0.48515219426E+01  0.10820593438E+02  0.11898573054E+02  0.00000000000E+00 0.  1.
</event>
<event>
 8    1  0.8828843E-009  0.9118800E+02  0.7816164E-02  0.1184000E+00
        -11   -1    0    0    0    0  0.00000000000E+00  0.00000000000E+00  0.45593999997E+02  0.45594000000E+02  0.51100000000E-03 0. -1.
         11   -1    0    0    0    0 -0.00000000000E+00 -0.00000000000E+00 -0.45593999997E+02  0.45594000000E+02  0.51100000000E-03 0.  1.
         23    2    1    2    0    0  0.00000000000E+00  0.00000000000E+00  0.00000000000E+00  0.91188000000E+02  0.91188000000E+02 0.  0.
    9900012    2    3    3    0    0 -0.11573667554E+02  0.31331055627E+02 -0.30224636817E+02  0.46142317653E+02  0.99999990182E+01 0.  0.
         12    1    3    3    0    0  0.11573667554E+02 -0.31331055627E+02  0.30224636817E+02  0.45045682347E+02  0.00000000000E+00 0. -1.
         11    1    4    4    0    0 -0.11365294663E+02  0.27874667489E+02 -0.26942307674E+02  0.40398699898E+02  0.51100000000E-03 0. -1.
        -11    1    4    4    0    0  0.51945332503E+00  0.38312162067E+01 -0.24558802127E+01  0.45803272000E+01  0.51100000000E-03 0.  1.
         12    1    4    4    0    0 -0.72782621617E+00 -0.37482806858E+00 -0.82644893027E+00  0.11632905554E+01  0.00000000000E+00 0. -1.
</event>
<event>
 8    1  0.8828843E-009  0.9118800E+02  0.7816164E-02  0.1184000E+00
        -11   -1    0    0    0    0  0.00000000000E+00  0.00000000000E+00  0.45593999997E+02  0.45594000000E+02  0.51100000000E-03 0. -1.
         11   -1    0    0    0    0 -0.00000000000E+00 -0.00000000000E+00 -0.45593999997E+02  0.45594000000E+02  0.51100000000E-03 0.  1.
         23    2    1    2    0    0  0.00000000000E+00  0.00000000000E+00  0.35527136788E-14  0.91188000000E+02  0.91188000000E+02 0.  0.
    9900012    2    3    3    0    0 -0.35804866157E+02 -0.17186699649E+02 -0.21254232428E+02  0.46142317838E+02  0.10000000699E+02 0.  0.
         12    1    3    3    0    0  0.35804866157E+02  0.17186699649E+02  0.21254232428E+02  0.45045682162E+02  0.00000000000E+00 0. -1.
         11    1    4    4    0    0  0.11555817606E+00  0.12011251606E+00 -0.30319167127E+00  0.34598577892E+00  0.51100000000E-03 0. -1.
        -11    1    4    4    0    0 -0.28631204280E+01 -0.98472062656E+00  0.60798005328E+00  0.30881666574E+01  0.51100000000E-03 0.  1.
        -12    1    4    4    0    0 -0.33057303905E+02 -0.16322091539E+02 -0.21559020810E+02  0.42708165401E+02  0.00000000000E+00 0.  1.
</event>
<event>
 8    1  0.8828843E-009  0.9118800E+02  0.7816164E-02  0.1184000E+00
        -11   -1    0    0    0    0  0.00000000000E+00  0.00000000000E+00  0.45593999997E+02  0.45594000000E+02  0.51100000000E-03 0. -1.
         11   -1    0    0    0    0 -0.00000000000E+00 -0.00000000000E+00 -0.45593999997E+02  0.45594000000E+02  0.51100000000E-03 0.  1.
         23    2    1    2    0    0  0.00000000000E+00  0.00000000000E+00  0.71054273576E-14  0.91188000000E+02  0.91188000000E+02 0.  0.
    9900012    2    3    3    0    0  0.23195470720E+02  0.75226840892E+01  0.37874690738E+02  0.46142324999E+02  0.10000065996E+02 0.  0.
        -12    1    3    3    0    0 -0.23195470720E+02 -0.75226840892E+01 -0.37874690738E+02  0.45045675001E+02  0.00000000000E+00 0.  1.
         11    1    4    4    0    0  0.81204656754E+01  0.90499666628E+00  0.84556397808E+01  0.11758351335E+02  0.51100000000E-03 0. -1.
        -11    1    4    4    0    0  0.34240934673E+01  0.15898482171E+01  0.22428828640E+01  0.43911908668E+01  0.51100000000E-03 0.  1.
         12    1    4    4    0    0  0.11650911578E+02  0.50278392058E+01  0.27176168093E+02  0.29992782797E+02  0.00000000000E+00 0. -1.
</event>
<event>
 8    1  0.8828843E-009  0.9118800E+02  0.7816164E-02  0.1184000E+00
        -11   -1    0    0    0    0  0.00000000000E+00  0.00000000000E+00  0.45593999997E+02  0.45594000000E+02  0.51100000000E-03 0. -1.
         11   -1    0    0    0    0 -0.00000000000E+00 -0.00000000000E+00 -0.45593999997E+02  0.45594000000E+02  0.51100000000E-03 0.  1.
         23    2    1    2    0    0 -0.71054273576E-14  0.00000000000E+00  0.00000000000E+00  0.91188000000E+02  0.91188000000E+02 0.  0.
    9900012    2    3    3    0    0 -0.40210638202E+02  0.57875723512E+01 -0.19460779397E+02  0.46142319263E+02  0.10000013695E+02 0.  0.
         12    1    3    3    0    0  0.40210638202E+02 -0.57875723512E+01  0.19460779397E+02  0.45045680737E+02  0.00000000000E+00 0. -1.
         11    1    4    4    0    0 -0.41265169510E+01  0.66982828941E+00  0.87268542400E+00  0.42706430657E+01  0.51100000000E-03 0. -1.
        -11    1    4    4    0    0 -0.80412654163E+01  0.21165806600E+01 -0.34587875065E+01  0.90058355782E+01  0.51100000000E-03 0.  1.
        -12    1    4    4    0    0 -0.28042855835E+02  0.30011634019E+01 -0.16874677314E+02  0.32865840619E+02  0.00000000000E+00 0.  1.
</event>
<event>
 8    1  0.8828843E-009  0.9118800E+02  0.7816164E-02  0.1184000E+00
        -11   -1    0    0    0    0  0.00000000000E+00  0.00000000000E+00  0.45593999997E+02  0.45594000000E+02  0.51100000000E-03 0. -1.
         11   -1    0    0    0    0 -0.00000000000E+00 -0.00000000000E+00 -0.45593999997E+02  0.45594000000E+02  0.51100000000E-03 0.  1.
         23    2    1    2    0    0  0.00000000000E+00 -0.71054273576E-14  0.14210854715E-13  0.91188000000E+02  0.91188000000E+02 0.  0.
    9900012    2    3    3    0    0 -0.40405013497E+01  0.21258486848E+02 -0.39507776681E+02  0.46142319491E+02  0.10000015772E+02 0.  0.
         12    1    3    3    0    0  0.40405013497E+01 -0.21258486848E+02  0.39507776681E+02  0.45045680509E+02  0.00000000000E+00 0. -1.
         11    1    4    4    0    0 -0.19321030011E+01  0.22160597462E+01 -0.26776480134E+01  0.39766495886E+01  0.51100000000E-03 0. -1.
        -11    1    4    4    0    0 -0.43790191232E+01  0.68646904041E+01 -0.14640031642E+02  0.16752024044E+02  0.51100000000E-03 0.  1.
        -12    1    4    4    0    0  0.22706207746E+01  0.12177736698E+02 -0.22190097026E+02  0.25413645859E+02  0.00000000000E+00 0.  1.
</event>
<event>
 8    1  0.8828843E-009  0.9118800E+02  0.7816164E-02  0.1184000E+00
        -11   -1    0    0    0    0  0.00000000000E+00  0.00000000000E+00  0.45593999997E+02  0.45594000000E+02  0.51100000000E-03 0. -1.
         11   -1    0    0    0    0 -0.00000000000E+00 -0.00000000000E+00 -0.45593999997E+02  0.45594000000E+02  0.51100000000E-03 0.  1.
         23    2    1    2    0    0 -0.44408920985E-15  0.00000000000E+00  0.00000000000E+00  0.91188000000E+02  0.91188000000E+02 0.  0.
    9900012    2    3    3    0    0  0.83621458286E+00 -0.22721660711E+02 -0.38886249551E+02  0.46142317361E+02  0.99999963481E+01 0.  0.
         12    1    3    3    0    0 -0.83621458286E+00  0.22721660711E+02  0.38886249551E+02  0.45045682639E+02  0.00000000000E+00 0. -1.
         11    1    4    4    0    0  0.20760216528E+01 -0.43399214648E+01 -0.36674390742E+01  0.60493713597E+01  0.51100000000E-03 0. -1.
        -11    1    4    4    0    0 -0.29103801142E-01 -0.58637316885E+01 -0.65756556118E+01  0.88104167513E+01  0.51100000000E-03 0.  1.
        -12    1    4    4    0    0 -0.12107032688E+01 -0.12518007557E+02 -0.28643154865E+02  0.31282529250E+02  0.00000000000E+00 0.  1.
</event>
<event>
 8    1  0.8828843E-009  0.9118800E+02  0.7816164E-02  0.1184000E+00
        -11   -1    0    0    0    0  0.00000000000E+00  0.00000000000E+00  0.45593999997E+02  0.45594000000E+02  0.51100000000E-03 0. -1.
         11   -1    0    0    0    0 -0.00000000000E+00 -0.00000000000E+00 -0.45593999997E+02  0.45594000000E+02  0.51100000000E-03 0.  1.
         23    2    1    2    0    0  0.00000000000E+00  0.00000000000E+00  0.00000000000E+00  0.91188000000E+02  0.91188000000E+02 0.  0.
    9900012    2    3    3    0    0  0.33197626860E+02 -0.28737620292E+02  0.10058834978E+02  0.46142318627E+02  0.10000007899E+02 0.  0.
        -12    1    3    3    0    0 -0.33197626860E+02  0.28737620292E+02 -0.10058834978E+02  0.45045681373E+02  0.00000000000E+00 0.  1.
         11    1    4    4    0    0  0.17261410664E+02 -0.13025271991E+02  0.15074856211E+01  0.21676866049E+02  0.51100000000E-03 0. -1.
        -11    1    4    4    0    0  0.90628645176E+00 -0.25591302118E+00  0.15209373407E+01  0.17888815675E+01  0.51100000000E-03 0.  1.
        -12    1    4    4    0    0  0.15029929745E+02 -0.15456435280E+02  0.70304120158E+01  0.22676571011E+02  0.00000000000E+00 0.  1.
</event>
<event>
 8    1  0.8828843E-009  0.9118800E+02  0.7816164E-02  0.1184000E+00
        -11   -1    0    0    0    0  0.00000000000E+00  0.00000000000E+00  0.45593999997E+02  0.45594000000E+02  0.51100000000E-03 0. -1.
         11   -1    0    0    0    0 -0.00000000000E+00 -0.00000000000E+00 -0.45593999997E+02  0.45594000000E+02  0.51100000000E-03 0.  1.
         23    2    1    2    0    0  0.00000000000E+00  0.00000000000E+00  0.00000000000E+00  0.91188000000E+02  0.91188000000E+02 0.  0.
    9900012    2    3    3    0    0 -0.20867085594E+02  0.76050323609E+01  0.39189822759E+02  0.46142312234E+02  0.99999496028E+01 0.  0.
        -12    1    3    3    0    0  0.20867085594E+02 -0.76050323609E+01 -0.39189822759E+02  0.45045687766E+02  0.00000000000E+00 0.  1.
         11    1    4    4    0    0 -0.63068292325E+01  0.28076217935E+01  0.77954632868E+01  0.10412880640E+02  0.51100000000E-03 0. -1.
        -11    1    4    4    0    0 -0.82669183954E+01  0.94332285862E+00  0.23468631199E+02  0.24899968843E+02  0.51100000000E-03 0.  1.
        -12    1    4    4    0    0 -0.62933379663E+01  0.38540877088E+01  0.79257282730E+01  0.10829462751E+02  0.00000000000E+00 0.  1.
</event>
<event>
 8    1  0.8828843E-009  0.9118800E+02  0.7816164E-02  0.1184000E+00
        -11   -1    0    0    0    0  0.00000000000E+00  0.00000000000E+00  0.45593999997E+02  0.45594000000E+02  0.51100000000E-03 0. -1.
         11   -1    0    0    0    0 -0.00000000000E+00 -0.00000000000E+00 -0.45593999997E+02  0.45594000000E+02  0.51100000000E-03 0.  1.
         23    2    1    2    0    0 -0.71054273576E-14 -0.71054273576E-14 -0.35527136788E-14  0.91188000000E+02  0.91188000000E+02 0.  0.
    9900012    2    3    3    0    0  0.33831963378E+02  0.18202567575E+02  0.23519742032E+02  0.46142317880E+02  0.10000001088E+02 0.  0.
        -12    1    3    3    0    0 -0.33831963378E+02 -0.18202567575E+02 -0.23519742032E+02  0.45045682120E+02  0.00000000000E+00 0.  1.
         11    1    4    4    0    0  0.10570688844E+02  0.51538908448E+01  0.11282174228E+02  0.16296917164E+02  0.51100000000E-03 0. -1.
        -11    1    4    4    0    0  0.45925656554E+01  0.23396190445E+01  0.48867171325E+01  0.71024982342E+01  0.51100000000E-03 0.  1.
        -12    1    4    4    0    0  0.18668708879E+02  0.10709057685E+02  0.73508506719E+01  0.22742902483E+02  0.00000000000E+00 0.  1.
</event>
<event>
 8    1  0.8828843E-009  0.9118800E+02  0.7816164E-02  0.1184000E+00
        -11   -1    0    0    0    0  0.00000000000E+00  0.00000000000E+00  0.45593999997E+02  0.45594000000E+02  0.51100000000E-03 0. -1.
         11   -1    0    0    0    0 -0.00000000000E+00 -0.00000000000E+00 -0.45593999997E+02  0.45594000000E+02  0.51100000000E-03 0.  1.
         23    2    1    2    0    0  0.00000000000E+00  0.00000000000E+00  0.00000000000E+00  0.91188000000E+02  0.91188000000E+02 0.  0.
    9900012    2    3    3    0    0 -0.20283888860E+01  0.23054239149E+02 -0.38645842257E+02  0.46142318431E+02  0.10000006112E+02 0.  0.
         12    1    3    3    0    0  0.20283888860E+01 -0.23054239149E+02  0.38645842257E+02  0.45045681569E+02  0.00000000000E+00 0. -1.
         11    1    4    4    0    0 -0.14947190046E+01  0.68177898950E+01 -0.12135580030E+02  0.13999598097E+02  0.51100000000E-03 0. -1.
        -11    1    4    4    0    0 -0.21522071796E+01  0.15370874380E+02 -0.19645408991E+02  0.25036730410E+02  0.51100000000E-03 0.  1.
         12    1    4    4    0    0  0.16185372982E+01  0.86557487441E+00 -0.68648532360E+01  0.71059899240E+01  0.00000000000E+00 0. -1.
</event>
<event>
 8    1  0.8828843E-009  0.9118800E+02  0.7816164E-02  0.1184000E+00
        -11   -1    0    0    0    0  0.00000000000E+00  0.00000000000E+00  0.45593999997E+02  0.45594000000E+02  0.51100000000E-03 0. -1.
         11   -1    0    0    0    0 -0.00000000000E+00 -0.00000000000E+00 -0.45593999997E+02  0.45594000000E+02  0.51100000000E-03 0.  1.
         23    2    1    2    0    0 -0.71054273576E-14 -0.35527136788E-14 -0.17763568394E-14  0.91188000000E+02  0.91188000000E+02 0.  0.
    9900012    2    3    3    0    0 -0.33918561871E+02 -0.28469041875E+02 -0.82558006081E+01  0.46142318427E+02  0.10000006073E+02 0.  0.
         12    1    3    3    0    0  0.33918561871E+02  0.28469041875E+02  0.82558006081E+01  0.45045681573E+02  0.00000000000E+00 0. -1.
         11    1    4    4    0    0 -0.11698231958E+01 -0.14893945092E+01  0.86343737553E+00  0.20814193898E+01  0.51100000000E-03 0. -1.
        -11    1    4    4    0    0 -0.10573147805E+02 -0.13319825726E+02 -0.25109352745E+01  0.17190520879E+02  0.51100000000E-03 0.  1.
         12    1    4    4    0    0 -0.22175590870E+02 -0.13659821640E+02 -0.66083027091E+01  0.26870378158E+02  0.00000000000E+00 0. -1.
</event>
<event>
 8    1  0.8828843E-009  0.9118800E+02  0.7816164E-02  0.1184000E+00
        -11   -1    0    0    0    0  0.00000000000E+00  0.00000000000E+00  0.45593999997E+02  0.45594000000E+02  0.51100000000E-03 0. -1.
         11   -1    0    0    0    0 -0.00000000000E+00 -0.00000000000E+00 -0.45593999997E+02  0.45594000000E+02  0.51100000000E-03 0.  1.
         23    2    1    2    0    0 -0.35527136788E-14  0.00000000000E+00 -0.35527136788E-14  0.91188000000E+02  0.91188000000E+02 0.  0.
    9900012    2    3    3    0    0  0.25855881451E+02 -0.23095635397E+02  0.28760711399E+02  0.46142317630E+02  0.99999988006E+01 0.  0.
        -12    1    3    3    0    0 -0.25855881451E+02  0.23095635397E+02 -0.28760711399E+02  0.45045682370E+02  0.00000000000E+00 0.  1.
         11    1    4    4    0    0  0.21403324282E+01 -0.45924307954E+01  0.27921842720E+01  0.57851306626E+01  0.51100000000E-03 0. -1.
        -11    1    4    4    0    0  0.87514533588E+01 -0.92418316206E+01  0.14772451495E+02  0.19499351554E+02  0.51100000000E-03 0.  1.
         12    1    4    4    0    0  0.14964095664E+02 -0.92613729809E+01  0.11196075632E+02  0.20857835413E+02  0.00000000000E+00 0. -1.
</event>
<event>
 8    1  0.8828843E-009  0.9118800E+02  0.7816164E-02  0.1184000E+00
        -11   -1    0    0    0    0  0.00000000000E+00  0.00000000000E+00  0.45593999997E+02  0.45594000000E+02  0.51100000000E-03 0. -1.
         11   -1    0    0    0    0 -0.00000000000E+00 -0.00000000000E+00 -0.45593999997E+02  0.45594000000E+02  0.51100000000E-03 0.  1.
         23    2    1    2    0    0  0.00000000000E+00  0.00000000000E+00  0.00000000000E+00  0.91188000000E+02  0.91188000000E+02 0.  0.
    9900012    2    3    3    0    0 -0.19695686883E+02 -0.34154003709E+02 -0.21787551426E+02  0.46142318206E+02  0.10000004060E+02 0.  0.
         12    1    3    3    0    0  0.19695686883E+02  0.34154003709E+02  0.21787551426E+02  0.45045681794E+02  0.00000000000E+00 0. -1.
         11    1    4    4    0    0 -0.26649470617E+01 -0.13619269713E+02 -0.82375897206E+01  0.16138287859E+02  0.51100000000E-03 0. -1.
        -11    1    4    4    0    0 -0.10299271709E+02 -0.14030807411E+02 -0.90812640268E+01  0.19631808652E+02  0.51100000000E-03 0.  1.
         12    1    4    4    0    0 -0.67314681122E+01 -0.65039265841E+01 -0.44686976782E+01  0.10372221695E+02  0.00000000000E+00 0. -1.
</event>
<event>
 8    1  0.1734364E-008  0.9118800E+02  0.7816164E-02  0.1184000E+00
        -11   -1    0    0    0    0  0.00000000000E+00  0.00000000000E+00  0.45593999997E+02  0.45594000000E+02  0.51100000000E-03 0. -1.
         11   -1    0    0    0    0 -0.00000000000E+00 -0.00000000000E+00 -0.45593999997E+02  0.45594000000E+02  0.51100000000E-03 0.  1.
         23    2    1    2    0    0  0.22204460493E-15  0.17763568394E-14  0.00000000000E+00  0.91188000000E+02  0.91188000000E+02 0.  0.
    9900012    2    3    3    0    0  0.19433646577E+01 -0.12753325817E+02  0.43158885860E+02  0.46142318584E+02  0.10000007502E+02 0.  0.
        -12    1    3    3    0    0 -0.19433646577E+01  0.12753325817E+02 -0.43158885860E+02  0.45045681416E+02  0.00000000000E+00 0.  1.
         11    1    4    4    0    0  0.30970605809E+01 -0.92218490589E+01  0.33503613082E+02  0.34887338307E+02  0.51100000000E-03 0. -1.
        -11    1    4    4    0    0  0.17093534955E+01 -0.13833963276E+01  0.34422785324E+01  0.40847223318E+01  0.51100000000E-03 0.  1.
        -12    1    4    4    0    0 -0.28630494187E+01 -0.21480804309E+01  0.62129942450E+01  0.71702579451E+01  0.00000000000E+00 0.  1.
</event>
<event>
 8    1  0.8828843E-009  0.9118800E+02  0.7816164E-02  0.1184000E+00
        -11   -1    0    0    0    0  0.00000000000E+00  0.00000000000E+00  0.45593999997E+02  0.45594000000E+02  0.51100000000E-03 0. -1.
         11   -1    0    0    0    0 -0.00000000000E+00 -0.00000000000E+00 -0.45593999997E+02  0.45594000000E+02  0.51100000000E-03 0.  1.
         23    2    1    2    0    0 -0.71054273576E-14 -0.17763568394E-14  0.00000000000E+00  0.91188000000E+02  0.91188000000E+02 0.  0.
    9900012    2    3    3    0    0  0.40265530030E+02  0.83832196031E+01 -0.18371777185E+02  0.46142317894E+02  0.10000001209E+02 0.  0.
         12    1    3    3    0    0 -0.40265530030E+02 -0.83832196031E+01  0.18371777185E+02  0.45045682106E+02  0.00000000000E+00 0. -1.
         11    1    4    4    0    0  0.52945602071E+01  0.54799630115E+00 -0.55171867271E+01  0.76662909790E+01  0.51100000000E-03 0. -1.
        -11    1    4    4    0    0  0.14351472018E+02  0.48191989656E+01 -0.78117568097E+01  0.17035638305E+02  0.51100000000E-03 0.  1.
        -12    1    4    4    0    0  0.20619497805E+02  0.30160243363E+01 -0.50428336477E+01  0.21440388609E+02  0.00000000000E+00 0.  1.
</event>
<event>
 8    1  0.8828843E-009  0.9118800E+02  0.7816164E-02  0.1184000E+00
        -11   -1    0    0    0    0  0.00000000000E+00  0.00000000000E+00  0.45593999997E+02  0.45594000000E+02  0.51100000000E-03 0. -1.
         11   -1    0    0    0    0 -0.00000000000E+00 -0.00000000000E+00 -0.45593999997E+02  0.45594000000E+02  0.51100000000E-03 0.  1.
         23    2    1    2    0    0  0.00000000000E+00 -0.71054273576E-14 -0.71054273576E-14  0.91188000000E+02  0.91188000000E+02 0.  0.
    9900012    2    3    3    0    0  0.10600513631E+01  0.33125042692E+02  0.30507724302E+02  0.46142318694E+02  0.10000008507E+02 0.  0.
        -12    1    3    3    0    0 -0.10600513631E+01 -0.33125042692E+02 -0.30507724302E+02  0.45045681306E+02  0.00000000000E+00 0.  1.
         11    1    4    4    0    0 -0.93805685474E+00  0.17327235219E+02  0.19107547495E+02  0.25811071317E+02  0.51100000000E-03 0. -1.
        -11    1    4    4    0    0  0.25186115780E+01  0.38991203841E+01  0.49530251421E+01  0.67881516166E+01  0.51100000000E-03 0.  1.
        -12    1    4    4    0    0 -0.52050336013E+00  0.11898687089E+02  0.64471516650E+01  0.13543095761E+02  0.00000000000E+00 0.  1.
</event>
<event>
 8    1  0.8828843E-009  0.9118800E+02  0.7816164E-02  0.1184000E+00
        -11   -1    0    0    0    0  0.00000000000E+00  0.00000000000E+00  0.45593999997E+02  0.45594000000E+02  0.51100000000E-03 0. -1.
         11   -1    0    0    0    0 -0.00000000000E+00 -0.00000000000E+00 -0.45593999997E+02  0.45594000000E+02  0.51100000000E-03 0.  1.
         23    2    1    2    0    0  0.00000000000E+00  0.00000000000E+00  0.00000000000E+00  0.91188000000E+02  0.91188000000E+02 0.  0.
    9900012    2    3    3    0    0 -0.99124682674E+01  0.64593739003E+01  0.43464152379E+02  0.46142322290E+02  0.10000041294E+02 0.  0.
        -12    1    3    3    0    0  0.99124682674E+01 -0.64593739003E+01 -0.43464152379E+02  0.45045677710E+02  0.00000000000E+00 0.  1.
         11    1    4    4    0    0 -0.25160960476E+01  0.48680739525E+01  0.82736655135E+01  0.99238311462E+01  0.51100000000E-03 0. -1.
        -11    1    4    4    0    0 -0.26562478155E+00 -0.94277051716E+00  0.49043191790E+01  0.50011718270E+01  0.51100000000E-03 0.  1.
         12    1    4    4    0    0 -0.71307474382E+01  0.25340704650E+01  0.30286167687E+02  0.31217319316E+02  0.00000000000E+00 0. -1.
</event>
<event>
 8    1  0.8828843E-009  0.9118800E+02  0.7816164E-02  0.1184000E+00
        -11   -1    0    0    0    0  0.00000000000E+00  0.00000000000E+00  0.45593999997E+02  0.45594000000E+02  0.51100000000E-03 0. -1.
         11   -1    0    0    0    0 -0.00000000000E+00 -0.00000000000E+00 -0.45593999997E+02  0.45594000000E+02  0.51100000000E-03 0.  1.
         23    2    1    2    0    0  0.00000000000E+00  0.00000000000E+00  0.00000000000E+00  0.91188000000E+02  0.91188000000E+02 0.  0.
    9900012    2    3    3    0    0  0.95373351512E+01 -0.34925466830E+02 -0.26802323262E+02  0.46142317329E+02  0.99999960577E+01 0.  0.
         12    1    3    3    0    0 -0.95373351512E+01  0.34925466830E+02  0.26802323262E+02  0.45045682671E+02  0.00000000000E+00 0. -1.
         11    1    4    4    0    0  0.13676471948E+01 -0.64911881003E+01 -0.91142874021E+01  0.11272808741E+02  0.51100000000E-03 0. -1.
        -11    1    4    4    0    0  0.67841442502E+01 -0.19629230680E+02 -0.14790914098E+02  0.25497106707E+02  0.51100000000E-03 0.  1.
        -12    1    4    4    0    0  0.13855437061E+01 -0.88050480494E+01 -0.28971217620E+01  0.93724018809E+01  0.00000000000E+00 0.  1.
</event>
<event>
 8    1  0.8828843E-009  0.9118800E+02  0.7816164E-02  0.1184000E+00
        -11   -1    0    0    0    0  0.00000000000E+00  0.00000000000E+00  0.45593999997E+02  0.45594000000E+02  0.51100000000E-03 0.  1.
         11   -1    0    0    0    0 -0.00000000000E+00 -0.00000000000E+00 -0.45593999997E+02  0.45594000000E+02  0.51100000000E-03 0. -1.
         23    2    1    2    0    0 -0.71054273576E-14  0.00000000000E+00  0.71054273576E-14  0.91188000000E+02  0.91188000000E+02 0.  0.
    9900012    2    3    3    0    0  0.26390945201E+02 -0.16267326889E+02 -0.32680354912E+02  0.46142317522E+02  0.99999978237E+01 0.  0.
         12    1    3    3    0    0 -0.26390945201E+02  0.16267326889E+02  0.32680354912E+02  0.45045682478E+02  0.00000000000E+00 0. -1.
         11    1    4    4    0    0  0.54840339101E+01 -0.11325402434E+01 -0.73339914649E+01  0.92273889263E+01  0.51100000000E-03 0. -1.
        -11    1    4    4    0    0  0.14405507121E+01 -0.75321206841E+00  0.29838435365E+00  0.16527396219E+01  0.51100000000E-03 0.  1.
         12    1    4    4    0    0  0.19466360579E+02 -0.14381574577E+02 -0.25644747800E+02  0.35262188974E+02  0.00000000000E+00 0. -1.
</event>
<event>
 8    1  0.8828843E-009  0.9118800E+02  0.7816164E-02  0.1184000E+00
        -11   -1    0    0    0    0  0.00000000000E+00  0.00000000000E+00  0.45593999997E+02  0.45594000000E+02  0.51100000000E-03 0.  1.
         11   -1    0    0    0    0 -0.00000000000E+00 -0.00000000000E+00 -0.45593999997E+02  0.45594000000E+02  0.51100000000E-03 0. -1.
         23    2    1    2    0    0  0.00000000000E+00 -0.71054273576E-14  0.00000000000E+00  0.91188000000E+02  0.91188000000E+02 0.  0.
    9900012    2    3    3    0    0 -0.12516194308E+02 -0.42016809268E+02  0.10346311073E+02  0.46142317256E+02  0.99999953977E+01 0.  0.
         12    1    3    3    0    0  0.12516194308E+02  0.42016809268E+02 -0.10346311073E+02  0.45045682744E+02  0.00000000000E+00 0. -1.
         11    1    4    4    0    0  0.28729701850E+00 -0.42779176521E+01  0.31665623540E+01  0.53301253660E+01  0.51100000000E-03 0. -1.
        -11    1    4    4    0    0 -0.81211000598E+00 -0.70053689749E+01  0.11199129161E-01  0.70522934438E+01  0.51100000000E-03 0.  1.
        -12    1    4    4    0    0 -0.11991381320E+02 -0.30733522641E+02  0.71685495898E+01  0.33759898447E+02  0.00000000000E+00 0.  1.
</event>
<event>
 8    1  0.8828843E-009  0.9118800E+02  0.7816164E-02  0.1184000E+00
        -11   -1    0    0    0    0  0.00000000000E+00  0.00000000000E+00  0.45593999997E+02  0.45594000000E+02  0.51100000000E-03 0.  1.
         11   -1    0    0    0    0 -0.00000000000E+00 -0.00000000000E+00 -0.45593999997E+02  0.45594000000E+02  0.51100000000E-03 0. -1.
         23    2    1    2    0    0 -0.35527136788E-14  0.00000000000E+00  0.00000000000E+00  0.91188000000E+02  0.91188000000E+02 0.  0.
    9900012    2    3    3    0    0 -0.29457753204E+02  0.31947994008E+02 -0.11860862379E+02  0.46142316507E+02  0.99999885650E+01 0.  0.
        -12    1    3    3    0    0  0.29457753204E+02 -0.31947994008E+02  0.11860862379E+02  0.45045683493E+02  0.00000000000E+00 0.  1.
         11    1    4    4    0    0 -0.15429243490E+02  0.14639172161E+02 -0.36093219452E+01  0.21572995188E+02  0.51100000000E-03 0. -1.
        -11    1    4    4    0    0 -0.22878996141E+00  0.29544442589E+01  0.12821937572E+00  0.29660624057E+01  0.51100000000E-03 0.  1.
         12    1    4    4    0    0 -0.13799719753E+02  0.14354377588E+02 -0.83797598099E+01  0.21603258913E+02  0.00000000000E+00 0. -1.
</event>
<event>
 8    1  0.8828843E-009  0.9118800E+02  0.7816164E-02  0.1184000E+00
        -11   -1    0    0    0    0  0.00000000000E+00  0.00000000000E+00  0.45593999997E+02  0.45594000000E+02  0.51100000000E-03 0.  1.
         11   -1    0    0    0    0 -0.00000000000E+00 -0.00000000000E+00 -0.45593999997E+02  0.45594000000E+02  0.51100000000E-03 0. -1.
         23    2    1    2    0    0  0.00000000000E+00 -0.35527136788E-14  0.00000000000E+00  0.91188000000E+02  0.91188000000E+02 0.  0.
    9900012    2    3    3    0    0 -0.26330374939E+02 -0.28132951643E+02 -0.23331565931E+02  0.46142316728E+02  0.99999905838E+01 0.  0.
        -12    1    3    3    0    0  0.26330374939E+02  0.28132951643E+02  0.23331565931E+02  0.45045683272E+02  0.00000000000E+00 0.  1.
         11    1    4    4    0    0 -0.19022611232E+02 -0.23095897471E+02 -0.15327266822E+02  0.33618526538E+02  0.51100000000E-03 0. -1.
        -11    1    4    4    0    0 -0.25804929388E+01 -0.36132004708E+01 -0.23718517543E+01  0.50338695310E+01  0.51100000000E-03 0.  1.
        -12    1    4    4    0    0 -0.47272707687E+01 -0.14238537007E+01 -0.56324473546E+01  0.74899206594E+01  0.00000000000E+00 0.  1.
</event>
<event>
 8    1  0.8828843E-009  0.9118800E+02  0.7816164E-02  0.1184000E+00
        -11   -1    0    0    0    0  0.00000000000E+00  0.00000000000E+00  0.45593999997E+02  0.45594000000E+02  0.51100000000E-03 0. -1.
         11   -1    0    0    0    0 -0.00000000000E+00 -0.00000000000E+00 -0.45593999997E+02  0.45594000000E+02  0.51100000000E-03 0.  1.
         23    2    1    2    0    0  0.00000000000E+00 -0.71054273576E-14  0.35527136788E-14  0.91188000000E+02  0.91188000000E+02 0.  0.
    9900012    2    3    3    0    0  0.79599858693E+01 -0.35214243921E+02  0.26938987802E+02  0.46142318590E+02  0.10000007557E+02 0.  0.
        -12    1    3    3    0    0 -0.79599858693E+01  0.35214243921E+02 -0.26938987802E+02  0.45045681410E+02  0.00000000000E+00 0.  1.
         11    1    4    4    0    0  0.74218686567E+01 -0.28056418103E+02  0.17966575503E+02  0.34132749182E+02  0.51100000000E-03 0. -1.
        -11    1    4    4    0    0 -0.46644152222E+00 -0.53599128748E+01  0.42456007666E+01  0.68535654845E+01  0.51100000000E-03 0.  1.
        -12    1    4    4    0    0  0.10045587349E+01 -0.17979129423E+01  0.47268115319E+01  0.51560039234E+01  0.00000000000E+00 0.  1.
</event>
<event>
 8    1  0.8828843E-009  0.9118800E+02  0.7816164E-02  0.1184000E+00
        -11   -1    0    0    0    0  0.00000000000E+00  0.00000000000E+00  0.45593999997E+02  0.45594000000E+02  0.51100000000E-03 0. -1.
         11   -1    0    0    0    0 -0.00000000000E+00 -0.00000000000E+00 -0.45593999997E+02  0.45594000000E+02  0.51100000000E-03 0.  1.
         23    2    1    2    0    0  0.22204460493E-15  0.71054273576E-14 -0.35527136788E-14  0.91188000000E+02  0.91188000000E+02 0.  0.
    9900012    2    3    3    0    0  0.10783686433E+01  0.36488306304E+02 -0.26392321204E+02  0.46142312144E+02  0.99999487779E+01 0.  0.
         12    1    3    3    0    0 -0.10783686433E+01 -0.36488306304E+02  0.26392321204E+02  0.45045687856E+02  0.00000000000E+00 0. -1.
         11    1    4    4    0    0  0.39982040665E+01  0.23923085729E+02 -0.15474523278E+02  0.28770827891E+02  0.51100000000E-03 0. -1.
        -11    1    4    4    0    0 -0.12759163797E+01  0.82546306728E+01 -0.45603398950E+01  0.95164904441E+01  0.51100000000E-03 0.  1.
        -12    1    4    4    0    0 -0.16439190435E+01  0.43105899022E+01 -0.63574580311E+01  0.78549938093E+01  0.00000000000E+00 0.  1.
</event>
<event>
 8    1  0.8828843E-009  0.9118800E+02  0.7816164E-02  0.1184000E+00
        -11   -1    0    0    0    0  0.00000000000E+00  0.00000000000E+00  0.45593999997E+02  0.45594000000E+02  0.51100000000E-03 0. -1.
         11   -1    0    0    0    0 -0.00000000000E+00 -0.00000000000E+00 -0.45593999997E+02  0.45594000000E+02  0.51100000000E-03 0.  1.
         23    2    1    2    0    0  0.00000000000E+00  0.35527136788E-14  0.00000000000E+00  0.91188000000E+02  0.91188000000E+02 0.  0.
    9900012    2    3    3    0    0  0.22090808446E+02  0.25244899357E+02  0.30063344440E+02  0.46142318295E+02  0.10000004870E+02 0.  0.
        -12    1    3    3    0    0 -0.22090808446E+02 -0.25244899357E+02 -0.30063344440E+02  0.45045681705E+02  0.00000000000E+00 0.  1.
         11    1    4    4    0    0  0.62223268409E+01  0.45976476009E+01  0.78322959435E+01  0.11009113261E+02  0.51100000000E-03 0. -1.
        -11    1    4    4    0    0  0.43981622519E-01  0.10070363149E+01 -0.54802496060E+00  0.11473395928E+01  0.51100000000E-03 0.  1.
         12    1    4    4    0    0  0.15824499982E+02  0.19640215441E+02  0.22779073457E+02  0.33985865442E+02  0.00000000000E+00 0. -1.
</event>
<event>
 8    1  0.8828843E-009  0.9118800E+02  0.7816164E-02  0.1184000E+00
        -11   -1    0    0    0    0  0.00000000000E+00  0.00000000000E+00  0.45593999997E+02  0.45594000000E+02  0.51100000000E-03 0. -1.
         11   -1    0    0    0    0 -0.00000000000E+00 -0.00000000000E+00 -0.45593999997E+02  0.45594000000E+02  0.51100000000E-03 0.  1.
         23    2    1    2    0    0  0.00000000000E+00  0.00000000000E+00  0.00000000000E+00  0.91188000000E+02  0.91188000000E+02 0.  0.
    9900012    2    3    3    0    0 -0.14359548482E+02 -0.19699841470E+02  0.37879191051E+02  0.46142317618E+02  0.99999986987E+01 0.  0.
        -12    1    3    3    0    0  0.14359548482E+02  0.19699841470E+02 -0.37879191051E+02  0.45045682382E+02  0.00000000000E+00 0.  1.
         11    1    4    4    0    0 -0.47492075068E+01 -0.45546585297E+01  0.82078768111E+01  0.10519939556E+02  0.51100000000E-03 0. -1.
        -11    1    4    4    0    0 -0.25253329342E+01 -0.27442445808E+01  0.14659527105E+01  0.40071439154E+01  0.51100000000E-03 0.  1.
         12    1    4    4    0    0 -0.70850080406E+01 -0.12400938359E+02  0.28205361530E+02  0.31615234147E+02  0.00000000000E+00 0. -1.
</event>
<event>
 8    1  0.8828843E-009  0.9118800E+02  0.7816164E-02  0.1184000E+00
        -11   -1    0    0    0    0  0.00000000000E+00  0.00000000000E+00  0.45593999997E+02  0.45594000000E+02  0.51100000000E-03 0. -1.
         11   -1    0    0    0    0 -0.00000000000E+00 -0.00000000000E+00 -0.45593999997E+02  0.45594000000E+02  0.51100000000E-03 0.  1.
         23    2    1    2    0    0  0.00000000000E+00  0.00000000000E+00 -0.71054273576E-14  0.91188000000E+02  0.91188000000E+02 0.  0.
    9900012    2    3    3    0    0  0.21941155108E+02  0.14158047230E+02 -0.36704888364E+02  0.46142318535E+02  0.10000007057E+02 0.  0.
         12    1    3    3    0    0 -0.21941155108E+02 -0.14158047230E+02  0.36704888364E+02  0.45045681465E+02  0.00000000000E+00 0. -1.
         11    1    4    4    0    0  0.11616234278E+01 -0.76799191304E-02 -0.33211987289E+01  0.35184924651E+01  0.51100000000E-03 0. -1.
        -11    1    4    4    0    0  0.64370610692E+01  0.76753922526E+01 -0.18073932051E+02  0.20664327269E+02  0.51100000000E-03 0.  1.
         12    1    4    4    0    0  0.14342470611E+02  0.64903348965E+01 -0.15309757584E+02  0.21959498801E+02  0.00000000000E+00 0. -1.
</event>
<event>
 8    1  0.8828843E-009  0.9118800E+02  0.7816164E-02  0.1184000E+00
        -11   -1    0    0    0    0  0.00000000000E+00  0.00000000000E+00  0.45593999997E+02  0.45594000000E+02  0.51100000000E-03 0. -1.
         11   -1    0    0    0    0 -0.00000000000E+00 -0.00000000000E+00 -0.45593999997E+02  0.45594000000E+02  0.51100000000E-03 0.  1.
         23    2    1    2    0    0  0.88817841970E-15 -0.71054273576E-14 -0.71054273576E-14  0.91188000000E+02  0.91188000000E+02 0.  0.
    9900012    2    3    3    0    0  0.52319952299E+01 -0.31366989896E+02 -0.31903787861E+02  0.46142317531E+02  0.99999979042E+01 0.  0.
         12    1    3    3    0    0 -0.52319952299E+01  0.31366989896E+02  0.31903787861E+02  0.45045682469E+02  0.00000000000E+00 0. -1.
         11    1    4    4    0    0  0.95387342073E+00 -0.66195163206E+01 -0.68868668808E+01  0.95998336713E+01  0.51100000000E-03 0. -1.
        -11    1    4    4    0    0 -0.28875111867E+00 -0.20145921538E+02 -0.19242142898E+02  0.27860394746E+02  0.51100000000E-03 0.  1.
         12    1    4    4    0    0  0.45668729279E+01 -0.46015520370E+01 -0.57747780821E+01  0.86820891141E+01  0.00000000000E+00 0. -1.
</event>
<event>
 8    1  0.8828843E-009  0.9118800E+02  0.7816164E-02  0.1184000E+00
        -11   -1    0    0    0    0  0.00000000000E+00  0.00000000000E+00  0.45593999997E+02  0.45594000000E+02  0.51100000000E-03 0. -1.
         11   -1    0    0    0    0 -0.00000000000E+00 -0.00000000000E+00 -0.45593999997E+02  0.45594000000E+02  0.51100000000E-03 0.  1.
         23    2    1    2    0    0  0.00000000000E+00 -0.35527136788E-14  0.71054273576E-14  0.91188000000E+02  0.91188000000E+02 0.  0.
    9900012    2    3    3    0    0  0.33823749243E+02  0.19586240511E+02 -0.22393004201E+02  0.46142317994E+02  0.10000002125E+02 0.  0.
         12    1    3    3    0    0 -0.33823749243E+02 -0.19586240511E+02  0.22393004201E+02  0.45045682006E+02  0.00000000000E+00 0. -1.
         11    1    4    4    0    0  0.11181955596E+01  0.28339334276E+01 -0.19399241054E+01  0.36117649117E+01  0.51100000000E-03 0. -1.
        -11    1    4    4    0    0  0.74001160885E+01  0.35946439042E+01 -0.77692496627E+01  0.11315671589E+02  0.51100000000E-03 0.  1.
        -12    1    4    4    0    0  0.25305437595E+02  0.13157663179E+02 -0.12683830433E+02  0.31214881494E+02  0.00000000000E+00 0.  1.
</event>
<event>
 8    1  0.8828843E-009  0.9118800E+02  0.7816164E-02  0.1184000E+00
        -11   -1    0    0    0    0  0.00000000000E+00  0.00000000000E+00  0.45593999997E+02  0.45594000000E+02  0.51100000000E-03 0. -1.
         11   -1    0    0    0    0 -0.00000000000E+00 -0.00000000000E+00 -0.45593999997E+02  0.45594000000E+02  0.51100000000E-03 0.  1.
         23    2    1    2    0    0 -0.71054273576E-14  0.17763568394E-14  0.00000000000E+00  0.91188000000E+02  0.91188000000E+02 0.  0.
    9900012    2    3    3    0    0  0.38145516104E+02 -0.10984774866E+02 -0.21292436606E+02  0.46142317251E+02  0.99999953502E+01 0.  0.
         12    1    3    3    0    0 -0.38145516104E+02  0.10984774866E+02  0.21292436606E+02  0.45045682749E+02  0.00000000000E+00 0. -1.
         11    1    4    4    0    0  0.76679133319E+01 -0.54748012275E+01 -0.46312019472E+01  0.10498493944E+02  0.51100000000E-03 0. -1.
        -11    1    4    4    0    0  0.27144385934E+02 -0.33722085101E+01 -0.15810261087E+02  0.31593572667E+02  0.51100000000E-03 0.  1.
         12    1    4    4    0    0  0.33332168380E+01 -0.21377651280E+01 -0.85097357213E+00  0.40502506407E+01  0.00000000000E+00 0. -1.
</event>
<event>
 8    1  0.8828843E-009  0.9118800E+02  0.7816164E-02  0.1184000E+00
        -11   -1    0    0    0    0  0.00000000000E+00  0.00000000000E+00  0.45593999997E+02  0.45594000000E+02  0.51100000000E-03 0. -1.
         11   -1    0    0    0    0 -0.00000000000E+00 -0.00000000000E+00 -0.45593999997E+02  0.45594000000E+02  0.51100000000E-03 0.  1.
         23    2    1    2    0    0  0.00000000000E+00 -0.71054273576E-14  0.35527136788E-14  0.91188000000E+02  0.91188000000E+02 0.  0.
    9900012    2    3    3    0    0 -0.79584412770E+00  0.33362952483E+02 -0.30255470927E+02  0.46142317773E+02  0.10000000108E+02 0.  0.
         12    1    3    3    0    0  0.79584412770E+00 -0.33362952483E+02  0.30255470927E+02  0.45045682227E+02  0.00000000000E+00 0. -1.
         11    1    4    4    0    0 -0.14187237133E+00  0.10599639176E+00 -0.26651180212E+01  0.26709955696E+01  0.51100000000E-03 0. -1.
        -11    1    4    4    0    0 -0.79299999066E-01  0.11279029914E+02 -0.12317302520E+02  0.16701459394E+02  0.51100000000E-03 0.  1.
        -12    1    4    4    0    0 -0.57467175730E+00  0.21977926178E+02 -0.15273050387E+02  0.26769862809E+02  0.00000000000E+00 0.  1.
</event>
<event>
 8    1  0.8828843E-009  0.9118800E+02  0.7816164E-02  0.1184000E+00
        -11   -1    0    0    0    0  0.00000000000E+00  0.00000000000E+00  0.45593999997E+02  0.45594000000E+02  0.51100000000E-03 0. -1.
         11   -1    0    0    0    0 -0.00000000000E+00 -0.00000000000E+00 -0.45593999997E+02  0.45594000000E+02  0.51100000000E-03 0.  1.
         23    2    1    2    0    0  0.35527136788E-14  0.00000000000E+00  0.00000000000E+00  0.91188000000E+02  0.91188000000E+02 0.  0.
    9900012    2    3    3    0    0  0.21839991102E+02 -0.14407522256E+02  0.36668127992E+02  0.46142317417E+02  0.99999968642E+01 0.  0.
        -12    1    3    3    0    0 -0.21839991102E+02  0.14407522256E+02 -0.36668127992E+02  0.45045682583E+02  0.00000000000E+00 0.  1.
         11    1    4    4    0    0  0.50940272014E+01 -0.48080570917E+01  0.58116163763E+01  0.91017257315E+01  0.51100000000E-03 0. -1.
        -11    1    4    4    0    0  0.10095507286E+02 -0.91436953746E+01  0.23065425665E+02  0.26786942599E+02  0.51100000000E-03 0.  1.
        -12    1    4    4    0    0  0.66504566155E+01 -0.45576979003E+00  0.77910859506E+01  0.10253649086E+02  0.00000000000E+00 0.  1.
</event>
<event>
 8    1  0.8828843E-009  0.9118800E+02  0.7816164E-02  0.1184000E+00
        -11   -1    0    0    0    0  0.00000000000E+00  0.00000000000E+00  0.45593999997E+02  0.45594000000E+02  0.51100000000E-03 0. -1.
         11   -1    0    0    0    0 -0.00000000000E+00 -0.00000000000E+00 -0.45593999997E+02  0.45594000000E+02  0.51100000000E-03 0.  1.
         23    2    1    2    0    0  0.44408920985E-15 -0.88817841970E-15  0.14210854715E-13  0.91188000000E+02  0.91188000000E+02 0.  0.
    9900012    2    3    3    0    0 -0.20002833010E+01  0.71732746194E+01 -0.44425854784E+02  0.46142316796E+02  0.99999911998E+01 0.  0.
         12    1    3    3    0    0  0.20002833010E+01 -0.71732746194E+01  0.44425854784E+02  0.45045683204E+02  0.00000000000E+00 0. -1.
         11    1    4    4    0    0 -0.19321467448E+00  0.36805500161E+01 -0.39511844948E+02  0.39683367698E+02  0.51100000000E-03 0.  1.
        -11    1    4    4    0    0 -0.11224267850E+01  0.20674191879E+01 -0.39778149495E+01  0.46213716600E+01  0.51100000000E-03 0. -1.
        -12    1    4    4    0    0 -0.68464184152E+00  0.14253054153E+01 -0.93619488568E+00  0.18375774384E+01  0.00000000000E+00 0.  1.
</event>
<event>
 8    1  0.8828843E-009  0.9118800E+02  0.7816164E-02  0.1184000E+00
        -11   -1    0    0    0    0  0.00000000000E+00  0.00000000000E+00  0.45593999997E+02  0.45594000000E+02  0.51100000000E-03 0. -1.
         11   -1    0    0    0    0 -0.00000000000E+00 -0.00000000000E+00 -0.45593999997E+02  0.45594000000E+02  0.51100000000E-03 0.  1.
         23    2    1    2    0    0  0.00000000000E+00  0.00000000000E+00  0.00000000000E+00  0.91188000000E+02  0.91188000000E+02 0.  0.
    9900012    2    3    3    0    0 -0.37485723684E+02  0.14601531580E+02 -0.20266459101E+02  0.46142316865E+02  0.99999918304E+01 0.  0.
         12    1    3    3    0    0  0.37485723684E+02 -0.14601531580E+02  0.20266459101E+02  0.45045683135E+02  0.00000000000E+00 0. -1.
         11    1    4    4    0    0 -0.30004586608E+02  0.10090601121E+02 -0.15771717023E+02  0.35367251895E+02  0.51100000000E-03 0. -1.
        -11    1    4    4    0    0 -0.69949155875E+01  0.41468581074E+01 -0.53442851357E+01  0.97307070715E+01  0.51100000000E-03 0.  1.
         12    1    4    4    0    0 -0.48622148880E+00  0.36407235169E+00  0.84954305794E+00  0.10443578988E+01  0.00000000000E+00 0. -1.
</event>
<event>
 8    1  0.8828843E-009  0.9118800E+02  0.7816164E-02  0.1184000E+00
        -11   -1    0    0    0    0  0.00000000000E+00  0.00000000000E+00  0.45593999997E+02  0.45594000000E+02  0.51100000000E-03 0. -1.
         11   -1    0    0    0    0 -0.00000000000E+00 -0.00000000000E+00 -0.45593999997E+02  0.45594000000E+02  0.51100000000E-03 0.  1.
         23    2    1    2    0    0  0.35527136788E-14  0.00000000000E+00  0.00000000000E+00  0.91188000000E+02  0.91188000000E+02 0.  0.
    9900012    2    3    3    0    0 -0.16909184153E+02  0.25573618722E+02 -0.33002772732E+02  0.46142317729E+02  0.99999997092E+01 0.  0.
         12    1    3    3    0    0  0.16909184153E+02 -0.25573618722E+02  0.33002772732E+02  0.45045682271E+02  0.00000000000E+00 0. -1.
         11    1    4    4    0    0  0.47705446517E+00 -0.41036389589E-01  0.82026523894E-01  0.48579168350E+00  0.51100000000E-03 0. -1.
        -11    1    4    4    0    0 -0.13899983797E+01  0.37955321564E+01 -0.22155535534E+01  0.46094292115E+01  0.51100000000E-03 0.  1.
        -12    1    4    4    0    0 -0.15996240238E+02  0.21819122955E+02 -0.30869245703E+02  0.41047096834E+02  0.00000000000E+00 0.  1.
</event>
<event>
 8    1  0.8828843E-009  0.9118800E+02  0.7816164E-02  0.1184000E+00
        -11   -1    0    0    0    0  0.00000000000E+00  0.00000000000E+00  0.45593999997E+02  0.45594000000E+02  0.51100000000E-03 0. -1.
         11   -1    0    0    0    0 -0.00000000000E+00 -0.00000000000E+00 -0.45593999997E+02  0.45594000000E+02  0.51100000000E-03 0.  1.
         23    2    1    2    0    0  0.00000000000E+00  0.00000000000E+00  0.00000000000E+00  0.91188000000E+02  0.91188000000E+02 0.  0.
    9900012    2    3    3    0    0 -0.23290991480E+02  0.36003002508E+02 -0.13799525937E+02  0.46142318855E+02  0.10000009974E+02 0.  0.
         12    1    3    3    0    0  0.23290991480E+02 -0.36003002508E+02  0.13799525937E+02  0.45045681145E+02  0.00000000000E+00 0. -1.
         11    1    4    4    0    0 -0.12076847516E+02  0.21814606399E+02 -0.79795796422E+01  0.26180164052E+02  0.51100000000E-03 0. -1.
        -11    1    4    4    0    0 -0.60501416833E+01  0.59996776280E+01 -0.57529774437E+01  0.10280909287E+02  0.51100000000E-03 0.  1.
         12    1    4    4    0    0 -0.51640022803E+01  0.81887184817E+01 -0.66968851468E-01  0.96812455165E+01  0.00000000000E+00 0. -1.
</event>
<event>
 8    1  0.8828843E-009  0.9118800E+02  0.7816164E-02  0.1184000E+00
        -11   -1    0    0    0    0  0.00000000000E+00  0.00000000000E+00  0.45593999997E+02  0.45594000000E+02  0.51100000000E-03 0. -1.
         11   -1    0    0    0    0 -0.00000000000E+00 -0.00000000000E+00 -0.45593999997E+02  0.45594000000E+02  0.51100000000E-03 0.  1.
         23    2    1    2    0    0 -0.17763568394E-14  0.00000000000E+00  0.00000000000E+00  0.91188000000E+02  0.91188000000E+02 0.  0.
    9900012    2    3    3    0    0  0.14813549731E+02  0.45110965941E+01 -0.42300381509E+02  0.46142317367E+02  0.99999964060E+01 0.  0.
         12    1    3    3    0    0 -0.14813549731E+02 -0.45110965941E+01  0.42300381509E+02  0.45045682633E+02  0.00000000000E+00 0. -1.
         11    1    4    4    0    0  0.26400713126E+01  0.71972060707E+00 -0.21416223979E+02  0.21590336358E+02  0.51100000000E-03 0. -1.
        -11    1    4    4    0    0  0.24549356653E+01  0.22799568872E+00 -0.29469344695E+01  0.38422798159E+01  0.51100000000E-03 0.  1.
         12    1    4    4    0    0  0.97185427527E+01  0.35633802983E+01 -0.17937223060E+02  0.20709701193E+02  0.00000000000E+00 0. -1.
</event>
<event>
 8    1  0.8828843E-009  0.9118800E+02  0.7816164E-02  0.1184000E+00
        -11   -1    0    0    0    0  0.00000000000E+00  0.00000000000E+00  0.45593999997E+02  0.45594000000E+02  0.51100000000E-03 0. -1.
         11   -1    0    0    0    0 -0.00000000000E+00 -0.00000000000E+00 -0.45593999997E+02  0.45594000000E+02  0.51100000000E-03 0.  1.
         23    2    1    2    0    0  0.00000000000E+00  0.00000000000E+00  0.35527136788E-14  0.91188000000E+02  0.91188000000E+02 0.  0.
    9900012    2    3    3    0    0  0.35455808251E+02  0.19716591206E+02 -0.19576904517E+02  0.46142317654E+02  0.99999990210E+01 0.  0.
         12    1    3    3    0    0 -0.35455808251E+02 -0.19716591206E+02  0.19576904517E+02  0.45045682346E+02  0.00000000000E+00 0. -1.
         11    1    4    4    0    0  0.23915520518E+02  0.10648142247E+02 -0.93263804289E+01  0.27790581626E+02  0.51100000000E-03 0. -1.
        -11    1    4    4    0    0  0.18644060179E+01  0.14524225722E+01 -0.53373787791E-01  0.23639776120E+01  0.51100000000E-03 0.  1.
         12    1    4    4    0    0  0.96758817160E+01  0.76160263866E+01 -0.10197150301E+02  0.15987758416E+02  0.00000000000E+00 0. -1.
</event>
<event>
 8    1  0.8828843E-009  0.9118800E+02  0.7816164E-02  0.1184000E+00
        -11   -1    0    0    0    0  0.00000000000E+00  0.00000000000E+00  0.45593999997E+02  0.45594000000E+02  0.51100000000E-03 0. -1.
         11   -1    0    0    0    0 -0.00000000000E+00 -0.00000000000E+00 -0.45593999997E+02  0.45594000000E+02  0.51100000000E-03 0.  1.
         23    2    1    2    0    0 -0.22204460493E-15  0.00000000000E+00  0.00000000000E+00  0.91188000000E+02  0.91188000000E+02 0.  0.
    9900012    2    3    3    0    0 -0.87213735626E+00 -0.34460972169E+01 -0.44905198676E+02  0.46142322319E+02  0.10000041567E+02 0.  0.
         12    1    3    3    0    0  0.87213735626E+00  0.34460972169E+01  0.44905198676E+02  0.45045677681E+02  0.00000000000E+00 0. -1.
         11    1    4    4    0    0 -0.51359278634E+00  0.79955233034E-01 -0.19222546096E+02  0.19229572254E+02  0.51100000000E-03 0. -1.
        -11    1    4    4    0    0  0.17022572198E+01  0.12960349850E+01 -0.33671173186E+01  0.39893440091E+01  0.51100000000E-03 0.  1.
         12    1    4    4    0    0 -0.20608017897E+01 -0.48220874349E+01 -0.22315535261E+02  0.22923406057E+02  0.00000000000E+00 0. -1.
</event>
<event>
 8    1  0.8828843E-009  0.9118800E+02  0.7816164E-02  0.1184000E+00
        -11   -1    0    0    0    0  0.00000000000E+00  0.00000000000E+00  0.45593999997E+02  0.45594000000E+02  0.51100000000E-03 0.  1.
         11   -1    0    0    0    0 -0.00000000000E+00 -0.00000000000E+00 -0.45593999997E+02  0.45594000000E+02  0.51100000000E-03 0. -1.
         23    2    1    2    0    0 -0.71054273576E-14  0.00000000000E+00  0.00000000000E+00  0.91188000000E+02  0.91188000000E+02 0.  0.
    9900012    2    3    3    0    0 -0.41517546273E+02 -0.10898293887E+02  0.13661408513E+02  0.46142317180E+02  0.99999947030E+01 0.  0.
        -12    1    3    3    0    0  0.41517546273E+02  0.10898293887E+02 -0.13661408513E+02  0.45045682820E+02  0.00000000000E+00 0.  1.
         11    1    4    4    0    0 -0.53436593941E+01 -0.18798835462E+01  0.84584580805E+00  0.57274875172E+01  0.51100000000E-03 0. -1.
        -11    1    4    4    0    0 -0.10773761479E+02 -0.59857634440E+01  0.14049134544E+01  0.12404720169E+02  0.51100000000E-03 0.  1.
        -12    1    4    4    0    0 -0.25400125400E+02 -0.30326468968E+01  0.11410649250E+02  0.28010109494E+02  0.00000000000E+00 0.  1.
</event>
<event>
 8    1  0.8828843E-009  0.9118800E+02  0.7816164E-02  0.1184000E+00
        -11   -1    0    0    0    0  0.00000000000E+00  0.00000000000E+00  0.45593999997E+02  0.45594000000E+02  0.51100000000E-03 0. -1.
         11   -1    0    0    0    0 -0.00000000000E+00 -0.00000000000E+00 -0.45593999997E+02  0.45594000000E+02  0.51100000000E-03 0.  1.
         23    2    1    2    0    0  0.17763568394E-14  0.00000000000E+00  0.00000000000E+00  0.91188000000E+02  0.91188000000E+02 0.  0.
    9900012    2    3    3    0    0  0.14330363008E+02 -0.10189504648E+02  0.41472016704E+02  0.46142317871E+02  0.10000001003E+02 0.  0.
        -12    1    3    3    0    0 -0.14330363008E+02  0.10189504648E+02 -0.41472016704E+02  0.45045682129E+02  0.00000000000E+00 0.  1.
         11    1    4    4    0    0  0.29469384728E+01 -0.12840589009E+01  0.12626414371E+02  0.13029182390E+02  0.51100000000E-03 0. -1.
        -11    1    4    4    0    0  0.54170168952E+01 -0.87497708711E+01  0.18048193073E+02  0.20775943680E+02  0.51100000000E-03 0.  1.
         12    1    4    4    0    0  0.59664076401E+01 -0.15567487647E+00  0.10797409260E+02  0.12337191801E+02  0.00000000000E+00 0. -1.
</event>
<event>
 8    1  0.8828843E-009  0.9118800E+02  0.7816164E-02  0.1184000E+00
        -11   -1    0    0    0    0  0.00000000000E+00  0.00000000000E+00  0.45593999997E+02  0.45594000000E+02  0.51100000000E-03 0. -1.
         11   -1    0    0    0    0 -0.00000000000E+00 -0.00000000000E+00 -0.45593999997E+02  0.45594000000E+02  0.51100000000E-03 0.  1.
         23    2    1    2    0    0  0.35527136788E-14  0.35527136788E-14  0.00000000000E+00  0.91188000000E+02  0.91188000000E+02 0.  0.
    9900012    2    3    3    0    0  0.18752283650E+02  0.24441338016E+02 -0.32864666964E+02  0.46142317845E+02  0.10000000769E+02 0.  0.
         12    1    3    3    0    0 -0.18752283650E+02 -0.24441338016E+02  0.32864666964E+02  0.45045682155E+02  0.00000000000E+00 0. -1.
         11    1    4    4    0    0  0.30628417094E+01  0.14684444927E+01 -0.26371466315E+01  0.43002175738E+01  0.51100000000E-03 0. -1.
        -11    1    4    4    0    0  0.25574969255E+01  0.22404710601E+00 -0.37599277196E+01  0.45528062058E+01  0.51100000000E-03 0.  1.
        -12    1    4    4    0    0  0.13131945015E+02  0.22748846418E+02 -0.26467592613E+02  0.37289294066E+02  0.00000000000E+00 0.  1.
</event>
<event>
 8    1  0.8828843E-009  0.9118800E+02  0.7816164E-02  0.1184000E+00
        -11   -1    0    0    0    0  0.00000000000E+00  0.00000000000E+00  0.45593999997E+02  0.45594000000E+02  0.51100000000E-03 0.  1.
         11   -1    0    0    0    0 -0.00000000000E+00 -0.00000000000E+00 -0.45593999997E+02  0.45594000000E+02  0.51100000000E-03 0. -1.
         23    2    1    2    0    0  0.00000000000E+00  0.00000000000E+00  0.00000000000E+00  0.91188000000E+02  0.91188000000E+02 0.  0.
    9900012    2    3    3    0    0  0.31106789074E+02  0.24015303948E+02 -0.22016960325E+02  0.46142315499E+02  0.99999793695E+01 0.  0.
         12    1    3    3    0    0 -0.31106789074E+02 -0.24015303948E+02  0.22016960325E+02  0.45045684501E+02  0.00000000000E+00 0. -1.
         11    1    4    4    0    0 -0.32261478867E+00  0.78300085833E+00 -0.13293986044E+00  0.85723037372E+00  0.51100000000E-03 0. -1.
        -11    1    4    4    0    0  0.12811852078E+02  0.59346207888E+01 -0.61919026468E+01  0.15417617722E+02  0.51100000000E-03 0.  1.
         12    1    4    4    0    0  0.18617551785E+02  0.17297682301E+02 -0.15692117818E+02  0.29867467403E+02  0.00000000000E+00 0. -1.
</event>
<event>
 8    1  0.8828843E-009  0.9118800E+02  0.7816164E-02  0.1184000E+00
        -11   -1    0    0    0    0  0.00000000000E+00  0.00000000000E+00  0.45593999997E+02  0.45594000000E+02  0.51100000000E-03 0. -1.
         11   -1    0    0    0    0 -0.00000000000E+00 -0.00000000000E+00 -0.45593999997E+02  0.45594000000E+02  0.51100000000E-03 0.  1.
         23    2    1    2    0    0  0.00000000000E+00  0.00000000000E+00 -0.71054273576E-14  0.91188000000E+02  0.91188000000E+02 0.  0.
    9900012    2    3    3    0    0 -0.20241819707E+02  0.20094361658E+02 -0.34865439312E+02  0.46142317699E+02  0.99999994363E+01 0.  0.
         12    1    3    3    0    0  0.20241819707E+02 -0.20094361658E+02  0.34865439312E+02  0.45045682301E+02  0.00000000000E+00 0. -1.
         11    1    4    4    0    0 -0.24498324291E+01  0.18365061849E+01 -0.40273799744E+01  0.50590733951E+01  0.51100000000E-03 0. -1.
        -11    1    4    4    0    0  0.10789317818E+01  0.17431727053E+01 -0.19512301157E+01  0.28302021298E+01  0.51100000000E-03 0.  1.
        -12    1    4    4    0    0 -0.18870919059E+02  0.16514682768E+02 -0.28886829222E+02  0.38253042174E+02  0.00000000000E+00 0.  1.
</event>
<event>
 8    1  0.8828843E-009  0.9118800E+02  0.7816164E-02  0.1184000E+00
        -11   -1    0    0    0    0  0.00000000000E+00  0.00000000000E+00  0.45593999997E+02  0.45594000000E+02  0.51100000000E-03 0. -1.
         11   -1    0    0    0    0 -0.00000000000E+00 -0.00000000000E+00 -0.45593999997E+02  0.45594000000E+02  0.51100000000E-03 0.  1.
         23    2    1    2    0    0 -0.71054273576E-14  0.00000000000E+00 -0.17763568394E-14  0.91188000000E+02  0.91188000000E+02 0.  0.
    9900012    2    3    3    0    0  0.32286294755E+02  0.29297197114E+02  0.11330617426E+02  0.46142317865E+02  0.10000000944E+02 0.  0.
        -12    1    3    3    0    0 -0.32286294755E+02 -0.29297197114E+02 -0.11330617426E+02  0.45045682135E+02  0.00000000000E+00 0.  1.
         11    1    4    4    0    0  0.14664373573E+02  0.14231527507E+02  0.19285118992E+01  0.20525578819E+02  0.51100000000E-03 0. -1.
        -11    1    4    4    0    0  0.83307061220E+01  0.36201099073E+01  0.38017218177E+01  0.98467735463E+01  0.51100000000E-03 0.  1.
         12    1    4    4    0    0  0.92912150607E+01  0.11445559700E+02  0.56003837091E+01  0.15769965499E+02  0.00000000000E+00 0. -1.
</event>
<event>
 8    1  0.8828843E-009  0.9118800E+02  0.7816164E-02  0.1184000E+00
        -11   -1    0    0    0    0  0.00000000000E+00  0.00000000000E+00  0.45593999997E+02  0.45594000000E+02  0.51100000000E-03 0. -1.
         11   -1    0    0    0    0 -0.00000000000E+00 -0.00000000000E+00 -0.45593999997E+02  0.45594000000E+02  0.51100000000E-03 0.  1.
         23    2    1    2    0    0 -0.35527136788E-14  0.00000000000E+00  0.00000000000E+00  0.91188000000E+02  0.91188000000E+02 0.  0.
    9900012    2    3    3    0    0  0.21668724139E+02  0.31888921630E+02 -0.23295419136E+02  0.46142317840E+02  0.10000000716E+02 0.  0.
         12    1    3    3    0    0 -0.21668724139E+02 -0.31888921630E+02  0.23295419136E+02  0.45045682160E+02  0.00000000000E+00 0. -1.
         11    1    4    4    0    0  0.21388745452E+01  0.40222929714E+01 -0.38786012756E+00  0.45720958878E+01  0.51100000000E-03 0. -1.
        -11    1    4    4    0    0  0.22406587564E+01  0.22950011692E+01 -0.48313415340E+01  0.57990898690E+01  0.51100000000E-03 0.  1.
        -12    1    4    4    0    0  0.17289190838E+02  0.25571627490E+02 -0.18076217475E+02  0.35771132083E+02  0.00000000000E+00 0.  1.
</event>
<event>
 8    1  0.8828843E-009  0.9118800E+02  0.7816164E-02  0.1184000E+00
        -11   -1    0    0    0    0  0.00000000000E+00  0.00000000000E+00  0.45593999997E+02  0.45594000000E+02  0.51100000000E-03 0. -1.
         11   -1    0    0    0    0 -0.00000000000E+00 -0.00000000000E+00 -0.45593999997E+02  0.45594000000E+02  0.51100000000E-03 0.  1.
         23    2    1    2    0    0  0.00000000000E+00  0.00000000000E+00  0.00000000000E+00  0.91188000000E+02  0.91188000000E+02 0.  0.
    9900012    2    3    3    0    0 -0.19800974199E+02 -0.23196519725E+02  0.33150509561E+02  0.46142318845E+02  0.10000009883E+02 0.  0.
        -12    1    3    3    0    0  0.19800974199E+02  0.23196519725E+02 -0.33150509561E+02  0.45045681155E+02  0.00000000000E+00 0.  1.
         11    1    4    4    0    0 -0.11058513405E+02 -0.10900295179E+02  0.16534120521E+02  0.22682246260E+02  0.51100000000E-03 0. -1.
        -11    1    4    4    0    0 -0.54937869091E+01 -0.91338608481E+01  0.67887658776E+01  0.12637106116E+02  0.51100000000E-03 0.  1.
         12    1    4    4    0    0 -0.32486738842E+01 -0.31623636982E+01  0.98276231624E+01  0.10822966469E+02  0.00000000000E+00 0. -1.
</event>
<event>
 8    1  0.8828843E-009  0.9118800E+02  0.7816164E-02  0.1184000E+00
        -11   -1    0    0    0    0  0.00000000000E+00  0.00000000000E+00  0.45593999997E+02  0.45594000000E+02  0.51100000000E-03 0. -1.
         11   -1    0    0    0    0 -0.00000000000E+00 -0.00000000000E+00 -0.45593999997E+02  0.45594000000E+02  0.51100000000E-03 0.  1.
         23    2    1    2    0    0  0.00000000000E+00  0.00000000000E+00  0.00000000000E+00  0.91188000000E+02  0.91188000000E+02 0.  0.
    9900012    2    3    3    0    0 -0.37901411093E+02  0.11053030365E+02  0.21689330788E+02  0.46142317487E+02  0.99999974970E+01 0.  0.
        -12    1    3    3    0    0  0.37901411093E+02 -0.11053030365E+02 -0.21689330788E+02  0.45045682513E+02  0.00000000000E+00 0.  1.
         11    1    4    4    0    0 -0.26545687090E+02  0.11183145611E+02  0.14431812880E+02  0.32218216464E+02  0.51100000000E-03 0. -1.
        -11    1    4    4    0    0 -0.80330018955E+01  0.94911120900E+00  0.64316475866E+01  0.10334216104E+02  0.51100000000E-03 0.  1.
         12    1    4    4    0    0 -0.33227221074E+01 -0.10792264553E+01  0.82587032092E+00  0.35898849190E+01  0.00000000000E+00 0. -1.
</event>
<event>
 8    1  0.8828843E-009  0.9118800E+02  0.7816164E-02  0.1184000E+00
        -11   -1    0    0    0    0  0.00000000000E+00  0.00000000000E+00  0.45593999997E+02  0.45594000000E+02  0.51100000000E-03 0. -1.
         11   -1    0    0    0    0 -0.00000000000E+00 -0.00000000000E+00 -0.45593999997E+02  0.45594000000E+02  0.51100000000E-03 0.  1.
         23    2    1    2    0    0  0.33306690739E-15  0.17763568394E-14  0.00000000000E+00  0.91188000000E+02  0.91188000000E+02 0.  0.
    9900012    2    3    3    0    0  0.73672895221E+00  0.10467921710E+02 -0.43806316015E+02  0.46142317885E+02  0.10000001125E+02 0.  0.
         12    1    3    3    0    0 -0.73672895221E+00 -0.10467921710E+02  0.43806316015E+02  0.45045682115E+02  0.00000000000E+00 0. -1.
         11    1    4    4    0    0  0.52666869512E-01  0.12552874975E+01 -0.13680871432E+00  0.12638185732E+01  0.51100000000E-03 0. -1.
        -11    1    4    4    0    0 -0.38701688251E+00  0.84358890047E+01 -0.30654723715E+02  0.31796636484E+02  0.51100000000E-03 0.  1.
        -12    1    4    4    0    0  0.10710789652E+01  0.77674520736E+00 -0.13014783585E+02  0.13081862827E+02  0.00000000000E+00 0.  1.
</event>
<event>
 8    1  0.8828843E-009  0.9118800E+02  0.7816164E-02  0.1184000E+00
        -11   -1    0    0    0    0  0.00000000000E+00  0.00000000000E+00  0.45593999997E+02  0.45594000000E+02  0.51100000000E-03 0. -1.
         11   -1    0    0    0    0 -0.00000000000E+00 -0.00000000000E+00 -0.45593999997E+02  0.45594000000E+02  0.51100000000E-03 0.  1.
         23    2    1    2    0    0  0.25673907444E-15  0.00000000000E+00  0.00000000000E+00  0.91188000000E+02  0.91188000000E+02 0.  0.
    9900012    2    3    3    0    0  0.36610808092E-01 -0.13492889335E+02  0.42977371030E+02  0.46142314040E+02  0.99999660672E+01 0.  0.
        -12    1    3    3    0    0 -0.36610808092E-01  0.13492889335E+02 -0.42977371030E+02  0.45045685960E+02  0.00000000000E+00 0.  1.
         11    1    4    4    0    0 -0.56153408050E+00 -0.25544945135E+01  0.48678953341E+01  0.55260445155E+01  0.51100000000E-03 0. -1.
        -11    1    4    4    0    0 -0.28054631578E+01 -0.20111090595E+01  0.44777093111E+01  0.56537654810E+01  0.51100000000E-03 0.  1.
         12    1    4    4    0    0  0.34036080464E+01 -0.89272857620E+01  0.33631766385E+02  0.34962504043E+02  0.00000000000E+00 0. -1.
</event>
<event>
 8    1  0.8828843E-009  0.9118800E+02  0.7816164E-02  0.1184000E+00
        -11   -1    0    0    0    0  0.00000000000E+00  0.00000000000E+00  0.45593999997E+02  0.45594000000E+02  0.51100000000E-03 0. -1.
         11   -1    0    0    0    0 -0.00000000000E+00 -0.00000000000E+00 -0.45593999997E+02  0.45594000000E+02  0.51100000000E-03 0.  1.
         23    2    1    2    0    0 -0.83266726847E-16  0.00000000000E+00  0.00000000000E+00  0.91188000000E+02  0.91188000000E+02 0.  0.
    9900012    2    3    3    0    0  0.24023954232E+00 -0.18952073269E+02 -0.40864098867E+02  0.46142319048E+02  0.10000011738E+02 0.  0.
         12    1    3    3    0    0 -0.24023954232E+00  0.18952073269E+02  0.40864098867E+02  0.45045680952E+02  0.00000000000E+00 0. -1.
         11    1    4    4    0    0  0.14932216485E+01 -0.76453467621E+00 -0.57414599951E+01  0.59815204839E+01  0.51100000000E-03 0. -1.
        -11    1    4    4    0    0  0.19248437403E+01 -0.10685780767E+02 -0.24291135911E+02  0.26607333917E+02  0.51100000000E-03 0.  1.
         12    1    4    4    0    0 -0.31778258466E+01 -0.75017578256E+01 -0.10831502960E+02  0.13553464648E+02  0.00000000000E+00 0. -1.
</event>
<event>
 8    1  0.8828843E-009  0.9118800E+02  0.7816164E-02  0.1184000E+00
        -11   -1    0    0    0    0  0.00000000000E+00  0.00000000000E+00  0.45593999997E+02  0.45594000000E+02  0.51100000000E-03 0. -1.
         11   -1    0    0    0    0 -0.00000000000E+00 -0.00000000000E+00 -0.45593999997E+02  0.45594000000E+02  0.51100000000E-03 0.  1.
         23    2    1    2    0    0 -0.71054273576E-14  0.71054273576E-14 -0.35527136788E-14  0.91188000000E+02  0.91188000000E+02 0.  0.
    9900012    2    3    3    0    0 -0.23966914992E+02  0.34062181432E+02 -0.17160074471E+02  0.46142319030E+02  0.10000011574E+02 0.  0.
         12    1    3    3    0    0  0.23966914992E+02 -0.34062181432E+02  0.17160074471E+02  0.45045680970E+02  0.00000000000E+00 0. -1.
         11    1    4    4    0    0 -0.10260561736E+02  0.10650024882E+02 -0.96989499458E+01  0.17685355168E+02  0.51100000000E-03 0. -1.
        -11    1    4    4    0    0 -0.52494331078E+01  0.73836651573E+01 -0.44223015024E+01  0.10081260335E+02  0.51100000000E-03 0.  1.
         12    1    4    4    0    0 -0.84569201480E+01  0.16028491393E+02 -0.30388230232E+01  0.18375703527E+02  0.00000000000E+00 0. -1.
</event>
<event>
 8    1  0.8828843E-009  0.9118800E+02  0.7816164E-02  0.1184000E+00
        -11   -1    0    0    0    0  0.00000000000E+00  0.00000000000E+00  0.45593999997E+02  0.45594000000E+02  0.51100000000E-03 0. -1.
         11   -1    0    0    0    0 -0.00000000000E+00 -0.00000000000E+00 -0.45593999997E+02  0.45594000000E+02  0.51100000000E-03 0.  1.
         23    2    1    2    0    0  0.00000000000E+00 -0.88817841970E-15  0.00000000000E+00  0.91188000000E+02  0.91188000000E+02 0.  0.
    9900012    2    3    3    0    0  0.34933197627E+02  0.43698209829E+01 -0.28101428407E+02  0.46142313077E+02  0.99999572863E+01 0.  0.
         12    1    3    3    0    0 -0.34933197627E+02 -0.43698209829E+01  0.28101428407E+02  0.45045686923E+02  0.00000000000E+00 0. -1.
         11    1    4    4    0    0  0.65178924695E+00 -0.73109233787E+00 -0.23954442835E-02  0.97945455648E+00  0.51100000000E-03 0. -1.
        -11    1    4    4    0    0  0.12292448753E+02  0.20903013817E+00 -0.62945159148E+01  0.13811912279E+02  0.51100000000E-03 0.  1.
         12    1    4    4    0    0  0.21988959627E+02  0.48918831826E+01 -0.21804517048E+02  0.31350946242E+02  0.00000000000E+00 0. -1.
</event>
<event>
 8    1  0.8828843E-009  0.9118800E+02  0.7816164E-02  0.1184000E+00
        -11   -1    0    0    0    0  0.00000000000E+00  0.00000000000E+00  0.45593999997E+02  0.45594000000E+02  0.51100000000E-03 0. -1.
         11   -1    0    0    0    0 -0.00000000000E+00 -0.00000000000E+00 -0.45593999997E+02  0.45594000000E+02  0.51100000000E-03 0.  1.
         23    2    1    2    0    0  0.35527136788E-14  0.88817841970E-15  0.71054273576E-14  0.91188000000E+02  0.91188000000E+02 0.  0.
    9900012    2    3    3    0    0  0.19779759014E+02  0.61747644606E+01  0.39996836572E+02  0.46142317426E+02  0.99999969453E+01 0.  0.
        -12    1    3    3    0    0 -0.19779759014E+02 -0.61747644606E+01 -0.39996836572E+02  0.45045682574E+02  0.00000000000E+00 0.  1.
         11    1    4    4    0    0  0.49479610196E+01  0.55434491505E+01  0.15423792900E+02  0.17120325184E+02  0.51100000000E-03 0. -1.
        -11    1    4    4    0    0  0.53639255906E+01 -0.57224499224E-01  0.12936299040E+02  0.14004385224E+02  0.51100000000E-03 0.  1.
        -12    1    4    4    0    0  0.94678724033E+01  0.68853980932E+00  0.11636744632E+02  0.15017607018E+02  0.00000000000E+00 0.  1.
</event>
<event>
 8    1  0.8828843E-009  0.9118800E+02  0.7816164E-02  0.1184000E+00
        -11   -1    0    0    0    0  0.00000000000E+00  0.00000000000E+00  0.45593999997E+02  0.45594000000E+02  0.51100000000E-03 0. -1.
         11   -1    0    0    0    0 -0.00000000000E+00 -0.00000000000E+00 -0.45593999997E+02  0.45594000000E+02  0.51100000000E-03 0.  1.
         23    2    1    2    0    0  0.17763568394E-14  0.00000000000E+00  0.00000000000E+00  0.91188000000E+02  0.91188000000E+02 0.  0.
    9900012    2    3    3    0    0  0.12104020573E+02  0.18938600737E+02 -0.39037615449E+02  0.46142319498E+02  0.10000015839E+02 0.  0.
         12    1    3    3    0    0 -0.12104020573E+02 -0.18938600737E+02  0.39037615449E+02  0.45045680502E+02  0.00000000000E+00 0. -1.
         11    1    4    4    0    0  0.37351099846E+01  0.91130725225E+00 -0.75186767608E+01  0.84446449304E+01  0.51100000000E-03 0. -1.
        -11    1    4    4    0    0  0.28600532632E+01  0.58099357442E+01 -0.57864814936E+01  0.86843898091E+01  0.51100000000E-03 0.  1.
        -12    1    4    4    0    0  0.55088573253E+01  0.12217357741E+02 -0.25732457195E+02  0.29013284759E+02  0.00000000000E+00 0.  1.
</event>
<event>
 8    1  0.8828843E-009  0.9118800E+02  0.7816164E-02  0.1184000E+00
        -11   -1    0    0    0    0  0.00000000000E+00  0.00000000000E+00  0.45593999997E+02  0.45594000000E+02  0.51100000000E-03 0. -1.
         11   -1    0    0    0    0 -0.00000000000E+00 -0.00000000000E+00 -0.45593999997E+02  0.45594000000E+02  0.51100000000E-03 0.  1.
         23    2    1    2    0    0  0.00000000000E+00  0.00000000000E+00  0.71054273576E-14  0.91188000000E+02  0.91188000000E+02 0.  0.
    9900012    2    3    3    0    0 -0.19792150445E+02 -0.12924917474E+02  0.38344892089E+02  0.46142318074E+02  0.10000002849E+02 0.  0.
        -12    1    3    3    0    0  0.19792150445E+02  0.12924917474E+02 -0.38344892089E+02  0.45045681926E+02  0.00000000000E+00 0.  1.
         11    1    4    4    0    0 -0.14669715841E+02 -0.11817248210E+02  0.27017167807E+02  0.32935926808E+02  0.51100000000E-03 0. -1.
        -11    1    4    4    0    0 -0.52081255887E+01 -0.57725100430E+00  0.65012029211E+01  0.83500557215E+01  0.51100000000E-03 0.  1.
         12    1    4    4    0    0  0.85690984909E-01 -0.53041825957E+00  0.48265213608E+01  0.48563355445E+01  0.00000000000E+00 0. -1.
</event>
<event>
 8    1  0.8828843E-009  0.9118800E+02  0.7816164E-02  0.1184000E+00
        -11   -1    0    0    0    0  0.00000000000E+00  0.00000000000E+00  0.45593999997E+02  0.45594000000E+02  0.51100000000E-03 0. -1.
         11   -1    0    0    0    0 -0.00000000000E+00 -0.00000000000E+00 -0.45593999997E+02  0.45594000000E+02  0.51100000000E-03 0.  1.
         23    2    1    2    0    0  0.00000000000E+00  0.00000000000E+00  0.00000000000E+00  0.91188000000E+02  0.91188000000E+02 0.  0.
    9900012    2    3    3    0    0  0.42967198553E+02 -0.76785626109E+01 -0.11134301793E+02  0.46142321498E+02  0.10000034079E+02 0.  0.
         12    1    3    3    0    0 -0.42967198553E+02  0.76785626109E+01  0.11134301793E+02  0.45045678502E+02  0.00000000000E+00 0. -1.
         11    1    4    4    0    0  0.14457958173E+02 -0.35438790305E+01 -0.53947656062E+01  0.15833354961E+02  0.51100000000E-03 0. -1.
        -11    1    4    4    0    0  0.12487590304E+02 -0.42141024087E+01 -0.55115205948E+01  0.14285497199E+02  0.51100000000E-03 0.  1.
        -12    1    4    4    0    0  0.16021650076E+02  0.79418828290E-01 -0.22801559196E+00  0.16023469338E+02  0.00000000000E+00 0.  1.
</event>
<event>
 8    1  0.8828843E-009  0.9118800E+02  0.7816164E-02  0.1184000E+00
        -11   -1    0    0    0    0  0.00000000000E+00  0.00000000000E+00  0.45593999997E+02  0.45594000000E+02  0.51100000000E-03 0. -1.
         11   -1    0    0    0    0 -0.00000000000E+00 -0.00000000000E+00 -0.45593999997E+02  0.45594000000E+02  0.51100000000E-03 0.  1.
         23    2    1    2    0    0  0.35527136788E-14  0.17763568394E-14  0.71054273576E-14  0.91188000000E+02  0.91188000000E+02 0.  0.
    9900012    2    3    3    0    0 -0.16033326076E+02 -0.12585957202E+02 -0.40170133149E+02  0.46142318065E+02  0.10000002770E+02 0.  0.
         12    1    3    3    0    0  0.16033326076E+02  0.12585957202E+02  0.40170133149E+02  0.45045681935E+02  0.00000000000E+00 0. -1.
         11    1    4    4    0    0  0.90952409321E+00 -0.11886954424E+01 -0.23003829637E+01  0.27444476624E+01  0.51100000000E-03 0. -1.
        -11    1    4    4    0    0  0.40568887168E+00  0.39484641831E-01 -0.56956730798E+00  0.70039251637E+00  0.51100000000E-03 0.  1.
        -12    1    4    4    0    0 -0.17348539041E+02 -0.11436746402E+02 -0.37300182878E+02  0.42697477886E+02  0.00000000000E+00 0.  1.
</event>
<event>
 8    1  0.8828843E-009  0.9118800E+02  0.7816164E-02  0.1184000E+00
        -11   -1    0    0    0    0  0.00000000000E+00  0.00000000000E+00  0.45593999997E+02  0.45594000000E+02  0.51100000000E-03 0.  1.
         11   -1    0    0    0    0 -0.00000000000E+00 -0.00000000000E+00 -0.45593999997E+02  0.45594000000E+02  0.51100000000E-03 0. -1.
         23    2    1    2    0    0  0.00000000000E+00  0.35527136788E-14 -0.17763568394E-14  0.91188000000E+02  0.91188000000E+02 0.  0.
    9900012    2    3    3    0    0  0.37005126940E+02 -0.24296036980E+02  0.83329059602E+01  0.46142310367E+02  0.99999325747E+01 0.  0.
        -12    1    3    3    0    0 -0.37005126940E+02  0.24296036980E+02 -0.83329059602E+01  0.45045689633E+02  0.00000000000E+00 0.  1.
         11    1    4    4    0    0  0.28115498519E+02 -0.13451079530E+02  0.46005587567E+01  0.31505204945E+02  0.51100000000E-03 0. -1.
        -11    1    4    4    0    0  0.54100103859E+00 -0.12048037640E+01 -0.90290404788E-01  0.13237774933E+01  0.51100000000E-03 0.  1.
         12    1    4    4    0    0  0.83486273827E+01 -0.96401536858E+01  0.38226376083E+01  0.13313327929E+02  0.00000000000E+00 0. -1.
</event>
<event>
 8    1  0.8828843E-009  0.9118800E+02  0.7816164E-02  0.1184000E+00
        -11   -1    0    0    0    0  0.00000000000E+00  0.00000000000E+00  0.45593999997E+02  0.45594000000E+02  0.51100000000E-03 0. -1.
         11   -1    0    0    0    0 -0.00000000000E+00 -0.00000000000E+00 -0.45593999997E+02  0.45594000000E+02  0.51100000000E-03 0.  1.
         23    2    1    2    0    0 -0.44408920985E-15  0.00000000000E+00  0.00000000000E+00  0.91188000000E+02  0.91188000000E+02 0.  0.
    9900012    2    3    3    0    0 -0.25514167853E+01  0.38067987275E+02  0.23946441596E+02  0.46142318210E+02  0.10000004092E+02 0.  0.
        -12    1    3    3    0    0  0.25514167853E+01 -0.38067987275E+02 -0.23946441596E+02  0.45045681790E+02  0.00000000000E+00 0.  1.
         11    1    4    4    0    0 -0.14172693435E+01  0.15623905322E+02  0.14471863852E+02  0.21343615287E+02  0.51100000000E-03 0. -1.
        -11    1    4    4    0    0 -0.30739939348E-01 -0.21817888751E+00  0.29947193967E-01  0.22236021760E+00  0.51100000000E-03 0.  1.
        -12    1    4    4    0    0 -0.11034075025E+01  0.22662260841E+02  0.94446305501E+01  0.24576342706E+02  0.00000000000E+00 0.  1.
</event>
<event>
 8    1  0.8828843E-009  0.9118800E+02  0.7816164E-02  0.1184000E+00
        -11   -1    0    0    0    0  0.00000000000E+00  0.00000000000E+00  0.45593999997E+02  0.45594000000E+02  0.51100000000E-03 0.  1.
         11   -1    0    0    0    0 -0.00000000000E+00 -0.00000000000E+00 -0.45593999997E+02  0.45594000000E+02  0.51100000000E-03 0. -1.
         23    2    1    2    0    0 -0.35527136788E-14  0.71054273576E-14  0.17763568394E-14  0.91188000000E+02  0.91188000000E+02 0.  0.
    9900012    2    3    3    0    0  0.29867046518E+02 -0.32261666803E+02  0.98111096031E+01  0.46142317807E+02  0.10000000419E+02 0.  0.
        -12    1    3    3    0    0 -0.29867046518E+02  0.32261666803E+02 -0.98111096031E+01  0.45045682193E+02  0.00000000000E+00 0.  1.
         11    1    4    4    0    0  0.11737475449E+02 -0.85544043657E+01  0.12961907758E+01  0.14581710282E+02  0.51100000000E-03 0. -1.
        -11    1    4    4    0    0  0.84497929660E+01 -0.69035099572E+01  0.42154956393E+01  0.11697343914E+02  0.51100000000E-03 0.  1.
        -12    1    4    4    0    0  0.96797781030E+01 -0.16803752480E+02  0.42994231880E+01  0.19863263611E+02  0.00000000000E+00 0.  1.
</event>
<event>
 8    1  0.8828843E-009  0.9118800E+02  0.7816164E-02  0.1184000E+00
        -11   -1    0    0    0    0  0.00000000000E+00  0.00000000000E+00  0.45593999997E+02  0.45594000000E+02  0.51100000000E-03 0. -1.
         11   -1    0    0    0    0 -0.00000000000E+00 -0.00000000000E+00 -0.45593999997E+02  0.45594000000E+02  0.51100000000E-03 0.  1.
         23    2    1    2    0    0 -0.44408920985E-15 -0.71054273576E-14 -0.35527136788E-14  0.91188000000E+02  0.91188000000E+02 0.  0.
    9900012    2    3    3    0    0  0.28134992017E+01 -0.39072661578E+02  0.22237913607E+02  0.46142318052E+02  0.10000002654E+02 0.  0.
        -12    1    3    3    0    0 -0.28134992017E+01  0.39072661578E+02 -0.22237913607E+02  0.45045681948E+02  0.00000000000E+00 0.  1.
         11    1    4    4    0    0  0.97126023423E+00 -0.90335543526E+01  0.13619251696E+01  0.91871263794E+01  0.51100000000E-03 0. -1.
        -11    1    4    4    0    0  0.37025804165E+00 -0.76755323354E+01  0.28586006998E+01  0.81989319958E+01  0.51100000000E-03 0.  1.
         12    1    4    4    0    0  0.14719809258E+01 -0.22363574890E+02  0.18017387738E+02  0.28756259677E+02  0.00000000000E+00 0. -1.
</event>
<event>
 8    1  0.8828843E-009  0.9118800E+02  0.7816164E-02  0.1184000E+00
        -11   -1    0    0    0    0  0.00000000000E+00  0.00000000000E+00  0.45593999997E+02  0.45594000000E+02  0.51100000000E-03 0. -1.
         11   -1    0    0    0    0 -0.00000000000E+00 -0.00000000000E+00 -0.45593999997E+02  0.45594000000E+02  0.51100000000E-03 0.  1.
         23    2    1    2    0    0  0.00000000000E+00  0.00000000000E+00  0.00000000000E+00  0.91188000000E+02  0.91188000000E+02 0.  0.
    9900012    2    3    3    0    0  0.19841979386E+02 -0.30165560266E+02  0.26934147960E+02  0.46142317649E+02  0.99999989798E+01 0.  0.
        -12    1    3    3    0    0 -0.19841979386E+02  0.30165560266E+02 -0.26934147960E+02  0.45045682351E+02  0.00000000000E+00 0.  1.
         11    1    4    4    0    0  0.47521529628E+01 -0.14798967122E+02  0.11857313379E+02  0.19549635968E+02  0.51100000000E-03 0. -1.
        -11    1    4    4    0    0  0.10298658694E+01 -0.12098654570E+01  0.71267990161E-02  0.15888515303E+01  0.51100000000E-03 0.  1.
         12    1    4    4    0    0  0.14059960553E+02 -0.14156727687E+02  0.15069707782E+02  0.25003830151E+02  0.00000000000E+00 0. -1.
</event>
<event>
 8    1  0.8828843E-009  0.9118800E+02  0.7816164E-02  0.1184000E+00
        -11   -1    0    0    0    0  0.00000000000E+00  0.00000000000E+00  0.45593999997E+02  0.45594000000E+02  0.51100000000E-03 0. -1.
         11   -1    0    0    0    0 -0.00000000000E+00 -0.00000000000E+00 -0.45593999997E+02  0.45594000000E+02  0.51100000000E-03 0.  1.
         23    2    1    2    0    0 -0.44408920985E-15  0.00000000000E+00  0.00000000000E+00  0.91188000000E+02  0.91188000000E+02 0.  0.
    9900012    2    3    3    0    0  0.23791318977E+01 -0.30039329845E+02 -0.33482710716E+02  0.46142317376E+02  0.99999964919E+01 0.  0.
         12    1    3    3    0    0 -0.23791318977E+01  0.30039329845E+02  0.33482710716E+02  0.45045682624E+02  0.00000000000E+00 0. -1.
         11    1    4    4    0    0  0.37350686934E+00 -0.48112571919E+01 -0.17305591395E+01  0.51266498169E+01  0.51100000000E-03 0. -1.
        -11    1    4    4    0    0 -0.34014270381E+00 -0.17436279570E+02 -0.18189066429E+02  0.25198842833E+02  0.51100000000E-03 0.  1.
        -12    1    4    4    0    0  0.23457677322E+01 -0.77917930825E+01 -0.13563085148E+02  0.15816824726E+02  0.00000000000E+00 0.  1.
</event>
<event>
 8    1  0.8828843E-009  0.9118800E+02  0.7816164E-02  0.1184000E+00
        -11   -1    0    0    0    0  0.00000000000E+00  0.00000000000E+00  0.45593999997E+02  0.45594000000E+02  0.51100000000E-03 0.  1.
         11   -1    0    0    0    0 -0.00000000000E+00 -0.00000000000E+00 -0.45593999997E+02  0.45594000000E+02  0.51100000000E-03 0. -1.
         23    2    1    2    0    0  0.00000000000E+00 -0.71054273576E-14  0.00000000000E+00  0.91188000000E+02  0.91188000000E+02 0.  0.
    9900012    2    3    3    0    0  0.85520438222E+01 -0.41431519548E+02  0.15472730263E+02  0.46142315996E+02  0.99999839038E+01 0.  0.
        -12    1    3    3    0    0 -0.85520438222E+01  0.41431519548E+02 -0.15472730263E+02  0.45045684004E+02  0.00000000000E+00 0.  1.
         11    1    4    4    0    0  0.25073669644E+01 -0.74057635651E+01  0.46147335030E+01  0.90789861021E+01  0.51100000000E-03 0. -1.
        -11    1    4    4    0    0  0.29292391802E+01 -0.22724113579E+02  0.33849288456E+01  0.23160818717E+02  0.51100000000E-03 0.  1.
        -12    1    4    4    0    0  0.31154376776E+01 -0.11301642404E+02  0.74730679145E+01  0.13902511176E+02  0.00000000000E+00 0.  1.
</event>
<event>
 8    1  0.1652831E-008  0.9118800E+02  0.7816164E-02  0.1184000E+00
        -11   -1    0    0    0    0  0.00000000000E+00  0.00000000000E+00  0.45593999997E+02  0.45594000000E+02  0.51100000000E-03 0. -1.
         11   -1    0    0    0    0 -0.00000000000E+00 -0.00000000000E+00 -0.45593999997E+02  0.45594000000E+02  0.51100000000E-03 0.  1.
         23    2    1    2    0    0  0.22204460493E-15  0.00000000000E+00 -0.71054273576E-14  0.91188000000E+02  0.91188000000E+02 0.  0.
    9900012    2    3    3    0    0 -0.12715170141E+01 -0.58880827835E+01  0.44641093011E+02  0.46142318080E+02  0.10000002909E+02 0.  0.
        -12    1    3    3    0    0  0.12715170141E+01  0.58880827835E+01 -0.44641093011E+02  0.45045681920E+02  0.00000000000E+00 0.  1.
         11    1    4    4    0    0 -0.95533048576E+00 -0.52419364670E+01  0.19018598911E+02  0.19750890083E+02  0.51100000000E-03 0. -1.
        -11    1    4    4    0    0  0.23369045443E-01 -0.18087603378E+01  0.24931417399E+02  0.24996954492E+02  0.51100000000E-03 0.  1.
        -12    1    4    4    0    0 -0.33955557376E+00  0.11626140214E+01  0.69107670072E+00  0.13944735052E+01  0.00000000000E+00 0.  1.
</event>
<event>
 8    1  0.8828843E-009  0.9118800E+02  0.7816164E-02  0.1184000E+00
        -11   -1    0    0    0    0  0.00000000000E+00  0.00000000000E+00  0.45593999997E+02  0.45594000000E+02  0.51100000000E-03 0. -1.
         11   -1    0    0    0    0 -0.00000000000E+00 -0.00000000000E+00 -0.45593999997E+02  0.45594000000E+02  0.51100000000E-03 0.  1.
         23    2    1    2    0    0 -0.44408920985E-15  0.35527136788E-14  0.10658141036E-13  0.91188000000E+02  0.91188000000E+02 0.  0.
    9900012    2    3    3    0    0 -0.23495849516E+01  0.31999182418E+02  0.31617166412E+02  0.46142318334E+02  0.10000005221E+02 0.  0.
        -12    1    3    3    0    0  0.23495849516E+01 -0.31999182418E+02 -0.31617166412E+02  0.45045681666E+02  0.00000000000E+00 0.  1.
         11    1    4    4    0    0  0.12825577747E+01  0.38502336685E+01  0.62031764477E+01  0.74127358006E+01  0.51100000000E-03 0.  1.
        -11    1    4    4    0    0 -0.16753617933E+01  0.23549569442E+02  0.17574246434E+02  0.29432009718E+02  0.51100000000E-03 0. -1.
         12    1    4    4    0    0 -0.19567809330E+01  0.45993793077E+01  0.78397435304E+01  0.92975728154E+01  0.00000000000E+00 0. -1.
</event>
<event>
 8    1  0.8828843E-009  0.9118800E+02  0.7816164E-02  0.1184000E+00
        -11   -1    0    0    0    0  0.00000000000E+00  0.00000000000E+00  0.45593999997E+02  0.45594000000E+02  0.51100000000E-03 0.  1.
         11   -1    0    0    0    0 -0.00000000000E+00 -0.00000000000E+00 -0.45593999997E+02  0.45594000000E+02  0.51100000000E-03 0. -1.
         23    2    1    2    0    0  0.00000000000E+00  0.35527136788E-14 -0.35527136788E-14  0.91188000000E+02  0.91188000000E+02 0.  0.
    9900012    2    3    3    0    0  0.29445927670E+02  0.29894976688E+02  0.16381127682E+02  0.46142316171E+02  0.99999854997E+01 0.  0.
        -12    1    3    3    0    0 -0.29445927670E+02 -0.29894976688E+02 -0.16381127682E+02  0.45045683829E+02  0.00000000000E+00 0.  1.
         11    1    4    4    0    0  0.11459903475E+02  0.93961215591E+01  0.22072991133E+01  0.14982945560E+02  0.51100000000E-03 0. -1.
        -11    1    4    4    0    0  0.22244907601E+01  0.38432316051E+01  0.51951406448E+00  0.44708705457E+01  0.51100000000E-03 0.  1.
        -12    1    4    4    0    0  0.15761533435E+02  0.16655623524E+02  0.13654314504E+02  0.26688500066E+02  0.00000000000E+00 0.  1.
</event>
<event>
 8    1  0.8828843E-009  0.9118800E+02  0.7816164E-02  0.1184000E+00
        -11   -1    0    0    0    0  0.00000000000E+00  0.00000000000E+00  0.45593999997E+02  0.45594000000E+02  0.51100000000E-03 0. -1.
         11   -1    0    0    0    0 -0.00000000000E+00 -0.00000000000E+00 -0.45593999997E+02  0.45594000000E+02  0.51100000000E-03 0.  1.
         23    2    1    2    0    0  0.00000000000E+00  0.44408920985E-15  0.00000000000E+00  0.91188000000E+02  0.91188000000E+02 0.  0.
    9900012    2    3    3    0    0 -0.39387296458E+02 -0.27597047169E+01  0.21682675952E+02  0.46142317312E+02  0.99999959006E+01 0.  0.
        -12    1    3    3    0    0  0.39387296458E+02  0.27597047169E+01 -0.21682675952E+02  0.45045682688E+02  0.00000000000E+00 0.  1.
         11    1    4    4    0    0 -0.19655272862E+02  0.93102032798E+00  0.13505961172E+02  0.23866452137E+02  0.51100000000E-03 0. -1.
        -11    1    4    4    0    0 -0.26916460255E+00 -0.17320696118E+00 -0.56703321567E+00  0.65113528814E+00  0.51100000000E-03 0.  1.
         12    1    4    4    0    0 -0.19462858993E+02 -0.35175180837E+01  0.87437479960E+01  0.21624729887E+02  0.00000000000E+00 0. -1.
</event>
<event>
 8    1  0.8828843E-009  0.9118800E+02  0.7816164E-02  0.1184000E+00
        -11   -1    0    0    0    0  0.00000000000E+00  0.00000000000E+00  0.45593999997E+02  0.45594000000E+02  0.51100000000E-03 0. -1.
         11   -1    0    0    0    0 -0.00000000000E+00 -0.00000000000E+00 -0.45593999997E+02  0.45594000000E+02  0.51100000000E-03 0.  1.
         23    2    1    2    0    0  0.00000000000E+00  0.00000000000E+00  0.00000000000E+00  0.91188000000E+02  0.91188000000E+02 0.  0.
    9900012    2    3    3    0    0  0.10276521115E+02  0.31984432700E+02  0.30008376949E+02  0.46142317537E+02  0.99999979609E+01 0.  0.
        -12    1    3    3    0    0 -0.10276521115E+02 -0.31984432700E+02 -0.30008376949E+02  0.45045682463E+02  0.00000000000E+00 0.  1.
         11    1    4    4    0    0  0.21336980885E+00  0.88674942836E+01  0.10345384032E+02  0.13627360440E+02  0.51100000000E-03 0.  1.
        -11    1    4    4    0    0  0.47020016565E+01  0.16930665214E+02  0.14939003171E+02  0.23063609001E+02  0.51100000000E-03 0. -1.
        -12    1    4    4    0    0  0.53611496494E+01  0.61862732029E+01  0.47239897467E+01  0.94513480959E+01  0.00000000000E+00 0.  1.
</event>
<event>
 8    1  0.8828843E-009  0.9118800E+02  0.7816164E-02  0.1184000E+00
        -11   -1    0    0    0    0  0.00000000000E+00  0.00000000000E+00  0.45593999997E+02  0.45594000000E+02  0.51100000000E-03 0. -1.
         11   -1    0    0    0    0 -0.00000000000E+00 -0.00000000000E+00 -0.45593999997E+02  0.45594000000E+02  0.51100000000E-03 0.  1.
         23    2    1    2    0    0  0.00000000000E+00  0.00000000000E+00  0.00000000000E+00  0.91188000000E+02  0.91188000000E+02 0.  0.
    9900012    2    3    3    0    0 -0.29149127322E+02 -0.32617251436E+02  0.10749731234E+02  0.46142318337E+02  0.10000005250E+02 0.  0.
        -12    1    3    3    0    0  0.29149127322E+02  0.32617251436E+02 -0.10749731234E+02  0.45045681663E+02  0.00000000000E+00 0.  1.
         11    1    4    4    0    0 -0.17447391250E+02 -0.15947810692E+02  0.50372488698E+01  0.24168533338E+02  0.51100000000E-03 0. -1.
        -11    1    4    4    0    0 -0.90538782004E+01 -0.79982990200E+01  0.41499791403E+01  0.12773716171E+02  0.51100000000E-03 0.  1.
         12    1    4    4    0    0 -0.26478578719E+01 -0.86711417242E+01  0.15625032241E+01  0.92000688277E+01  0.00000000000E+00 0. -1.
</event>
<event>
 8    1  0.8828843E-009  0.9118800E+02  0.7816164E-02  0.1184000E+00
        -11   -1    0    0    0    0  0.00000000000E+00  0.00000000000E+00  0.45593999997E+02  0.45594000000E+02  0.51100000000E-03 0. -1.
         11   -1    0    0    0    0 -0.00000000000E+00 -0.00000000000E+00 -0.45593999997E+02  0.45594000000E+02  0.51100000000E-03 0.  1.
         23    2    1    2    0    0  0.17763568394E-14  0.00000000000E+00 -0.71054273576E-14  0.91188000000E+02  0.91188000000E+02 0.  0.
    9900012    2    3    3    0    0  0.15231460501E+02  0.21164248757E+02 -0.36731331201E+02  0.46142317563E+02  0.99999981920E+01 0.  0.
         12    1    3    3    0    0 -0.15231460501E+02 -0.21164248757E+02  0.36731331201E+02  0.45045682437E+02  0.00000000000E+00 0. -1.
         11    1    4    4    0    0  0.10342714135E+02  0.85179935300E+01 -0.19595309175E+02  0.23738241118E+02  0.51100000000E-03 0. -1.
        -11    1    4    4    0    0  0.52748381245E+01  0.12284865435E+02 -0.17287426954E+02  0.21853992014E+02  0.51100000000E-03 0.  1.
         12    1    4    4    0    0 -0.38609175891E+00  0.36138979186E+00  0.15140492857E+00  0.55008443021E+00  0.00000000000E+00 0. -1.
</event>
<event>
 8    1  0.8828843E-009  0.9118800E+02  0.7816164E-02  0.1184000E+00
        -11   -1    0    0    0    0  0.00000000000E+00  0.00000000000E+00  0.45593999997E+02  0.45594000000E+02  0.51100000000E-03 0. -1.
         11   -1    0    0    0    0 -0.00000000000E+00 -0.00000000000E+00 -0.45593999997E+02  0.45594000000E+02  0.51100000000E-03 0.  1.
         23    2    1    2    0    0  0.00000000000E+00  0.00000000000E+00 -0.35527136788E-14  0.91188000000E+02  0.91188000000E+02 0.  0.
    9900012    2    3    3    0    0 -0.36764400200E+02  0.84414441016E+01  0.24621827529E+02  0.46142317727E+02  0.99999996851E+01 0.  0.
        -12    1    3    3    0    0  0.36764400200E+02 -0.84414441016E+01 -0.24621827529E+02  0.45045682273E+02  0.00000000000E+00 0.  1.
         11    1    4    4    0    0 -0.14770837873E+02  0.45521821634E+01  0.81132886315E+01  0.17456387559E+02  0.51100000000E-03 0.  1.
        -11    1    4    4    0    0 -0.18138507576E+02  0.54573708731E+01  0.11442406631E+02  0.22129550915E+02  0.51100000000E-03 0. -1.
         12    1    4    4    0    0 -0.38550547515E+01 -0.15681089349E+01  0.50661322661E+01  0.65563792528E+01  0.00000000000E+00 0. -1.
</event>
<event>
 8    1  0.8828843E-009  0.9118800E+02  0.7816164E-02  0.1184000E+00
        -11   -1    0    0    0    0  0.00000000000E+00  0.00000000000E+00  0.45593999997E+02  0.45594000000E+02  0.51100000000E-03 0. -1.
         11   -1    0    0    0    0 -0.00000000000E+00 -0.00000000000E+00 -0.45593999997E+02  0.45594000000E+02  0.51100000000E-03 0.  1.
         23    2    1    2    0    0 -0.71054273576E-14 -0.17763568394E-14 -0.71054273576E-14  0.91188000000E+02  0.91188000000E+02 0.  0.
    9900012    2    3    3    0    0 -0.33388590266E+02 -0.12022487983E+02 -0.27744828056E+02  0.46142315844E+02  0.99999825154E+01 0.  0.
         12    1    3    3    0    0  0.33388590266E+02  0.12022487983E+02  0.27744828056E+02  0.45045684156E+02  0.00000000000E+00 0. -1.
         11    1    4    4    0    0 -0.49192005619E+01 -0.42735420076E+01 -0.72559349515E+01  0.97524503454E+01  0.51100000000E-03 0. -1.
        -11    1    4    4    0    0 -0.41127080125E+01 -0.33388310168E+01 -0.41719795768E+01  0.67429647489E+01  0.51100000000E-03 0.  1.
        -12    1    4    4    0    0 -0.24356681691E+02 -0.44101149589E+01 -0.16316913528E+02  0.29646900749E+02  0.00000000000E+00 0.  1.
</event>
<event>
 8    1  0.9288178E-009  0.9118800E+02  0.7816164E-02  0.1184000E+00
        -11   -1    0    0    0    0  0.00000000000E+00  0.00000000000E+00  0.45593999997E+02  0.45594000000E+02  0.51100000000E-03 0. -1.
         11   -1    0    0    0    0 -0.00000000000E+00 -0.00000000000E+00 -0.45593999997E+02  0.45594000000E+02  0.51100000000E-03 0.  1.
         23    2    1    2    0    0 -0.88817841970E-15  0.44408920985E-15  0.00000000000E+00  0.91188000000E+02  0.91188000000E+02 0.  0.
    9900012    2    3    3    0    0  0.59947351513E+01 -0.38541152627E+01  0.44478335779E+02  0.46142318657E+02  0.10000008170E+02 0.  0.
        -12    1    3    3    0    0 -0.59947351513E+01  0.38541152627E+01 -0.44478335779E+02  0.45045681343E+02  0.00000000000E+00 0.  1.
         11    1    4    4    0    0 -0.65359433605E+00  0.33868653682E+00  0.80405784955E+00  0.10901391713E+01  0.51100000000E-03 0. -1.
        -11    1    4    4    0    0 -0.49463716516E+00 -0.25786916649E+01  0.45915515581E+01  0.52892969854E+01  0.51100000000E-03 0.  1.
         12    1    4    4    0    0  0.71429666526E+01 -0.16141101346E+01  0.39082726371E+02  0.39762882500E+02  0.00000000000E+00 0. -1.
</event>
<event>
 8    1  0.8828843E-009  0.9118800E+02  0.7816164E-02  0.1184000E+00
        -11   -1    0    0    0    0  0.00000000000E+00  0.00000000000E+00  0.45593999997E+02  0.45594000000E+02  0.51100000000E-03 0. -1.
         11   -1    0    0    0    0 -0.00000000000E+00 -0.00000000000E+00 -0.45593999997E+02  0.45594000000E+02  0.51100000000E-03 0.  1.
         23    2    1    2    0    0  0.00000000000E+00  0.17763568394E-14  0.00000000000E+00  0.91188000000E+02  0.91188000000E+02 0.  0.
    9900012    2    3    3    0    0  0.20509708565E+02  0.13955755172E+02  0.37599232338E+02  0.46142317407E+02  0.99999967748E+01 0.  0.
        -12    1    3    3    0    0 -0.20509708565E+02 -0.13955755172E+02 -0.37599232338E+02  0.45045682593E+02  0.00000000000E+00 0.  1.
         11    1    4    4    0    0  0.50823571259E+01  0.70127440640E+01  0.17704736561E+02  0.19709556824E+02  0.51100000000E-03 0. -1.
        -11    1    4    4    0    0  0.82569041808E+01  0.59047822904E+01  0.11217427328E+02  0.15128568890E+02  0.51100000000E-03 0.  1.
        -12    1    4    4    0    0  0.71704472578E+01  0.10382288172E+01  0.86770684493E+01  0.11304191693E+02  0.00000000000E+00 0.  1.
</event>
<event>
 8    1  0.8828843E-009  0.9118800E+02  0.7816164E-02  0.1184000E+00
        -11   -1    0    0    0    0  0.00000000000E+00  0.00000000000E+00  0.45593999997E+02  0.45594000000E+02  0.51100000000E-03 0. -1.
         11   -1    0    0    0    0 -0.00000000000E+00 -0.00000000000E+00 -0.45593999997E+02  0.45594000000E+02  0.51100000000E-03 0.  1.
         23    2    1    2    0    0  0.00000000000E+00  0.00000000000E+00  0.00000000000E+00  0.91188000000E+02  0.91188000000E+02 0.  0.
    9900012    2    3    3    0    0 -0.27329979014E+02 -0.18563525127E+02 -0.30619947335E+02  0.46142318821E+02  0.10000009663E+02 0.  0.
         12    1    3    3    0    0  0.27329979014E+02  0.18563525127E+02  0.30619947335E+02  0.45045681179E+02  0.00000000000E+00 0. -1.
         11    1    4    4    0    0 -0.84884157375E+01 -0.83340760297E+01 -0.98084378142E+01  0.15418024440E+02  0.51100000000E-03 0.  1.
        -11    1    4    4    0    0 -0.13585282551E+02 -0.70677671360E+01 -0.99868668014E+01  0.18282525620E+02  0.51100000000E-03 0. -1.
         12    1    4    4    0    0 -0.52562807257E+01 -0.31616819615E+01 -0.10824642720E+02  0.12441768761E+02  0.00000000000E+00 0. -1.
</event>
<event>
 8    1  0.8828843E-009  0.9118800E+02  0.7816164E-02  0.1184000E+00
        -11   -1    0    0    0    0  0.00000000000E+00  0.00000000000E+00  0.45593999997E+02  0.45594000000E+02  0.51100000000E-03 0. -1.
         11   -1    0    0    0    0 -0.00000000000E+00 -0.00000000000E+00 -0.45593999997E+02  0.45594000000E+02  0.51100000000E-03 0.  1.
         23    2    1    2    0    0  0.00000000000E+00  0.00000000000E+00  0.00000000000E+00  0.91188000000E+02  0.91188000000E+02 0.  0.
    9900012    2    3    3    0    0 -0.40792728140E+02  0.12549853126E+02 -0.14407221119E+02  0.46142317599E+02  0.99999985254E+01 0.  0.
         12    1    3    3    0    0  0.40792728140E+02 -0.12549853126E+02  0.14407221119E+02  0.45045682401E+02  0.00000000000E+00 0. -1.
         11    1    4    4    0    0 -0.10620281100E+02  0.49818596365E+01 -0.64196662519E+01  0.13372412315E+02  0.51100000000E-03 0. -1.
        -11    1    4    4    0    0 -0.28206251213E+02  0.55806273335E+01 -0.83741742053E+01  0.29947667735E+02  0.51100000000E-03 0.  1.
         12    1    4    4    0    0 -0.19661958274E+01  0.19873661560E+01  0.38661933870E+00  0.28222375490E+01  0.00000000000E+00 0. -1.
</event>
<event>
 8    1  0.8828843E-009  0.9118800E+02  0.7816164E-02  0.1184000E+00
        -11   -1    0    0    0    0  0.00000000000E+00  0.00000000000E+00  0.45593999997E+02  0.45594000000E+02  0.51100000000E-03 0. -1.
         11   -1    0    0    0    0 -0.00000000000E+00 -0.00000000000E+00 -0.45593999997E+02  0.45594000000E+02  0.51100000000E-03 0.  1.
         23    2    1    2    0    0  0.00000000000E+00  0.00000000000E+00  0.00000000000E+00  0.91188000000E+02  0.91188000000E+02 0.  0.
    9900012    2    3    3    0    0  0.26724920239E+01  0.72491370662E+01  0.44378165336E+02  0.46142314741E+02  0.99999724599E+01 0.  0.
        -12    1    3    3    0    0 -0.26724920239E+01 -0.72491370662E+01 -0.44378165336E+02  0.45045685259E+02  0.00000000000E+00 0.  1.
         11    1    4    4    0    0  0.53102484198E+00  0.39135963552E+01  0.12940042279E+02  0.13529335470E+02  0.51100000000E-03 0. -1.
        -11    1    4    4    0    0  0.31768137267E+01  0.20701065015E+01  0.58417990595E+01  0.69644887030E+01  0.51100000000E-03 0.  1.
         12    1    4    4    0    0 -0.10353465448E+01  0.12654342095E+01  0.25596323998E+02  0.25648490568E+02  0.00000000000E+00 0. -1.
</event>
<event>
 8    1  0.8828843E-009  0.9118800E+02  0.7816164E-02  0.1184000E+00
        -11   -1    0    0    0    0  0.00000000000E+00  0.00000000000E+00  0.45593999997E+02  0.45594000000E+02  0.51100000000E-03 0. -1.
         11   -1    0    0    0    0 -0.00000000000E+00 -0.00000000000E+00 -0.45593999997E+02  0.45594000000E+02  0.51100000000E-03 0.  1.
         23    2    1    2    0    0  0.00000000000E+00  0.23245294578E-15  0.00000000000E+00  0.91188000000E+02  0.91188000000E+02 0.  0.
    9900012    2    3    3    0    0  0.28494085265E+02  0.24614664085E-01  0.34888393504E+02  0.46142317607E+02  0.99999985952E+01 0.  0.
        -12    1    3    3    0    0 -0.28494085265E+02 -0.24614664085E-01 -0.34888393504E+02  0.45045682393E+02  0.00000000000E+00 0.  1.
         11    1    4    4    0    0  0.23363625432E+01 -0.97301557810E+00  0.56767505763E+01  0.62153718002E+01  0.51100000000E-03 0. -1.
        -11    1    4    4    0    0  0.15521121780E+01 -0.15318984563E+01  0.42981060699E+01  0.48196972044E+01  0.51100000000E-03 0.  1.
        -12    1    4    4    0    0  0.24605610544E+02  0.25295286985E+01  0.24913536857E+02  0.35107248602E+02  0.00000000000E+00 0.  1.
</event>
<event>
 8    1  0.8828843E-009  0.9118800E+02  0.7816164E-02  0.1184000E+00
        -11   -1    0    0    0    0  0.00000000000E+00  0.00000000000E+00  0.45593999997E+02  0.45594000000E+02  0.51100000000E-03 0.  1.
         11   -1    0    0    0    0 -0.00000000000E+00 -0.00000000000E+00 -0.45593999997E+02  0.45594000000E+02  0.51100000000E-03 0. -1.
         23    2    1    2    0    0  0.00000000000E+00  0.35527136788E-14  0.00000000000E+00  0.91188000000E+02  0.91188000000E+02 0.  0.
    9900012    2    3    3    0    0 -0.37224673410E+02 -0.23927203446E+02 -0.84217607042E+01  0.46142318425E+02  0.10000006050E+02 0.  0.
         12    1    3    3    0    0  0.37224673410E+02  0.23927203446E+02  0.84217607042E+01  0.45045681575E+02  0.00000000000E+00 0. -1.
         11    1    4    4    0    0 -0.21535291529E+02 -0.14731482339E+02 -0.78517367883E+01  0.27247662726E+02  0.51100000000E-03 0. -1.
        -11    1    4    4    0    0 -0.12914399032E+02 -0.87876013289E+01 -0.19969067453E+01  0.15747738767E+02  0.51100000000E-03 0.  1.
         12    1    4    4    0    0 -0.27749828492E+01 -0.40811977777E+00  0.14268828293E+01  0.31469169317E+01  0.00000000000E+00 0. -1.
</event>
<event>
 8    1  0.8828843E-009  0.9118800E+02  0.7816164E-02  0.1184000E+00
        -11   -1    0    0    0    0  0.00000000000E+00  0.00000000000E+00  0.45593999997E+02  0.45594000000E+02  0.51100000000E-03 0. -1.
         11   -1    0    0    0    0 -0.00000000000E+00 -0.00000000000E+00 -0.45593999997E+02  0.45594000000E+02  0.51100000000E-03 0.  1.
         23    2    1    2    0    0  0.00000000000E+00  0.00000000000E+00  0.00000000000E+00  0.91188000000E+02  0.91188000000E+02 0.  0.
    9900012    2    3    3    0    0  0.46429516457E+01  0.10495982006E+02  0.43559045673E+02  0.46142322092E+02  0.10000039494E+02 0.  0.
        -12    1    3    3    0    0 -0.46429516457E+01 -0.10495982006E+02 -0.43559045673E+02  0.45045677908E+02  0.00000000000E+00 0.  1.
         11    1    4    4    0    0  0.65438985580E+01  0.96749408569E+01  0.30851720602E+02  0.32988721607E+02  0.51100000000E-03 0. -1.
        -11    1    4    4    0    0 -0.14256273959E+01 -0.60712838815E+00  0.35505948734E+01  0.38739827784E+01  0.51100000000E-03 0.  1.
         12    1    4    4    0    0 -0.47531951637E+00  0.14281695369E+01  0.91567301974E+01  0.92796177064E+01  0.00000000000E+00 0. -1.
</event>
<event>
 8    1  0.8828843E-009  0.9118800E+02  0.7816164E-02  0.1184000E+00
        -11   -1    0    0    0    0  0.00000000000E+00  0.00000000000E+00  0.45593999997E+02  0.45594000000E+02  0.51100000000E-03 0.  1.
         11   -1    0    0    0    0 -0.00000000000E+00 -0.00000000000E+00 -0.45593999997E+02  0.45594000000E+02  0.51100000000E-03 0. -1.
         23    2    1    2    0    0  0.00000000000E+00  0.00000000000E+00  0.00000000000E+00  0.91188000000E+02  0.91188000000E+02 0.  0.
    9900012    2    3    3    0    0 -0.40383944068E+02 -0.98101221973E+01 -0.17378494635E+02  0.46142317501E+02  0.99999976240E+01 0.  0.
         12    1    3    3    0    0  0.40383944068E+02  0.98101221973E+01  0.17378494635E+02  0.45045682499E+02  0.00000000000E+00 0. -1.
         11    1    4    4    0    0 -0.16908352671E+02 -0.25513248448E+01 -0.11620138202E+02  0.20674362399E+02  0.51100000000E-03 0. -1.
        -11    1    4    4    0    0 -0.53700472809E+01 -0.29670456256E+01 -0.22377793049E+01  0.65305760865E+01  0.51100000000E-03 0.  1.
         12    1    4    4    0    0 -0.18105544116E+02 -0.42917517269E+01 -0.35205771284E+01  0.18937379015E+02  0.00000000000E+00 0. -1.
</event>
<event>
 8    1  0.8828843E-009  0.9118800E+02  0.7816164E-02  0.1184000E+00
        -11   -1    0    0    0    0  0.00000000000E+00  0.00000000000E+00  0.45593999997E+02  0.45594000000E+02  0.51100000000E-03 0. -1.
         11   -1    0    0    0    0 -0.00000000000E+00 -0.00000000000E+00 -0.45593999997E+02  0.45594000000E+02  0.51100000000E-03 0.  1.
         23    2    1    2    0    0  0.00000000000E+00  0.00000000000E+00  0.00000000000E+00  0.91188000000E+02  0.91188000000E+02 0.  0.
    9900012    2    3    3    0    0 -0.97891622812E+01 -0.19136289705E+02 -0.39586463878E+02  0.46142318696E+02  0.10000008522E+02 0.  0.
         12    1    3    3    0    0  0.97891622812E+01  0.19136289705E+02  0.39586463878E+02  0.45045681304E+02  0.00000000000E+00 0. -1.
         11    1    4    4    0    0  0.79935985319E+00 -0.27985751349E+01 -0.99294281684E+01  0.10347199765E+02  0.51100000000E-03 0. -1.
        -11    1    4    4    0    0 -0.45181134337E+00  0.27554405694E-01 -0.22988169905E+01  0.23429580773E+01  0.51100000000E-03 0.  1.
        -12    1    4    4    0    0 -0.10136710791E+02 -0.16365268975E+02 -0.27358218719E+02  0.33452160854E+02  0.00000000000E+00 0.  1.
</event>
<event>
 8    1  0.8828843E-009  0.9118800E+02  0.7816164E-02  0.1184000E+00
        -11   -1    0    0    0    0  0.00000000000E+00  0.00000000000E+00  0.45593999997E+02  0.45594000000E+02  0.51100000000E-03 0. -1.
         11   -1    0    0    0    0 -0.00000000000E+00 -0.00000000000E+00 -0.45593999997E+02  0.45594000000E+02  0.51100000000E-03 0.  1.
         23    2    1    2    0    0  0.35527136788E-14  0.00000000000E+00 -0.71054273576E-14  0.91188000000E+02  0.91188000000E+02 0.  0.
    9900012    2    3    3    0    0  0.24055883945E+02 -0.18984342937E+02 -0.33015491993E+02  0.46142317181E+02  0.99999947095E+01 0.  0.
         12    1    3    3    0    0 -0.24055883945E+02  0.18984342937E+02  0.33015491993E+02  0.45045682819E+02  0.00000000000E+00 0. -1.
         11    1    4    4    0    0  0.36425775434E+01 -0.39708797164E+00 -0.61967989528E+01  0.71990532391E+01  0.51100000000E-03 0. -1.
        -11    1    4    4    0    0  0.17793813919E+02 -0.17099879057E+02 -0.25943705268E+02  0.35806445242E+02  0.51100000000E-03 0.  1.
        -12    1    4    4    0    0  0.26194924824E+01 -0.14873759080E+01 -0.87498777228E+00  0.31368187003E+01  0.00000000000E+00 0.  1.
</event>
<event>
 8    1  0.8828843E-009  0.9118800E+02  0.7816164E-02  0.1184000E+00
        -11   -1    0    0    0    0  0.00000000000E+00  0.00000000000E+00  0.45593999997E+02  0.45594000000E+02  0.51100000000E-03 0. -1.
         11   -1    0    0    0    0 -0.00000000000E+00 -0.00000000000E+00 -0.45593999997E+02  0.45594000000E+02  0.51100000000E-03 0.  1.
         23    2    1    2    0    0  0.00000000000E+00  0.00000000000E+00  0.00000000000E+00  0.91188000000E+02  0.91188000000E+02 0.  0.
    9900012    2    3    3    0    0 -0.15431196704E+02  0.22442300296E+02 -0.35879448739E+02  0.46142317453E+02  0.99999971908E+01 0.  0.
         12    1    3    3    0    0  0.15431196704E+02 -0.22442300296E+02  0.35879448739E+02  0.45045682547E+02  0.00000000000E+00 0. -1.
         11    1    4    4    0    0  0.86590457690E+00  0.91271866221E+00 -0.11163643404E+01  0.16819975310E+01  0.51100000000E-03 0. -1.
        -11    1    4    4    0    0 -0.48527420440E+01  0.11519273534E+02 -0.15008989687E+02  0.19532345987E+02  0.51100000000E-03 0.  1.
        -12    1    4    4    0    0 -0.11444359237E+02  0.10010308100E+02 -0.19754094712E+02  0.24927973935E+02  0.00000000000E+00 0.  1.
</event>
<event>
 8    1  0.8828843E-009  0.9118800E+02  0.7816164E-02  0.1184000E+00
        -11   -1    0    0    0    0  0.00000000000E+00  0.00000000000E+00  0.45593999997E+02  0.45594000000E+02  0.51100000000E-03 0. -1.
         11   -1    0    0    0    0 -0.00000000000E+00 -0.00000000000E+00 -0.45593999997E+02  0.45594000000E+02  0.51100000000E-03 0.  1.
         23    2    1    2    0    0  0.00000000000E+00  0.00000000000E+00  0.00000000000E+00  0.91188000000E+02  0.91188000000E+02 0.  0.
    9900012    2    3    3    0    0  0.54090212001E+01  0.14457258687E+02 -0.42318360499E+02  0.46142317916E+02  0.10000001409E+02 0.  0.
         12    1    3    3    0    0 -0.54090212001E+01 -0.14457258687E+02  0.42318360499E+02  0.45045682084E+02  0.00000000000E+00 0. -1.
         11    1    4    4    0    0  0.52440176975E+01  0.51340376236E+01 -0.26507628463E+02  0.27504771057E+02  0.51100000000E-03 0. -1.
        -11    1    4    4    0    0 -0.52875579772E+00  0.71912542413E+01 -0.94067919420E+01  0.11852487298E+02  0.51100000000E-03 0.  1.
        -12    1    4    4    0    0  0.69375930032E+00  0.21319668222E+01 -0.64039400948E+01  0.67850595602E+01  0.00000000000E+00 0.  1.
</event>
<event>
 8    1  0.8828843E-009  0.9118800E+02  0.7816164E-02  0.1184000E+00
        -11   -1    0    0    0    0  0.00000000000E+00  0.00000000000E+00  0.45593999997E+02  0.45594000000E+02  0.51100000000E-03 0.  1.
         11   -1    0    0    0    0 -0.00000000000E+00 -0.00000000000E+00 -0.45593999997E+02  0.45594000000E+02  0.51100000000E-03 0. -1.
         23    2    1    2    0    0 -0.13877787808E-15 -0.71054273576E-14  0.00000000000E+00  0.91188000000E+02  0.91188000000E+02 0.  0.
    9900012    2    3    3    0    0  0.18059301915E+00  0.43566633945E+02 -0.11446798169E+02  0.46142318792E+02  0.10000009401E+02 0.  0.
         12    1    3    3    0    0 -0.18059301915E+00 -0.43566633945E+02  0.11446798169E+02  0.45045681208E+02  0.00000000000E+00 0. -1.
         11    1    4    4    0    0 -0.33012494046E-01  0.27123478315E+02 -0.36172871418E+01  0.27363642525E+02  0.51100000000E-03 0.  1.
        -11    1    4    4    0    0  0.12374567924E+01  0.14450152929E+02 -0.54052586081E+01  0.15477565696E+02  0.51100000000E-03 0. -1.
        -12    1    4    4    0    0 -0.10238512792E+01  0.19930027018E+01 -0.24242524195E+01  0.33011105714E+01  0.00000000000E+00 0.  1.
</event>
<event>
 8    1  0.8828843E-009  0.9118800E+02  0.7816164E-02  0.1184000E+00
        -11   -1    0    0    0    0  0.00000000000E+00  0.00000000000E+00  0.45593999997E+02  0.45594000000E+02  0.51100000000E-03 0. -1.
         11   -1    0    0    0    0 -0.00000000000E+00 -0.00000000000E+00 -0.45593999997E+02  0.45594000000E+02  0.51100000000E-03 0.  1.
         23    2    1    2    0    0  0.00000000000E+00  0.00000000000E+00  0.17763568394E-14  0.91188000000E+02  0.91188000000E+02 0.  0.
    9900012    2    3    3    0    0 -0.52292048664E+01 -0.42874893107E+02 -0.12787199329E+02  0.46142317531E+02  0.99999978994E+01 0.  0.
         12    1    3    3    0    0  0.52292048664E+01  0.42874893107E+02  0.12787199329E+02  0.45045682469E+02  0.00000000000E+00 0. -1.
         11    1    4    4    0    0 -0.38572139911E+01 -0.75577857854E+01 -0.81772286087E+00  0.85244880603E+01  0.51100000000E-03 0. -1.
        -11    1    4    4    0    0  0.74440752902E+00 -0.18948276962E+02 -0.44364400629E+01  0.19474941414E+02  0.51100000000E-03 0.  1.
        -12    1    4    4    0    0 -0.21163984043E+01 -0.16368830359E+02 -0.75330364056E+01  0.18142888056E+02  0.00000000000E+00 0.  1.
</event>
<event>
 8    1  0.8828843E-009  0.9118800E+02  0.7816164E-02  0.1184000E+00
        -11   -1    0    0    0    0  0.00000000000E+00  0.00000000000E+00  0.45593999997E+02  0.45594000000E+02  0.51100000000E-03 0. -1.
         11   -1    0    0    0    0 -0.00000000000E+00 -0.00000000000E+00 -0.45593999997E+02  0.45594000000E+02  0.51100000000E-03 0.  1.
         23    2    1    2    0    0  0.35527136788E-14  0.35527136788E-14  0.00000000000E+00  0.91188000000E+02  0.91188000000E+02 0.  0.
    9900012    2    3    3    0    0  0.18958700436E+02 -0.24977719743E+02  0.32338748657E+02  0.46142317960E+02  0.10000001810E+02 0.  0.
        -12    1    3    3    0    0 -0.18958700436E+02  0.24977719743E+02 -0.32338748657E+02  0.45045682040E+02  0.00000000000E+00 0.  1.
         11    1    4    4    0    0  0.24561688746E+01 -0.40018731573E+01  0.34264722005E+01  0.58127847293E+01  0.51100000000E-03 0. -1.
        -11    1    4    4    0    0  0.90875815242E+01 -0.15803827913E+02  0.14399558738E+02  0.23231280782E+02  0.51100000000E-03 0.  1.
         12    1    4    4    0    0  0.74149500373E+01 -0.51720186728E+01  0.14512717719E+02  0.17098252448E+02  0.00000000000E+00 0. -1.
</event>
<event>
 8    1  0.8828843E-009  0.9118800E+02  0.7816164E-02  0.1184000E+00
        -11   -1    0    0    0    0  0.00000000000E+00  0.00000000000E+00  0.45593999997E+02  0.45594000000E+02  0.51100000000E-03 0. -1.
         11   -1    0    0    0    0 -0.00000000000E+00 -0.00000000000E+00 -0.45593999997E+02  0.45594000000E+02  0.51100000000E-03 0.  1.
         23    2    1    2    0    0  0.71054273576E-14  0.00000000000E+00  0.00000000000E+00  0.91188000000E+02  0.91188000000E+02 0.  0.
    9900012    2    3    3    0    0 -0.40098434548E+02 -0.10716650579E+02 -0.17503783587E+02  0.46142317713E+02  0.99999995615E+01 0.  0.
         12    1    3    3    0    0  0.40098434548E+02  0.10716650579E+02  0.17503783587E+02  0.45045682287E+02  0.00000000000E+00 0. -1.
         11    1    4    4    0    0 -0.95425203483E+01 -0.60427667064E+01 -0.68668827371E+01  0.13218502292E+02  0.51100000000E-03 0. -1.
        -11    1    4    4    0    0 -0.61341930464E+01  0.24817781850E+00 -0.32087318380E+01  0.69271839032E+01  0.51100000000E-03 0.  1.
        -12    1    4    4    0    0 -0.24421721153E+02 -0.49220616908E+01 -0.74281690119E+01  0.25996631517E+02  0.00000000000E+00 0.  1.
</event>
<event>
 8    1  0.8828843E-009  0.9118800E+02  0.7816164E-02  0.1184000E+00
        -11   -1    0    0    0    0  0.00000000000E+00  0.00000000000E+00  0.45593999997E+02  0.45594000000E+02  0.51100000000E-03 0. -1.
         11   -1    0    0    0    0 -0.00000000000E+00 -0.00000000000E+00 -0.45593999997E+02  0.45594000000E+02  0.51100000000E-03 0.  1.
         23    2    1    2    0    0  0.17763568394E-14  0.00000000000E+00  0.00000000000E+00  0.91188000000E+02  0.91188000000E+02 0.  0.
    9900012    2    3    3    0    0  0.95334404225E+01  0.40561729501E+02 -0.17116455602E+02  0.46142318311E+02  0.10000005016E+02 0.  0.
         12    1    3    3    0    0 -0.95334404225E+01 -0.40561729501E+02  0.17116455602E+02  0.45045681689E+02  0.00000000000E+00 0. -1.
         11    1    4    4    0    0  0.11291524911E+01  0.19651072604E+01  0.24827231245E+00  0.22799717751E+01  0.51100000000E-03 0. -1.
        -11    1    4    4    0    0  0.66857917341E+01  0.18886916405E+02 -0.54350155816E+01  0.20759451270E+02  0.51100000000E-03 0.  1.
         12    1    4    4    0    0  0.17184961973E+01  0.19709705836E+02 -0.11929712333E+02  0.23102895266E+02  0.00000000000E+00 0. -1.
</event>
<event>
 8    1  0.8828843E-009  0.9118800E+02  0.7816164E-02  0.1184000E+00
        -11   -1    0    0    0    0  0.00000000000E+00  0.00000000000E+00  0.45593999997E+02  0.45594000000E+02  0.51100000000E-03 0. -1.
         11   -1    0    0    0    0 -0.00000000000E+00 -0.00000000000E+00 -0.45593999997E+02  0.45594000000E+02  0.51100000000E-03 0.  1.
         23    2    1    2    0    0  0.71054273576E-14  0.00000000000E+00  0.35527136788E-14  0.91188000000E+02  0.91188000000E+02 0.  0.
    9900012    2    3    3    0    0 -0.33169417564E+02  0.40993266933E+01 -0.30200973844E+02  0.46142316944E+02  0.99999925497E+01 0.  0.
         12    1    3    3    0    0  0.33169417564E+02 -0.40993266933E+01  0.30200973844E+02  0.45045683056E+02  0.00000000000E+00 0. -1.
         11    1    4    4    0    0 -0.17741612795E+02 -0.11867484424E+01 -0.11333847207E+02  0.21086234591E+02  0.51100000000E-03 0. -1.
        -11    1    4    4    0    0 -0.64252488026E+01  0.27246288067E+01 -0.97442807456E+01  0.11985759543E+02  0.51100000000E-03 0.  1.
         12    1    4    4    0    0 -0.90025559658E+01  0.25614463290E+01 -0.91228458908E+01  0.13070322810E+02  0.00000000000E+00 0. -1.
</event>
<event>
 8    1  0.8828843E-009  0.9118800E+02  0.7816164E-02  0.1184000E+00
        -11   -1    0    0    0    0  0.00000000000E+00  0.00000000000E+00  0.45593999997E+02  0.45594000000E+02  0.51100000000E-03 0. -1.
         11   -1    0    0    0    0 -0.00000000000E+00 -0.00000000000E+00 -0.45593999997E+02  0.45594000000E+02  0.51100000000E-03 0.  1.
         23    2    1    2    0    0 -0.35527136788E-14  0.35527136788E-14  0.35527136788E-14  0.91188000000E+02  0.91188000000E+02 0.  0.
    9900012    2    3    3    0    0  0.30681629542E+02 -0.19840106360E+02 -0.26346181587E+02  0.46142317677E+02  0.99999992329E+01 0.  0.
         12    1    3    3    0    0 -0.30681629542E+02  0.19840106360E+02  0.26346181587E+02  0.45045682323E+02  0.00000000000E+00 0. -1.
         11    1    4    4    0    0  0.21501847334E+02 -0.17259952483E+02 -0.17099477689E+02  0.32444221920E+02  0.51100000000E-03 0.  1.
        -11    1    4    4    0    0  0.59137866989E+01 -0.32389277575E+01 -0.56676855750E+01  0.88083021166E+01  0.51100000000E-03 0. -1.
        -12    1    4    4    0    0  0.32659955092E+01  0.65877388043E+00 -0.35790183228E+01  0.48897936405E+01  0.00000000000E+00 0.  1.
</event>
<event>
 8    1  0.8828843E-009  0.9118800E+02  0.7816164E-02  0.1184000E+00
        -11   -1    0    0    0    0  0.00000000000E+00  0.00000000000E+00  0.45593999997E+02  0.45594000000E+02  0.51100000000E-03 0. -1.
         11   -1    0    0    0    0 -0.00000000000E+00 -0.00000000000E+00 -0.45593999997E+02  0.45594000000E+02  0.51100000000E-03 0.  1.
         23    2    1    2    0    0  0.00000000000E+00 -0.88817841970E-15  0.00000000000E+00  0.91188000000E+02  0.91188000000E+02 0.  0.
    9900012    2    3    3    0    0  0.29338723471E+02 -0.70109424951E+01 -0.33454438244E+02  0.46142318211E+02  0.10000004105E+02 0.  0.
         12    1    3    3    0    0 -0.29338723471E+02  0.70109424951E+01  0.33454438244E+02  0.45045681789E+02  0.00000000000E+00 0. -1.
         11    1    4    4    0    0  0.72619492125E+01  0.14105946380E+01 -0.88252687271E+01  0.11515687212E+02  0.51100000000E-03 0. -1.
        -11    1    4    4    0    0  0.20278696881E+01  0.75678523003E+00 -0.12946838706E+01  0.25221391600E+01  0.51100000000E-03 0.  1.
        -12    1    4    4    0    0  0.20048904570E+02 -0.91783223631E+01 -0.23334485647E+02  0.32104491839E+02  0.00000000000E+00 0.  1.
</event>
<event>
 8    1  0.8828843E-009  0.9118800E+02  0.7816164E-02  0.1184000E+00
        -11   -1    0    0    0    0  0.00000000000E+00  0.00000000000E+00  0.45593999997E+02  0.45594000000E+02  0.51100000000E-03 0. -1.
         11   -1    0    0    0    0 -0.00000000000E+00 -0.00000000000E+00 -0.45593999997E+02  0.45594000000E+02  0.51100000000E-03 0.  1.
         23    2    1    2    0    0  0.22204460493E-15  0.17763568394E-14  0.71054273576E-14  0.91188000000E+02  0.91188000000E+02 0.  0.
    9900012    2    3    3    0    0 -0.14883163557E+01 -0.91788961254E+01 -0.44075460854E+02  0.46142317974E+02  0.10000001941E+02 0.  0.
         12    1    3    3    0    0  0.14883163557E+01  0.91788961254E+01  0.44075460854E+02  0.45045682026E+02  0.00000000000E+00 0. -1.
         11    1    4    4    0    0 -0.22106656848E+01  0.77972144261E+00 -0.10494659544E+02  0.10753273339E+02  0.51100000000E-03 0. -1.
        -11    1    4    4    0    0 -0.14304595054E+01 -0.73601978950E+00 -0.34862921722E+01  0.38395537368E+01  0.51100000000E-03 0.  1.
        -12    1    4    4    0    0  0.21528088345E+01 -0.92225977785E+01 -0.30094509138E+02  0.31549490898E+02  0.00000000000E+00 0.  1.
</event>
<event>
 8    1  0.8828843E-009  0.9118800E+02  0.7816164E-02  0.1184000E+00
        -11   -1    0    0    0    0  0.00000000000E+00  0.00000000000E+00  0.45593999997E+02  0.45594000000E+02  0.51100000000E-03 0. -1.
         11   -1    0    0    0    0 -0.00000000000E+00 -0.00000000000E+00 -0.45593999997E+02  0.45594000000E+02  0.51100000000E-03 0.  1.
         23    2    1    2    0    0  0.00000000000E+00 -0.44408920985E-15  0.00000000000E+00  0.91188000000E+02  0.91188000000E+02 0.  0.
    9900012    2    3    3    0    0 -0.17572558628E+02 -0.12280013129E+01  0.41458543054E+02  0.46142316565E+02  0.99999890913E+01 0.  0.
        -12    1    3    3    0    0  0.17572558628E+02  0.12280013129E+01 -0.41458543054E+02  0.45045683435E+02  0.00000000000E+00 0.  1.
         11    1    4    4    0    0 -0.13321814592E+02  0.28932550632E+01  0.26724835208E+02  0.30000974752E+02  0.51100000000E-03 0. -1.
        -11    1    4    4    0    0 -0.56316999717E+00 -0.14656616632E+01  0.15915245534E+01  0.22356822721E+01  0.51100000000E-03 0.  1.
         12    1    4    4    0    0 -0.36875740385E+01 -0.26555947129E+01  0.13142183293E+02  0.13905659541E+02  0.00000000000E+00 0. -1.
</event>
<event>
 8    1  0.8828843E-009  0.9118800E+02  0.7816164E-02  0.1184000E+00
        -11   -1    0    0    0    0  0.00000000000E+00  0.00000000000E+00  0.45593999997E+02  0.45594000000E+02  0.51100000000E-03 0. -1.
         11   -1    0    0    0    0 -0.00000000000E+00 -0.00000000000E+00 -0.45593999997E+02  0.45594000000E+02  0.51100000000E-03 0.  1.
         23    2    1    2    0    0 -0.35527136788E-14  0.00000000000E+00  0.00000000000E+00  0.91188000000E+02  0.91188000000E+02 0.  0.
    9900012    2    3    3    0    0 -0.28993392158E+02 -0.21703604554E+02  0.26785262381E+02  0.46142317407E+02  0.99999967715E+01 0.  0.
        -12    1    3    3    0    0  0.28993392158E+02  0.21703604554E+02 -0.26785262381E+02  0.45045682593E+02  0.00000000000E+00 0.  1.
         11    1    4    4    0    0 -0.20841028479E+02 -0.14867252602E+02  0.13244160483E+02  0.28823453213E+02  0.51100000000E-03 0. -1.
        -11    1    4    4    0    0 -0.80170287207E+01 -0.61689366150E+01  0.12644225206E+02  0.16192744047E+02  0.51100000000E-03 0.  1.
         12    1    4    4    0    0 -0.13533495849E+00 -0.66741533683E+00  0.89687669261E+00  0.11261201466E+01  0.00000000000E+00 0. -1.
</event>
<event>
 8    1  0.8828843E-009  0.9118800E+02  0.7816164E-02  0.1184000E+00
        -11   -1    0    0    0    0  0.00000000000E+00  0.00000000000E+00  0.45593999997E+02  0.45594000000E+02  0.51100000000E-03 0. -1.
         11   -1    0    0    0    0 -0.00000000000E+00 -0.00000000000E+00 -0.45593999997E+02  0.45594000000E+02  0.51100000000E-03 0.  1.
         23    2    1    2    0    0 -0.35527136788E-14  0.00000000000E+00  0.00000000000E+00  0.91188000000E+02  0.91188000000E+02 0.  0.
    9900012    2    3    3    0    0  0.29351434397E+02  0.46019247592E+01 -0.33858955194E+02  0.46142320301E+02  0.10000023165E+02 0.  0.
         12    1    3    3    0    0 -0.29351434397E+02 -0.46019247592E+01  0.33858955194E+02  0.45045679699E+02  0.00000000000E+00 0. -1.
         11    1    4    4    0    0  0.14896393188E+02  0.48072907748E+01 -0.17985962251E+02  0.23843393487E+02  0.51100000000E-03 0. -1.
        -11    1    4    4    0    0  0.66537656226E+01  0.26411749033E+01 -0.91283901583E+01  0.11600685711E+02  0.51100000000E-03 0.  1.
         12    1    4    4    0    0  0.78012755866E+01 -0.28465409189E+01 -0.67446027847E+01  0.10698241103E+02  0.00000000000E+00 0. -1.
</event>
<event>
 8    1  0.8828843E-009  0.9118800E+02  0.7816164E-02  0.1184000E+00
        -11   -1    0    0    0    0  0.00000000000E+00  0.00000000000E+00  0.45593999997E+02  0.45594000000E+02  0.51100000000E-03 0. -1.
         11   -1    0    0    0    0 -0.00000000000E+00 -0.00000000000E+00 -0.45593999997E+02  0.45594000000E+02  0.51100000000E-03 0.  1.
         23    2    1    2    0    0  0.00000000000E+00 -0.17763568394E-14  0.00000000000E+00  0.91188000000E+02  0.91188000000E+02 0.  0.
    9900012    2    3    3    0    0  0.42838908241E+02  0.12783912730E+02 -0.55237425617E+01  0.46142331886E+02  0.10000128801E+02 0.  0.
        -12    1    3    3    0    0 -0.42838908241E+02 -0.12783912730E+02  0.55237425617E+01  0.45045668114E+02  0.00000000000E+00 0.  1.
         11    1    4    4    0    0  0.16045675667E+02  0.51484515145E+01 -0.41779150303E+01  0.17361602313E+02  0.51100000000E-03 0. -1.
        -11    1    4    4    0    0  0.77707552188E+01  0.51923957102E+01 -0.21317118618E+01  0.95859170456E+01  0.51100000000E-03 0.  1.
         12    1    4    4    0    0  0.19022477355E+02  0.24430655049E+01  0.78588433035E+00  0.19194812527E+02  0.00000000000E+00 0. -1.
</event>
<event>
 8    1  0.8828843E-009  0.9118800E+02  0.7816164E-02  0.1184000E+00
        -11   -1    0    0    0    0  0.00000000000E+00  0.00000000000E+00  0.45593999997E+02  0.45594000000E+02  0.51100000000E-03 0. -1.
         11   -1    0    0    0    0 -0.00000000000E+00 -0.00000000000E+00 -0.45593999997E+02  0.45594000000E+02  0.51100000000E-03 0.  1.
         23    2    1    2    0    0  0.00000000000E+00  0.00000000000E+00  0.00000000000E+00  0.91188000000E+02  0.91188000000E+02 0.  0.
    9900012    2    3    3    0    0  0.46349894723E+01  0.14158621265E+02  0.42510749981E+02  0.46142317105E+02  0.99999940181E+01 0.  0.
        -12    1    3    3    0    0 -0.46349894723E+01 -0.14158621265E+02 -0.42510749981E+02  0.45045682895E+02  0.00000000000E+00 0.  1.
         11    1    4    4    0    0  0.37343605311E+01  0.10605234762E+02  0.18624964116E+02  0.21755591040E+02  0.51100000000E-03 0. -1.
        -11    1    4    4    0    0  0.14473364628E+01  0.77901950906E+00  0.44028323821E+01  0.46996369517E+01  0.51100000000E-03 0.  1.
        -12    1    4    4    0    0 -0.54670752161E+00  0.27743669940E+01  0.19482953483E+02  0.19687089113E+02  0.00000000000E+00 0.  1.
</event>
<event>
 8    1  0.8828843E-009  0.9118800E+02  0.7816164E-02  0.1184000E+00
        -11   -1    0    0    0    0  0.00000000000E+00  0.00000000000E+00  0.45593999997E+02  0.45594000000E+02  0.51100000000E-03 0. -1.
         11   -1    0    0    0    0 -0.00000000000E+00 -0.00000000000E+00 -0.45593999997E+02  0.45594000000E+02  0.51100000000E-03 0.  1.
         23    2    1    2    0    0  0.00000000000E+00  0.00000000000E+00  0.00000000000E+00  0.91188000000E+02  0.91188000000E+02 0.  0.
    9900012    2    3    3    0    0 -0.25399543949E+02  0.23183159750E+02 -0.29094976821E+02  0.46142318686E+02  0.10000008431E+02 0.  0.
         12    1    3    3    0    0  0.25399543949E+02 -0.23183159750E+02  0.29094976821E+02  0.45045681314E+02  0.00000000000E+00 0. -1.
         11    1    4    4    0    0 -0.95319818012E+01  0.69935998100E+01 -0.10412432105E+02  0.15753979115E+02  0.51100000000E-03 0.  1.
        -11    1    4    4    0    0 -0.10128774710E+02  0.14652297720E+02 -0.12169494605E+02  0.21572633237E+02  0.51100000000E-03 0. -1.
         12    1    4    4    0    0 -0.57387874382E+01  0.15372622203E+01 -0.65130501115E+01  0.88157063330E+01  0.00000000000E+00 0. -1.
</event>
<event>
 8    1  0.8828843E-009  0.9118800E+02  0.7816164E-02  0.1184000E+00
        -11   -1    0    0    0    0  0.00000000000E+00  0.00000000000E+00  0.45593999997E+02  0.45594000000E+02  0.51100000000E-03 0. -1.
         11   -1    0    0    0    0 -0.00000000000E+00 -0.00000000000E+00 -0.45593999997E+02  0.45594000000E+02  0.51100000000E-03 0.  1.
         23    2    1    2    0    0  0.35527136788E-14  0.00000000000E+00  0.35527136788E-14  0.91188000000E+02  0.91188000000E+02 0.  0.
    9900012    2    3    3    0    0 -0.17775912687E+02 -0.26856841549E+02 -0.31493498448E+02  0.46142318139E+02  0.10000003446E+02 0.  0.
         12    1    3    3    0    0  0.17775912687E+02  0.26856841549E+02  0.31493498448E+02  0.45045681861E+02  0.00000000000E+00 0. -1.
         11    1    4    4    0    0 -0.39451048142E+01 -0.33948807110E+01 -0.41807671629E+01  0.66759180169E+01  0.51100000000E-03 0. -1.
        -11    1    4    4    0    0 -0.14178067391E+02 -0.23059529755E+02 -0.27758754073E+02  0.38772515206E+02  0.51100000000E-03 0.  1.
         12    1    4    4    0    0  0.34725951832E+00 -0.40243108283E+00  0.44602278781E+00  0.69388491606E+00  0.00000000000E+00 0. -1.
</event>
<event>
 8    1  0.8828843E-009  0.9118800E+02  0.7816164E-02  0.1184000E+00
        -11   -1    0    0    0    0  0.00000000000E+00  0.00000000000E+00  0.45593999997E+02  0.45594000000E+02  0.51100000000E-03 0. -1.
         11   -1    0    0    0    0 -0.00000000000E+00 -0.00000000000E+00 -0.45593999997E+02  0.45594000000E+02  0.51100000000E-03 0.  1.
         23    2    1    2    0    0  0.00000000000E+00  0.00000000000E+00 -0.17763568394E-14  0.91188000000E+02  0.91188000000E+02 0.  0.
    9900012    2    3    3    0    0 -0.41372362583E+02 -0.87450912267E+01 -0.15523028351E+02  0.46142318570E+02  0.10000007379E+02 0.  0.
         12    1    3    3    0    0  0.41372362583E+02  0.87450912267E+01  0.15523028351E+02  0.45045681430E+02  0.00000000000E+00 0. -1.
         11    1    4    4    0    0 -0.30643803055E+01 -0.21623966806E+01 -0.24497463007E+01  0.44796923175E+01  0.51100000000E-03 0. -1.
        -11    1    4    4    0    0 -0.22005367275E+02 -0.61885930502E+01 -0.47237170188E+01  0.23341987396E+02  0.51100000000E-03 0.  1.
        -12    1    4    4    0    0 -0.16302615002E+02 -0.39410149599E+00 -0.83495650313E+01  0.18320638857E+02  0.00000000000E+00 0.  1.
</event>
<event>
 8    1  0.8828843E-009  0.9118800E+02  0.7816164E-02  0.1184000E+00
        -11   -1    0    0    0    0  0.00000000000E+00  0.00000000000E+00  0.45593999997E+02  0.45594000000E+02  0.51100000000E-03 0.  1.
         11   -1    0    0    0    0 -0.00000000000E+00 -0.00000000000E+00 -0.45593999997E+02  0.45594000000E+02  0.51100000000E-03 0. -1.
         23    2    1    2    0    0  0.00000000000E+00  0.00000000000E+00  0.00000000000E+00  0.91188000000E+02  0.91188000000E+02 0.  0.
    9900012    2    3    3    0    0 -0.22636778809E+02 -0.29020182213E+02 -0.25971497912E+02  0.46142318361E+02  0.10000005472E+02 0.  0.
         12    1    3    3    0    0  0.22636778809E+02  0.29020182213E+02  0.25971497912E+02  0.45045681639E+02  0.00000000000E+00 0. -1.
         11    1    4    4    0    0 -0.12903001419E+02 -0.17090413967E+02 -0.13476506819E+02  0.25301895809E+02  0.51100000000E-03 0. -1.
        -11    1    4    4    0    0 -0.35415990726E+01 -0.62226678701E+01 -0.20981379476E+01  0.74610121647E+01  0.51100000000E-03 0.  1.
         12    1    4    4    0    0 -0.61921783173E+01 -0.57071003752E+01 -0.10396853145E+02  0.13379410388E+02  0.00000000000E+00 0. -1.
</event>
<event>
 8    1  0.8828843E-009  0.9118800E+02  0.7816164E-02  0.1184000E+00
        -11   -1    0    0    0    0  0.00000000000E+00  0.00000000000E+00  0.45593999997E+02  0.45594000000E+02  0.51100000000E-03 0. -1.
         11   -1    0    0    0    0 -0.00000000000E+00 -0.00000000000E+00 -0.45593999997E+02  0.45594000000E+02  0.51100000000E-03 0.  1.
         23    2    1    2    0    0  0.00000000000E+00  0.00000000000E+00  0.00000000000E+00  0.91188000000E+02  0.91188000000E+02 0.  0.
    9900012    2    3    3    0    0 -0.26642173629E+02 -0.15565361518E+02 -0.32818099796E+02  0.46142316865E+02  0.99999918296E+01 0.  0.
         12    1    3    3    0    0  0.26642173629E+02  0.15565361518E+02  0.32818099796E+02  0.45045683135E+02  0.00000000000E+00 0. -1.
         11    1    4    4    0    0 -0.43095627679E+01 -0.14517581760E+01 -0.99461247057E+00  0.46550174307E+01  0.51100000000E-03 0. -1.
        -11    1    4    4    0    0 -0.10752935381E+02 -0.60904589727E+01 -0.12539056549E+02  0.17605318776E+02  0.51100000000E-03 0.  1.
         12    1    4    4    0    0 -0.11579675480E+02 -0.80231443694E+01 -0.19284430777E+02  0.23881980659E+02  0.00000000000E+00 0. -1.
</event>
<event>
 8    1  0.8828843E-009  0.9118800E+02  0.7816164E-02  0.1184000E+00
        -11   -1    0    0    0    0  0.00000000000E+00  0.00000000000E+00  0.45593999997E+02  0.45594000000E+02  0.51100000000E-03 0. -1.
         11   -1    0    0    0    0 -0.00000000000E+00 -0.00000000000E+00 -0.45593999997E+02  0.45594000000E+02  0.51100000000E-03 0.  1.
         23    2    1    2    0    0  0.35527136788E-14 -0.35527136788E-14 -0.35527136788E-14  0.91188000000E+02  0.91188000000E+02 0.  0.
    9900012    2    3    3    0    0  0.24660828446E+02  0.23185042074E+02  0.29722228620E+02  0.46142317524E+02  0.99999978333E+01 0.  0.
        -12    1    3    3    0    0 -0.24660828446E+02 -0.23185042074E+02 -0.29722228620E+02  0.45045682476E+02  0.00000000000E+00 0.  1.
         11    1    4    4    0    0 -0.14499207324E+00  0.94758278133E+00  0.19389804448E+01  0.21630028330E+01  0.51100000000E-03 0. -1.
        -11    1    4    4    0    0  0.39576530200E+01  0.55816379501E+01  0.91832234459E+01  0.11452043169E+02  0.51100000000E-03 0.  1.
        -12    1    4    4    0    0  0.20848167500E+02  0.16655821342E+02  0.18600024729E+02  0.32527271521E+02  0.00000000000E+00 0.  1.
</event>
<event>
 8    1  0.8828843E-009  0.9118800E+02  0.7816164E-02  0.1184000E+00
        -11   -1    0    0    0    0  0.00000000000E+00  0.00000000000E+00  0.45593999997E+02  0.45594000000E+02  0.51100000000E-03 0. -1.
         11   -1    0    0    0    0 -0.00000000000E+00 -0.00000000000E+00 -0.45593999997E+02  0.45594000000E+02  0.51100000000E-03 0.  1.
         23    2    1    2    0    0  0.88817841970E-15  0.00000000000E+00 -0.71054273576E-14  0.91188000000E+02  0.91188000000E+02 0.  0.
    9900012    2    3    3    0    0  0.57606283766E+01 -0.74483624912E+01  0.44050545398E+02  0.46142317710E+02  0.99999995331E+01 0.  0.
        -12    1    3    3    0    0 -0.57606283766E+01  0.74483624912E+01 -0.44050545398E+02  0.45045682290E+02  0.00000000000E+00 0.  1.
         11    1    4    4    0    0  0.17889444101E+01 -0.67871797760E+00  0.38908016835E+01  0.43358180539E+01  0.51100000000E-03 0. -1.
        -11    1    4    4    0    0 -0.23691513502E+01 -0.30045666392E+01  0.88807261606E+01  0.96699325856E+01  0.51100000000E-03 0.  1.
        -12    1    4    4    0    0  0.63408353168E+01 -0.37650778745E+01  0.31279017554E+02  0.32136567070E+02  0.00000000000E+00 0.  1.
</event>
<event>
 8    1  0.8828843E-009  0.9118800E+02  0.7816164E-02  0.1184000E+00
        -11   -1    0    0    0    0  0.00000000000E+00  0.00000000000E+00  0.45593999997E+02  0.45594000000E+02  0.51100000000E-03 0.  1.
         11   -1    0    0    0    0 -0.00000000000E+00 -0.00000000000E+00 -0.45593999997E+02  0.45594000000E+02  0.51100000000E-03 0. -1.
         23    2    1    2    0    0  0.35527136788E-14  0.00000000000E+00  0.00000000000E+00  0.91188000000E+02  0.91188000000E+02 0.  0.
    9900012    2    3    3    0    0 -0.28050611351E+02  0.25962856716E+02 -0.23837092597E+02  0.46142315306E+02  0.99999776163E+01 0.  0.
         12    1    3    3    0    0  0.28050611351E+02 -0.25962856716E+02  0.23837092597E+02  0.45045684694E+02  0.00000000000E+00 0. -1.
         11    1    4    4    0    0 -0.20818126559E+02  0.20487212520E+02 -0.14738733600E+02  0.32716212169E+02  0.51100000000E-03 0. -1.
        -11    1    4    4    0    0 -0.53806750503E+01  0.56759624050E+01 -0.82857705379E+01  0.11393954840E+02  0.51100000000E-03 0.  1.
         12    1    4    4    0    0 -0.18518097409E+01 -0.20031820840E+00 -0.81258845966E+00  0.20321482982E+01  0.00000000000E+00 0. -1.
</event>
<event>
 8    1  0.8828843E-009  0.9118800E+02  0.7816164E-02  0.1184000E+00
        -11   -1    0    0    0    0  0.00000000000E+00  0.00000000000E+00  0.45593999997E+02  0.45594000000E+02  0.51100000000E-03 0. -1.
         11   -1    0    0    0    0 -0.00000000000E+00 -0.00000000000E+00 -0.45593999997E+02  0.45594000000E+02  0.51100000000E-03 0.  1.
         23    2    1    2    0    0 -0.11102230246E-15  0.44408920985E-15 -0.71054273576E-14  0.91188000000E+02  0.91188000000E+02 0.  0.
    9900012    2    3    3    0    0 -0.64452233397E+00 -0.23987556895E+01  0.44977151785E+02  0.46142316294E+02  0.99999866176E+01 0.  0.
        -12    1    3    3    0    0  0.64452233397E+00  0.23987556895E+01 -0.44977151785E+02  0.45045683706E+02  0.00000000000E+00 0.  1.
         11    1    4    4    0    0  0.16777526325E+00  0.10253964569E+01  0.77618717326E+01  0.78311071687E+01  0.51100000000E-03 0. -1.
        -11    1    4    4    0    0  0.16166096198E+01 -0.26580521278E+00  0.10920699639E+01  0.19689327416E+01  0.51100000000E-03 0.  1.
        -12    1    4    4    0    0 -0.24289072170E+01 -0.31583469337E+01  0.36123210088E+02  0.36342276383E+02  0.00000000000E+00 0.  1.
</event>
<event>
 8    1  0.8828843E-009  0.9118800E+02  0.7816164E-02  0.1184000E+00
        -11   -1    0    0    0    0  0.00000000000E+00  0.00000000000E+00  0.45593999997E+02  0.45594000000E+02  0.51100000000E-03 0. -1.
         11   -1    0    0    0    0 -0.00000000000E+00 -0.00000000000E+00 -0.45593999997E+02  0.45594000000E+02  0.51100000000E-03 0.  1.
         23    2    1    2    0    0  0.00000000000E+00  0.44408920985E-15  0.00000000000E+00  0.91188000000E+02  0.91188000000E+02 0.  0.
    9900012    2    3    3    0    0 -0.42945595287E+02  0.25105072415E+01  0.13359890050E+02  0.46142318039E+02  0.10000002534E+02 0.  0.
        -12    1    3    3    0    0  0.42945595287E+02 -0.25105072415E+01 -0.13359890050E+02  0.45045681961E+02  0.00000000000E+00 0.  1.
         11    1    4    4    0    0 -0.13393088794E+02  0.28675360159E+01  0.27449709729E+01  0.13968981929E+02  0.51100000000E-03 0. -1.
        -11    1    4    4    0    0 -0.24357312881E+02 -0.29268937218E+01  0.79017815492E+01  0.25773698795E+02  0.51100000000E-03 0.  1.
        -12    1    4    4    0    0 -0.51951936121E+01  0.25698649474E+01  0.27131375281E+01  0.63996373148E+01  0.00000000000E+00 0.  1.
</event>
<event>
 8    1  0.8828843E-009  0.9118800E+02  0.7816164E-02  0.1184000E+00
        -11   -1    0    0    0    0  0.00000000000E+00  0.00000000000E+00  0.45593999997E+02  0.45594000000E+02  0.51100000000E-03 0. -1.
         11   -1    0    0    0    0 -0.00000000000E+00 -0.00000000000E+00 -0.45593999997E+02  0.45594000000E+02  0.51100000000E-03 0.  1.
         23    2    1    2    0    0  0.35527136788E-14  0.22204460493E-15  0.71054273576E-14  0.91188000000E+02  0.91188000000E+02 0.  0.
    9900012    2    3    3    0    0 -0.24697410822E+02 -0.10588719183E+01 -0.37656741371E+02  0.46142317835E+02  0.10000000671E+02 0.  0.
         12    1    3    3    0    0  0.24697410822E+02  0.10588719183E+01  0.37656741371E+02  0.45045682165E+02  0.00000000000E+00 0. -1.
         11    1    4    4    0    0 -0.23570017772E+01 -0.21575252461E+01 -0.82977658014E+01  0.88917540520E+01  0.51100000000E-03 0. -1.
        -11    1    4    4    0    0 -0.78158586111E+00 -0.97460555867E-01 -0.33776911054E+01  0.34683097444E+01  0.51100000000E-03 0.  1.
        -12    1    4    4    0    0 -0.21558823184E+02  0.11961138837E+01 -0.25981284464E+02  0.33782254038E+02  0.00000000000E+00 0.  1.
</event>
<event>
 8    1  0.8828843E-009  0.9118800E+02  0.7816164E-02  0.1184000E+00
        -11   -1    0    0    0    0  0.00000000000E+00  0.00000000000E+00  0.45593999997E+02  0.45594000000E+02  0.51100000000E-03 0. -1.
         11   -1    0    0    0    0 -0.00000000000E+00 -0.00000000000E+00 -0.45593999997E+02  0.45594000000E+02  0.51100000000E-03 0.  1.
         23    2    1    2    0    0  0.35527136788E-14  0.71054273576E-14 -0.17763568394E-14  0.91188000000E+02  0.91188000000E+02 0.  0.
    9900012    2    3    3    0    0  0.17520567683E+02  0.38319913195E+02 -0.15928821452E+02  0.46142318830E+02  0.10000009748E+02 0.  0.
         12    1    3    3    0    0 -0.17520567683E+02 -0.38319913195E+02  0.15928821452E+02  0.45045681170E+02  0.00000000000E+00 0. -1.
         11    1    4    4    0    0  0.66672298193E+00  0.57981394313E+01  0.40938053854E+00  0.58506865483E+01  0.51100000000E-03 0. -1.
        -11    1    4    4    0    0  0.97288965155E+01  0.21614845163E+02 -0.11943892507E+02  0.26542598352E+02  0.51100000000E-03 0.  1.
        -12    1    4    4    0    0  0.71249481858E+01  0.10906928601E+02 -0.43943094835E+01  0.13749033930E+02  0.00000000000E+00 0.  1.
</event>
<event>
 8    1  0.8828843E-009  0.9118800E+02  0.7816164E-02  0.1184000E+00
        -11   -1    0    0    0    0  0.00000000000E+00  0.00000000000E+00  0.45593999997E+02  0.45594000000E+02  0.51100000000E-03 0. -1.
         11   -1    0    0    0    0 -0.00000000000E+00 -0.00000000000E+00 -0.45593999997E+02  0.45594000000E+02  0.51100000000E-03 0.  1.
         23    2    1    2    0    0 -0.71054273576E-14  0.00000000000E+00  0.00000000000E+00  0.91188000000E+02  0.91188000000E+02 0.  0.
    9900012    2    3    3    0    0  0.37890328154E+02  0.17447629377E+02 -0.17000502883E+02  0.46142313895E+02  0.99999647420E+01 0.  0.
         12    1    3    3    0    0 -0.37890328154E+02 -0.17447629377E+02  0.17000502883E+02  0.45045686105E+02  0.00000000000E+00 0. -1.
         11    1    4    4    0    0  0.34208280568E+01  0.44206247924E+00 -0.42877814063E+01  0.55029586114E+01  0.51100000000E-03 0. -1.
        -11    1    4    4    0    0  0.60561904699E+01  0.42378209596E+01 -0.15723259875E+01  0.75570350513E+01  0.51100000000E-03 0.  1.
        -12    1    4    4    0    0  0.28413309627E+02  0.12767745938E+02 -0.11140395489E+02  0.33082320232E+02  0.00000000000E+00 0.  1.
</event>
<event>
 8    1  0.8828843E-009  0.9118800E+02  0.7816164E-02  0.1184000E+00
        -11   -1    0    0    0    0  0.00000000000E+00  0.00000000000E+00  0.45593999997E+02  0.45594000000E+02  0.51100000000E-03 0. -1.
         11   -1    0    0    0    0 -0.00000000000E+00 -0.00000000000E+00 -0.45593999997E+02  0.45594000000E+02  0.51100000000E-03 0.  1.
         23    2    1    2    0    0  0.00000000000E+00  0.00000000000E+00 -0.10658141036E-13  0.91188000000E+02  0.91188000000E+02 0.  0.
    9900012    2    3    3    0    0  0.20108130859E+02  0.27133278738E+02  0.29808752040E+02  0.46142318299E+02  0.10000004904E+02 0.  0.
        -12    1    3    3    0    0 -0.20108130859E+02 -0.27133278738E+02 -0.29808752040E+02  0.45045681701E+02  0.00000000000E+00 0.  1.
         11    1    4    4    0    0 -0.44785151920E+00  0.31840224358E-01 -0.28523911033E+00  0.53192705733E+00  0.51100000000E-03 0. -1.
        -11    1    4    4    0    0  0.42590273672E+01  0.79850766328E+01  0.95746223714E+01  0.13174754524E+02  0.51100000000E-03 0.  1.
         12    1    4    4    0    0  0.16296955011E+02  0.19116361880E+02  0.20519368779E+02  0.32435636718E+02  0.00000000000E+00 0. -1.
</event>
<event>
 8    1  0.8828843E-009  0.9118800E+02  0.7816164E-02  0.1184000E+00
        -11   -1    0    0    0    0  0.00000000000E+00  0.00000000000E+00  0.45593999997E+02  0.45594000000E+02  0.51100000000E-03 0. -1.
         11   -1    0    0    0    0 -0.00000000000E+00 -0.00000000000E+00 -0.45593999997E+02  0.45594000000E+02  0.51100000000E-03 0.  1.
         23    2    1    2    0    0  0.00000000000E+00  0.00000000000E+00  0.71054273576E-14  0.91188000000E+02  0.91188000000E+02 0.  0.
    9900012    2    3    3    0    0 -0.19015096185E+02  0.48413588226E+01 -0.40547515115E+02  0.46142316298E+02  0.99999866624E+01 0.  0.
         12    1    3    3    0    0  0.19015096185E+02 -0.48413588226E+01  0.40547515115E+02  0.45045683702E+02  0.00000000000E+00 0. -1.
         11    1    4    4    0    0 -0.27112549328E+01  0.11317017779E+01 -0.28031377551E+01  0.40606937535E+01  0.51100000000E-03 0. -1.
        -11    1    4    4    0    0 -0.10337240925E+02  0.67284053390E+00 -0.14027774482E+02  0.17438168526E+02  0.51100000000E-03 0.  1.
         12    1    4    4    0    0 -0.59666003268E+01  0.30368165108E+01 -0.23716602877E+02  0.24643454019E+02  0.00000000000E+00 0. -1.
</event>
<event>
 8    1  0.8828843E-009  0.9118800E+02  0.7816164E-02  0.1184000E+00
        -11   -1    0    0    0    0  0.00000000000E+00  0.00000000000E+00  0.45593999997E+02  0.45594000000E+02  0.51100000000E-03 0. -1.
         11   -1    0    0    0    0 -0.00000000000E+00 -0.00000000000E+00 -0.45593999997E+02  0.45594000000E+02  0.51100000000E-03 0.  1.
         23    2    1    2    0    0  0.00000000000E+00 -0.17763568394E-14  0.71054273576E-14  0.91188000000E+02  0.91188000000E+02 0.  0.
    9900012    2    3    3    0    0  0.11608710564E+02 -0.84760504700E+01  0.42690840873E+02  0.46142317777E+02  0.10000000144E+02 0.  0.
        -12    1    3    3    0    0 -0.11608710564E+02  0.84760504700E+01 -0.42690840873E+02  0.45045682223E+02  0.00000000000E+00 0.  1.
         11    1    4    4    0    0  0.98055704064E+01 -0.28218567905E+01  0.30130618361E+02  0.31811416972E+02  0.51100000000E-03 0. -1.
        -11    1    4    4    0    0  0.15988601991E+01 -0.19036158538E+01  0.22322805438E+01  0.33411351278E+01  0.51100000000E-03 0.  1.
         12    1    4    4    0    0  0.20427995847E+00 -0.37505778257E+01  0.10327941968E+02  0.10989765677E+02  0.00000000000E+00 0. -1.
</event>
<event>
 8    1  0.8828843E-009  0.9118800E+02  0.7816164E-02  0.1184000E+00
        -11   -1    0    0    0    0  0.00000000000E+00  0.00000000000E+00  0.45593999997E+02  0.45594000000E+02  0.51100000000E-03 0. -1.
         11   -1    0    0    0    0 -0.00000000000E+00 -0.00000000000E+00 -0.45593999997E+02  0.45594000000E+02  0.51100000000E-03 0.  1.
         23    2    1    2    0    0 -0.71054273576E-14 -0.17763568394E-14  0.00000000000E+00  0.91188000000E+02  0.91188000000E+02 0.  0.
    9900012    2    3    3    0    0 -0.43129773870E+02  0.10432177565E+02  0.77527842347E+01  0.46142318895E+02  0.10000010339E+02 0.  0.
        -12    1    3    3    0    0  0.43129773870E+02 -0.10432177565E+02 -0.77527842347E+01  0.45045681105E+02  0.00000000000E+00 0.  1.
         11    1    4    4    0    0 -0.35646096270E+01  0.12174731859E+00  0.99813179882E+00  0.37037186113E+01  0.51100000000E-03 0. -1.
        -11    1    4    4    0    0 -0.10583866920E+02  0.80539861578E+00  0.53981362732E+01  0.11908265256E+02  0.51100000000E-03 0.  1.
        -12    1    4    4    0    0 -0.28981297323E+02  0.95050316309E+01  0.13565161627E+01  0.30530335028E+02  0.00000000000E+00 0.  1.
</event>
<event>
 8    1  0.1444144E-008  0.9118800E+02  0.7816164E-02  0.1184000E+00
        -11   -1    0    0    0    0  0.00000000000E+00  0.00000000000E+00  0.45593999997E+02  0.45594000000E+02  0.51100000000E-03 0. -1.
         11   -1    0    0    0    0 -0.00000000000E+00 -0.00000000000E+00 -0.45593999997E+02  0.45594000000E+02  0.51100000000E-03 0.  1.
         23    2    1    2    0    0 -0.88817841970E-15 -0.17763568394E-14  0.71054273576E-14  0.91188000000E+02  0.91188000000E+02 0.  0.
    9900012    2    3    3    0    0 -0.37292614285E+01 -0.15407023704E+02  0.42164318301E+02  0.46142317543E+02  0.99999980086E+01 0.  0.
        -12    1    3    3    0    0  0.37292614285E+01  0.15407023704E+02 -0.42164318301E+02  0.45045682457E+02  0.00000000000E+00 0.  1.
         11    1    4    4    0    0 -0.36508371458E+01 -0.90889857691E+01  0.30047246575E+02  0.31603406480E+02  0.51100000000E-03 0. -1.
        -11    1    4    4    0    0 -0.21260313154E+01 -0.33196723085E+01  0.87068691352E+01  0.95577091287E+01  0.51100000000E-03 0.  1.
        -12    1    4    4    0    0  0.20476070328E+01 -0.29983656263E+01  0.34102025917E+01  0.49812019338E+01  0.00000000000E+00 0.  1.
</event>
<event>
 8    1  0.8828843E-009  0.9118800E+02  0.7816164E-02  0.1184000E+00
        -11   -1    0    0    0    0  0.00000000000E+00  0.00000000000E+00  0.45593999997E+02  0.45594000000E+02  0.51100000000E-03 0. -1.
         11   -1    0    0    0    0 -0.00000000000E+00 -0.00000000000E+00 -0.45593999997E+02  0.45594000000E+02  0.51100000000E-03 0.  1.
         23    2    1    2    0    0 -0.71054273576E-14 -0.88817841970E-15  0.00000000000E+00  0.91188000000E+02  0.91188000000E+02 0.  0.
    9900012    2    3    3    0    0  0.41993631209E+02  0.47199400646E+01 -0.15600338496E+02  0.46142318104E+02  0.10000003125E+02 0.  0.
         12    1    3    3    0    0 -0.41993631209E+02 -0.47199400646E+01  0.15600338496E+02  0.45045681896E+02  0.00000000000E+00 0. -1.
         11    1    4    4    0    0  0.49264809336E+01  0.31245260810E+01 -0.19514317652E+01  0.61515009401E+01  0.51100000000E-03 0. -1.
        -11    1    4    4    0    0  0.15199989592E+02  0.18397180352E+01 -0.85472444522E+01  0.17535097206E+02  0.51100000000E-03 0.  1.
        -12    1    4    4    0    0  0.21867160683E+02 -0.24430405166E+00 -0.51016622789E+01  0.22455719958E+02  0.00000000000E+00 0.  1.
</event>
<event>
 8    1  0.8828843E-009  0.9118800E+02  0.7816164E-02  0.1184000E+00
        -11   -1    0    0    0    0  0.00000000000E+00  0.00000000000E+00  0.45593999997E+02  0.45594000000E+02  0.51100000000E-03 0.  1.
         11   -1    0    0    0    0 -0.00000000000E+00 -0.00000000000E+00 -0.45593999997E+02  0.45594000000E+02  0.51100000000E-03 0. -1.
         23    2    1    2    0    0  0.00000000000E+00  0.00000000000E+00  0.00000000000E+00  0.91188000000E+02  0.91188000000E+02 0.  0.
    9900012    2    3    3    0    0  0.28969467452E+02 -0.31481298056E+02  0.14100051559E+02  0.46142316237E+02  0.99999861011E+01 0.  0.
        -12    1    3    3    0    0 -0.28969467452E+02  0.31481298056E+02 -0.14100051559E+02  0.45045683763E+02  0.00000000000E+00 0.  1.
         11    1    4    4    0    0  0.70317171628E+00  0.38371332512E-01 -0.87576331170E-01  0.70964265419E+00  0.51100000000E-03 0. -1.
        -11    1    4    4    0    0  0.78858405302E+01 -0.14864010965E+02  0.49756945216E+01  0.17546590525E+02  0.51100000000E-03 0.  1.
         12    1    4    4    0    0  0.20380455206E+02 -0.16655658423E+02  0.92119333681E+01  0.27886083057E+02  0.00000000000E+00 0. -1.
</event>
<event>
 8    1  0.8828843E-009  0.9118800E+02  0.7816164E-02  0.1184000E+00
        -11   -1    0    0    0    0  0.00000000000E+00  0.00000000000E+00  0.45593999997E+02  0.45594000000E+02  0.51100000000E-03 0. -1.
         11   -1    0    0    0    0 -0.00000000000E+00 -0.00000000000E+00 -0.45593999997E+02  0.45594000000E+02  0.51100000000E-03 0.  1.
         23    2    1    2    0    0  0.35527136788E-14  0.35527136788E-14  0.00000000000E+00  0.91188000000E+02  0.91188000000E+02 0.  0.
    9900012    2    3    3    0    0 -0.30463250619E+02 -0.16285209141E+02 -0.28911862932E+02  0.46142317707E+02  0.99999995074E+01 0.  0.
         12    1    3    3    0    0  0.30463250619E+02  0.16285209141E+02  0.28911862932E+02  0.45045682293E+02  0.00000000000E+00 0. -1.
         11    1    4    4    0    0 -0.69928563720E+01 -0.46549971328E+00 -0.76154915505E+01  0.10349514097E+02  0.51100000000E-03 0. -1.
        -11    1    4    4    0    0 -0.12036991129E+02 -0.76794414205E+01 -0.75677964464E+01  0.16159657153E+02  0.51100000000E-03 0.  1.
        -12    1    4    4    0    0 -0.11433403118E+02 -0.81402680069E+01 -0.13728574935E+02  0.19633146458E+02  0.00000000000E+00 0.  1.
</event>
<event>
 8    1  0.8828843E-009  0.9118800E+02  0.7816164E-02  0.1184000E+00
        -11   -1    0    0    0    0  0.00000000000E+00  0.00000000000E+00  0.45593999997E+02  0.45594000000E+02  0.51100000000E-03 0. -1.
         11   -1    0    0    0    0 -0.00000000000E+00 -0.00000000000E+00 -0.45593999997E+02  0.45594000000E+02  0.51100000000E-03 0.  1.
         23    2    1    2    0    0  0.00000000000E+00  0.00000000000E+00  0.00000000000E+00  0.91188000000E+02  0.91188000000E+02 0.  0.
    9900012    2    3    3    0    0  0.27062615442E+01 -0.69061748219E+01  0.44430781952E+02  0.46142317775E+02  0.10000000128E+02 0.  0.
        -12    1    3    3    0    0 -0.27062615442E+01  0.69061748219E+01 -0.44430781952E+02  0.45045682225E+02  0.00000000000E+00 0.  1.
         11    1    4    4    0    0 -0.28963317443E+00 -0.19509350679E+01  0.12094475669E+02  0.12254239144E+02  0.51100000000E-03 0.  1.
        -11    1    4    4    0    0  0.51946414342E+01 -0.69289044330E+00  0.19249268202E+02  0.19949905348E+02  0.51100000000E-03 0. -1.
         12    1    4    4    0    0 -0.21987467156E+01 -0.42623493107E+01  0.13087038081E+02  0.13938173284E+02  0.00000000000E+00 0. -1.
</event>
<event>
 8    1  0.8828843E-009  0.9118800E+02  0.7816164E-02  0.1184000E+00
        -11   -1    0    0    0    0  0.00000000000E+00  0.00000000000E+00  0.45593999997E+02  0.45594000000E+02  0.51100000000E-03 0. -1.
         11   -1    0    0    0    0 -0.00000000000E+00 -0.00000000000E+00 -0.45593999997E+02  0.45594000000E+02  0.51100000000E-03 0.  1.
         23    2    1    2    0    0  0.00000000000E+00 -0.35527136788E-14  0.00000000000E+00  0.91188000000E+02  0.91188000000E+02 0.  0.
    9900012    2    3    3    0    0  0.32294577106E+02  0.30343597800E+02  0.80894958165E+01  0.46142316739E+02  0.99999906785E+01 0.  0.
        -12    1    3    3    0    0 -0.32294577106E+02 -0.30343597800E+02 -0.80894958165E+01  0.45045683261E+02  0.00000000000E+00 0.  1.
         11    1    4    4    0    0  0.17974691736E+02  0.18345290919E+02  0.36615146968E+01  0.25943128802E+02  0.51100000000E-03 0. -1.
        -11    1    4    4    0    0  0.81877788331E+01  0.10481127434E+02  0.20897051731E+01  0.13463306521E+02  0.51100000000E-03 0.  1.
        -12    1    4    4    0    0  0.61321065362E+01  0.15171794480E+01  0.23382759465E+01  0.67358814160E+01  0.00000000000E+00 0.  1.
</event>
<event>
 8    1  0.8828843E-009  0.9118800E+02  0.7816164E-02  0.1184000E+00
        -11   -1    0    0    0    0  0.00000000000E+00  0.00000000000E+00  0.45593999997E+02  0.45594000000E+02  0.51100000000E-03 0.  1.
         11   -1    0    0    0    0 -0.00000000000E+00 -0.00000000000E+00 -0.45593999997E+02  0.45594000000E+02  0.51100000000E-03 0. -1.
         23    2    1    2    0    0  0.00000000000E+00 -0.71054273576E-14  0.00000000000E+00  0.91188000000E+02  0.91188000000E+02 0.  0.
    9900012    2    3    3    0    0  0.42046867814E+01 -0.42346833903E+02 -0.14770913188E+02  0.46142316423E+02  0.99999877952E+01 0.  0.
         12    1    3    3    0    0 -0.42046867814E+01  0.42346833903E+02  0.14770913188E+02  0.45045683577E+02  0.00000000000E+00 0. -1.
         11    1    4    4    0    0 -0.69156661735E+00 -0.47913629825E+01 -0.50028358904E+01  0.69615939858E+01  0.51100000000E-03 0. -1.
        -11    1    4    4    0    0  0.26406796924E+01 -0.15358983528E+02 -0.49930801750E+01  0.16364669693E+02  0.51100000000E-03 0.  1.
         12    1    4    4    0    0  0.22555737063E+01 -0.22196487392E+02 -0.47749971227E+01  0.22816052744E+02  0.00000000000E+00 0. -1.
</event>
<event>
 8    1  0.8828843E-009  0.9118800E+02  0.7816164E-02  0.1184000E+00
        -11   -1    0    0    0    0  0.00000000000E+00  0.00000000000E+00  0.45593999997E+02  0.45594000000E+02  0.51100000000E-03 0. -1.
         11   -1    0    0    0    0 -0.00000000000E+00 -0.00000000000E+00 -0.45593999997E+02  0.45594000000E+02  0.51100000000E-03 0.  1.
         23    2    1    2    0    0 -0.35527136788E-14  0.00000000000E+00  0.00000000000E+00  0.91188000000E+02  0.91188000000E+02 0.  0.
    9900012    2    3    3    0    0 -0.25260326000E+02 -0.23080680468E+02 -0.29296956223E+02  0.46142317361E+02  0.99999963540E+01 0.  0.
         12    1    3    3    0    0  0.25260326000E+02  0.23080680468E+02  0.29296956223E+02  0.45045682639E+02  0.00000000000E+00 0. -1.
         11    1    4    4    0    0 -0.53314084366E+01 -0.16472899180E+01 -0.63584707485E+01  0.84597653935E+01  0.51100000000E-03 0.  1.
        -11    1    4    4    0    0 -0.92432387201E+01 -0.14270577335E+02 -0.13886325058E+02  0.21952604934E+02  0.51100000000E-03 0. -1.
         12    1    4    4    0    0 -0.10685678843E+02 -0.71628132155E+01 -0.90521604156E+01  0.15729947034E+02  0.00000000000E+00 0. -1.
</event>
<event>
 8    1  0.8828843E-009  0.9118800E+02  0.7816164E-02  0.1184000E+00
        -11   -1    0    0    0    0  0.00000000000E+00  0.00000000000E+00  0.45593999997E+02  0.45594000000E+02  0.51100000000E-03 0. -1.
         11   -1    0    0    0    0 -0.00000000000E+00 -0.00000000000E+00 -0.45593999997E+02  0.45594000000E+02  0.51100000000E-03 0.  1.
         23    2    1    2    0    0  0.71054273576E-14  0.00000000000E+00 -0.35527136788E-14  0.91188000000E+02  0.91188000000E+02 0.  0.
    9900012    2    3    3    0    0 -0.35235071743E+02 -0.16037346752E+02  0.23030546559E+02  0.46142324887E+02  0.10000064978E+02 0.  0.
        -12    1    3    3    0    0  0.35235071743E+02  0.16037346752E+02 -0.23030546559E+02  0.45045675113E+02  0.00000000000E+00 0.  1.
         11    1    4    4    0    0 -0.13852465649E+02 -0.49539381598E+01  0.72412918770E+01  0.16397213671E+02  0.51100000000E-03 0. -1.
        -11    1    4    4    0    0 -0.71140507007E+01 -0.57298501601E+01  0.23646598675E+01  0.94357043605E+01  0.51100000000E-03 0.  1.
         12    1    4    4    0    0 -0.14268555394E+02 -0.53535584323E+01  0.13424594814E+02  0.20309406856E+02  0.00000000000E+00 0. -1.
</event>
<event>
 8    1  0.8828843E-009  0.9118800E+02  0.7816164E-02  0.1184000E+00
        -11   -1    0    0    0    0  0.00000000000E+00  0.00000000000E+00  0.45593999997E+02  0.45594000000E+02  0.51100000000E-03 0.  1.
         11   -1    0    0    0    0 -0.00000000000E+00 -0.00000000000E+00 -0.45593999997E+02  0.45594000000E+02  0.51100000000E-03 0. -1.
         23    2    1    2    0    0  0.00000000000E+00  0.00000000000E+00  0.00000000000E+00  0.91188000000E+02  0.91188000000E+02 0.  0.
    9900012    2    3    3    0    0  0.30912418850E+02 -0.31872312682E+02 -0.75954938041E+01  0.46142317843E+02  0.10000000745E+02 0.  0.
         12    1    3    3    0    0 -0.30912418850E+02  0.31872312682E+02  0.75954938041E+01  0.45045682157E+02  0.00000000000E+00 0. -1.
         11    1    4    4    0    0  0.17785480250E+02 -0.20469612853E+02 -0.71870741540E+01  0.28053206470E+02  0.51100000000E-03 0. -1.
        -11    1    4    4    0    0  0.31075928100E+01 -0.49669360093E+01 -0.17267046792E+01  0.61081171979E+01  0.51100000000E-03 0.  1.
        -12    1    4    4    0    0  0.10019345790E+02 -0.64357638195E+01  0.13182850291E+01  0.11980994175E+02  0.00000000000E+00 0.  1.
</event>
<event>
 8    1  0.8828843E-009  0.9118800E+02  0.7816164E-02  0.1184000E+00
        -11   -1    0    0    0    0  0.00000000000E+00  0.00000000000E+00  0.45593999997E+02  0.45594000000E+02  0.51100000000E-03 0. -1.
         11   -1    0    0    0    0 -0.00000000000E+00 -0.00000000000E+00 -0.45593999997E+02  0.45594000000E+02  0.51100000000E-03 0.  1.
         23    2    1    2    0    0  0.00000000000E+00 -0.22204460493E-15  0.00000000000E+00  0.91188000000E+02  0.91188000000E+02 0.  0.
    9900012    2    3    3    0    0  0.28929303617E+02  0.19047306563E+01 -0.34475801414E+02  0.46142317745E+02  0.99999998559E+01 0.  0.
         12    1    3    3    0    0 -0.28929303617E+02 -0.19047306563E+01  0.34475801414E+02  0.45045682255E+02  0.00000000000E+00 0. -1.
         11    1    4    4    0    0  0.13584139448E+02 -0.16859884799E+01 -0.21148760758E+02  0.25192091687E+02  0.51100000000E-03 0. -1.
        -11    1    4    4    0    0  0.99462425507E+01  0.57630073613E+00 -0.77331120318E+01  0.12611934244E+02  0.51100000000E-03 0.  1.
         12    1    4    4    0    0  0.53989216178E+01  0.30144184001E+01 -0.55939286249E+01  0.83382918147E+01  0.00000000000E+00 0. -1.
</event>
<event>
 8    1  0.8828843E-009  0.9118800E+02  0.7816164E-02  0.1184000E+00
        -11   -1    0    0    0    0  0.00000000000E+00  0.00000000000E+00  0.45593999997E+02  0.45594000000E+02  0.51100000000E-03 0. -1.
         11   -1    0    0    0    0 -0.00000000000E+00 -0.00000000000E+00 -0.45593999997E+02  0.45594000000E+02  0.51100000000E-03 0.  1.
         23    2    1    2    0    0  0.00000000000E+00  0.00000000000E+00  0.00000000000E+00  0.91188000000E+02  0.91188000000E+02 0.  0.
    9900012    2    3    3    0    0  0.21732120467E+02  0.25581031305E+02  0.30040626258E+02  0.46142318203E+02  0.10000004030E+02 0.  0.
        -12    1    3    3    0    0 -0.21732120467E+02 -0.25581031305E+02 -0.30040626258E+02  0.45045681797E+02  0.00000000000E+00 0.  1.
         11    1    4    4    0    0  0.13300534207E+02  0.10342311790E+02  0.14582517287E+02  0.22282671160E+02  0.51100000000E-03 0. -1.
        -11    1    4    4    0    0  0.63193492999E+01  0.10260650914E+02  0.73547904736E+01  0.14117651218E+02  0.51100000000E-03 0.  1.
         12    1    4    4    0    0  0.21122369594E+01  0.49780686008E+01  0.81033184977E+01  0.97419958244E+01  0.00000000000E+00 0. -1.
</event>
<event>
 8    1  0.8828843E-009  0.9118800E+02  0.7816164E-02  0.1184000E+00
        -11   -1    0    0    0    0  0.00000000000E+00  0.00000000000E+00  0.45593999997E+02  0.45594000000E+02  0.51100000000E-03 0. -1.
         11   -1    0    0    0    0 -0.00000000000E+00 -0.00000000000E+00 -0.45593999997E+02  0.45594000000E+02  0.51100000000E-03 0.  1.
         23    2    1    2    0    0  0.17763568394E-14  0.16653345369E-15  0.00000000000E+00  0.91188000000E+02  0.91188000000E+02 0.  0.
    9900012    2    3    3    0    0 -0.13674940794E+02 -0.65034980054E-01 -0.42919753732E+02  0.46142317680E+02  0.99999992570E+01 0.  0.
         12    1    3    3    0    0  0.13674940794E+02  0.65034980054E-01  0.42919753732E+02  0.45045682320E+02  0.00000000000E+00 0. -1.
         11    1    4    4    0    0 -0.14388092159E+01  0.11073411966E+01 -0.10358886783E+01  0.20903210521E+01  0.51100000000E-03 0. -1.
        -11    1    4    4    0    0 -0.70180202735E+01 -0.35470920312E+01 -0.22275703165E+02  0.23622900376E+02  0.51100000000E-03 0.  1.
         12    1    4    4    0    0 -0.52181113050E+01  0.23747158545E+01 -0.19608161889E+02  0.20429096252E+02  0.00000000000E+00 0. -1.
</event>
<event>
 8    1  0.9694164E-009  0.9118800E+02  0.7816164E-02  0.1184000E+00
        -11   -1    0    0    0    0  0.00000000000E+00  0.00000000000E+00  0.45593999997E+02  0.45594000000E+02  0.51100000000E-03 0. -1.
         11   -1    0    0    0    0 -0.00000000000E+00 -0.00000000000E+00 -0.45593999997E+02  0.45594000000E+02  0.51100000000E-03 0.  1.
         23    2    1    2    0    0  0.17763568394E-14  0.88817841970E-15  0.00000000000E+00  0.91188000000E+02  0.91188000000E+02 0.  0.
    9900012    2    3    3    0    0 -0.80192821395E+01 -0.57930156041E+01  0.43945937040E+02  0.46142319872E+02  0.10000019252E+02 0.  0.
        -12    1    3    3    0    0  0.80192821395E+01  0.57930156041E+01 -0.43945937040E+02  0.45045680128E+02  0.00000000000E+00 0.  1.
         11    1    4    4    0    0 -0.19582204099E+01  0.76424149843E+00  0.57908341345E+01  0.61605561824E+01  0.51100000000E-03 0.  1.
        -11    1    4    4    0    0  0.18378730198E+01 -0.33618377524E+00  0.51094524947E+01  0.54403402305E+01  0.51100000000E-03 0. -1.
         12    1    4    4    0    0 -0.78989347494E+01 -0.62210733273E+01  0.33045650411E+02  0.34541423459E+02  0.00000000000E+00 0. -1.
</event>
<event>
 8    1  0.8828843E-009  0.9118800E+02  0.7816164E-02  0.1184000E+00
        -11   -1    0    0    0    0  0.00000000000E+00  0.00000000000E+00  0.45593999997E+02  0.45594000000E+02  0.51100000000E-03 0. -1.
         11   -1    0    0    0    0 -0.00000000000E+00 -0.00000000000E+00 -0.45593999997E+02  0.45594000000E+02  0.51100000000E-03 0.  1.
         23    2    1    2    0    0  0.00000000000E+00  0.00000000000E+00 -0.35527136788E-14  0.91188000000E+02  0.91188000000E+02 0.  0.
    9900012    2    3    3    0    0  0.93752745527E+01  0.36006057362E+02  0.25392546786E+02  0.46142319053E+02  0.10000011777E+02 0.  0.
        -12    1    3    3    0    0 -0.93752745527E+01 -0.36006057362E+02 -0.25392546786E+02  0.45045680947E+02  0.00000000000E+00 0.  1.
         11    1    4    4    0    0  0.59542962711E+01  0.13070725363E+02  0.92228193793E+01  0.17069209213E+02  0.51100000000E-03 0. -1.
        -11    1    4    4    0    0  0.37245040017E+01  0.17905302197E+02  0.15531386294E+02  0.23993660356E+02  0.51100000000E-03 0.  1.
        -12    1    4    4    0    0 -0.30352572007E+00  0.50300298019E+01  0.63834111325E+00  0.50794494828E+01  0.00000000000E+00 0.  1.
</event>
<event>
 8    1  0.8828843E-009  0.9118800E+02  0.7816164E-02  0.1184000E+00
        -11   -1    0    0    0    0  0.00000000000E+00  0.00000000000E+00  0.45593999997E+02  0.45594000000E+02  0.51100000000E-03 0. -1.
         11   -1    0    0    0    0 -0.00000000000E+00 -0.00000000000E+00 -0.45593999997E+02  0.45594000000E+02  0.51100000000E-03 0.  1.
         23    2    1    2    0    0  0.00000000000E+00  0.00000000000E+00  0.00000000000E+00  0.91188000000E+02  0.91188000000E+02 0.  0.
    9900012    2    3    3    0    0  0.17733419230E+02  0.34139481668E+02  0.23433631598E+02  0.46142318120E+02  0.10000003271E+02 0.  0.
        -12    1    3    3    0    0 -0.17733419230E+02 -0.34139481668E+02 -0.23433631598E+02  0.45045681880E+02  0.00000000000E+00 0.  1.
         11    1    4    4    0    0  0.10281817948E+02  0.20729626449E+02  0.18738735074E+02  0.29775382206E+02  0.51100000000E-03 0. -1.
        -11    1    4    4    0    0  0.38208392051E+01  0.86288404193E+01  0.42419703456E+01  0.10346497566E+02  0.51100000000E-03 0.  1.
        -12    1    4    4    0    0  0.36307620775E+01  0.47810147998E+01  0.45292617762E+00  0.60204383480E+01  0.00000000000E+00 0.  1.
</event>
<event>
 8    1  0.8828843E-009  0.9118800E+02  0.7816164E-02  0.1184000E+00
        -11   -1    0    0    0    0  0.00000000000E+00  0.00000000000E+00  0.45593999997E+02  0.45594000000E+02  0.51100000000E-03 0. -1.
         11   -1    0    0    0    0 -0.00000000000E+00 -0.00000000000E+00 -0.45593999997E+02  0.45594000000E+02  0.51100000000E-03 0.  1.
         23    2    1    2    0    0 -0.71054273576E-14  0.00000000000E+00  0.00000000000E+00  0.91188000000E+02  0.91188000000E+02 0.  0.
    9900012    2    3    3    0    0 -0.41486468277E+02  0.95644244741E+01 -0.14714221315E+02  0.46142316805E+02  0.99999912815E+01 0.  0.
         12    1    3    3    0    0  0.41486468277E+02 -0.95644244741E+01  0.14714221315E+02  0.45045683195E+02  0.00000000000E+00 0. -1.
         11    1    4    4    0    0 -0.29138068781E+02  0.98708792001E+01 -0.12545279872E+02  0.33224168248E+02  0.51100000000E-03 0. -1.
        -11    1    4    4    0    0 -0.20508882852E+01 -0.18239430582E+00 -0.15939328837E+01  0.26038496001E+01  0.51100000000E-03 0.  1.
         12    1    4    4    0    0 -0.10297511211E+02 -0.12406042018E+00 -0.57500855917E+00  0.10314298957E+02  0.00000000000E+00 0. -1.
</event>
<event>
 8    1  0.8828843E-009  0.9118800E+02  0.7816164E-02  0.1184000E+00
        -11   -1    0    0    0    0  0.00000000000E+00  0.00000000000E+00  0.45593999997E+02  0.45594000000E+02  0.51100000000E-03 0. -1.
         11   -1    0    0    0    0 -0.00000000000E+00 -0.00000000000E+00 -0.45593999997E+02  0.45594000000E+02  0.51100000000E-03 0.  1.
         23    2    1    2    0    0 -0.44408920985E-15  0.88817841970E-15 -0.71054273576E-14  0.91188000000E+02  0.91188000000E+02 0.  0.
    9900012    2    3    3    0    0  0.32108860705E+01 -0.52865106625E+01  0.44619014460E+02  0.46142318346E+02  0.10000005331E+02 0.  0.
        -12    1    3    3    0    0 -0.32108860705E+01  0.52865106625E+01 -0.44619014460E+02  0.45045681654E+02  0.00000000000E+00 0.  1.
         11    1    4    4    0    0  0.13422722374E+01 -0.49354486021E+01  0.11807709378E+02  0.12867880505E+02  0.51100000000E-03 0. -1.
        -11    1    4    4    0    0 -0.88760189139E+00 -0.35866255782E+00  0.11629747881E+01  0.15063155602E+01  0.51100000000E-03 0.  1.
        -12    1    4    4    0    0  0.27562157245E+01  0.76004973715E-02  0.31648330293E+02  0.31768122281E+02  0.00000000000E+00 0.  1.
</event>
<event>
 8    1  0.8828843E-009  0.9118800E+02  0.7816164E-02  0.1184000E+00
        -11   -1    0    0    0    0  0.00000000000E+00  0.00000000000E+00  0.45593999997E+02  0.45594000000E+02  0.51100000000E-03 0. -1.
         11   -1    0    0    0    0 -0.00000000000E+00 -0.00000000000E+00 -0.45593999997E+02  0.45594000000E+02  0.51100000000E-03 0.  1.
         23    2    1    2    0    0  0.00000000000E+00  0.00000000000E+00  0.00000000000E+00  0.91188000000E+02  0.91188000000E+02 0.  0.
    9900012    2    3    3    0    0 -0.15280324733E+02 -0.28242760910E+02 -0.31590688553E+02  0.46142317954E+02  0.10000001756E+02 0.  0.
         12    1    3    3    0    0  0.15280324733E+02  0.28242760910E+02  0.31590688553E+02  0.45045682046E+02  0.00000000000E+00 0. -1.
         11    1    4    4    0    0 -0.30478641826E+00 -0.58718228227E+00 -0.33407230415E+01  0.34055995793E+01  0.51100000000E-03 0. -1.
        -11    1    4    4    0    0 -0.11275233645E+02 -0.23055482979E+02 -0.19734458421E+02  0.32374913723E+02  0.51100000000E-03 0.  1.
        -12    1    4    4    0    0 -0.37003046700E+01 -0.46000956486E+01 -0.85155070902E+01  0.10361804651E+02  0.00000000000E+00 0.  1.
</event>
<event>
 8    1  0.8828843E-009  0.9118800E+02  0.7816164E-02  0.1184000E+00
        -11   -1    0    0    0    0  0.00000000000E+00  0.00000000000E+00  0.45593999997E+02  0.45594000000E+02  0.51100000000E-03 0. -1.
         11   -1    0    0    0    0 -0.00000000000E+00 -0.00000000000E+00 -0.45593999997E+02  0.45594000000E+02  0.51100000000E-03 0.  1.
         23    2    1    2    0    0  0.00000000000E+00  0.00000000000E+00  0.00000000000E+00  0.91188000000E+02  0.91188000000E+02 0.  0.
    9900012    2    3    3    0    0 -0.14187610298E+02  0.10464079146E+02  0.41452723115E+02  0.46142317721E+02  0.99999996302E+01 0.  0.
        -12    1    3    3    0    0  0.14187610298E+02 -0.10464079146E+02 -0.41452723115E+02  0.45045682279E+02  0.00000000000E+00 0.  1.
         11    1    4    4    0    0 -0.35350504019E+01  0.48530884999E+01  0.18680698661E+02  0.19621864133E+02  0.51100000000E-03 0. -1.
        -11    1    4    4    0    0 -0.50694981575E+01  0.38842004265E+01  0.17576736262E+02  0.18701028913E+02  0.51100000000E-03 0.  1.
         12    1    4    4    0    0 -0.55830617383E+01  0.17267902197E+01  0.51952881925E+01  0.78194246745E+01  0.00000000000E+00 0. -1.
</event>
<event>
 8    1  0.8828843E-009  0.9118800E+02  0.7816164E-02  0.1184000E+00
        -11   -1    0    0    0    0  0.00000000000E+00  0.00000000000E+00  0.45593999997E+02  0.45594000000E+02  0.51100000000E-03 0. -1.
         11   -1    0    0    0    0 -0.00000000000E+00 -0.00000000000E+00 -0.45593999997E+02  0.45594000000E+02  0.51100000000E-03 0.  1.
         23    2    1    2    0    0  0.88817841970E-15  0.88817841970E-15  0.00000000000E+00  0.91188000000E+02  0.91188000000E+02 0.  0.
    9900012    2    3    3    0    0 -0.45199618207E+01 -0.59215200127E+01  0.44425432615E+02  0.46142317442E+02  0.99999970879E+01 0.  0.
        -12    1    3    3    0    0  0.45199618207E+01  0.59215200127E+01 -0.44425432615E+02  0.45045682558E+02  0.00000000000E+00 0.  1.
         11    1    4    4    0    0  0.39347204416E-01 -0.28759021779E+01  0.17351181281E+02  0.17587946260E+02  0.51100000000E-03 0. -1.
        -11    1    4    4    0    0 -0.29209558287E+01  0.14409376481E+01  0.18075393324E+02  0.18366494721E+02  0.51100000000E-03 0.  1.
         12    1    4    4    0    0 -0.16383531965E+01 -0.44865554829E+01  0.89988580103E+01  0.10187876461E+02  0.00000000000E+00 0. -1.
</event>
<event>
 8    1  0.8828843E-009  0.9118800E+02  0.7816164E-02  0.1184000E+00
        -11   -1    0    0    0    0  0.00000000000E+00  0.00000000000E+00  0.45593999997E+02  0.45594000000E+02  0.51100000000E-03 0.  1.
         11   -1    0    0    0    0 -0.00000000000E+00 -0.00000000000E+00 -0.45593999997E+02  0.45594000000E+02  0.51100000000E-03 0. -1.
         23    2    1    2    0    0 -0.71054273576E-14  0.00000000000E+00  0.00000000000E+00  0.91188000000E+02  0.91188000000E+02 0.  0.
    9900012    2    3    3    0    0  0.44784683082E+02 -0.45867291777E+01  0.15516343889E+01  0.46142317714E+02  0.99999995711E+01 0.  0.
         12    1    3    3    0    0 -0.44784683082E+02  0.45867291777E+01 -0.15516343889E+01  0.45045682286E+02  0.00000000000E+00 0. -1.
         11    1    4    4    0    0  0.11903077666E+02  0.36728997818E+00 -0.14706593449E+01  0.11999208266E+02  0.51100000000E-03 0. -1.
        -11    1    4    4    0    0  0.30039507842E+02 -0.39047687098E+01  0.47393948722E+01  0.30660742230E+02  0.51100000000E-03 0.  1.
         12    1    4    4    0    0  0.28420975739E+01 -0.10492504461E+01 -0.17171011384E+01  0.34823672175E+01  0.00000000000E+00 0. -1.
</event>
<event>
 8    1  0.8828843E-009  0.9118800E+02  0.7816164E-02  0.1184000E+00
        -11   -1    0    0    0    0  0.00000000000E+00  0.00000000000E+00  0.45593999997E+02  0.45594000000E+02  0.51100000000E-03 0. -1.
         11   -1    0    0    0    0 -0.00000000000E+00 -0.00000000000E+00 -0.45593999997E+02  0.45594000000E+02  0.51100000000E-03 0.  1.
         23    2    1    2    0    0  0.35527136788E-14 -0.35527136788E-14  0.00000000000E+00  0.91188000000E+02  0.91188000000E+02 0.  0.
    9900012    2    3    3    0    0 -0.20365557225E+02 -0.29579847729E+02 -0.27191730863E+02  0.46142317187E+02  0.99999947670E+01 0.  0.
         12    1    3    3    0    0  0.20365557225E+02  0.29579847729E+02  0.27191730863E+02  0.45045682813E+02  0.00000000000E+00 0. -1.
         11    1    4    4    0    0 -0.21222399164E+01 -0.52788336141E+01 -0.22559713493E+01  0.61204079585E+01  0.51100000000E-03 0. -1.
        -11    1    4    4    0    0 -0.15854589011E+02 -0.23855235101E+02 -0.24157596339E+02  0.37470384246E+02  0.51100000000E-03 0.  1.
         12    1    4    4    0    0 -0.23887282978E+01 -0.44577901406E+00 -0.77816317408E+00  0.25515249823E+01  0.00000000000E+00 0. -1.
</event>
<event>
 8    1  0.8828843E-009  0.9118800E+02  0.7816164E-02  0.1184000E+00
        -11   -1    0    0    0    0  0.00000000000E+00  0.00000000000E+00  0.45593999997E+02  0.45594000000E+02  0.51100000000E-03 0. -1.
         11   -1    0    0    0    0 -0.00000000000E+00 -0.00000000000E+00 -0.45593999997E+02  0.45594000000E+02  0.51100000000E-03 0.  1.
         23    2    1    2    0    0  0.00000000000E+00  0.00000000000E+00  0.00000000000E+00  0.91188000000E+02  0.91188000000E+02 0.  0.
    9900012    2    3    3    0    0 -0.39377081620E+02 -0.21244934867E+02 -0.52164810146E+01  0.46142317759E+02  0.99999999795E+01 0.  0.
         12    1    3    3    0    0  0.39377081620E+02  0.21244934867E+02  0.52164810146E+01  0.45045682241E+02  0.00000000000E+00 0. -1.
         11    1    4    4    0    0 -0.37533233419E+01 -0.49269749425E+01 -0.52582434919E+00  0.62160284507E+01  0.51100000000E-03 0. -1.
        -11    1    4    4    0    0 -0.13458961093E+02 -0.34285429630E+01 -0.31400875705E+01  0.14239336037E+02  0.51100000000E-03 0.  1.
        -12    1    4    4    0    0 -0.22164797184E+02 -0.12889416962E+02 -0.15505690949E+01  0.25686953271E+02  0.00000000000E+00 0.  1.
</event>
<event>
 8    1  0.8828843E-009  0.9118800E+02  0.7816164E-02  0.1184000E+00
        -11   -1    0    0    0    0  0.00000000000E+00  0.00000000000E+00  0.45593999997E+02  0.45594000000E+02  0.51100000000E-03 0. -1.
         11   -1    0    0    0    0 -0.00000000000E+00 -0.00000000000E+00 -0.45593999997E+02  0.45594000000E+02  0.51100000000E-03 0.  1.
         23    2    1    2    0    0  0.00000000000E+00 -0.15265566589E-15  0.71054273576E-14  0.91188000000E+02  0.91188000000E+02 0.  0.
    9900012    2    3    3    0    0  0.17690683414E+02 -0.10308175765E+00  0.41426349976E+02  0.46142318988E+02  0.10000011187E+02 0.  0.
        -12    1    3    3    0    0 -0.17690683414E+02  0.10308175765E+00 -0.41426349976E+02  0.45045681012E+02  0.00000000000E+00 0.  1.
         11    1    4    4    0    0  0.23985907339E+01 -0.80936722928E+00  0.95254255008E+00  0.27047459014E+01  0.51100000000E-03 0. -1.
        -11    1    4    4    0    0  0.20342022699E+01  0.56416128934E+00  0.28551594360E+01  0.35508016703E+01  0.51100000000E-03 0.  1.
         12    1    4    4    0    0  0.13257890410E+02  0.14212418229E+00  0.37618647990E+02  0.39886771416E+02  0.00000000000E+00 0. -1.
</event>
<event>
 8    1  0.8828843E-009  0.9118800E+02  0.7816164E-02  0.1184000E+00
        -11   -1    0    0    0    0  0.00000000000E+00  0.00000000000E+00  0.45593999997E+02  0.45594000000E+02  0.51100000000E-03 0. -1.
         11   -1    0    0    0    0 -0.00000000000E+00 -0.00000000000E+00 -0.45593999997E+02  0.45594000000E+02  0.51100000000E-03 0.  1.
         23    2    1    2    0    0 -0.71054273576E-14  0.17763568394E-14  0.00000000000E+00  0.91188000000E+02  0.91188000000E+02 0.  0.
    9900012    2    3    3    0    0  0.41210711150E+02 -0.15387754618E+02 -0.96957644534E+01  0.46142317033E+02  0.99999933595E+01 0.  0.
         12    1    3    3    0    0 -0.41210711150E+02  0.15387754618E+02  0.96957644534E+01  0.45045682967E+02  0.00000000000E+00 0. -1.
         11    1    4    4    0    0  0.72201714387E+01 -0.14031859860E+01 -0.32120420005E+01  0.80260214670E+01  0.51100000000E-03 0.  1.
        -11    1    4    4    0    0  0.32390971967E+02 -0.11824961216E+02 -0.74184157743E+01  0.35270918128E+02  0.51100000000E-03 0. -1.
         12    1    4    4    0    0  0.15995677437E+01 -0.21596074160E+01  0.93469332140E+00  0.28453774377E+01  0.00000000000E+00 0. -1.
</event>
<event>
 8    1  0.8828843E-009  0.9118800E+02  0.7816164E-02  0.1184000E+00
        -11   -1    0    0    0    0  0.00000000000E+00  0.00000000000E+00  0.45593999997E+02  0.45594000000E+02  0.51100000000E-03 0. -1.
         11   -1    0    0    0    0 -0.00000000000E+00 -0.00000000000E+00 -0.45593999997E+02  0.45594000000E+02  0.51100000000E-03 0.  1.
         23    2    1    2    0    0  0.00000000000E+00  0.35527136788E-14  0.00000000000E+00  0.91188000000E+02  0.91188000000E+02 0.  0.
    9900012    2    3    3    0    0  0.18119069058E+02  0.18966615675E+02 -0.36620767596E+02  0.46142314380E+02  0.99999691679E+01 0.  0.
         12    1    3    3    0    0 -0.18119069058E+02 -0.18966615675E+02  0.36620767596E+02  0.45045685620E+02  0.00000000000E+00 0. -1.
         11    1    4    4    0    0  0.14079372032E+01 -0.77888766044E+00 -0.33515258534E+01  0.37177518695E+01  0.51100000000E-03 0. -1.
        -11    1    4    4    0    0  0.41698755190E+01  0.21575104707E+01 -0.67200560387E+01  0.81976744689E+01  0.51100000000E-03 0.  1.
        -12    1    4    4    0    0  0.12541256335E+02  0.17587992865E+02 -0.26549185704E+02  0.34226888042E+02  0.00000000000E+00 0.  1.
</event>
<event>
 8    1  0.8828843E-009  0.9118800E+02  0.7816164E-02  0.1184000E+00
        -11   -1    0    0    0    0  0.00000000000E+00  0.00000000000E+00  0.45593999997E+02  0.45594000000E+02  0.51100000000E-03 0. -1.
         11   -1    0    0    0    0 -0.00000000000E+00 -0.00000000000E+00 -0.45593999997E+02  0.45594000000E+02  0.51100000000E-03 0.  1.
         23    2    1    2    0    0  0.22204460493E-15 -0.35527136788E-14 -0.71054273576E-14  0.91188000000E+02  0.91188000000E+02 0.  0.
    9900012    2    3    3    0    0 -0.42553220861E+00  0.27682097320E+02  0.35533562122E+02  0.46142316225E+02  0.99999859920E+01 0.  0.
        -12    1    3    3    0    0  0.42553220861E+00 -0.27682097320E+02 -0.35533562122E+02  0.45045683775E+02  0.00000000000E+00 0.  1.
         11    1    4    4    0    0  0.25414851142E+01  0.17644716995E+02  0.25193068782E+02  0.30862370281E+02  0.51100000000E-03 0. -1.
        -11    1    4    4    0    0 -0.29830592996E+00  0.13241384891E+01  0.38768805109E+01  0.41076187656E+01  0.51100000000E-03 0.  1.
        -12    1    4    4    0    0 -0.26687113928E+01  0.87132418356E+01  0.64636128289E+01  0.11172327179E+02  0.00000000000E+00 0.  1.
</event>
<event>
 8    1  0.8828843E-009  0.9118800E+02  0.7816164E-02  0.1184000E+00
        -11   -1    0    0    0    0  0.00000000000E+00  0.00000000000E+00  0.45593999997E+02  0.45594000000E+02  0.51100000000E-03 0. -1.
         11   -1    0    0    0    0 -0.00000000000E+00 -0.00000000000E+00 -0.45593999997E+02  0.45594000000E+02  0.51100000000E-03 0.  1.
         23    2    1    2    0    0  0.00000000000E+00  0.00000000000E+00  0.00000000000E+00  0.91188000000E+02  0.91188000000E+02 0.  0.
    9900012    2    3    3    0    0 -0.90302612757E+01  0.76959230275E+01 -0.43455042064E+02  0.46142317291E+02  0.99999957098E+01 0.  0.
         12    1    3    3    0    0  0.90302612757E+01 -0.76959230275E+01  0.43455042064E+02  0.45045682709E+02  0.00000000000E+00 0. -1.
         11    1    4    4    0    0 -0.11192096893E+01  0.47065702963E+00 -0.23604837408E+01  0.26544363092E+01  0.51100000000E-03 0. -1.
        -11    1    4    4    0    0 -0.61703624852E+01  0.24196211954E+01 -0.34570397509E+02  0.35200004604E+02  0.51100000000E-03 0.  1.
        -12    1    4    4    0    0 -0.17406891012E+01  0.48056448025E+01 -0.65241608141E+01  0.82878763772E+01  0.00000000000E+00 0.  1.
</event>
<event>
 8    1  0.8828843E-009  0.9118800E+02  0.7816164E-02  0.1184000E+00
        -11   -1    0    0    0    0  0.00000000000E+00  0.00000000000E+00  0.45593999997E+02  0.45594000000E+02  0.51100000000E-03 0. -1.
         11   -1    0    0    0    0 -0.00000000000E+00 -0.00000000000E+00 -0.45593999997E+02  0.45594000000E+02  0.51100000000E-03 0.  1.
         23    2    1    2    0    0 -0.88817841970E-15 -0.44408920985E-15 -0.71054273576E-14  0.91188000000E+02  0.91188000000E+02 0.  0.
    9900012    2    3    3    0    0  0.44821930635E+01  0.37406612437E+01  0.44665767840E+02  0.46142318543E+02  0.10000007127E+02 0.  0.
        -12    1    3    3    0    0 -0.44821930635E+01 -0.37406612437E+01 -0.44665767840E+02  0.45045681457E+02  0.00000000000E+00 0.  1.
         11    1    4    4    0    0 -0.12274793114E+01  0.90193458208E+00  0.54818583993E+01  0.56895485956E+01  0.51100000000E-03 0. -1.
        -11    1    4    4    0    0  0.35471379558E+01  0.11012269300E+01  0.53932815399E+01  0.65484635189E+01  0.51100000000E-03 0.  1.
        -12    1    4    4    0    0  0.21625344191E+01  0.17374997316E+01  0.33790627901E+02  0.33904306428E+02  0.00000000000E+00 0.  1.
</event>
<event>
 8    1  0.8828843E-009  0.9118800E+02  0.7816164E-02  0.1184000E+00
        -11   -1    0    0    0    0  0.00000000000E+00  0.00000000000E+00  0.45593999997E+02  0.45594000000E+02  0.51100000000E-03 0. -1.
         11   -1    0    0    0    0 -0.00000000000E+00 -0.00000000000E+00 -0.45593999997E+02  0.45594000000E+02  0.51100000000E-03 0.  1.
         23    2    1    2    0    0 -0.71054273576E-14  0.00000000000E+00 -0.71054273576E-14  0.91188000000E+02  0.91188000000E+02 0.  0.
    9900012    2    3    3    0    0 -0.20901794803E+02  0.13602060929E+02 -0.37512830485E+02  0.46142317205E+02  0.99999949253E+01 0.  0.
         12    1    3    3    0    0  0.20901794803E+02 -0.13602060929E+02  0.37512830485E+02  0.45045682795E+02  0.00000000000E+00 0. -1.
         11    1    4    4    0    0 -0.58137937185E+01  0.41093433362E+01 -0.10950803708E+02  0.13061661540E+02  0.51100000000E-03 0. -1.
        -11    1    4    4    0    0 -0.15390795189E+02  0.96739486405E+01 -0.22150136986E+02  0.28654675493E+02  0.51100000000E-03 0.  1.
         12    1    4    4    0    0  0.30279410389E+00 -0.18123104747E+00 -0.44118897900E+01  0.44259801718E+01  0.00000000000E+00 0. -1.
</event>
<event>
 8    1  0.8828843E-009  0.9118800E+02  0.7816164E-02  0.1184000E+00
        -11   -1    0    0    0    0  0.00000000000E+00  0.00000000000E+00  0.45593999997E+02  0.45594000000E+02  0.51100000000E-03 0. -1.
         11   -1    0    0    0    0 -0.00000000000E+00 -0.00000000000E+00 -0.45593999997E+02  0.45594000000E+02  0.51100000000E-03 0.  1.
         23    2    1    2    0    0  0.00000000000E+00  0.17763568394E-14  0.00000000000E+00  0.91188000000E+02  0.91188000000E+02 0.  0.
    9900012    2    3    3    0    0  0.24871611301E+02 -0.12606970323E+02 -0.35377685682E+02  0.46142318812E+02  0.10000009587E+02 0.  0.
         12    1    3    3    0    0 -0.24871611301E+02  0.12606970323E+02  0.35377685682E+02  0.45045681188E+02  0.00000000000E+00 0. -1.
         11    1    4    4    0    0  0.23448446781E+02 -0.85743322176E+01 -0.31074149024E+02  0.39861655350E+02  0.51100000000E-03 0. -1.
        -11    1    4    4    0    0  0.14324951545E+00 -0.15841548871E+01 -0.25592679748E+01  0.30132905531E+01  0.51100000000E-03 0.  1.
        -12    1    4    4    0    0  0.12799150043E+01 -0.24484832181E+01 -0.17442686836E+01  0.32673729093E+01  0.00000000000E+00 0.  1.
</event>
<event>
 8    1  0.8828843E-009  0.9118800E+02  0.7816164E-02  0.1184000E+00
        -11   -1    0    0    0    0  0.00000000000E+00  0.00000000000E+00  0.45593999997E+02  0.45594000000E+02  0.51100000000E-03 0.  1.
         11   -1    0    0    0    0 -0.00000000000E+00 -0.00000000000E+00 -0.45593999997E+02  0.45594000000E+02  0.51100000000E-03 0. -1.
         23    2    1    2    0    0  0.00000000000E+00  0.00000000000E+00  0.00000000000E+00  0.91188000000E+02  0.91188000000E+02 0.  0.
    9900012    2    3    3    0    0 -0.14180695891E+02  0.40803104594E+02  0.12772159400E+02  0.46142317230E+02  0.99999951540E+01 0.  0.
        -12    1    3    3    0    0  0.14180695891E+02 -0.40803104594E+02 -0.12772159400E+02  0.45045682770E+02  0.00000000000E+00 0.  1.
         11    1    4    4    0    0 -0.38733095283E+01  0.86976161719E+01  0.18643973410E+01  0.97019086515E+01  0.51100000000E-03 0. -1.
        -11    1    4    4    0    0 -0.71012408679E+01  0.13636442610E+02  0.84242274299E+01  0.17531337569E+02  0.51100000000E-03 0.  1.
        -12    1    4    4    0    0 -0.32061454952E+01  0.18469045813E+02  0.24835346291E+01  0.18909071009E+02  0.00000000000E+00 0.  1.
</event>
<event>
 8    1  0.8828843E-009  0.9118800E+02  0.7816164E-02  0.1184000E+00
        -11   -1    0    0    0    0  0.00000000000E+00  0.00000000000E+00  0.45593999997E+02  0.45594000000E+02  0.51100000000E-03 0. -1.
         11   -1    0    0    0    0 -0.00000000000E+00 -0.00000000000E+00 -0.45593999997E+02  0.45594000000E+02  0.51100000000E-03 0.  1.
         23    2    1    2    0    0  0.00000000000E+00 -0.88817841970E-15  0.00000000000E+00  0.91188000000E+02  0.91188000000E+02 0.  0.
    9900012    2    3    3    0    0  0.22835688597E+02 -0.44762237219E+01 -0.38569524341E+02  0.46142318072E+02  0.10000002831E+02 0.  0.
         12    1    3    3    0    0 -0.22835688597E+02  0.44762237219E+01  0.38569524341E+02  0.45045681928E+02  0.00000000000E+00 0. -1.
         11    1    4    4    0    0  0.10562231324E+02  0.24194031472E+01 -0.18687052924E+02  0.21601393228E+02  0.51100000000E-03 0. -1.
        -11    1    4    4    0    0  0.10967017272E+01  0.24301162668E+00 -0.15939655859E+01  0.19500091998E+01  0.51100000000E-03 0.  1.
        -12    1    4    4    0    0  0.11176755546E+02 -0.71386384958E+01 -0.18288505831E+02  0.22590915644E+02  0.00000000000E+00 0.  1.
</event>
<event>
 8    1  0.8828843E-009  0.9118800E+02  0.7816164E-02  0.1184000E+00
        -11   -1    0    0    0    0  0.00000000000E+00  0.00000000000E+00  0.45593999997E+02  0.45594000000E+02  0.51100000000E-03 0. -1.
         11   -1    0    0    0    0 -0.00000000000E+00 -0.00000000000E+00 -0.45593999997E+02  0.45594000000E+02  0.51100000000E-03 0.  1.
         23    2    1    2    0    0  0.00000000000E+00  0.00000000000E+00  0.00000000000E+00  0.91188000000E+02  0.91188000000E+02 0.  0.
    9900012    2    3    3    0    0 -0.21853613641E+01  0.24997533535E+02  0.37409368401E+02  0.46142319505E+02  0.10000015899E+02 0.  0.
        -12    1    3    3    0    0  0.21853613641E+01 -0.24997533535E+02 -0.37409368401E+02  0.45045680495E+02  0.00000000000E+00 0.  1.
         11    1    4    4    0    0  0.13799718748E+01  0.16920600126E+02  0.27238589027E+02  0.32095977372E+02  0.51100000000E-03 0. -1.
        -11    1    4    4    0    0 -0.41270373549E+01  0.69539135675E+01  0.72241440325E+01  0.10843320916E+02  0.51100000000E-03 0.  1.
        -12    1    4    4    0    0  0.56170411595E+00  0.11230198417E+01  0.29466353412E+01  0.32030212164E+01  0.00000000000E+00 0.  1.
</event>
<event>
 8    1  0.8828843E-009  0.9118800E+02  0.7816164E-02  0.1184000E+00
        -11   -1    0    0    0    0  0.00000000000E+00  0.00000000000E+00  0.45593999997E+02  0.45594000000E+02  0.51100000000E-03 0. -1.
         11   -1    0    0    0    0 -0.00000000000E+00 -0.00000000000E+00 -0.45593999997E+02  0.45594000000E+02  0.51100000000E-03 0.  1.
         23    2    1    2    0    0  0.00000000000E+00  0.35527136788E-14  0.71054273576E-14  0.91188000000E+02  0.91188000000E+02 0.  0.
    9900012    2    3    3    0    0 -0.14202804578E+02 -0.28478751011E+02 -0.31880312486E+02  0.46142320504E+02  0.10000025015E+02 0.  0.
         12    1    3    3    0    0  0.14202804578E+02  0.28478751011E+02  0.31880312486E+02  0.45045679496E+02  0.00000000000E+00 0. -1.
         11    1    4    4    0    0 -0.16062648745E+01 -0.25379615854E+01 -0.76247270740E+01  0.81949862154E+01  0.51100000000E-03 0. -1.
        -11    1    4    4    0    0 -0.30347324999E+01 -0.34261598680E+01 -0.52907787849E+01  0.69957496524E+01  0.51100000000E-03 0.  1.
         12    1    4    4    0    0 -0.95618072032E+01 -0.22514629558E+02 -0.18964806627E+02  0.30951584637E+02  0.00000000000E+00 0. -1.
</event>
<event>
 8    1  0.8828843E-009  0.9118800E+02  0.7816164E-02  0.1184000E+00
        -11   -1    0    0    0    0  0.00000000000E+00  0.00000000000E+00  0.45593999997E+02  0.45594000000E+02  0.51100000000E-03 0.  1.
         11   -1    0    0    0    0 -0.00000000000E+00 -0.00000000000E+00 -0.45593999997E+02  0.45594000000E+02  0.51100000000E-03 0. -1.
         23    2    1    2    0    0  0.00000000000E+00  0.00000000000E+00 -0.44408920985E-15  0.91188000000E+02  0.91188000000E+02 0.  0.
    9900012    2    3    3    0    0  0.38105471217E+02 -0.23835907132E+02 -0.29893019869E+01  0.46142319498E+02  0.10000015837E+02 0.  0.
         12    1    3    3    0    0 -0.38105471217E+02  0.23835907132E+02  0.29893019869E+01  0.45045680502E+02  0.00000000000E+00 0. -1.
         11    1    4    4    0    0  0.15532874133E+02 -0.10842249210E+02 -0.54260361854E+01  0.19704477047E+02  0.51100000000E-03 0.  1.
        -11    1    4    4    0    0  0.93695994135E+00 -0.72041290940E-01 -0.50385910163E+00  0.10662823898E+01  0.51100000000E-03 0. -1.
         12    1    4    4    0    0  0.21635637143E+02 -0.12921616631E+02  0.29405933001E+01  0.25371560061E+02  0.00000000000E+00 0. -1.
</event>
<event>
 8    1  0.8828843E-009  0.9118800E+02  0.7816164E-02  0.1184000E+00
        -11   -1    0    0    0    0  0.00000000000E+00  0.00000000000E+00  0.45593999997E+02  0.45594000000E+02  0.51100000000E-03 0. -1.
         11   -1    0    0    0    0 -0.00000000000E+00 -0.00000000000E+00 -0.45593999997E+02  0.45594000000E+02  0.51100000000E-03 0.  1.
         23    2    1    2    0    0  0.00000000000E+00  0.44408920985E-15  0.35527136788E-14  0.91188000000E+02  0.91188000000E+02 0.  0.
    9900012    2    3    3    0    0  0.31701935752E+02 -0.33813966374E+01 -0.31822427811E+02  0.46142317794E+02  0.10000000302E+02 0.  0.
         12    1    3    3    0    0 -0.31701935752E+02  0.33813966374E+01  0.31822427811E+02  0.45045682206E+02  0.00000000000E+00 0. -1.
         11    1    4    4    0    0  0.12257264817E+02 -0.13757802047E+01 -0.10472981152E+02  0.16180749254E+02  0.51100000000E-03 0. -1.
        -11    1    4    4    0    0  0.60118156425E+01  0.22246281280E+01 -0.37701351360E+01  0.74367208387E+01  0.51100000000E-03 0.  1.
         12    1    4    4    0    0  0.13432855292E+02 -0.42302445607E+01 -0.17579311523E+02  0.22524847701E+02  0.00000000000E+00 0. -1.
</event>
<event>
 8    1  0.8828843E-009  0.9118800E+02  0.7816164E-02  0.1184000E+00
        -11   -1    0    0    0    0  0.00000000000E+00  0.00000000000E+00  0.45593999997E+02  0.45594000000E+02  0.51100000000E-03 0.  1.
         11   -1    0    0    0    0 -0.00000000000E+00 -0.00000000000E+00 -0.45593999997E+02  0.45594000000E+02  0.51100000000E-03 0. -1.
         23    2    1    2    0    0  0.35527136788E-14  0.00000000000E+00  0.88817841970E-15  0.91188000000E+02  0.91188000000E+02 0.  0.
    9900012    2    3    3    0    0 -0.17333008954E+02  0.40908856316E+02  0.74260190943E+01  0.46142317809E+02  0.10000000438E+02 0.  0.
         12    1    3    3    0    0  0.17333008954E+02 -0.40908856316E+02 -0.74260190943E+01  0.45045682191E+02  0.00000000000E+00 0. -1.
         11    1    4    4    0    0 -0.10446084380E+02  0.18579808390E+02  0.64855027256E+01  0.22279849742E+02  0.51100000000E-03 0. -1.
        -11    1    4    4    0    0 -0.18848354759E+01  0.13998897055E+02  0.40119107902E+00  0.14130912146E+02  0.51100000000E-03 0.  1.
        -12    1    4    4    0    0 -0.50020890984E+01  0.83301508708E+01  0.53932528961E+00  0.97315559212E+01  0.00000000000E+00 0.  1.
</event>
<event>
 8    1  0.8828843E-009  0.9118800E+02  0.7816164E-02  0.1184000E+00
        -11   -1    0    0    0    0  0.00000000000E+00  0.00000000000E+00  0.45593999997E+02  0.45594000000E+02  0.51100000000E-03 0. -1.
         11   -1    0    0    0    0 -0.00000000000E+00 -0.00000000000E+00 -0.45593999997E+02  0.45594000000E+02  0.51100000000E-03 0.  1.
         23    2    1    2    0    0  0.00000000000E+00  0.00000000000E+00  0.00000000000E+00  0.91188000000E+02  0.91188000000E+02 0.  0.
    9900012    2    3    3    0    0  0.40891647577E+02 -0.18654010680E+01  0.18801779712E+02  0.46142317820E+02  0.10000000537E+02 0.  0.
        -12    1    3    3    0    0 -0.40891647577E+02  0.18654010680E+01 -0.18801779712E+02  0.45045682180E+02  0.00000000000E+00 0.  1.
         11    1    4    4    0    0  0.34001013380E+01 -0.22274165176E+01  0.11854982311E+01  0.42340854702E+01  0.51100000000E-03 0. -1.
        -11    1    4    4    0    0  0.75441751817E+01 -0.86677229128E+00  0.10613885653E+01  0.76676214907E+01  0.51100000000E-03 0.  1.
         12    1    4    4    0    0  0.29947371058E+02  0.12287877409E+01  0.16554892915E+02  0.34240610859E+02  0.00000000000E+00 0. -1.
</event>
<event>
 8    1  0.8828843E-009  0.9118800E+02  0.7816164E-02  0.1184000E+00
        -11   -1    0    0    0    0  0.00000000000E+00  0.00000000000E+00  0.45593999997E+02  0.45594000000E+02  0.51100000000E-03 0.  1.
         11   -1    0    0    0    0 -0.00000000000E+00 -0.00000000000E+00 -0.45593999997E+02  0.45594000000E+02  0.51100000000E-03 0. -1.
         23    2    1    2    0    0 -0.17763568394E-14 -0.71054273576E-14  0.17763568394E-14  0.91188000000E+02  0.91188000000E+02 0.  0.
    9900012    2    3    3    0    0  0.81979119939E+01  0.42222604772E+02 -0.13385043355E+02  0.46142317628E+02  0.99999987839E+01 0.  0.
         12    1    3    3    0    0 -0.81979119939E+01 -0.42222604772E+02  0.13385043355E+02  0.45045682372E+02  0.00000000000E+00 0. -1.
         11    1    4    4    0    0  0.22941347543E+01  0.19044158052E+02 -0.14405580231E+01  0.19235857606E+02  0.51100000000E-03 0. -1.
        -11    1    4    4    0    0  0.40376349658E+01  0.12104203676E+02 -0.50133149518E+01  0.13709397136E+02  0.51100000000E-03 0.  1.
        -12    1    4    4    0    0  0.18661422738E+01  0.11074243044E+02 -0.69311703801E+01  0.13197062886E+02  0.00000000000E+00 0.  1.
</event>
<event>
 8    1  0.8828843E-009  0.9118800E+02  0.7816164E-02  0.1184000E+00
        -11   -1    0    0    0    0  0.00000000000E+00  0.00000000000E+00  0.45593999997E+02  0.45594000000E+02  0.51100000000E-03 0. -1.
         11   -1    0    0    0    0 -0.00000000000E+00 -0.00000000000E+00 -0.45593999997E+02  0.45594000000E+02  0.51100000000E-03 0.  1.
         23    2    1    2    0    0  0.44408920985E-15  0.00000000000E+00 -0.35527136788E-14  0.91188000000E+02  0.91188000000E+02 0.  0.
    9900012    2    3    3    0    0 -0.34033750488E+01 -0.33985760091E+02  0.29368327436E+02  0.46142317554E+02  0.99999981090E+01 0.  0.
        -12    1    3    3    0    0  0.34033750488E+01  0.33985760091E+02 -0.29368327436E+02  0.45045682446E+02  0.00000000000E+00 0.  1.
         11    1    4    4    0    0 -0.37129875797E+00 -0.36132244532E+01  0.62029750959E+01  0.71881954633E+01  0.51100000000E-03 0. -1.
        -11    1    4    4    0    0  0.16473209456E+00  0.24218527871E+00 -0.15976303900E+00  0.33363881961E+00  0.51100000000E-03 0.  1.
        -12    1    4    4    0    0 -0.31968083853E+01 -0.30614720916E+02  0.23325115379E+02  0.38620483271E+02  0.00000000000E+00 0.  1.
</event>
<event>
 8    1  0.8828845E-009  0.9118800E+02  0.7816164E-02  0.1184000E+00
        -11   -1    0    0    0    0  0.00000000000E+00  0.00000000000E+00  0.45593999997E+02  0.45594000000E+02  0.51100000000E-03 0. -1.
         11   -1    0    0    0    0 -0.00000000000E+00 -0.00000000000E+00 -0.45593999997E+02  0.45594000000E+02  0.51100000000E-03 0.  1.
         23    2    1    2    0    0  0.17763568394E-14  0.00000000000E+00  0.00000000000E+00  0.91188000000E+02  0.91188000000E+02 0.  0.
    9900012    2    3    3    0    0 -0.11184614395E+02  0.25298047755E+02  0.35553152752E+02  0.46142317743E+02  0.99999998350E+01 0.  0.
        -12    1    3    3    0    0  0.11184614395E+02 -0.25298047755E+02 -0.35553152752E+02  0.45045682257E+02  0.00000000000E+00 0.  1.
         11    1    4    4    0    0 -0.49019576120E+01  0.14365687290E+02  0.19935704974E+02  0.25056625727E+02  0.51100000000E-03 0. -1.
        -11    1    4    4    0    0 -0.74204576971E+01  0.10652461160E+02  0.14063474602E+02  0.19139473330E+02  0.51100000000E-03 0.  1.
        -12    1    4    4    0    0  0.11378009144E+01  0.27989930443E+00  0.15539731759E+01  0.19462186858E+01  0.00000000000E+00 0.  1.
</event>
<event>
 8    1  0.8828843E-009  0.9118800E+02  0.7816164E-02  0.1184000E+00
        -11   -1    0    0    0    0  0.00000000000E+00  0.00000000000E+00  0.45593999997E+02  0.45594000000E+02  0.51100000000E-03 0. -1.
         11   -1    0    0    0    0 -0.00000000000E+00 -0.00000000000E+00 -0.45593999997E+02  0.45594000000E+02  0.51100000000E-03 0.  1.
         23    2    1    2    0    0  0.00000000000E+00  0.00000000000E+00 -0.35527136788E-14  0.91188000000E+02  0.91188000000E+02 0.  0.
    9900012    2    3    3    0    0 -0.20286623962E+01  0.32270887777E+02  0.31362204345E+02  0.46142317295E+02  0.99999957466E+01 0.  0.
        -12    1    3    3    0    0  0.20286623962E+01 -0.32270887777E+02 -0.31362204345E+02  0.45045682705E+02  0.00000000000E+00 0.  1.
         11    1    4    4    0    0  0.40462360660E+00  0.10473661008E+02  0.78987868219E+01  0.13124485845E+02  0.51100000000E-03 0. -1.
        -11    1    4    4    0    0  0.23982588770E+01  0.10097963128E+02  0.12707929097E+02  0.16407680128E+02  0.51100000000E-03 0.  1.
        -12    1    4    4    0    0 -0.48315448798E+01  0.11699263641E+02  0.10755488426E+02  0.16610151322E+02  0.00000000000E+00 0.  1.
</event>
<event>
 8    1  0.8828843E-009  0.9118800E+02  0.7816164E-02  0.1184000E+00
        -11   -1    0    0    0    0  0.00000000000E+00  0.00000000000E+00  0.45593999997E+02  0.45594000000E+02  0.51100000000E-03 0. -1.
         11   -1    0    0    0    0 -0.00000000000E+00 -0.00000000000E+00 -0.45593999997E+02  0.45594000000E+02  0.51100000000E-03 0.  1.
         23    2    1    2    0    0  0.00000000000E+00  0.00000000000E+00  0.35527136788E-14  0.91188000000E+02  0.91188000000E+02 0.  0.
    9900012    2    3    3    0    0 -0.14502333470E+02  0.38182485611E+02 -0.18997199076E+02  0.46142318117E+02  0.10000003249E+02 0.  0.
         12    1    3    3    0    0  0.14502333470E+02 -0.38182485611E+02  0.18997199076E+02  0.45045681883E+02  0.00000000000E+00 0. -1.
         11    1    4    4    0    0 -0.24549686636E+00  0.37563415615E+01 -0.40249724243E+01  0.55109685098E+01  0.51100000000E-03 0. -1.
        -11    1    4    4    0    0 -0.87992316092E+01  0.24591593379E+02 -0.13133679065E+02  0.29234679199E+02  0.51100000000E-03 0.  1.
        -12    1    4    4    0    0 -0.54576049944E+01  0.98345506710E+01 -0.18385475864E+01  0.11396670409E+02  0.00000000000E+00 0.  1.
</event>
<event>
 8    1  0.8828843E-009  0.9118800E+02  0.7816164E-02  0.1184000E+00
        -11   -1    0    0    0    0  0.00000000000E+00  0.00000000000E+00  0.45593999997E+02  0.45594000000E+02  0.51100000000E-03 0.  1.
         11   -1    0    0    0    0 -0.00000000000E+00 -0.00000000000E+00 -0.45593999997E+02  0.45594000000E+02  0.51100000000E-03 0. -1.
         23    2    1    2    0    0  0.00000000000E+00  0.00000000000E+00 -0.88817841970E-15  0.91188000000E+02  0.91188000000E+02 0.  0.
    9900012    2    3    3    0    0  0.27514718924E+02 -0.35212160427E+02 -0.56707613068E+01  0.46142317264E+02  0.99999954662E+01 0.  0.
         12    1    3    3    0    0 -0.27514718924E+02  0.35212160427E+02  0.56707613068E+01  0.45045682736E+02  0.00000000000E+00 0. -1.
         11    1    4    4    0    0  0.48710213990E+01 -0.98324418757E+01 -0.19044572865E-01  0.10972881375E+02  0.51100000000E-03 0. -1.
        -11    1    4    4    0    0  0.53466695693E+01 -0.55277353068E+01 -0.42849659637E+01  0.88036166816E+01  0.51100000000E-03 0.  1.
         12    1    4    4    0    0  0.17297027955E+02 -0.19851983244E+02 -0.13667507702E+01  0.26365819208E+02  0.00000000000E+00 0. -1.
</event>
<event>
 8    1  0.8828843E-009  0.9118800E+02  0.7816164E-02  0.1184000E+00
        -11   -1    0    0    0    0  0.00000000000E+00  0.00000000000E+00  0.45593999997E+02  0.45594000000E+02  0.51100000000E-03 0. -1.
         11   -1    0    0    0    0 -0.00000000000E+00 -0.00000000000E+00 -0.45593999997E+02  0.45594000000E+02  0.51100000000E-03 0.  1.
         23    2    1    2    0    0 -0.35527136788E-14 -0.44408920985E-15 -0.71054273576E-14  0.91188000000E+02  0.91188000000E+02 0.  0.
    9900012    2    3    3    0    0 -0.17785557960E+02 -0.28487251824E+01 -0.41287675512E+02  0.46142318117E+02  0.10000003248E+02 0.  0.
         12    1    3    3    0    0  0.17785557960E+02  0.28487251824E+01  0.41287675512E+02  0.45045681883E+02  0.00000000000E+00 0. -1.
         11    1    4    4    0    0 -0.12539819499E+02 -0.21579690120E+01 -0.24190146244E+02  0.27332527854E+02  0.51100000000E-03 0. -1.
        -11    1    4    4    0    0 -0.11839131356E+00 -0.53022286684E+00 -0.10196549154E+02  0.10211012080E+02  0.51100000000E-03 0.  1.
         12    1    4    4    0    0 -0.51273471477E+01 -0.16053330360E+00 -0.69009801145E+01  0.85987781839E+01  0.00000000000E+00 0. -1.
</event>
<event>
 8    1  0.8828843E-009  0.9118800E+02  0.7816164E-02  0.1184000E+00
        -11   -1    0    0    0    0  0.00000000000E+00  0.00000000000E+00  0.45593999997E+02  0.45594000000E+02  0.51100000000E-03 0. -1.
         11   -1    0    0    0    0 -0.00000000000E+00 -0.00000000000E+00 -0.45593999997E+02  0.45594000000E+02  0.51100000000E-03 0.  1.
         23    2    1    2    0    0  0.00000000000E+00  0.00000000000E+00  0.35527136788E-14  0.91188000000E+02  0.91188000000E+02 0.  0.
    9900012    2    3    3    0    0  0.98041293266E+01 -0.37043697551E+02  0.23680308726E+02  0.46142317616E+02  0.99999986758E+01 0.  0.
        -12    1    3    3    0    0 -0.98041293266E+01  0.37043697551E+02 -0.23680308726E+02  0.45045682384E+02  0.00000000000E+00 0.  1.
         11    1    4    4    0    0  0.22781115216E+01 -0.14653497724E+02  0.71005477127E+01  0.16441793264E+02  0.51100000000E-03 0. -1.
        -11    1    4    4    0    0 -0.11267756320E+01 -0.16035166209E+01  0.47075987919E+00  0.20155654302E+01  0.51100000000E-03 0.  1.
         12    1    4    4    0    0  0.86527934370E+01 -0.20786683207E+02  0.16109001134E+02  0.27684958922E+02  0.00000000000E+00 0. -1.
</event>
<event>
 8    1  0.8828843E-009  0.9118800E+02  0.7816164E-02  0.1184000E+00
        -11   -1    0    0    0    0  0.00000000000E+00  0.00000000000E+00  0.45593999997E+02  0.45594000000E+02  0.51100000000E-03 0. -1.
         11   -1    0    0    0    0 -0.00000000000E+00 -0.00000000000E+00 -0.45593999997E+02  0.45594000000E+02  0.51100000000E-03 0.  1.
         23    2    1    2    0    0  0.35527136788E-14 -0.71054273576E-14  0.17763568394E-14  0.91188000000E+02  0.91188000000E+02 0.  0.
    9900012    2    3    3    0    0 -0.23754136105E+02  0.36717390075E+02  0.10802196217E+02  0.46142321416E+02  0.10000033327E+02 0.  0.
        -12    1    3    3    0    0  0.23754136105E+02 -0.36717390075E+02 -0.10802196217E+02  0.45045678584E+02  0.00000000000E+00 0.  1.
         11    1    4    4    0    0 -0.27485870086E+01  0.92771521047E+01  0.42933584260E+01  0.10585518814E+02  0.51100000000E-03 0. -1.
        -11    1    4    4    0    0 -0.69299323345E+01  0.13232330830E+02  0.22012072457E+01  0.15098471941E+02  0.51100000000E-03 0.  1.
        -12    1    4    4    0    0 -0.14075616762E+02  0.14207907140E+02  0.43076305451E+01  0.20458330661E+02  0.00000000000E+00 0.  1.
</event>
<event>
 8    1  0.8828843E-009  0.9118800E+02  0.7816164E-02  0.1184000E+00
        -11   -1    0    0    0    0  0.00000000000E+00  0.00000000000E+00  0.45593999997E+02  0.45594000000E+02  0.51100000000E-03 0. -1.
         11   -1    0    0    0    0 -0.00000000000E+00 -0.00000000000E+00 -0.45593999997E+02  0.45594000000E+02  0.51100000000E-03 0.  1.
         23    2    1    2    0    0 -0.44408920985E-15  0.00000000000E+00  0.35527136788E-14  0.91188000000E+02  0.91188000000E+02 0.  0.
    9900012    2    3    3    0    0  0.30207059021E+01  0.36305471915E+02 -0.26493423031E+02  0.46142318531E+02  0.10000007017E+02 0.  0.
         12    1    3    3    0    0 -0.30207059021E+01 -0.36305471915E+02  0.26493423031E+02  0.45045681469E+02  0.00000000000E+00 0. -1.
         11    1    4    4    0    0  0.54107510520E+00  0.99108245473E+00  0.55987937868E-01  0.11305492523E+01  0.51100000000E-03 0. -1.
        -11    1    4    4    0    0  0.54957641291E+01  0.24668482566E+02 -0.17976933685E+02  0.31014635262E+02  0.51100000000E-03 0.  1.
        -12    1    4    4    0    0 -0.30161333322E+01  0.10645906895E+02 -0.85724772835E+01  0.13997134016E+02  0.00000000000E+00 0.  1.
</event>
<event>
 8    1  0.8828843E-009  0.9118800E+02  0.7816164E-02  0.1184000E+00
        -11   -1    0    0    0    0  0.00000000000E+00  0.00000000000E+00  0.45593999997E+02  0.45594000000E+02  0.51100000000E-03 0. -1.
         11   -1    0    0    0    0 -0.00000000000E+00 -0.00000000000E+00 -0.45593999997E+02  0.45594000000E+02  0.51100000000E-03 0.  1.
         23    2    1    2    0    0  0.00000000000E+00  0.35527136788E-14  0.88817841970E-15  0.91188000000E+02  0.91188000000E+02 0.  0.
    9900012    2    3    3    0    0 -0.32136497052E+02  0.30595736565E+02  0.77627175526E+01  0.46142319602E+02  0.10000016787E+02 0.  0.
        -12    1    3    3    0    0  0.32136497052E+02 -0.30595736565E+02 -0.77627175526E+01  0.45045680398E+02  0.00000000000E+00 0.  1.
         11    1    4    4    0    0 -0.51591636020E+01  0.19504004316E+01  0.13311582100E+01  0.56738887332E+01  0.51100000000E-03 0. -1.
        -11    1    4    4    0    0 -0.22772625580E+02  0.20615758052E+02  0.33744792903E+01  0.30902897382E+02  0.51100000000E-03 0.  1.
         12    1    4    4    0    0 -0.42047078693E+01  0.80295780817E+01  0.30570800523E+01  0.95655334866E+01  0.00000000000E+00 0. -1.
</event>
<event>
 8    1  0.8828843E-009  0.9118800E+02  0.7816164E-02  0.1184000E+00
        -11   -1    0    0    0    0  0.00000000000E+00  0.00000000000E+00  0.45593999997E+02  0.45594000000E+02  0.51100000000E-03 0. -1.
         11   -1    0    0    0    0 -0.00000000000E+00 -0.00000000000E+00 -0.45593999997E+02  0.45594000000E+02  0.51100000000E-03 0.  1.
         23    2    1    2    0    0  0.00000000000E+00  0.00000000000E+00  0.00000000000E+00  0.91188000000E+02  0.91188000000E+02 0.  0.
    9900012    2    3    3    0    0 -0.31535603663E+02  0.20193251931E+02 -0.25037007758E+02  0.46142317860E+02  0.10000000902E+02 0.  0.
         12    1    3    3    0    0  0.31535603663E+02 -0.20193251931E+02  0.25037007758E+02  0.45045682140E+02  0.00000000000E+00 0. -1.
         11    1    4    4    0    0 -0.13172153222E+02  0.88364562194E+01 -0.11226764423E+02  0.19432673998E+02  0.51100000000E-03 0. -1.
        -11    1    4    4    0    0 -0.81106486919E+01  0.85739769314E+01 -0.46616458407E+01  0.12689627450E+02  0.51100000000E-03 0.  1.
         12    1    4    4    0    0 -0.10252801749E+02  0.27828187802E+01 -0.91485974943E+01  0.14020016412E+02  0.00000000000E+00 0. -1.
</event>
<event>
 8    1  0.8828843E-009  0.9118800E+02  0.7816164E-02  0.1184000E+00
        -11   -1    0    0    0    0  0.00000000000E+00  0.00000000000E+00  0.45593999997E+02  0.45594000000E+02  0.51100000000E-03 0. -1.
         11   -1    0    0    0    0 -0.00000000000E+00 -0.00000000000E+00 -0.45593999997E+02  0.45594000000E+02  0.51100000000E-03 0.  1.
         23    2    1    2    0    0  0.00000000000E+00  0.00000000000E+00  0.35527136788E-14  0.91188000000E+02  0.91188000000E+02 0.  0.
    9900012    2    3    3    0    0 -0.37501480702E+02 -0.21936747359E+01 -0.24858400777E+02  0.46142319265E+02  0.10000013716E+02 0.  0.
         12    1    3    3    0    0  0.37501480702E+02  0.21936747359E+01  0.24858400777E+02  0.45045680735E+02  0.00000000000E+00 0. -1.
         11    1    4    4    0    0 -0.31475607243E+01  0.36558219635E-01 -0.56080300515E+01  0.64310556160E+01  0.51100000000E-03 0. -1.
        -11    1    4    4    0    0 -0.19988301460E+02  0.33628366682E+00 -0.12930535516E+02  0.23808486532E+02  0.51100000000E-03 0.  1.
         12    1    4    4    0    0 -0.14365618517E+02 -0.25665166224E+01 -0.63198352099E+01  0.15902777117E+02  0.00000000000E+00 0. -1.
</event>
<event>
 8    1  0.8828843E-009  0.9118800E+02  0.7816164E-02  0.1184000E+00
        -11   -1    0    0    0    0  0.00000000000E+00  0.00000000000E+00  0.45593999997E+02  0.45594000000E+02  0.51100000000E-03 0. -1.
         11   -1    0    0    0    0 -0.00000000000E+00 -0.00000000000E+00 -0.45593999997E+02  0.45594000000E+02  0.51100000000E-03 0.  1.
         23    2    1    2    0    0 -0.22204460493E-15  0.00000000000E+00  0.14210854715E-13  0.91188000000E+02  0.91188000000E+02 0.  0.
    9900012    2    3    3    0    0 -0.16348648155E+01  0.66711363919E+01  0.44518947738E+02  0.46142317061E+02  0.99999936157E+01 0.  0.
        -12    1    3    3    0    0  0.16348648155E+01 -0.66711363919E+01 -0.44518947738E+02  0.45045682939E+02  0.00000000000E+00 0.  1.
         11    1    4    4    0    0 -0.13312830690E+01  0.82130030864E-01  0.70606659725E+01  0.71855455039E+01  0.51100000000E-03 0. -1.
        -11    1    4    4    0    0 -0.10306791620E+01  0.25294495420E+01  0.23385724887E+01  0.35957385982E+01  0.51100000000E-03 0.  1.
        -12    1    4    4    0    0  0.72709741552E+00  0.40595568190E+01  0.35119709277E+02  0.35361032959E+02  0.00000000000E+00 0.  1.
</event>
<event>
 8    1  0.8828843E-009  0.9118800E+02  0.7816164E-02  0.1184000E+00
        -11   -1    0    0    0    0  0.00000000000E+00  0.00000000000E+00  0.45593999997E+02  0.45594000000E+02  0.51100000000E-03 0. -1.
         11   -1    0    0    0    0 -0.00000000000E+00 -0.00000000000E+00 -0.45593999997E+02  0.45594000000E+02  0.51100000000E-03 0.  1.
         23    2    1    2    0    0  0.55511151231E-16 -0.35527136788E-14  0.00000000000E+00  0.91188000000E+02  0.91188000000E+02 0.  0.
    9900012    2    3    3    0    0  0.30178847129E+00  0.24344295613E+02 -0.37899573768E+02  0.46142317666E+02  0.99999991293E+01 0.  0.
         12    1    3    3    0    0 -0.30178847129E+00 -0.24344295613E+02  0.37899573768E+02  0.45045682334E+02  0.00000000000E+00 0. -1.
         11    1    4    4    0    0  0.32119427951E+01  0.10583901505E+02 -0.17006564999E+02  0.20286912059E+02  0.51100000000E-03 0. -1.
        -11    1    4    4    0    0 -0.33806418884E+01  0.58148922732E+01 -0.13048257383E+02  0.14679875092E+02  0.51100000000E-03 0.  1.
        -12    1    4    4    0    0  0.47048756457E+00  0.79455018355E+01 -0.78447513858E+01  0.11175530514E+02  0.00000000000E+00 0.  1.
</event>
<event>
 8    1  0.8828843E-009  0.9118800E+02  0.7816164E-02  0.1184000E+00
        -11   -1    0    0    0    0  0.00000000000E+00  0.00000000000E+00  0.45593999997E+02  0.45594000000E+02  0.51100000000E-03 0. -1.
         11   -1    0    0    0    0 -0.00000000000E+00 -0.00000000000E+00 -0.45593999997E+02  0.45594000000E+02  0.51100000000E-03 0.  1.
         23    2    1    2    0    0  0.00000000000E+00 -0.71054273576E-14 -0.35527136788E-14  0.91188000000E+02  0.91188000000E+02 0.  0.
    9900012    2    3    3    0    0  0.21771040373E+02 -0.26197499896E+02 -0.29475862544E+02  0.46142315718E+02  0.99999813697E+01 0.  0.
         12    1    3    3    0    0 -0.21771040373E+02  0.26197499896E+02  0.29475862544E+02  0.45045684282E+02  0.00000000000E+00 0. -1.
         11    1    4    4    0    0  0.96750059955E+01 -0.10659081100E+02 -0.95660879119E+01  0.17283859208E+02  0.51100000000E-03 0. -1.
        -11    1    4    4    0    0  0.23743657416E+01 -0.24087752332E+01 -0.39077499977E+00  0.34047784305E+01  0.51100000000E-03 0.  1.
        -12    1    4    4    0    0  0.97216686354E+01 -0.13129643563E+02 -0.19518999632E+02  0.25453678080E+02  0.00000000000E+00 0.  1.
</event>
<event>
 8    1  0.8828843E-009  0.9118800E+02  0.7816164E-02  0.1184000E+00
        -11   -1    0    0    0    0  0.00000000000E+00  0.00000000000E+00  0.45593999997E+02  0.45594000000E+02  0.51100000000E-03 0. -1.
         11   -1    0    0    0    0 -0.00000000000E+00 -0.00000000000E+00 -0.45593999997E+02  0.45594000000E+02  0.51100000000E-03 0.  1.
         23    2    1    2    0    0  0.00000000000E+00  0.00000000000E+00  0.00000000000E+00  0.91188000000E+02  0.91188000000E+02 0.  0.
    9900012    2    3    3    0    0  0.52742612311E+01 -0.23842951884E+02 -0.37852466827E+02  0.46142318398E+02  0.10000005806E+02 0.  0.
         12    1    3    3    0    0 -0.52742612311E+01  0.23842951884E+02  0.37852466827E+02  0.45045681602E+02  0.00000000000E+00 0. -1.
         11    1    4    4    0    0  0.13410760830E+01 -0.35086309526E+01 -0.44484337004E+01  0.58221592961E+01  0.51100000000E-03 0. -1.
        -11    1    4    4    0    0  0.50414579792E+01 -0.11904001104E+02 -0.26037240596E+02  0.29069906071E+02  0.51100000000E-03 0.  1.
        -12    1    4    4    0    0 -0.11082728311E+01 -0.84303198280E+01 -0.73667925309E+01  0.11250253031E+02  0.00000000000E+00 0.  1.
</event>
<event>
 8    1  0.8828843E-009  0.9118800E+02  0.7816164E-02  0.1184000E+00
        -11   -1    0    0    0    0  0.00000000000E+00  0.00000000000E+00  0.45593999997E+02  0.45594000000E+02  0.51100000000E-03 0. -1.
         11   -1    0    0    0    0 -0.00000000000E+00 -0.00000000000E+00 -0.45593999997E+02  0.45594000000E+02  0.51100000000E-03 0.  1.
         23    2    1    2    0    0  0.00000000000E+00  0.00000000000E+00  0.00000000000E+00  0.91188000000E+02  0.91188000000E+02 0.  0.
    9900012    2    3    3    0    0 -0.14375040091E+02 -0.33451515448E+02  0.26522969359E+02  0.46142316888E+02  0.99999920402E+01 0.  0.
        -12    1    3    3    0    0  0.14375040091E+02  0.33451515448E+02 -0.26522969359E+02  0.45045683112E+02  0.00000000000E+00 0.  1.
         11    1    4    4    0    0 -0.63048229882E+01 -0.23475981971E+02  0.14892686305E+02  0.28507273248E+02  0.51100000000E-03 0. -1.
        -11    1    4    4    0    0 -0.37022611939E+01 -0.70315714867E+01  0.76755504012E+01  0.11048249171E+02  0.51100000000E-03 0.  1.
         12    1    4    4    0    0 -0.43679559089E+01 -0.29439619909E+01  0.39547326527E+01  0.65867944693E+01  0.00000000000E+00 0. -1.
</event>
<event>
 8    1  0.8828843E-009  0.9118800E+02  0.7816164E-02  0.1184000E+00
        -11   -1    0    0    0    0  0.00000000000E+00  0.00000000000E+00  0.45593999997E+02  0.45594000000E+02  0.51100000000E-03 0. -1.
         11   -1    0    0    0    0 -0.00000000000E+00 -0.00000000000E+00 -0.45593999997E+02  0.45594000000E+02  0.51100000000E-03 0.  1.
         23    2    1    2    0    0  0.00000000000E+00 -0.27755575616E-16  0.35527136788E-14  0.91188000000E+02  0.91188000000E+02 0.  0.
    9900012    2    3    3    0    0  0.33314114792E+02  0.16873559498E+00 -0.30319213992E+02  0.46142318152E+02  0.10000003566E+02 0.  0.
         12    1    3    3    0    0 -0.33314114792E+02 -0.16873559498E+00  0.30319213992E+02  0.45045681848E+02  0.00000000000E+00 0. -1.
         11    1    4    4    0    0  0.33418437814E+01  0.16039307579E+01 -0.47985461451E+01  0.60635434445E+01  0.51100000000E-03 0. -1.
        -11    1    4    4    0    0  0.27500711904E+02 -0.15965178928E+00 -0.25160613122E+02  0.37274268563E+02  0.51100000000E-03 0.  1.
         12    1    4    4    0    0  0.24715591060E+01 -0.12755433736E+01 -0.36005472455E+00  0.28045061449E+01  0.00000000000E+00 0. -1.
</event>
<event>
 8    1  0.8828843E-009  0.9118800E+02  0.7816164E-02  0.1184000E+00
        -11   -1    0    0    0    0  0.00000000000E+00  0.00000000000E+00  0.45593999997E+02  0.45594000000E+02  0.51100000000E-03 0. -1.
         11   -1    0    0    0    0 -0.00000000000E+00 -0.00000000000E+00 -0.45593999997E+02  0.45594000000E+02  0.51100000000E-03 0.  1.
         23    2    1    2    0    0  0.00000000000E+00  0.00000000000E+00 -0.35527136788E-14  0.91188000000E+02  0.91188000000E+02 0.  0.
    9900012    2    3    3    0    0 -0.33319581901E+02 -0.41012862156E+01  0.30034953608E+02  0.46142317355E+02  0.99999962990E+01 0.  0.
        -12    1    3    3    0    0  0.33319581901E+02  0.41012862156E+01 -0.30034953608E+02  0.45045682645E+02  0.00000000000E+00 0.  1.
         11    1    4    4    0    0 -0.14404007593E+02 -0.20773053543E+01  0.82822188154E+01  0.16744723976E+02  0.51100000000E-03 0. -1.
        -11    1    4    4    0    0 -0.14115519114E+01 -0.17757493918E+01  0.24328641456E+01  0.33263482850E+01  0.51100000000E-03 0.  1.
         12    1    4    4    0    0 -0.17504022397E+02 -0.24823146941E+00  0.19319870647E+02  0.26071245094E+02  0.00000000000E+00 0. -1.
</event>
<event>
 8    1  0.8828843E-009  0.9118800E+02  0.7816164E-02  0.1184000E+00
        -11   -1    0    0    0    0  0.00000000000E+00  0.00000000000E+00  0.45593999997E+02  0.45594000000E+02  0.51100000000E-03 0. -1.
         11   -1    0    0    0    0 -0.00000000000E+00 -0.00000000000E+00 -0.45593999997E+02  0.45594000000E+02  0.51100000000E-03 0.  1.
         23    2    1    2    0    0  0.71054273576E-14  0.22204460493E-15  0.00000000000E+00  0.91188000000E+02  0.91188000000E+02 0.  0.
    9900012    2    3    3    0    0 -0.35128138302E+02  0.86511971422E+00  0.28184732394E+02  0.46142315714E+02  0.99999813303E+01 0.  0.
        -12    1    3    3    0    0  0.35128138302E+02 -0.86511971422E+00 -0.28184732394E+02  0.45045684286E+02  0.00000000000E+00 0.  1.
         11    1    4    4    0    0 -0.10532107965E+02 -0.22822077905E+01  0.50700398605E+01  0.11909621112E+02  0.51100000000E-03 0.  1.
        -11    1    4    4    0    0 -0.16953405716E+02  0.43373664513E+01  0.15456027139E+02  0.23347794078E+02  0.51100000000E-03 0. -1.
         12    1    4    4    0    0 -0.76426246212E+01 -0.11900389466E+01  0.76586653947E+01  0.10884900524E+02  0.00000000000E+00 0. -1.
</event>
<event>
 8    1  0.8828843E-009  0.9118800E+02  0.7816164E-02  0.1184000E+00
        -11   -1    0    0    0    0  0.00000000000E+00  0.00000000000E+00  0.45593999997E+02  0.45594000000E+02  0.51100000000E-03 0. -1.
         11   -1    0    0    0    0 -0.00000000000E+00 -0.00000000000E+00 -0.45593999997E+02  0.45594000000E+02  0.51100000000E-03 0.  1.
         23    2    1    2    0    0  0.00000000000E+00  0.88817841970E-15  0.00000000000E+00  0.91188000000E+02  0.91188000000E+02 0.  0.
    9900012    2    3    3    0    0 -0.16659867076E+02 -0.40986079743E+01 -0.41650494382E+02  0.46142318292E+02  0.10000004842E+02 0.  0.
         12    1    3    3    0    0  0.16659867076E+02  0.40986079743E+01  0.41650494382E+02  0.45045681708E+02  0.00000000000E+00 0. -1.
         11    1    4    4    0    0 -0.71880806850E+01  0.11479781527E+01 -0.23773799417E+02  0.24863223780E+02  0.51100000000E-03 0. -1.
        -11    1    4    4    0    0 -0.25429206280E+01 -0.15248538627E+01 -0.87089218679E+01  0.91998339651E+01  0.51100000000E-03 0.  1.
         12    1    4    4    0    0 -0.69288657626E+01 -0.37217322643E+01 -0.91677730969E+01  0.12079260547E+02  0.00000000000E+00 0. -1.
</event>
<event>
 8    1  0.8828843E-009  0.9118800E+02  0.7816164E-02  0.1184000E+00
        -11   -1    0    0    0    0  0.00000000000E+00  0.00000000000E+00  0.45593999997E+02  0.45594000000E+02  0.51100000000E-03 0. -1.
         11   -1    0    0    0    0 -0.00000000000E+00 -0.00000000000E+00 -0.45593999997E+02  0.45594000000E+02  0.51100000000E-03 0.  1.
         23    2    1    2    0    0  0.00000000000E+00  0.88817841970E-15  0.00000000000E+00  0.91188000000E+02  0.91188000000E+02 0.  0.
    9900012    2    3    3    0    0 -0.29321291505E+02  0.24617314878E+01  0.34107409642E+02  0.46142315968E+02  0.99999836503E+01 0.  0.
        -12    1    3    3    0    0  0.29321291505E+02 -0.24617314878E+01 -0.34107409642E+02  0.45045684032E+02  0.00000000000E+00 0.  1.
         11    1    4    4    0    0 -0.25310560375E+02  0.40804424307E+01  0.27148495773E+02  0.37340531596E+02  0.51100000000E-03 0. -1.
        -11    1    4    4    0    0 -0.42562385365E+01 -0.18497064134E+01  0.70610286961E+01  0.84495625214E+01  0.51100000000E-03 0.  1.
        -12    1    4    4    0    0  0.24550740651E+00  0.23099547045E+00 -0.10211482698E+00  0.35222185041E+00  0.00000000000E+00 0.  1.
</event>
<event>
 8    1  0.8828843E-009  0.9118800E+02  0.7816164E-02  0.1184000E+00
        -11   -1    0    0    0    0  0.00000000000E+00  0.00000000000E+00  0.45593999997E+02  0.45594000000E+02  0.51100000000E-03 0. -1.
         11   -1    0    0    0    0 -0.00000000000E+00 -0.00000000000E+00 -0.45593999997E+02  0.45594000000E+02  0.51100000000E-03 0.  1.
         23    2    1    2    0    0  0.00000000000E+00  0.00000000000E+00  0.00000000000E+00  0.91188000000E+02  0.91188000000E+02 0.  0.
    9900012    2    3    3    0    0  0.24332626923E+02  0.12721584996E+02  0.35709915199E+02  0.46142317617E+02  0.99999986898E+01 0.  0.
        -12    1    3    3    0    0 -0.24332626923E+02 -0.12721584996E+02 -0.35709915199E+02  0.45045682383E+02  0.00000000000E+00 0.  1.
         11    1    4    4    0    0  0.16816866527E+02  0.13016933512E+02  0.28129154123E+02  0.35263250981E+02  0.51100000000E-03 0. -1.
        -11    1    4    4    0    0  0.41615653975E+01  0.23820887109E+00  0.54811995599E+01  0.68861396225E+01  0.51100000000E-03 0.  1.
         12    1    4    4    0    0  0.33541949991E+01 -0.53355738718E+00  0.20995615164E+01  0.39929270139E+01  0.00000000000E+00 0. -1.
</event>
<event>
 8    1  0.8828843E-009  0.9118800E+02  0.7816164E-02  0.1184000E+00
        -11   -1    0    0    0    0  0.00000000000E+00  0.00000000000E+00  0.45593999997E+02  0.45594000000E+02  0.51100000000E-03 0. -1.
         11   -1    0    0    0    0 -0.00000000000E+00 -0.00000000000E+00 -0.45593999997E+02  0.45594000000E+02  0.51100000000E-03 0.  1.
         23    2    1    2    0    0 -0.35527136788E-14 -0.17763568394E-14  0.00000000000E+00  0.91188000000E+02  0.91188000000E+02 0.  0.
    9900012    2    3    3    0    0 -0.20340289993E+02 -0.15337340024E+02  0.37150398473E+02  0.46142317602E+02  0.99999985502E+01 0.  0.
        -12    1    3    3    0    0  0.20340289993E+02  0.15337340024E+02 -0.37150398473E+02  0.45045682398E+02  0.00000000000E+00 0.  1.
         11    1    4    4    0    0 -0.81060098337E+01 -0.14307010121E+01  0.13789807443E+02  0.16059672798E+02  0.51100000000E-03 0.  1.
        -11    1    4    4    0    0 -0.57609472894E+01 -0.45354413582E+01  0.11503195807E+02  0.13641197016E+02  0.51100000000E-03 0. -1.
        -12    1    4    4    0    0 -0.64733328696E+01 -0.93711976533E+01  0.11857395223E+02  0.16441447788E+02  0.00000000000E+00 0.  1.
</event>
<event>
 8    1  0.8828843E-009  0.9118800E+02  0.7816164E-02  0.1184000E+00
        -11   -1    0    0    0    0  0.00000000000E+00  0.00000000000E+00  0.45593999997E+02  0.45594000000E+02  0.51100000000E-03 0. -1.
         11   -1    0    0    0    0 -0.00000000000E+00 -0.00000000000E+00 -0.45593999997E+02  0.45594000000E+02  0.51100000000E-03 0.  1.
         23    2    1    2    0    0 -0.17763568394E-14  0.00000000000E+00 -0.71054273576E-14  0.91188000000E+02  0.91188000000E+02 0.  0.
    9900012    2    3    3    0    0  0.70585545967E+01  0.20427108465E+02  0.39522443097E+02  0.46142318058E+02  0.10000002711E+02 0.  0.
        -12    1    3    3    0    0 -0.70585545967E+01 -0.20427108465E+02 -0.39522443097E+02  0.45045681942E+02  0.00000000000E+00 0.  1.
         11    1    4    4    0    0 -0.22492422665E+01  0.47256093852E+01  0.12077041183E+02  0.13162271796E+02  0.51100000000E-03 0. -1.
        -11    1    4    4    0    0  0.30015339008E+01  0.48293740148E+01  0.94805294969E+01  0.11054976207E+02  0.51100000000E-03 0.  1.
         12    1    4    4    0    0  0.63062629624E+01  0.10872125064E+02  0.17964872417E+02  0.21925070055E+02  0.00000000000E+00 0. -1.
</event>
<event>
 8    1  0.8828843E-009  0.9118800E+02  0.7816164E-02  0.1184000E+00
        -11   -1    0    0    0    0  0.00000000000E+00  0.00000000000E+00  0.45593999997E+02  0.45594000000E+02  0.51100000000E-03 0.  1.
         11   -1    0    0    0    0 -0.00000000000E+00 -0.00000000000E+00 -0.45593999997E+02  0.45594000000E+02  0.51100000000E-03 0. -1.
         23    2    1    2    0    0 -0.88817841970E-15  0.00000000000E+00  0.00000000000E+00  0.91188000000E+02  0.91188000000E+02 0.  0.
    9900012    2    3    3    0    0  0.69614734640E+01 -0.43759127826E+02  0.81111123044E+01  0.46142317369E+02  0.99999964205E+01 0.  0.
        -12    1    3    3    0    0 -0.69614734640E+01  0.43759127826E+02 -0.81111123044E+01  0.45045682631E+02  0.00000000000E+00 0.  1.
         11    1    4    4    0    0  0.22246862057E+01 -0.32603594377E+02  0.74139970799E+01  0.33509863443E+02  0.51100000000E-03 0.  1.
        -11    1    4    4    0    0  0.45632119913E+01 -0.10700461132E+02 -0.17432945638E+00  0.11634137834E+02  0.51100000000E-03 0. -1.
        -12    1    4    4    0    0  0.17357526698E+00 -0.45507231781E+00  0.87144468092E+00  0.99831609206E+00  0.00000000000E+00 0.  1.
</event>
<event>
 8    1  0.8828843E-009  0.9118800E+02  0.7816164E-02  0.1184000E+00
        -11   -1    0    0    0    0  0.00000000000E+00  0.00000000000E+00  0.45593999997E+02  0.45594000000E+02  0.51100000000E-03 0. -1.
         11   -1    0    0    0    0 -0.00000000000E+00 -0.00000000000E+00 -0.45593999997E+02  0.45594000000E+02  0.51100000000E-03 0.  1.
         23    2    1    2    0    0 -0.88817841970E-15  0.00000000000E+00  0.14210854715E-13  0.91188000000E+02  0.91188000000E+02 0.  0.
    9900012    2    3    3    0    0  0.69301950860E+01  0.12283668179E+02 -0.42780807250E+02  0.46142316780E+02  0.99999910518E+01 0.  0.
         12    1    3    3    0    0 -0.69301950860E+01 -0.12283668179E+02  0.42780807250E+02  0.45045683220E+02  0.00000000000E+00 0. -1.
         11    1    4    4    0    0 -0.16609433091E+01  0.21321744664E+01 -0.42874990547E+01  0.50682885708E+01  0.51100000000E-03 0. -1.
        -11    1    4    4    0    0 -0.48893967589E+00  0.10047636644E+01 -0.62703439151E+01  0.63691306394E+01  0.51100000000E-03 0.  1.
        -12    1    4    4    0    0  0.90800780710E+01  0.91467300478E+01 -0.32222964280E+02  0.34704897570E+02  0.00000000000E+00 0.  1.
</event>
<event>
 8    1  0.8828843E-009  0.9118800E+02  0.7816164E-02  0.1184000E+00
        -11   -1    0    0    0    0  0.00000000000E+00  0.00000000000E+00  0.45593999997E+02  0.45594000000E+02  0.51100000000E-03 0. -1.
         11   -1    0    0    0    0 -0.00000000000E+00 -0.00000000000E+00 -0.45593999997E+02  0.45594000000E+02  0.51100000000E-03 0.  1.
         23    2    1    2    0    0  0.35527136788E-14  0.00000000000E+00  0.71054273576E-14  0.91188000000E+02  0.91188000000E+02 0.  0.
    9900012    2    3    3    0    0 -0.23491451955E+02  0.16808253342E+02 -0.34565133108E+02  0.46142310726E+02  0.99999358502E+01 0.  0.
         12    1    3    3    0    0  0.23491451955E+02 -0.16808253342E+02  0.34565133108E+02  0.45045689274E+02  0.00000000000E+00 0. -1.
         11    1    4    4    0    0 -0.16838483250E+01  0.11926723012E+01 -0.62729841084E+01  0.66036461357E+01  0.51100000000E-03 0. -1.
        -11    1    4    4    0    0 -0.62294918417E+01  0.18545568802E+01 -0.95434531622E+01  0.11546577343E+02  0.51100000000E-03 0.  1.
        -12    1    4    4    0    0 -0.15578111789E+02  0.13761024161E+02 -0.18748695837E+02  0.27992087247E+02  0.00000000000E+00 0.  1.
</event>
<event>
 8    1  0.8828843E-009  0.9118800E+02  0.7816164E-02  0.1184000E+00
        -11   -1    0    0    0    0  0.00000000000E+00  0.00000000000E+00  0.45593999997E+02  0.45594000000E+02  0.51100000000E-03 0.  1.
         11   -1    0    0    0    0 -0.00000000000E+00 -0.00000000000E+00 -0.45593999997E+02  0.45594000000E+02  0.51100000000E-03 0. -1.
         23    2    1    2    0    0  0.71054273576E-14  0.35527136788E-14  0.00000000000E+00  0.91188000000E+02  0.91188000000E+02 0.  0.
    9900012    2    3    3    0    0  0.38294701680E+02  0.20610631609E+02  0.11740152662E+02  0.46142317670E+02  0.99999991686E+01 0.  0.
        -12    1    3    3    0    0 -0.38294701680E+02 -0.20610631609E+02 -0.11740152662E+02  0.45045682330E+02  0.00000000000E+00 0.  1.
         11    1    4    4    0    0  0.55632964513E+01  0.65729661160E+01  0.66303101290E+00  0.86367679922E+01  0.51100000000E-03 0. -1.
        -11    1    4    4    0    0  0.53125357780E+01  0.16483022627E+01  0.39062970522E+00  0.55760674825E+01  0.51100000000E-03 0.  1.
        -12    1    4    4    0    0  0.27418869450E+02  0.12389363231E+02  0.10686491943E+02  0.31929482195E+02  0.00000000000E+00 0.  1.
</event>
<event>
 8    1  0.8828843E-009  0.9118800E+02  0.7816164E-02  0.1184000E+00
        -11   -1    0    0    0    0  0.00000000000E+00  0.00000000000E+00  0.45593999997E+02  0.45594000000E+02  0.51100000000E-03 0. -1.
         11   -1    0    0    0    0 -0.00000000000E+00 -0.00000000000E+00 -0.45593999997E+02  0.45594000000E+02  0.51100000000E-03 0.  1.
         23    2    1    2    0    0  0.17763568394E-14  0.00000000000E+00  0.00000000000E+00  0.91188000000E+02  0.91188000000E+02 0.  0.
    9900012    2    3    3    0    0 -0.11252804197E+02  0.27625341701E+02  0.33753939196E+02  0.46142317436E+02  0.99999970340E+01 0.  0.
        -12    1    3    3    0    0  0.11252804197E+02 -0.27625341701E+02 -0.33753939196E+02  0.45045682564E+02  0.00000000000E+00 0.  1.
         11    1    4    4    0    0 -0.88815512929E+01  0.20987650816E+02  0.28001943128E+02  0.36103632218E+02  0.51100000000E-03 0. -1.
        -11    1    4    4    0    0 -0.11837494857E+01  0.58154397958E+01  0.24237824425E+01  0.64105635051E+01  0.51100000000E-03 0.  1.
        -12    1    4    4    0    0 -0.11875034186E+01  0.82225108977E+00  0.33282136259E+01  0.36281217129E+01  0.00000000000E+00 0.  1.
</event>
<event>
 8    1  0.8828843E-009  0.9118800E+02  0.7816164E-02  0.1184000E+00
        -11   -1    0    0    0    0  0.00000000000E+00  0.00000000000E+00  0.45593999997E+02  0.45594000000E+02  0.51100000000E-03 0. -1.
         11   -1    0    0    0    0 -0.00000000000E+00 -0.00000000000E+00 -0.45593999997E+02  0.45594000000E+02  0.51100000000E-03 0.  1.
         23    2    1    2    0    0 -0.71054273576E-14  0.35527136788E-14 -0.35527136788E-14  0.91188000000E+02  0.91188000000E+02 0.  0.
    9900012    2    3    3    0    0  0.33755393468E+02 -0.19111421013E+02  0.22900663905E+02  0.46142318646E+02  0.10000008073E+02 0.  0.
        -12    1    3    3    0    0 -0.33755393468E+02  0.19111421013E+02 -0.22900663905E+02  0.45045681354E+02  0.00000000000E+00 0.  1.
         11    1    4    4    0    0  0.17677334161E+02 -0.83013147320E+01  0.10177952184E+02  0.22022503951E+02  0.51100000000E-03 0. -1.
        -11    1    4    4    0    0  0.14053074596E+02 -0.11589204192E+02  0.12080046557E+02  0.21856945909E+02  0.51100000000E-03 0.  1.
         12    1    4    4    0    0  0.20249847106E+01  0.77909791055E+00  0.64266516365E+00  0.22628687865E+01  0.00000000000E+00 0. -1.
</event>
<event>
 8    1  0.8828843E-009  0.9118800E+02  0.7816164E-02  0.1184000E+00
        -11   -1    0    0    0    0  0.00000000000E+00  0.00000000000E+00  0.45593999997E+02  0.45594000000E+02  0.51100000000E-03 0. -1.
         11   -1    0    0    0    0 -0.00000000000E+00 -0.00000000000E+00 -0.45593999997E+02  0.45594000000E+02  0.51100000000E-03 0.  1.
         23    2    1    2    0    0  0.00000000000E+00  0.00000000000E+00  0.35527136788E-14  0.91188000000E+02  0.91188000000E+02 0.  0.
    9900012    2    3    3    0    0 -0.33315959970E+02 -0.14374067166E+02  0.26693566809E+02  0.46142317581E+02  0.99999983570E+01 0.  0.
        -12    1    3    3    0    0  0.33315959970E+02  0.14374067166E+02 -0.26693566809E+02  0.45045682419E+02  0.00000000000E+00 0.  1.
         11    1    4    4    0    0 -0.19060735612E+02 -0.64119413021E+01  0.13794491740E+02  0.24386730735E+02  0.51100000000E-03 0. -1.
        -11    1    4    4    0    0 -0.51301821164E+01 -0.83811804128E+00  0.71228334810E+01  0.88179344213E+01  0.51100000000E-03 0.  1.
        -12    1    4    4    0    0 -0.91250422413E+01 -0.71240078230E+01  0.57762415880E+01  0.12937652424E+02  0.00000000000E+00 0.  1.
</event>
<event>
 8    1  0.8828843E-009  0.9118800E+02  0.7816164E-02  0.1184000E+00
        -11   -1    0    0    0    0  0.00000000000E+00  0.00000000000E+00  0.45593999997E+02  0.45594000000E+02  0.51100000000E-03 0.  1.
         11   -1    0    0    0    0 -0.00000000000E+00 -0.00000000000E+00 -0.45593999997E+02  0.45594000000E+02  0.51100000000E-03 0. -1.
         23    2    1    2    0    0  0.00000000000E+00  0.00000000000E+00  0.00000000000E+00  0.91188000000E+02  0.91188000000E+02 0.  0.
    9900012    2    3    3    0    0  0.29631749366E+02 -0.33400071748E+02 -0.59588753641E+01  0.46142316978E+02  0.99999928625E+01 0.  0.
        -12    1    3    3    0    0 -0.29631749366E+02  0.33400071748E+02  0.59588753641E+01  0.45045683022E+02  0.00000000000E+00 0.  1.
         11    1    4    4    0    0  0.14793597394E+02 -0.17331064953E+02 -0.32807046068E+01  0.23021280574E+02  0.51100000000E-03 0. -1.
        -11    1    4    4    0    0  0.67786140503E+00 -0.48162607338E+01 -0.90683261659E+00  0.49475457750E+01  0.51100000000E-03 0.  1.
        -12    1    4    4    0    0  0.14160290567E+02 -0.11252746061E+02 -0.17713381407E+01  0.18173490629E+02  0.00000000000E+00 0.  1.
</event>
<event>
 8    1  0.8828843E-009  0.9118800E+02  0.7816164E-02  0.1184000E+00
        -11   -1    0    0    0    0  0.00000000000E+00  0.00000000000E+00  0.45593999997E+02  0.45594000000E+02  0.51100000000E-03 0. -1.
         11   -1    0    0    0    0 -0.00000000000E+00 -0.00000000000E+00 -0.45593999997E+02  0.45594000000E+02  0.51100000000E-03 0.  1.
         23    2    1    2    0    0  0.44408920985E-15  0.00000000000E+00  0.71054273576E-14  0.91188000000E+02  0.91188000000E+02 0.  0.
    9900012    2    3    3    0    0  0.21377909765E+01  0.29468542887E+02 -0.34002181961E+02  0.46142317096E+02  0.99999939392E+01 0.  0.
         12    1    3    3    0    0 -0.21377909765E+01 -0.29468542887E+02  0.34002181961E+02  0.45045682904E+02  0.00000000000E+00 0. -1.
         11    1    4    4    0    0 -0.34552866838E+01  0.12798268951E+02 -0.15977475704E+02  0.20760886887E+02  0.51100000000E-03 0. -1.
        -11    1    4    4    0    0  0.28790310416E+01  0.12501579052E+02 -0.11975845025E+02  0.17549904925E+02  0.51100000000E-03 0.  1.
         12    1    4    4    0    0  0.27140466187E+01  0.41686948842E+01 -0.60488612314E+01  0.78315252846E+01  0.00000000000E+00 0. -1.
</event>
<event>
 8    1  0.8828843E-009  0.9118800E+02  0.7816164E-02  0.1184000E+00
        -11   -1    0    0    0    0  0.00000000000E+00  0.00000000000E+00  0.45593999997E+02  0.45594000000E+02  0.51100000000E-03 0. -1.
         11   -1    0    0    0    0 -0.00000000000E+00 -0.00000000000E+00 -0.45593999997E+02  0.45594000000E+02  0.51100000000E-03 0.  1.
         23    2    1    2    0    0 -0.35527136788E-14  0.88817841970E-15  0.00000000000E+00  0.91188000000E+02  0.91188000000E+02 0.  0.
    9900012    2    3    3    0    0  0.23714422938E+02 -0.69643608129E+01 -0.37659492885E+02  0.46142316731E+02  0.99999906073E+01 0.  0.
         12    1    3    3    0    0 -0.23714422938E+02  0.69643608129E+01  0.37659492885E+02  0.45045683269E+02  0.00000000000E+00 0. -1.
         11    1    4    4    0    0  0.57740496768E+01 -0.65296633515E+00 -0.81490591947E+01  0.10008655291E+02  0.51100000000E-03 0.  1.
        -11    1    4    4    0    0  0.17612794526E+02 -0.35645113423E+01 -0.24157367131E+02  0.30108049739E+02  0.51100000000E-03 0. -1.
         12    1    4    4    0    0  0.32757873482E+00 -0.27468831354E+01 -0.53530665591E+01  0.60256117012E+01  0.00000000000E+00 0. -1.
</event>
<event>
 8    1  0.8828843E-009  0.9118800E+02  0.7816164E-02  0.1184000E+00
        -11   -1    0    0    0    0  0.00000000000E+00  0.00000000000E+00  0.45593999997E+02  0.45594000000E+02  0.51100000000E-03 0.  1.
         11   -1    0    0    0    0 -0.00000000000E+00 -0.00000000000E+00 -0.45593999997E+02  0.45594000000E+02  0.51100000000E-03 0. -1.
         23    2    1    2    0    0 -0.35527136788E-14  0.71054273576E-14  0.00000000000E+00  0.91188000000E+02  0.91188000000E+02 0.  0.
    9900012    2    3    3    0    0  0.23883138700E+02 -0.32247885216E+02 -0.20464190516E+02  0.46142317537E+02  0.99999979595E+01 0.  0.
         12    1    3    3    0    0 -0.23883138700E+02  0.32247885216E+02  0.20464190516E+02  0.45045682463E+02  0.00000000000E+00 0. -1.
         11    1    4    4    0    0  0.41986042029E+00 -0.21190586293E+01 -0.44736383535E+00  0.22060885996E+01  0.51100000000E-03 0. -1.
        -11    1    4    4    0    0  0.55156292760E+00 -0.47584997124E+01 -0.37223440000E+01  0.60665794557E+01  0.51100000000E-03 0.  1.
        -12    1    4    4    0    0  0.22911715352E+02 -0.25370326875E+02 -0.16294482680E+02  0.37869649482E+02  0.00000000000E+00 0.  1.
</event>
<event>
 8    1  0.8828843E-009  0.9118800E+02  0.7816164E-02  0.1184000E+00
        -11   -1    0    0    0    0  0.00000000000E+00  0.00000000000E+00  0.45593999997E+02  0.45594000000E+02  0.51100000000E-03 0. -1.
         11   -1    0    0    0    0 -0.00000000000E+00 -0.00000000000E+00 -0.45593999997E+02  0.45594000000E+02  0.51100000000E-03 0.  1.
         23    2    1    2    0    0  0.17763568394E-14  0.00000000000E+00  0.71054273576E-14  0.91188000000E+02  0.91188000000E+02 0.  0.
    9900012    2    3    3    0    0 -0.15431055351E+02  0.21973580231E+02 -0.36168463489E+02  0.46142318203E+02  0.10000004027E+02 0.  0.
         12    1    3    3    0    0  0.15431055351E+02 -0.21973580231E+02  0.36168463489E+02  0.45045681797E+02  0.00000000000E+00 0. -1.
         11    1    4    4    0    0 -0.62132818612E+01  0.40921600022E+01 -0.12650307328E+02  0.14675861839E+02  0.51100000000E-03 0. -1.
        -11    1    4    4    0    0 -0.51475959186E+01  0.47811584873E+01 -0.61722978652E+01  0.93517100800E+01  0.51100000000E-03 0.  1.
         12    1    4    4    0    0 -0.40701775709E+01  0.13100261742E+02 -0.17345858296E+02  0.22114746284E+02  0.00000000000E+00 0. -1.
</event>
<event>
 8    1  0.8828843E-009  0.9118800E+02  0.7816164E-02  0.1184000E+00
        -11   -1    0    0    0    0  0.00000000000E+00  0.00000000000E+00  0.45593999997E+02  0.45594000000E+02  0.51100000000E-03 0. -1.
         11   -1    0    0    0    0 -0.00000000000E+00 -0.00000000000E+00 -0.45593999997E+02  0.45594000000E+02  0.51100000000E-03 0.  1.
         23    2    1    2    0    0 -0.17763568394E-14  0.00000000000E+00  0.00000000000E+00  0.91188000000E+02  0.91188000000E+02 0.  0.
    9900012    2    3    3    0    0  0.11157716668E+02 -0.82824050281E+01 -0.42848812266E+02  0.46142316667E+02  0.99999900254E+01 0.  0.
         12    1    3    3    0    0 -0.11157716668E+02  0.82824050281E+01  0.42848812266E+02  0.45045683333E+02  0.00000000000E+00 0. -1.
         11    1    4    4    0    0 -0.11894774747E+01 -0.52898480926E+00 -0.68763846246E+01  0.69985246558E+01  0.51100000000E-03 0. -1.
        -11    1    4    4    0    0  0.26607853339E+01 -0.26242016071E+01 -0.15249798090E+02  0.15701036740E+02  0.51100000000E-03 0.  1.
        -12    1    4    4    0    0  0.96864088090E+01 -0.51292186117E+01 -0.20722629551E+02  0.23442755271E+02  0.00000000000E+00 0.  1.
</event>
<event>
 8    1  0.8828843E-009  0.9118800E+02  0.7816164E-02  0.1184000E+00
        -11   -1    0    0    0    0  0.00000000000E+00  0.00000000000E+00  0.45593999997E+02  0.45594000000E+02  0.51100000000E-03 0. -1.
         11   -1    0    0    0    0 -0.00000000000E+00 -0.00000000000E+00 -0.45593999997E+02  0.45594000000E+02  0.51100000000E-03 0.  1.
         23    2    1    2    0    0  0.00000000000E+00  0.00000000000E+00 -0.71054273576E-14  0.91188000000E+02  0.91188000000E+02 0.  0.
    9900012    2    3    3    0    0 -0.12271783752E+02 -0.17285875770E+02 -0.39745632536E+02  0.46142317817E+02  0.10000000514E+02 0.  0.
         12    1    3    3    0    0  0.12271783752E+02  0.17285875770E+02  0.39745632536E+02  0.45045682183E+02  0.00000000000E+00 0. -1.
         11    1    4    4    0    0 -0.45102112336E+01 -0.70914564718E+01 -0.19442507138E+02  0.21181167209E+02  0.51100000000E-03 0. -1.
        -11    1    4    4    0    0 -0.72701550492E+01 -0.78029195202E+01 -0.19768488592E+02  0.22461830935E+02  0.51100000000E-03 0.  1.
         12    1    4    4    0    0 -0.49141746895E+00 -0.23914997778E+01 -0.53463680647E+00  0.24993196736E+01  0.00000000000E+00 0. -1.
</event>
<event>
 8    1  0.8828843E-009  0.9118800E+02  0.7816164E-02  0.1184000E+00
        -11   -1    0    0    0    0  0.00000000000E+00  0.00000000000E+00  0.45593999997E+02  0.45594000000E+02  0.51100000000E-03 0. -1.
         11   -1    0    0    0    0 -0.00000000000E+00 -0.00000000000E+00 -0.45593999997E+02  0.45594000000E+02  0.51100000000E-03 0.  1.
         23    2    1    2    0    0  0.00000000000E+00  0.00000000000E+00  0.00000000000E+00  0.91188000000E+02  0.91188000000E+02 0.  0.
    9900012    2    3    3    0    0  0.20940979060E+02  0.32816200454E+02 -0.22664640129E+02  0.46142317317E+02  0.99999959475E+01 0.  0.
         12    1    3    3    0    0 -0.20940979060E+02 -0.32816200454E+02  0.22664640129E+02  0.45045682683E+02  0.00000000000E+00 0. -1.
         11    1    4    4    0    0  0.10751233020E+02  0.19726984251E+02 -0.10708869759E+02  0.24888206261E+02  0.51100000000E-03 0. -1.
        -11    1    4    4    0    0  0.10684272178E+02  0.11130923792E+02 -0.11321575257E+02  0.19137115848E+02  0.51100000000E-03 0.  1.
         12    1    4    4    0    0 -0.49452613809E+00  0.19582924112E+01 -0.63419511293E+00  0.21169952079E+01  0.00000000000E+00 0. -1.
</event>
<event>
 8    1  0.8828843E-009  0.9118800E+02  0.7816164E-02  0.1184000E+00
        -11   -1    0    0    0    0  0.00000000000E+00  0.00000000000E+00  0.45593999997E+02  0.45594000000E+02  0.51100000000E-03 0.  1.
         11   -1    0    0    0    0 -0.00000000000E+00 -0.00000000000E+00 -0.45593999997E+02  0.45594000000E+02  0.51100000000E-03 0. -1.
         23    2    1    2    0    0  0.00000000000E+00  0.00000000000E+00  0.00000000000E+00  0.91188000000E+02  0.91188000000E+02 0.  0.
    9900012    2    3    3    0    0  0.43558672132E+02  0.11000547450E+02  0.32777289221E+01  0.46142317976E+02  0.10000001963E+02 0.  0.
         12    1    3    3    0    0 -0.43558672132E+02 -0.11000547450E+02 -0.32777289221E+01  0.45045682024E+02  0.00000000000E+00 0. -1.
         11    1    4    4    0    0  0.15421309681E+02  0.58256589316E+01  0.27281145841E+01  0.16709210146E+02  0.51100000000E-03 0.  1.
        -11    1    4    4    0    0  0.24458619373E+02  0.60382149130E+01 -0.12991190626E+01  0.25226410993E+02  0.51100000000E-03 0. -1.
         12    1    4    4    0    0  0.36787430777E+01 -0.86332639459E+00  0.18487334006E+01  0.42066968374E+01  0.00000000000E+00 0. -1.
</event>
<event>
 8    1  0.8828843E-009  0.9118800E+02  0.7816164E-02  0.1184000E+00
        -11   -1    0    0    0    0  0.00000000000E+00  0.00000000000E+00  0.45593999997E+02  0.45594000000E+02  0.51100000000E-03 0. -1.
         11   -1    0    0    0    0 -0.00000000000E+00 -0.00000000000E+00 -0.45593999997E+02  0.45594000000E+02  0.51100000000E-03 0.  1.
         23    2    1    2    0    0 -0.66613381478E-15  0.00000000000E+00 -0.71054273576E-14  0.91188000000E+02  0.91188000000E+02 0.  0.
    9900012    2    3    3    0    0  0.13028592478E+01  0.19937519168E+02  0.40372160877E+02  0.46142317780E+02  0.10000000173E+02 0.  0.
        -12    1    3    3    0    0 -0.13028592478E+01 -0.19937519168E+02 -0.40372160877E+02  0.45045682220E+02  0.00000000000E+00 0.  1.
         11    1    4    4    0    0  0.44442801600E+01  0.76825014794E+01  0.19576617746E+02  0.21494567168E+02  0.51100000000E-03 0. -1.
        -11    1    4    4    0    0 -0.12539420882E+01  0.44344037291E+01  0.43372043423E+01  0.63283211804E+01  0.51100000000E-03 0.  1.
        -12    1    4    4    0    0 -0.18874788241E+01  0.78206139592E+01  0.16458338789E+02  0.18319429432E+02  0.00000000000E+00 0.  1.
</event>
<event>
 8    1  0.8828843E-009  0.9118800E+02  0.7816164E-02  0.1184000E+00
        -11   -1    0    0    0    0  0.00000000000E+00  0.00000000000E+00  0.45593999997E+02  0.45594000000E+02  0.51100000000E-03 0. -1.
         11   -1    0    0    0    0 -0.00000000000E+00 -0.00000000000E+00 -0.45593999997E+02  0.45594000000E+02  0.51100000000E-03 0.  1.
         23    2    1    2    0    0  0.35527136788E-14  0.17763568394E-14  0.71054273576E-14  0.91188000000E+02  0.91188000000E+02 0.  0.
    9900012    2    3    3    0    0 -0.20197882096E+02 -0.93663494092E+01 -0.39159041123E+02  0.46142318252E+02  0.10000004479E+02 0.  0.
         12    1    3    3    0    0  0.20197882096E+02  0.93663494092E+01  0.39159041123E+02  0.45045681748E+02  0.00000000000E+00 0. -1.
         11    1    4    4    0    0 -0.10675259789E+01  0.62973438326E+00 -0.12800895397E+01  0.17817986979E+01  0.51100000000E-03 0. -1.
        -11    1    4    4    0    0 -0.15276708636E+02 -0.70973836476E+01 -0.34734929414E+02  0.38603963566E+02  0.51100000000E-03 0.  1.
         12    1    4    4    0    0 -0.38536474814E+01 -0.28987001449E+01 -0.31440221702E+01  0.57565559884E+01  0.00000000000E+00 0. -1.
</event>
<event>
 8    1  0.8828843E-009  0.9118800E+02  0.7816164E-02  0.1184000E+00
        -11   -1    0    0    0    0  0.00000000000E+00  0.00000000000E+00  0.45593999997E+02  0.45594000000E+02  0.51100000000E-03 0. -1.
         11   -1    0    0    0    0 -0.00000000000E+00 -0.00000000000E+00 -0.45593999997E+02  0.45594000000E+02  0.51100000000E-03 0.  1.
         23    2    1    2    0    0  0.17763568394E-14  0.00000000000E+00 -0.71054273576E-14  0.91188000000E+02  0.91188000000E+02 0.  0.
    9900012    2    3    3    0    0  0.15717333726E+02  0.10595691039E+02 -0.40863316466E+02  0.46142313407E+02  0.99999602957E+01 0.  0.
         12    1    3    3    0    0 -0.15717333726E+02 -0.10595691039E+02  0.40863316466E+02  0.45045686593E+02  0.00000000000E+00 0. -1.
         11    1    4    4    0    0  0.62572935276E+01  0.41528102640E+01 -0.27229623181E+02  0.28246272926E+02  0.51100000000E-03 0.  1.
        -11    1    4    4    0    0  0.62782927832E+01  0.35539548263E+01 -0.95401012979E+01  0.11960814697E+02  0.51100000000E-03 0. -1.
        -12    1    4    4    0    0  0.31817474153E+01  0.28889259483E+01 -0.40935919868E+01  0.59352257837E+01  0.00000000000E+00 0.  1.
</event>
<event>
 8    1  0.8828843E-009  0.9118800E+02  0.7816164E-02  0.1184000E+00
        -11   -1    0    0    0    0  0.00000000000E+00  0.00000000000E+00  0.45593999997E+02  0.45594000000E+02  0.51100000000E-03 0. -1.
         11   -1    0    0    0    0 -0.00000000000E+00 -0.00000000000E+00 -0.45593999997E+02  0.45594000000E+02  0.51100000000E-03 0.  1.
         23    2    1    2    0    0  0.00000000000E+00 -0.33306690739E-15 -0.71054273576E-14  0.91188000000E+02  0.91188000000E+02 0.  0.
    9900012    2    3    3    0    0 -0.23485508130E+02  0.75270320397E+00  0.38431468650E+02  0.46142318333E+02  0.10000005217E+02 0.  0.
        -12    1    3    3    0    0  0.23485508130E+02 -0.75270320397E+00 -0.38431468650E+02  0.45045681667E+02  0.00000000000E+00 0.  1.
         11    1    4    4    0    0 -0.19969062762E+02  0.27364296620E+01  0.35382842701E+02  0.40720966009E+02  0.51100000000E-03 0. -1.
        -11    1    4    4    0    0 -0.14441783654E+01  0.59501981964E-01  0.43401730988E+00  0.15091596746E+01  0.51100000000E-03 0.  1.
        -12    1    4    4    0    0 -0.20722670030E+01 -0.20432284400E+01  0.26146086389E+01  0.39121926492E+01  0.00000000000E+00 0.  1.
</event>
<event>
 8    1  0.2124930E-008  0.9118800E+02  0.7816164E-02  0.1184000E+00
        -11   -1    0    0    0    0  0.00000000000E+00  0.00000000000E+00  0.45593999997E+02  0.45594000000E+02  0.51100000000E-03 0. -1.
         11   -1    0    0    0    0 -0.00000000000E+00 -0.00000000000E+00 -0.45593999997E+02  0.45594000000E+02  0.51100000000E-03 0.  1.
         23    2    1    2    0    0 -0.22204460493E-15  0.00000000000E+00  0.00000000000E+00  0.91188000000E+02  0.91188000000E+02 0.  0.
    9900012    2    3    3    0    0  0.11881205128E+01  0.64654631215E+01  0.44563434054E+02  0.46142317649E+02  0.99999989817E+01 0.  0.
        -12    1    3    3    0    0 -0.11881205128E+01 -0.64654631215E+01 -0.44563434054E+02  0.45045682351E+02  0.00000000000E+00 0.  1.
         11    1    4    4    0    0  0.97808159246E+00  0.13210169015E+01  0.15972618547E+02  0.16056969601E+02  0.51100000000E-03 0. -1.
        -11    1    4    4    0    0  0.11968439810E+01  0.18095746675E+01  0.24972792894E+02  0.25066858223E+02  0.51100000000E-03 0.  1.
        -12    1    4    4    0    0 -0.98680506066E+00  0.33348715524E+01  0.36180226134E+01  0.50184898256E+01  0.00000000000E+00 0.  1.
</event>
<event>
 8    1  0.8828843E-009  0.9118800E+02  0.7816164E-02  0.1184000E+00
        -11   -1    0    0    0    0  0.00000000000E+00  0.00000000000E+00  0.45593999997E+02  0.45594000000E+02  0.51100000000E-03 0. -1.
         11   -1    0    0    0    0 -0.00000000000E+00 -0.00000000000E+00 -0.45593999997E+02  0.45594000000E+02  0.51100000000E-03 0.  1.
         23    2    1    2    0    0  0.00000000000E+00 -0.76327832943E-16  0.00000000000E+00  0.91188000000E+02  0.91188000000E+02 0.  0.
    9900012    2    3    3    0    0  0.99077247193E+01  0.29884946431E-01 -0.43942571351E+02  0.46142317863E+02  0.10000000934E+02 0.  0.
         12    1    3    3    0    0 -0.99077247193E+01 -0.29884946431E-01  0.43942571351E+02  0.45045682137E+02  0.00000000000E+00 0. -1.
         11    1    4    4    0    0  0.20905942514E+01  0.11504150013E+01 -0.50040738759E+01  0.55438970603E+01  0.51100000000E-03 0.  1.
        -11    1    4    4    0    0 -0.39432414612E+00 -0.18578240867E+01 -0.20283356027E+01  0.27786952780E+01  0.51100000000E-03 0. -1.
         12    1    4    4    0    0  0.82114546140E+01  0.73729403188E+00 -0.36910161872E+02  0.37819725525E+02  0.00000000000E+00 0. -1.
</event>
<event>
 8    1  0.8828843E-009  0.9118800E+02  0.7816164E-02  0.1184000E+00
        -11   -1    0    0    0    0  0.00000000000E+00  0.00000000000E+00  0.45593999997E+02  0.45594000000E+02  0.51100000000E-03 0. -1.
         11   -1    0    0    0    0 -0.00000000000E+00 -0.00000000000E+00 -0.45593999997E+02  0.45594000000E+02  0.51100000000E-03 0.  1.
         23    2    1    2    0    0 -0.35527136788E-14  0.71054273576E-14  0.35527136788E-14  0.91188000000E+02  0.91188000000E+02 0.  0.
    9900012    2    3    3    0    0 -0.14927297721E+02  0.32013968051E+02  0.27953444261E+02  0.46142318590E+02  0.10000007560E+02 0.  0.
        -12    1    3    3    0    0  0.14927297721E+02 -0.32013968051E+02 -0.27953444261E+02  0.45045681410E+02  0.00000000000E+00 0.  1.
         11    1    4    4    0    0 -0.10424797099E+02  0.19645268249E+02  0.14487766265E+02  0.26542575812E+02  0.51100000000E-03 0. -1.
        -11    1    4    4    0    0 -0.82026601206E+00  0.10416895297E+00  0.28463201535E+01  0.29639882218E+01  0.51100000000E-03 0.  1.
        -12    1    4    4    0    0 -0.36822346100E+01  0.12264530849E+02  0.10619357842E+02  0.16635754556E+02  0.00000000000E+00 0.  1.
</event>
<event>
 8    1  0.8828843E-009  0.9118800E+02  0.7816164E-02  0.1184000E+00
        -11   -1    0    0    0    0  0.00000000000E+00  0.00000000000E+00  0.45593999997E+02  0.45594000000E+02  0.51100000000E-03 0.  1.
         11   -1    0    0    0    0 -0.00000000000E+00 -0.00000000000E+00 -0.45593999997E+02  0.45594000000E+02  0.51100000000E-03 0. -1.
         23    2    1    2    0    0  0.00000000000E+00  0.00000000000E+00  0.00000000000E+00  0.91188000000E+02  0.91188000000E+02 0.  0.
    9900012    2    3    3    0    0  0.44707315970E+02  0.37666138900E+01  0.40226783269E+01  0.46142318493E+02  0.10000006678E+02 0.  0.
        -12    1    3    3    0    0 -0.44707315970E+02 -0.37666138900E+01 -0.40226783269E+01  0.45045681507E+02  0.00000000000E+00 0.  1.
         11    1    4    4    0    0  0.19293203981E+02 -0.71524322330E+00  0.55394606399E+01  0.20085440428E+02  0.51100000000E-03 0. -1.
        -11    1    4    4    0    0  0.32970826061E+01 -0.51574336788E+00 -0.12276344838E+00  0.33394334937E+01  0.51100000000E-03 0.  1.
         12    1    4    4    0    0  0.22117029383E+02  0.49976004811E+01 -0.13940188647E+01  0.22717444572E+02  0.00000000000E+00 0. -1.
</event>
<event>
 8    1  0.8828843E-009  0.9118800E+02  0.7816164E-02  0.1184000E+00
        -11   -1    0    0    0    0  0.00000000000E+00  0.00000000000E+00  0.45593999997E+02  0.45594000000E+02  0.51100000000E-03 0. -1.
         11   -1    0    0    0    0 -0.00000000000E+00 -0.00000000000E+00 -0.45593999997E+02  0.45594000000E+02  0.51100000000E-03 0.  1.
         23    2    1    2    0    0  0.17763568394E-14  0.00000000000E+00  0.00000000000E+00  0.91188000000E+02  0.91188000000E+02 0.  0.
    9900012    2    3    3    0    0 -0.11910744390E+02 -0.21913302620E+02  0.37510729766E+02  0.46142317508E+02  0.99999976879E+01 0.  0.
        -12    1    3    3    0    0  0.11910744390E+02  0.21913302620E+02 -0.37510729766E+02  0.45045682492E+02  0.00000000000E+00 0.  1.
         11    1    4    4    0    0 -0.91873881012E+01 -0.12498894008E+02  0.17433266999E+02  0.23335579060E+02  0.51100000000E-03 0. -1.
        -11    1    4    4    0    0 -0.35393041530E+01 -0.66160359968E+01  0.16922512830E+02  0.18511349139E+02  0.51100000000E-03 0.  1.
        -12    1    4    4    0    0  0.81594786385E+00 -0.27983726149E+01  0.31549499367E+01  0.42953893085E+01  0.00000000000E+00 0.  1.
</event>
<event>
 8    1  0.8828843E-009  0.9118800E+02  0.7816164E-02  0.1184000E+00
        -11   -1    0    0    0    0  0.00000000000E+00  0.00000000000E+00  0.45593999997E+02  0.45594000000E+02  0.51100000000E-03 0. -1.
         11   -1    0    0    0    0 -0.00000000000E+00 -0.00000000000E+00 -0.45593999997E+02  0.45594000000E+02  0.51100000000E-03 0.  1.
         23    2    1    2    0    0 -0.44408920985E-15 -0.35527136788E-14 -0.71054273576E-14  0.91188000000E+02  0.91188000000E+02 0.  0.
    9900012    2    3    3    0    0  0.32291419067E+01  0.26174550100E+02 -0.36518201484E+02  0.46142317965E+02  0.10000001861E+02 0.  0.
         12    1    3    3    0    0 -0.32291419067E+01 -0.26174550100E+02  0.36518201484E+02  0.45045682035E+02  0.00000000000E+00 0. -1.
         11    1    4    4    0    0 -0.91364528723E+00 -0.15580067792E+00 -0.49409192934E+00  0.10503088393E+01  0.51100000000E-03 0.  1.
        -11    1    4    4    0    0  0.18225901217E+00  0.96658220293E+01 -0.97713825606E+01  0.13745590248E+02  0.51100000000E-03 0. -1.
        -12    1    4    4    0    0  0.39605281818E+01  0.16664528748E+02 -0.26252726994E+02  0.31346418878E+02  0.00000000000E+00 0.  1.
</event>
<event>
 8    1  0.8828843E-009  0.9118800E+02  0.7816164E-02  0.1184000E+00
        -11   -1    0    0    0    0  0.00000000000E+00  0.00000000000E+00  0.45593999997E+02  0.45594000000E+02  0.51100000000E-03 0. -1.
         11   -1    0    0    0    0 -0.00000000000E+00 -0.00000000000E+00 -0.45593999997E+02  0.45594000000E+02  0.51100000000E-03 0.  1.
         23    2    1    2    0    0  0.00000000000E+00 -0.17763568394E-14  0.00000000000E+00  0.91188000000E+02  0.91188000000E+02 0.  0.
    9900012    2    3    3    0    0 -0.58630115608E+01  0.14482782806E+02 -0.42249112185E+02  0.46142318933E+02  0.10000010689E+02 0.  0.
         12    1    3    3    0    0  0.58630115608E+01 -0.14482782806E+02  0.42249112185E+02  0.45045681067E+02  0.00000000000E+00 0. -1.
         11    1    4    4    0    0  0.58568809373E+00  0.59783746200E+01 -0.14354960934E+02  0.15561134191E+02  0.51100000000E-03 0. -1.
        -11    1    4    4    0    0  0.10266307043E+01  0.25529868961E+01 -0.89542559714E+01  0.93675190396E+01  0.51100000000E-03 0.  1.
        -12    1    4    4    0    0 -0.74753303589E+01  0.59514212903E+01 -0.18939895279E+02  0.21213665703E+02  0.00000000000E+00 0.  1.
</event>
<event>
 8    1  0.8828843E-009  0.9118800E+02  0.7816164E-02  0.1184000E+00
        -11   -1    0    0    0    0  0.00000000000E+00  0.00000000000E+00  0.45593999997E+02  0.45594000000E+02  0.51100000000E-03 0. -1.
         11   -1    0    0    0    0 -0.00000000000E+00 -0.00000000000E+00 -0.45593999997E+02  0.45594000000E+02  0.51100000000E-03 0.  1.
         23    2    1    2    0    0  0.00000000000E+00  0.00000000000E+00  0.00000000000E+00  0.91188000000E+02  0.91188000000E+02 0.  0.
    9900012    2    3    3    0    0 -0.10977206733E+01  0.16782407344E+02  0.41788266450E+02  0.46142318744E+02  0.10000008962E+02 0.  0.
        -12    1    3    3    0    0  0.10977206733E+01 -0.16782407344E+02 -0.41788266450E+02  0.45045681256E+02  0.00000000000E+00 0.  1.
         11    1    4    4    0    0 -0.11202992488E-01  0.99211262614E+01  0.29427751605E+02  0.31055135430E+02  0.51100000000E-03 0. -1.
        -11    1    4    4    0    0 -0.30228515605E+01  0.49335202798E+01  0.70964666449E+01  0.91562597720E+01  0.51100000000E-03 0.  1.
         12    1    4    4    0    0  0.19363338797E+01  0.19277608031E+01  0.52640482000E+01  0.59309235418E+01  0.00000000000E+00 0. -1.
</event>
<event>
 8    1  0.8828843E-009  0.9118800E+02  0.7816164E-02  0.1184000E+00
        -11   -1    0    0    0    0  0.00000000000E+00  0.00000000000E+00  0.45593999997E+02  0.45594000000E+02  0.51100000000E-03 0. -1.
         11   -1    0    0    0    0 -0.00000000000E+00 -0.00000000000E+00 -0.45593999997E+02  0.45594000000E+02  0.51100000000E-03 0.  1.
         23    2    1    2    0    0  0.00000000000E+00  0.00000000000E+00  0.00000000000E+00  0.91188000000E+02  0.91188000000E+02 0.  0.
    9900012    2    3    3    0    0  0.33230110225E+02 -0.60334337532E+01 -0.29807229208E+02  0.46142318059E+02  0.10000002721E+02 0.  0.
         12    1    3    3    0    0 -0.33230110225E+02  0.60334337532E+01  0.29807229208E+02  0.45045681941E+02  0.00000000000E+00 0. -1.
         11    1    4    4    0    0  0.30797540361E+01 -0.32211418847E+01 -0.32795029815E+01  0.55331528110E+01  0.51100000000E-03 0. -1.
        -11    1    4    4    0    0  0.21751440584E+02 -0.42385088644E+01 -0.20339851368E+02  0.30079888277E+02  0.51100000000E-03 0.  1.
         12    1    4    4    0    0  0.83989156049E+01  0.14262169959E+01 -0.61878748594E+01  0.10529276971E+02  0.00000000000E+00 0. -1.
</event>
<event>
 8    1  0.8828843E-009  0.9118800E+02  0.7816164E-02  0.1184000E+00
        -11   -1    0    0    0    0  0.00000000000E+00  0.00000000000E+00  0.45593999997E+02  0.45594000000E+02  0.51100000000E-03 0.  1.
         11   -1    0    0    0    0 -0.00000000000E+00 -0.00000000000E+00 -0.45593999997E+02  0.45594000000E+02  0.51100000000E-03 0. -1.
         23    2    1    2    0    0  0.00000000000E+00  0.35527136788E-14  0.00000000000E+00  0.91188000000E+02  0.91188000000E+02 0.  0.
    9900012    2    3    3    0    0  0.34438039241E+02  0.26158221754E+02  0.12604853492E+02  0.46142318258E+02  0.10000004528E+02 0.  0.
        -12    1    3    3    0    0 -0.34438039241E+02 -0.26158221754E+02 -0.12604853492E+02  0.45045681742E+02  0.00000000000E+00 0.  1.
         11    1    4    4    0    0  0.20060511476E+02  0.15253758232E+02  0.10234939890E+02  0.27200280434E+02  0.51100000000E-03 0. -1.
        -11    1    4    4    0    0  0.12775280425E+02  0.73292210869E+01  0.28282271350E+01  0.14997471142E+02  0.51100000000E-03 0.  1.
         12    1    4    4    0    0  0.16022473405E+01  0.35752424352E+01 -0.45831353371E+00  0.39445666816E+01  0.00000000000E+00 0. -1.
</event>
<event>
 8    1  0.8828843E-009  0.9118800E+02  0.7816164E-02  0.1184000E+00
        -11   -1    0    0    0    0  0.00000000000E+00  0.00000000000E+00  0.45593999997E+02  0.45594000000E+02  0.51100000000E-03 0. -1.
         11   -1    0    0    0    0 -0.00000000000E+00 -0.00000000000E+00 -0.45593999997E+02  0.45594000000E+02  0.51100000000E-03 0.  1.
         23    2    1    2    0    0  0.00000000000E+00 -0.35527136788E-14  0.00000000000E+00  0.91188000000E+02  0.91188000000E+02 0.  0.
    9900012    2    3    3    0    0  0.37321270852E+02  0.25129287781E+02  0.21806319917E+01  0.46142317429E+02  0.99999969696E+01 0.  0.
         12    1    3    3    0    0 -0.37321270852E+02 -0.25129287781E+02 -0.21806319917E+01  0.45045682571E+02  0.00000000000E+00 0. -1.
         11    1    4    4    0    0  0.13900620215E+02  0.13071385157E+02  0.38400975602E+00  0.19084963087E+02  0.51100000000E-03 0. -1.
        -11    1    4    4    0    0  0.16625197112E+02  0.10798168959E+02  0.29757322126E+01  0.20046261855E+02  0.51100000000E-03 0.  1.
        -12    1    4    4    0    0  0.67954535253E+01  0.12597336651E+01 -0.11791099770E+01  0.70110924868E+01  0.00000000000E+00 0.  1.
</event>
<event>
 8    1  0.8828843E-009  0.9118800E+02  0.7816164E-02  0.1184000E+00
        -11   -1    0    0    0    0  0.00000000000E+00  0.00000000000E+00  0.45593999997E+02  0.45594000000E+02  0.51100000000E-03 0. -1.
         11   -1    0    0    0    0 -0.00000000000E+00 -0.00000000000E+00 -0.45593999997E+02  0.45594000000E+02  0.51100000000E-03 0.  1.
         23    2    1    2    0    0  0.00000000000E+00  0.00000000000E+00  0.00000000000E+00  0.91188000000E+02  0.91188000000E+02 0.  0.
    9900012    2    3    3    0    0  0.41901721798E+02 -0.51376534834E+01  0.15715080112E+02  0.46142317455E+02  0.99999972126E+01 0.  0.
        -12    1    3    3    0    0 -0.41901721798E+02  0.51376534834E+01 -0.15715080112E+02  0.45045682545E+02  0.00000000000E+00 0.  1.
         11    1    4    4    0    0  0.23813001539E+02 -0.37277646918E+01  0.60029695293E+01  0.24839301829E+02  0.51100000000E-03 0.  1.
        -11    1    4    4    0    0  0.17632965269E+02 -0.22570397558E+01  0.98624425929E+01  0.20329374481E+02  0.51100000000E-03 0. -1.
         12    1    4    4    0    0  0.45575499029E+00  0.84715096414E+00 -0.15033201036E+00  0.97364114568E+00  0.00000000000E+00 0. -1.
</event>
<event>
 8    1  0.8828843E-009  0.9118800E+02  0.7816164E-02  0.1184000E+00
        -11   -1    0    0    0    0  0.00000000000E+00  0.00000000000E+00  0.45593999997E+02  0.45594000000E+02  0.51100000000E-03 0. -1.
         11   -1    0    0    0    0 -0.00000000000E+00 -0.00000000000E+00 -0.45593999997E+02  0.45594000000E+02  0.51100000000E-03 0.  1.
         23    2    1    2    0    0 -0.13877787808E-15  0.00000000000E+00  0.00000000000E+00  0.91188000000E+02  0.91188000000E+02 0.  0.
    9900012    2    3    3    0    0  0.11891359225E+00 -0.30667879634E+02 -0.32993643534E+02  0.46142317684E+02  0.99999992924E+01 0.  0.
         12    1    3    3    0    0 -0.11891359225E+00  0.30667879634E+02  0.32993643534E+02  0.45045682316E+02  0.00000000000E+00 0. -1.
         11    1    4    4    0    0 -0.22187184919E+01 -0.19087537405E+02 -0.16947197891E+02  0.25621559526E+02  0.51100000000E-03 0. -1.
        -11    1    4    4    0    0 -0.44623207276E+00 -0.12312967027E+00  0.15055466173E+00  0.48677607351E+00  0.51100000000E-03 0.  1.
        -12    1    4    4    0    0  0.27838641569E+01 -0.11457212559E+02 -0.16197000305E+02  0.20033982084E+02  0.00000000000E+00 0.  1.
</event>
<event>
 8    1  0.8828843E-009  0.9118800E+02  0.7816164E-02  0.1184000E+00
        -11   -1    0    0    0    0  0.00000000000E+00  0.00000000000E+00  0.45593999997E+02  0.45594000000E+02  0.51100000000E-03 0. -1.
         11   -1    0    0    0    0 -0.00000000000E+00 -0.00000000000E+00 -0.45593999997E+02  0.45594000000E+02  0.51100000000E-03 0.  1.
         23    2    1    2    0    0  0.00000000000E+00 -0.35527136788E-14  0.00000000000E+00  0.91188000000E+02  0.91188000000E+02 0.  0.
    9900012    2    3    3    0    0 -0.21244071423E+02  0.27939821555E+02 -0.28234186909E+02  0.46142317526E+02  0.99999978596E+01 0.  0.
         12    1    3    3    0    0  0.21244071423E+02 -0.27939821555E+02  0.28234186909E+02  0.45045682474E+02  0.00000000000E+00 0. -1.
         11    1    4    4    0    0 -0.26328370246E+01  0.15741629334E+01 -0.36356653706E+00  0.30890128888E+01  0.51100000000E-03 0. -1.
        -11    1    4    4    0    0 -0.10811394933E+02  0.16002707269E+02 -0.12796961151E+02  0.23167544438E+02  0.51100000000E-03 0.  1.
         12    1    4    4    0    0 -0.77998394650E+01  0.10362951353E+02 -0.15073659221E+02  0.19885760200E+02  0.00000000000E+00 0. -1.
</event>
<event>
 8    1  0.8828843E-009  0.9118800E+02  0.7816164E-02  0.1184000E+00
        -11   -1    0    0    0    0  0.00000000000E+00  0.00000000000E+00  0.45593999997E+02  0.45594000000E+02  0.51100000000E-03 0. -1.
         11   -1    0    0    0    0 -0.00000000000E+00 -0.00000000000E+00 -0.45593999997E+02  0.45594000000E+02  0.51100000000E-03 0.  1.
         23    2    1    2    0    0  0.00000000000E+00 -0.35527136788E-14  0.00000000000E+00  0.91188000000E+02  0.91188000000E+02 0.  0.
    9900012    2    3    3    0    0  0.28777996510E+01  0.30015638135E+02  0.33464806021E+02  0.46142317571E+02  0.99999982641E+01 0.  0.
        -12    1    3    3    0    0 -0.28777996510E+01 -0.30015638135E+02 -0.33464806021E+02  0.45045682429E+02  0.00000000000E+00 0.  1.
         11    1    4    4    0    0  0.43593098661E+01  0.26063946142E+02  0.30457561453E+02  0.40323639728E+02  0.51100000000E-03 0. -1.
        -11    1    4    4    0    0 -0.15648726889E+01  0.82428837580E+00  0.16122326025E+01  0.23932346489E+01  0.51100000000E-03 0.  1.
         12    1    4    4    0    0  0.83362473835E-01  0.31274036175E+01  0.13950119651E+01  0.34254431935E+01  0.00000000000E+00 0. -1.
</event>
<event>
 8    1  0.8828843E-009  0.9118800E+02  0.7816164E-02  0.1184000E+00
        -11   -1    0    0    0    0  0.00000000000E+00  0.00000000000E+00  0.45593999997E+02  0.45594000000E+02  0.51100000000E-03 0. -1.
         11   -1    0    0    0    0 -0.00000000000E+00 -0.00000000000E+00 -0.45593999997E+02  0.45594000000E+02  0.51100000000E-03 0.  1.
         23    2    1    2    0    0  0.17763568394E-14  0.35527136788E-14  0.00000000000E+00  0.91188000000E+02  0.91188000000E+02 0.  0.
    9900012    2    3    3    0    0  0.14767603063E+02  0.16058073962E+02  0.39410273965E+02  0.46142317259E+02  0.99999954193E+01 0.  0.
        -12    1    3    3    0    0 -0.14767603063E+02 -0.16058073962E+02 -0.39410273965E+02  0.45045682741E+02  0.00000000000E+00 0.  1.
         11    1    4    4    0    0  0.19115457015E+01  0.13853539518E+01  0.70542629693E+00  0.24639072754E+01  0.51100000000E-03 0.  1.
        -11    1    4    4    0    0  0.20679058972E+01  0.45712356243E+01  0.62327289632E+01  0.80012086914E+01  0.51100000000E-03 0. -1.
        -12    1    4    4    0    0  0.10788151464E+02  0.10101484386E+02  0.32472118705E+02  0.35677201292E+02  0.00000000000E+00 0.  1.
</event>
<event>
 8    1  0.8828843E-009  0.9118800E+02  0.7816164E-02  0.1184000E+00
        -11   -1    0    0    0    0  0.00000000000E+00  0.00000000000E+00  0.45593999997E+02  0.45594000000E+02  0.51100000000E-03 0. -1.
         11   -1    0    0    0    0 -0.00000000000E+00 -0.00000000000E+00 -0.45593999997E+02  0.45594000000E+02  0.51100000000E-03 0.  1.
         23    2    1    2    0    0  0.00000000000E+00  0.00000000000E+00 -0.35527136788E-14  0.91188000000E+02  0.91188000000E+02 0.  0.
    9900012    2    3    3    0    0 -0.38028223191E+02  0.16691050330E+02  0.17446391619E+02  0.46142317624E+02  0.99999987504E+01 0.  0.
        -12    1    3    3    0    0  0.38028223191E+02 -0.16691050330E+02 -0.17446391619E+02  0.45045682376E+02  0.00000000000E+00 0.  1.
         11    1    4    4    0    0 -0.29264622161E+02  0.12879276033E+02  0.15123817320E+02  0.35369813570E+02  0.51100000000E-03 0. -1.
        -11    1    4    4    0    0 -0.66081957219E+01  0.35912432098E+01  0.35122975334E+01  0.83006935081E+01  0.51100000000E-03 0.  1.
        -12    1    4    4    0    0 -0.21554053082E+01  0.22053108657E+00 -0.11897232341E+01  0.24718105463E+01  0.00000000000E+00 0.  1.
</event>
<event>
 8    1  0.8828843E-009  0.9118800E+02  0.7816164E-02  0.1184000E+00
        -11   -1    0    0    0    0  0.00000000000E+00  0.00000000000E+00  0.45593999997E+02  0.45594000000E+02  0.51100000000E-03 0. -1.
         11   -1    0    0    0    0 -0.00000000000E+00 -0.00000000000E+00 -0.45593999997E+02  0.45594000000E+02  0.51100000000E-03 0.  1.
         23    2    1    2    0    0  0.00000000000E+00 -0.35527136788E-14  0.00000000000E+00  0.91188000000E+02  0.91188000000E+02 0.  0.
    9900012    2    3    3    0    0 -0.32351663092E+02 -0.16666324533E+02 -0.26546504532E+02  0.46142318952E+02  0.10000010855E+02 0.  0.
         12    1    3    3    0    0  0.32351663092E+02  0.16666324533E+02  0.26546504532E+02  0.45045681048E+02  0.00000000000E+00 0. -1.
         11    1    4    4    0    0 -0.16614626709E+02 -0.10751371821E+02 -0.12520456219E+02  0.23417934173E+02  0.51100000000E-03 0. -1.
        -11    1    4    4    0    0 -0.10392647280E+02 -0.59475600453E+01 -0.12153608698E+02  0.17061383081E+02  0.51100000000E-03 0.  1.
         12    1    4    4    0    0 -0.53443891031E+01  0.32607333240E-01 -0.18724396144E+01  0.56630016981E+01  0.00000000000E+00 0. -1.
</event>
<event>
 8    1  0.8828843E-009  0.9118800E+02  0.7816164E-02  0.1184000E+00
        -11   -1    0    0    0    0  0.00000000000E+00  0.00000000000E+00  0.45593999997E+02  0.45594000000E+02  0.51100000000E-03 0.  1.
         11   -1    0    0    0    0 -0.00000000000E+00 -0.00000000000E+00 -0.45593999997E+02  0.45594000000E+02  0.51100000000E-03 0. -1.
         23    2    1    2    0    0 -0.71054273576E-14  0.00000000000E+00  0.00000000000E+00  0.91188000000E+02  0.91188000000E+02 0.  0.
    9900012    2    3    3    0    0 -0.41513464413E+02  0.16752722927E+02 -0.50091820305E+01  0.46142319212E+02  0.10000013233E+02 0.  0.
         12    1    3    3    0    0  0.41513464413E+02 -0.16752722927E+02  0.50091820305E+01  0.45045680788E+02  0.00000000000E+00 0. -1.
         11    1    4    4    0    0 -0.15977006761E+01  0.16068574686E+01  0.83479354266E-01  0.22675112874E+01  0.51100000000E-03 0. -1.
        -11    1    4    4    0    0 -0.13302555165E+02  0.77201748772E+00 -0.12089935526E+01  0.13379673038E+02  0.51100000000E-03 0.  1.
        -12    1    4    4    0    0 -0.26613208571E+02  0.14373847970E+02 -0.38836678321E+01  0.30495134887E+02  0.00000000000E+00 0.  1.
</event>
<event>
 8    1  0.8828843E-009  0.9118800E+02  0.7816164E-02  0.1184000E+00
        -11   -1    0    0    0    0  0.00000000000E+00  0.00000000000E+00  0.45593999997E+02  0.45594000000E+02  0.51100000000E-03 0. -1.
         11   -1    0    0    0    0 -0.00000000000E+00 -0.00000000000E+00 -0.45593999997E+02  0.45594000000E+02  0.51100000000E-03 0.  1.
         23    2    1    2    0    0  0.00000000000E+00 -0.71054273576E-14  0.00000000000E+00  0.91188000000E+02  0.91188000000E+02 0.  0.
    9900012    2    3    3    0    0 -0.21817348237E+02  0.34198131952E+02  0.19585825426E+02  0.46142317958E+02  0.10000001793E+02 0.  0.
        -12    1    3    3    0    0  0.21817348237E+02 -0.34198131952E+02 -0.19585825426E+02  0.45045682042E+02  0.00000000000E+00 0.  1.
         11    1    4    4    0    0 -0.11614556484E+02  0.18532845304E+02  0.11835475630E+02  0.24868509425E+02  0.51100000000E-03 0. -1.
        -11    1    4    4    0    0 -0.98841901881E+01  0.12235293363E+02  0.40996264785E+01  0.16254431915E+02  0.51100000000E-03 0.  1.
         12    1    4    4    0    0 -0.31860156422E+00  0.34299932848E+01  0.36507233174E+01  0.50193766177E+01  0.00000000000E+00 0. -1.
</event>
<event>
 8    1  0.8828843E-009  0.9118800E+02  0.7816164E-02  0.1184000E+00
        -11   -1    0    0    0    0  0.00000000000E+00  0.00000000000E+00  0.45593999997E+02  0.45594000000E+02  0.51100000000E-03 0. -1.
         11   -1    0    0    0    0 -0.00000000000E+00 -0.00000000000E+00 -0.45593999997E+02  0.45594000000E+02  0.51100000000E-03 0.  1.
         23    2    1    2    0    0  0.00000000000E+00 -0.88817841970E-15 -0.71054273576E-14  0.91188000000E+02  0.91188000000E+02 0.  0.
    9900012    2    3    3    0    0 -0.59596817556E+01 -0.69130991805E+01 -0.44111277399E+02  0.46142317181E+02  0.99999947059E+01 0.  0.
         12    1    3    3    0    0  0.59596817556E+01  0.69130991805E+01  0.44111277399E+02  0.45045682819E+02  0.00000000000E+00 0. -1.
         11    1    4    4    0    0 -0.24981937921E+01  0.16468382009E+01 -0.12332821604E+02  0.12690608230E+02  0.51100000000E-03 0. -1.
        -11    1    4    4    0    0 -0.32459280528E+01 -0.32789158883E+01 -0.95861534916E+01  0.10638687765E+02  0.51100000000E-03 0.  1.
        -12    1    4    4    0    0 -0.21555991069E+00 -0.52810214931E+01 -0.22192302304E+02  0.22813021186E+02  0.00000000000E+00 0.  1.
</event>
<event>
 8    1  0.8828843E-009  0.9118800E+02  0.7816164E-02  0.1184000E+00
        -11   -1    0    0    0    0  0.00000000000E+00  0.00000000000E+00  0.45593999997E+02  0.45594000000E+02  0.51100000000E-03 0.  1.
         11   -1    0    0    0    0 -0.00000000000E+00 -0.00000000000E+00 -0.45593999997E+02  0.45594000000E+02  0.51100000000E-03 0. -1.
         23    2    1    2    0    0  0.00000000000E+00 -0.17763568394E-14 -0.35527136788E-14  0.91188000000E+02  0.91188000000E+02 0.  0.
    9900012    2    3    3    0    0 -0.34465495503E+02  0.11138705462E+02  0.26780068274E+02  0.46142321002E+02  0.10000029552E+02 0.  0.
        -12    1    3    3    0    0  0.34465495503E+02 -0.11138705462E+02 -0.26780068274E+02  0.45045678998E+02  0.00000000000E+00 0.  1.
         11    1    4    4    0    0 -0.11533013951E+02  0.26678905634E+01  0.83215796143E+01  0.14469856198E+02  0.51100000000E-03 0. -1.
        -11    1    4    4    0    0 -0.14891860616E+02  0.94127533391E+01  0.13286620984E+02  0.22065849983E+02  0.51100000000E-03 0.  1.
        -12    1    4    4    0    0 -0.80406209362E+01 -0.94193844065E+00  0.51718676755E+01  0.96066148210E+01  0.00000000000E+00 0.  1.
</event>
<event>
 8    1  0.8828843E-009  0.9118800E+02  0.7816164E-02  0.1184000E+00
        -11   -1    0    0    0    0  0.00000000000E+00  0.00000000000E+00  0.45593999997E+02  0.45594000000E+02  0.51100000000E-03 0. -1.
         11   -1    0    0    0    0 -0.00000000000E+00 -0.00000000000E+00 -0.45593999997E+02  0.45594000000E+02  0.51100000000E-03 0.  1.
         23    2    1    2    0    0  0.35527136788E-14 -0.71054273576E-14  0.00000000000E+00  0.91188000000E+02  0.91188000000E+02 0.  0.
    9900012    2    3    3    0    0 -0.28895596768E+02  0.30883837917E+02  0.15503110395E+02  0.46142318865E+02  0.10000010064E+02 0.  0.
        -12    1    3    3    0    0  0.28895596768E+02 -0.30883837917E+02 -0.15503110395E+02  0.45045681135E+02  0.00000000000E+00 0.  1.
         11    1    4    4    0    0 -0.57819915913E+01  0.69437467949E+01  0.55374023566E+01  0.10597635181E+02  0.51100000000E-03 0. -1.
        -11    1    4    4    0    0 -0.83232634283E+01  0.55094229877E+01  0.22383774302E+00  0.99840151919E+01  0.51100000000E-03 0.  1.
         12    1    4    4    0    0 -0.14790341748E+02  0.18430668134E+02  0.97418702955E+01  0.25560668492E+02  0.00000000000E+00 0. -1.
</event>
<event>
 8    1  0.8828843E-009  0.9118800E+02  0.7816164E-02  0.1184000E+00
        -11   -1    0    0    0    0  0.00000000000E+00  0.00000000000E+00  0.45593999997E+02  0.45594000000E+02  0.51100000000E-03 0. -1.
         11   -1    0    0    0    0 -0.00000000000E+00 -0.00000000000E+00 -0.45593999997E+02  0.45594000000E+02  0.51100000000E-03 0.  1.
         23    2    1    2    0    0  0.35527136788E-14 -0.88817841970E-15  0.00000000000E+00  0.91188000000E+02  0.91188000000E+02 0.  0.
    9900012    2    3    3    0    0 -0.22289231945E+02  0.37216344957E+01 -0.38967333733E+02  0.46142317384E+02  0.99999965654E+01 0.  0.
         12    1    3    3    0    0  0.22289231945E+02 -0.37216344957E+01  0.38967333733E+02  0.45045682616E+02  0.00000000000E+00 0. -1.
         11    1    4    4    0    0 -0.39140932491E+01  0.19704999556E+01 -0.73815267245E+01  0.85842840752E+01  0.51100000000E-03 0. -1.
        -11    1    4    4    0    0 -0.23815491895E+01  0.30950753801E+01 -0.36805502633E+01  0.53663505898E+01  0.51100000000E-03 0.  1.
        -12    1    4    4    0    0 -0.15993589507E+02 -0.13439408401E+01 -0.27905256745E+02  0.32191682720E+02  0.00000000000E+00 0.  1.
</event>
<event>
 8    1  0.8828843E-009  0.9118800E+02  0.7816164E-02  0.1184000E+00
        -11   -1    0    0    0    0  0.00000000000E+00  0.00000000000E+00  0.45593999997E+02  0.45594000000E+02  0.51100000000E-03 0. -1.
         11   -1    0    0    0    0 -0.00000000000E+00 -0.00000000000E+00 -0.45593999997E+02  0.45594000000E+02  0.51100000000E-03 0.  1.
         23    2    1    2    0    0  0.00000000000E+00  0.00000000000E+00 -0.35527136788E-14  0.91188000000E+02  0.91188000000E+02 0.  0.
    9900012    2    3    3    0    0 -0.12719659938E+02  0.30321491948E+02 -0.30788485920E+02  0.46142317763E+02  0.10000000021E+02 0.  0.
         12    1    3    3    0    0  0.12719659938E+02 -0.30321491948E+02  0.30788485920E+02  0.45045682237E+02  0.00000000000E+00 0. -1.
         11    1    4    4    0    0 -0.10409319081E+02  0.16706679514E+02 -0.14536669852E+02  0.24470019100E+02  0.51100000000E-03 0.  1.
        -11    1    4    4    0    0 -0.62086743463E+00  0.28826314506E+01 -0.62253013816E+01  0.68883537949E+01  0.51100000000E-03 0. -1.
        -12    1    4    4    0    0 -0.16894734227E+01  0.10732180984E+02 -0.10026514686E+02  0.14783944868E+02  0.00000000000E+00 0.  1.
</event>
<event>
 8    1  0.8828843E-009  0.9118800E+02  0.7816164E-02  0.1184000E+00
        -11   -1    0    0    0    0  0.00000000000E+00  0.00000000000E+00  0.45593999997E+02  0.45594000000E+02  0.51100000000E-03 0. -1.
         11   -1    0    0    0    0 -0.00000000000E+00 -0.00000000000E+00 -0.45593999997E+02  0.45594000000E+02  0.51100000000E-03 0.  1.
         23    2    1    2    0    0 -0.35527136788E-14  0.00000000000E+00  0.00000000000E+00  0.91188000000E+02  0.91188000000E+02 0.  0.
    9900012    2    3    3    0    0  0.27978577333E+02  0.11767503370E+02 -0.33284208483E+02  0.46142318082E+02  0.10000002925E+02 0.  0.
         12    1    3    3    0    0 -0.27978577333E+02 -0.11767503370E+02  0.33284208483E+02  0.45045681918E+02  0.00000000000E+00 0. -1.
         11    1    4    4    0    0  0.17257268391E-01  0.56859423426E+00  0.32664062210E+00  0.65596613759E+00  0.51100000000E-03 0. -1.
        -11    1    4    4    0    0  0.30213764183E+01  0.32950634075E+01 -0.54249555674E+01  0.70296729291E+01  0.51100000000E-03 0.  1.
        -12    1    4    4    0    0  0.24939943646E+02  0.79038457285E+01 -0.28185893537E+02  0.38456679015E+02  0.00000000000E+00 0.  1.
</event>
<event>
 8    1  0.8828843E-009  0.9118800E+02  0.7816164E-02  0.1184000E+00
        -11   -1    0    0    0    0  0.00000000000E+00  0.00000000000E+00  0.45593999997E+02  0.45594000000E+02  0.51100000000E-03 0. -1.
         11   -1    0    0    0    0 -0.00000000000E+00 -0.00000000000E+00 -0.45593999997E+02  0.45594000000E+02  0.51100000000E-03 0.  1.
         23    2    1    2    0    0 -0.17763568394E-14  0.00000000000E+00  0.71054273576E-14  0.91188000000E+02  0.91188000000E+02 0.  0.
    9900012    2    3    3    0    0 -0.15485300442E+02  0.16390684877E+02  0.38995694248E+02  0.46142320403E+02  0.10000024087E+02 0.  0.
        -12    1    3    3    0    0  0.15485300442E+02 -0.16390684877E+02 -0.38995694248E+02  0.45045679597E+02  0.00000000000E+00 0.  1.
         11    1    4    4    0    0 -0.69609569205E+01  0.42289327249E+01  0.13228843252E+02  0.15535156494E+02  0.51100000000E-03 0. -1.
        -11    1    4    4    0    0 -0.14154958670E+01  0.50096617913E+01  0.38279477300E+01  0.64616966733E+01  0.51100000000E-03 0.  1.
         12    1    4    4    0    0 -0.71088476546E+01  0.71520903611E+01  0.21938903266E+02  0.24145467236E+02  0.00000000000E+00 0. -1.
</event>
<event>
 8    1  0.8828843E-009  0.9118800E+02  0.7816164E-02  0.1184000E+00
        -11   -1    0    0    0    0  0.00000000000E+00  0.00000000000E+00  0.45593999997E+02  0.45594000000E+02  0.51100000000E-03 0. -1.
         11   -1    0    0    0    0 -0.00000000000E+00 -0.00000000000E+00 -0.45593999997E+02  0.45594000000E+02  0.51100000000E-03 0.  1.
         23    2    1    2    0    0 -0.71054273576E-14  0.00000000000E+00  0.71054273576E-14  0.91188000000E+02  0.91188000000E+02 0.  0.
    9900012    2    3    3    0    0 -0.24865883045E+02 -0.62042007251E+00  0.37555512273E+02  0.46142316936E+02  0.99999924730E+01 0.  0.
        -12    1    3    3    0    0  0.24865883045E+02  0.62042007251E+00 -0.37555512273E+02  0.45045683064E+02  0.00000000000E+00 0.  1.
         11    1    4    4    0    0 -0.52812653155E+01  0.30532173085E+01  0.53845276750E+01  0.81367707237E+01  0.51100000000E-03 0. -1.
        -11    1    4    4    0    0 -0.84935409961E+00  0.31599214784E+00  0.27748394626E+01  0.29190730940E+01  0.51100000000E-03 0.  1.
         12    1    4    4    0    0 -0.18735263630E+02 -0.39896295289E+01  0.29396145135E+02  0.35086473118E+02  0.00000000000E+00 0. -1.
</event>
<event>
 8    1  0.8828843E-009  0.9118800E+02  0.7816164E-02  0.1184000E+00
        -11   -1    0    0    0    0  0.00000000000E+00  0.00000000000E+00  0.45593999997E+02  0.45594000000E+02  0.51100000000E-03 0. -1.
         11   -1    0    0    0    0 -0.00000000000E+00 -0.00000000000E+00 -0.45593999997E+02  0.45594000000E+02  0.51100000000E-03 0.  1.
         23    2    1    2    0    0  0.00000000000E+00 -0.71054273576E-14  0.00000000000E+00  0.91188000000E+02  0.91188000000E+02 0.  0.
    9900012    2    3    3    0    0 -0.22257501224E+02 -0.33318755646E+02 -0.20581000581E+02  0.46142318482E+02  0.10000006575E+02 0.  0.
         12    1    3    3    0    0  0.22257501224E+02  0.33318755646E+02  0.20581000581E+02  0.45045681518E+02  0.00000000000E+00 0. -1.
         11    1    4    4    0    0 -0.11549236666E+02 -0.19917952748E+02 -0.16211087942E+02  0.28158641334E+02  0.51100000000E-03 0. -1.
        -11    1    4    4    0    0 -0.85607700012E+01 -0.10460427210E+02 -0.47397644693E+01  0.14323850317E+02  0.51100000000E-03 0.  1.
        -12    1    4    4    0    0 -0.21474945570E+01 -0.29403756872E+01  0.36985183077E+00  0.36598268307E+01  0.00000000000E+00 0.  1.
</event>
<event>
 8    1  0.8828843E-009  0.9118800E+02  0.7816164E-02  0.1184000E+00
        -11   -1    0    0    0    0  0.00000000000E+00  0.00000000000E+00  0.45593999997E+02  0.45594000000E+02  0.51100000000E-03 0. -1.
         11   -1    0    0    0    0 -0.00000000000E+00 -0.00000000000E+00 -0.45593999997E+02  0.45594000000E+02  0.51100000000E-03 0.  1.
         23    2    1    2    0    0  0.00000000000E+00  0.17763568394E-14 -0.71054273576E-14  0.91188000000E+02  0.91188000000E+02 0.  0.
    9900012    2    3    3    0    0 -0.17195968995E+02  0.71369880742E+01 -0.41017990106E+02  0.46142318067E+02  0.10000002792E+02 0.  0.
         12    1    3    3    0    0  0.17195968995E+02 -0.71369880742E+01  0.41017990106E+02  0.45045681933E+02  0.00000000000E+00 0. -1.
         11    1    4    4    0    0 -0.51289108842E+01  0.51497879560E+01 -0.97995425914E+01  0.12200699903E+02  0.51100000000E-03 0. -1.
        -11    1    4    4    0    0  0.44553555522E+00  0.53277457704E+00 -0.21987011695E+01  0.23057835490E+01  0.51100000000E-03 0.  1.
        -12    1    4    4    0    0 -0.12512593666E+02  0.14544255411E+01 -0.29019746345E+02  0.31635834616E+02  0.00000000000E+00 0.  1.
</event>
<event>
 8    1  0.8828843E-009  0.9118800E+02  0.7816164E-02  0.1184000E+00
        -11   -1    0    0    0    0  0.00000000000E+00  0.00000000000E+00  0.45593999997E+02  0.45594000000E+02  0.51100000000E-03 0.  1.
         11   -1    0    0    0    0 -0.00000000000E+00 -0.00000000000E+00 -0.45593999997E+02  0.45594000000E+02  0.51100000000E-03 0. -1.
         23    2    1    2    0    0  0.17763568394E-14  0.00000000000E+00  0.71054273576E-14  0.91188000000E+02  0.91188000000E+02 0.  0.
    9900012    2    3    3    0    0  0.79252176080E+01 -0.34376269255E+02  0.28010292723E+02  0.46142318071E+02  0.10000002826E+02 0.  0.
        -12    1    3    3    0    0 -0.79252176080E+01  0.34376269255E+02 -0.28010292723E+02  0.45045681929E+02  0.00000000000E+00 0.  1.
         11    1    4    4    0    0  0.24492101554E+01 -0.14664850441E+02  0.88252867614E+01  0.17289943768E+02  0.51100000000E-03 0. -1.
        -11    1    4    4    0    0  0.11939779901E+01 -0.80996044254E+01  0.35806375604E+01  0.89358906041E+01  0.51100000000E-03 0.  1.
        -12    1    4    4    0    0  0.42820294625E+01 -0.11611814389E+02  0.15604368401E+02  0.19916483698E+02  0.00000000000E+00 0.  1.
</event>
<event>
 8    1  0.8828843E-009  0.9118800E+02  0.7816164E-02  0.1184000E+00
        -11   -1    0    0    0    0  0.00000000000E+00  0.00000000000E+00  0.45593999997E+02  0.45594000000E+02  0.51100000000E-03 0. -1.
         11   -1    0    0    0    0 -0.00000000000E+00 -0.00000000000E+00 -0.45593999997E+02  0.45594000000E+02  0.51100000000E-03 0.  1.
         23    2    1    2    0    0  0.00000000000E+00  0.00000000000E+00 -0.35527136788E-14  0.91188000000E+02  0.91188000000E+02 0.  0.
    9900012    2    3    3    0    0 -0.35388753534E+02 -0.20841053596E+02  0.18504057209E+02  0.46142317356E+02  0.99999963033E+01 0.  0.
        -12    1    3    3    0    0  0.35388753534E+02  0.20841053596E+02 -0.18504057209E+02  0.45045682644E+02  0.00000000000E+00 0.  1.
         11    1    4    4    0    0 -0.31204627448E+02 -0.19885960312E+02  0.18202217495E+02  0.41237130279E+02  0.51100000000E-03 0. -1.
        -11    1    4    4    0    0 -0.35810040157E+01 -0.16772730225E+01  0.21244979508E+00  0.39600466827E+01  0.51100000000E-03 0.  1.
        -12    1    4    4    0    0 -0.60312207049E+00  0.72217973809E+00  0.89389918842E-01  0.94514039360E+00  0.00000000000E+00 0.  1.
</event>
<event>
 8    1  0.8828843E-009  0.9118800E+02  0.7816164E-02  0.1184000E+00
        -11   -1    0    0    0    0  0.00000000000E+00  0.00000000000E+00  0.45593999997E+02  0.45594000000E+02  0.51100000000E-03 0. -1.
         11   -1    0    0    0    0 -0.00000000000E+00 -0.00000000000E+00 -0.45593999997E+02  0.45594000000E+02  0.51100000000E-03 0.  1.
         23    2    1    2    0    0  0.00000000000E+00  0.35527136788E-14 -0.71054273576E-14  0.91188000000E+02  0.91188000000E+02 0.  0.
    9900012    2    3    3    0    0  0.10499662632E+02 -0.26189983908E+02  0.35113464152E+02  0.46142317218E+02  0.99999950485E+01 0.  0.
        -12    1    3    3    0    0 -0.10499662632E+02  0.26189983908E+02 -0.35113464152E+02  0.45045682782E+02  0.00000000000E+00 0.  1.
         11    1    4    4    0    0  0.18791222103E+01 -0.59545086915E+01  0.41987584122E+01  0.75244166886E+01  0.51100000000E-03 0. -1.
        -11    1    4    4    0    0 -0.12648207688E+01 -0.23452036381E+01  0.28855040506E+01  0.39275801161E+01  0.51100000000E-03 0.  1.
         12    1    4    4    0    0  0.98853611907E+01 -0.17890271579E+02  0.28029201690E+02  0.34690320413E+02  0.00000000000E+00 0. -1.
</event>
<event>
 8    1  0.8828843E-009  0.9118800E+02  0.7816164E-02  0.1184000E+00
        -11   -1    0    0    0    0  0.00000000000E+00  0.00000000000E+00  0.45593999997E+02  0.45594000000E+02  0.51100000000E-03 0. -1.
         11   -1    0    0    0    0 -0.00000000000E+00 -0.00000000000E+00 -0.45593999997E+02  0.45594000000E+02  0.51100000000E-03 0.  1.
         23    2    1    2    0    0  0.00000000000E+00  0.88817841970E-15  0.71054273576E-14  0.91188000000E+02  0.91188000000E+02 0.  0.
    9900012    2    3    3    0    0  0.10204198634E+02  0.73564210482E+01 -0.43253567292E+02  0.46142315591E+02  0.99999802121E+01 0.  0.
         12    1    3    3    0    0 -0.10204198634E+02 -0.73564210482E+01  0.43253567292E+02  0.45045684409E+02  0.00000000000E+00 0. -1.
         11    1    4    4    0    0  0.35855671409E+01 -0.85487323712E+00 -0.70307678424E+01  0.79384379250E+01  0.51100000000E-03 0. -1.
        -11    1    4    4    0    0  0.54288808460E+00  0.41036747951E+01 -0.19643130594E+02  0.20074547419E+02  0.51100000000E-03 0.  1.
         12    1    4    4    0    0  0.60757434089E+01  0.41076194903E+01 -0.16579668855E+02  0.18129330247E+02  0.00000000000E+00 0. -1.
</event>
<event>
 8    1  0.8828843E-009  0.9118800E+02  0.7816164E-02  0.1184000E+00
        -11   -1    0    0    0    0  0.00000000000E+00  0.00000000000E+00  0.45593999997E+02  0.45594000000E+02  0.51100000000E-03 0. -1.
         11   -1    0    0    0    0 -0.00000000000E+00 -0.00000000000E+00 -0.45593999997E+02  0.45594000000E+02  0.51100000000E-03 0.  1.
         23    2    1    2    0    0 -0.17763568394E-14  0.00000000000E+00  0.35527136788E-14  0.91188000000E+02  0.91188000000E+02 0.  0.
    9900012    2    3    3    0    0  0.14699526007E+02 -0.28181082877E+02 -0.31919648316E+02  0.46142318236E+02  0.10000004335E+02 0.  0.
         12    1    3    3    0    0 -0.14699526007E+02  0.28181082877E+02  0.31919648316E+02  0.45045681764E+02  0.00000000000E+00 0. -1.
         11    1    4    4    0    0  0.65942867944E+01 -0.44145109903E+01 -0.70633373720E+01  0.10623712190E+02  0.51100000000E-03 0. -1.
        -11    1    4    4    0    0  0.28324432155E+01 -0.10071522050E+02 -0.80072865066E+01  0.13174783810E+02  0.51100000000E-03 0.  1.
         12    1    4    4    0    0  0.52727959971E+01 -0.13695049836E+02 -0.16849024437E+02  0.22343822236E+02  0.00000000000E+00 0. -1.
</event>
<event>
 8    1  0.8828843E-009  0.9118800E+02  0.7816164E-02  0.1184000E+00
        -11   -1    0    0    0    0  0.00000000000E+00  0.00000000000E+00  0.45593999997E+02  0.45594000000E+02  0.51100000000E-03 0. -1.
         11   -1    0    0    0    0 -0.00000000000E+00 -0.00000000000E+00 -0.45593999997E+02  0.45594000000E+02  0.51100000000E-03 0.  1.
         23    2    1    2    0    0  0.00000000000E+00 -0.35527136788E-14  0.35527136788E-14  0.91188000000E+02  0.91188000000E+02 0.  0.
    9900012    2    3    3    0    0  0.25082383643E+02  0.21847006561E+02 -0.30375909125E+02  0.46142317410E+02  0.99999967946E+01 0.  0.
         12    1    3    3    0    0 -0.25082383643E+02 -0.21847006561E+02  0.30375909125E+02  0.45045682590E+02  0.00000000000E+00 0. -1.
         11    1    4    4    0    0  0.36181322199E+01  0.14487695759E+01 -0.68900435400E+01  0.79159657838E+01  0.51100000000E-03 0. -1.
        -11    1    4    4    0    0  0.64506618936E+01  0.58529118940E+01 -0.10394378140E+02  0.13561368429E+02  0.51100000000E-03 0.  1.
        -12    1    4    4    0    0  0.15013589529E+02  0.14545325091E+02 -0.13091487445E+02  0.24664983197E+02  0.00000000000E+00 0.  1.
</event>
<event>
 8    1  0.8828843E-009  0.9118800E+02  0.7816164E-02  0.1184000E+00
        -11   -1    0    0    0    0  0.00000000000E+00  0.00000000000E+00  0.45593999997E+02  0.45594000000E+02  0.51100000000E-03 0. -1.
         11   -1    0    0    0    0 -0.00000000000E+00 -0.00000000000E+00 -0.45593999997E+02  0.45594000000E+02  0.51100000000E-03 0.  1.
         23    2    1    2    0    0  0.00000000000E+00  0.00000000000E+00  0.00000000000E+00  0.91188000000E+02  0.91188000000E+02 0.  0.
    9900012    2    3    3    0    0 -0.36459735566E+02 -0.11558472196E+02 -0.23795017509E+02  0.46142318128E+02  0.10000003347E+02 0.  0.
         12    1    3    3    0    0  0.36459735566E+02  0.11558472196E+02  0.23795017509E+02  0.45045681872E+02  0.00000000000E+00 0. -1.
         11    1    4    4    0    0  0.40577881942E-01 -0.39706592550E+00 -0.11747347304E+01  0.12406892688E+01  0.51100000000E-03 0. -1.
        -11    1    4    4    0    0 -0.30226085108E+02 -0.11467789535E+02 -0.17280719382E+02  0.36657191387E+02  0.51100000000E-03 0.  1.
        -12    1    4    4    0    0 -0.62742283395E+01  0.30638326459E+00 -0.53395633970E+01  0.82444374721E+01  0.00000000000E+00 0.  1.
</event>
<event>
 8    1  0.8828843E-009  0.9118800E+02  0.7816164E-02  0.1184000E+00
        -11   -1    0    0    0    0  0.00000000000E+00  0.00000000000E+00  0.45593999997E+02  0.45594000000E+02  0.51100000000E-03 0. -1.
         11   -1    0    0    0    0 -0.00000000000E+00 -0.00000000000E+00 -0.45593999997E+02  0.45594000000E+02  0.51100000000E-03 0.  1.
         23    2    1    2    0    0  0.00000000000E+00  0.35527136788E-14 -0.71054273576E-14  0.91188000000E+02  0.91188000000E+02 0.  0.
    9900012    2    3    3    0    0  0.22522561398E+02  0.21575015881E+02 -0.32501790104E+02  0.46142318274E+02  0.10000004673E+02 0.  0.
         12    1    3    3    0    0 -0.22522561398E+02 -0.21575015881E+02  0.32501790104E+02  0.45045681726E+02  0.00000000000E+00 0. -1.
         11    1    4    4    0    0  0.77548914624E+01  0.10882358662E+02 -0.17497439623E+02  0.22016458963E+02  0.51100000000E-03 0.  1.
        -11    1    4    4    0    0  0.45277792067E+01  0.56725565690E+01 -0.40439929045E+01  0.83085836005E+01  0.51100000000E-03 0. -1.
         12    1    4    4    0    0  0.10239890729E+02  0.50201006501E+01 -0.10960357577E+02  0.15817275710E+02  0.00000000000E+00 0. -1.
</event>
<event>
 8    1  0.8828843E-009  0.9118800E+02  0.7816164E-02  0.1184000E+00
        -11   -1    0    0    0    0  0.00000000000E+00  0.00000000000E+00  0.45593999997E+02  0.45594000000E+02  0.51100000000E-03 0. -1.
         11   -1    0    0    0    0 -0.00000000000E+00 -0.00000000000E+00 -0.45593999997E+02  0.45594000000E+02  0.51100000000E-03 0.  1.
         23    2    1    2    0    0  0.00000000000E+00  0.44408920985E-15  0.00000000000E+00  0.91188000000E+02  0.91188000000E+02 0.  0.
    9900012    2    3    3    0    0  0.21458395726E+02  0.21514153808E+01  0.39547729757E+02  0.46142309149E+02  0.99999214701E+01 0.  0.
        -12    1    3    3    0    0 -0.21458395726E+02 -0.21514153808E+01 -0.39547729757E+02  0.45045690851E+02  0.00000000000E+00 0.  1.
         11    1    4    4    0    0 -0.52023583271E+00  0.10799259505E+01  0.41346308034E+01  0.43048876317E+01  0.51100000000E-03 0. -1.
        -11    1    4    4    0    0  0.22305355037E+01  0.11860169324E+01  0.38123889619E+01  0.45734270143E+01  0.51100000000E-03 0.  1.
         12    1    4    4    0    0  0.19748096055E+02 -0.11452750208E+00  0.31600709992E+02  0.37263994503E+02  0.00000000000E+00 0. -1.
</event>
<event>
 8    1  0.8828843E-009  0.9118800E+02  0.7816164E-02  0.1184000E+00
        -11   -1    0    0    0    0  0.00000000000E+00  0.00000000000E+00  0.45593999997E+02  0.45594000000E+02  0.51100000000E-03 0. -1.
         11   -1    0    0    0    0 -0.00000000000E+00 -0.00000000000E+00 -0.45593999997E+02  0.45594000000E+02  0.51100000000E-03 0.  1.
         23    2    1    2    0    0  0.00000000000E+00 -0.27755575616E-16  0.00000000000E+00  0.91188000000E+02  0.91188000000E+02 0.  0.
    9900012    2    3    3    0    0  0.30152771988E+02  0.13436828777E+00  0.33464992825E+02  0.46142318096E+02  0.10000003054E+02 0.  0.
        -12    1    3    3    0    0 -0.30152771988E+02 -0.13436828777E+00 -0.33464992825E+02  0.45045681904E+02  0.00000000000E+00 0.  1.
         11    1    4    4    0    0  0.22214367498E+02 -0.12051059150E+01  0.19382223837E+02  0.29505948632E+02  0.51100000000E-03 0. -1.
        -11    1    4    4    0    0  0.12969224313E+01  0.16691908355E+01  0.24384319476E+01  0.32270972193E+01  0.51100000000E-03 0.  1.
         12    1    4    4    0    0  0.66414820590E+01 -0.32971663270E+00  0.11644337041E+02  0.13409272244E+02  0.00000000000E+00 0. -1.
</event>
<event>
 8    1  0.8828843E-009  0.9118800E+02  0.7816164E-02  0.1184000E+00
        -11   -1    0    0    0    0  0.00000000000E+00  0.00000000000E+00  0.45593999997E+02  0.45594000000E+02  0.51100000000E-03 0.  1.
         11   -1    0    0    0    0 -0.00000000000E+00 -0.00000000000E+00 -0.45593999997E+02  0.45594000000E+02  0.51100000000E-03 0. -1.
         23    2    1    2    0    0 -0.71054273576E-14  0.00000000000E+00  0.00000000000E+00  0.91188000000E+02  0.91188000000E+02 0.  0.
    9900012    2    3    3    0    0  0.43512630664E+02  0.48827652207E+01 -0.10579371645E+02  0.46142317322E+02  0.99999959977E+01 0.  0.
         12    1    3    3    0    0 -0.43512630664E+02 -0.48827652207E+01  0.10579371645E+02  0.45045682678E+02  0.00000000000E+00 0. -1.
         11    1    4    4    0    0  0.10603259652E+02  0.26642968215E+01  0.91945585093E+00  0.10971462625E+02  0.51100000000E-03 0. -1.
        -11    1    4    4    0    0  0.13830973122E+02  0.28614013591E+01 -0.42178100379E+01  0.14740195285E+02  0.51100000000E-03 0.  1.
        -12    1    4    4    0    0  0.19078397889E+02 -0.64293295993E+00 -0.72810174577E+01  0.20430659413E+02  0.00000000000E+00 0.  1.
</event>
<event>
 8    1  0.8828843E-009  0.9118800E+02  0.7816164E-02  0.1184000E+00
        -11   -1    0    0    0    0  0.00000000000E+00  0.00000000000E+00  0.45593999997E+02  0.45594000000E+02  0.51100000000E-03 0.  1.
         11   -1    0    0    0    0 -0.00000000000E+00 -0.00000000000E+00 -0.45593999997E+02  0.45594000000E+02  0.51100000000E-03 0. -1.
         23    2    1    2    0    0  0.71054273576E-14  0.00000000000E+00  0.00000000000E+00  0.91188000000E+02  0.91188000000E+02 0.  0.
    9900012    2    3    3    0    0 -0.41715751813E+02 -0.14536810723E+02 -0.88085569100E+01  0.46142317741E+02  0.99999998162E+01 0.  0.
         12    1    3    3    0    0  0.41715751813E+02  0.14536810723E+02  0.88085569100E+01  0.45045682259E+02  0.00000000000E+00 0. -1.
         11    1    4    4    0    0 -0.51482131662E+01 -0.11926439891E+01  0.20851424548E+01  0.56810490059E+01  0.51100000000E-03 0. -1.
        -11    1    4    4    0    0 -0.78163589476E+01 -0.31320740749E+01 -0.30752858236E+01  0.89645266672E+01  0.51100000000E-03 0.  1.
        -12    1    4    4    0    0 -0.28751179699E+02 -0.10212092659E+02 -0.78184135413E+01  0.31496742068E+02  0.00000000000E+00 0.  1.
</event>
<event>
 8    1  0.8828843E-009  0.9118800E+02  0.7816164E-02  0.1184000E+00
        -11   -1    0    0    0    0  0.00000000000E+00  0.00000000000E+00  0.45593999997E+02  0.45594000000E+02  0.51100000000E-03 0. -1.
         11   -1    0    0    0    0 -0.00000000000E+00 -0.00000000000E+00 -0.45593999997E+02  0.45594000000E+02  0.51100000000E-03 0.  1.
         23    2    1    2    0    0  0.00000000000E+00 -0.17763568394E-14  0.71054273576E-14  0.91188000000E+02  0.91188000000E+02 0.  0.
    9900012    2    3    3    0    0  0.15234482442E+01 -0.10071171514E+02 -0.43878970767E+02  0.46142318012E+02  0.10000002287E+02 0.  0.
         12    1    3    3    0    0 -0.15234482442E+01  0.10071171514E+02  0.43878970767E+02  0.45045681988E+02  0.00000000000E+00 0. -1.
         11    1    4    4    0    0  0.18333410384E+00 -0.93518392794E+00  0.92480066127E-01  0.95746185117E+00  0.51100000000E-03 0. -1.
        -11    1    4    4    0    0  0.22159230741E+00 -0.86060835276E+01 -0.31601710392E+02  0.32753349093E+02  0.51100000000E-03 0.  1.
         12    1    4    4    0    0  0.11185218329E+01 -0.52990405819E+00 -0.12369740441E+02  0.12431507068E+02  0.00000000000E+00 0. -1.
</event>
<event>
 8    1  0.8828843E-009  0.9118800E+02  0.7816164E-02  0.1184000E+00
        -11   -1    0    0    0    0  0.00000000000E+00  0.00000000000E+00  0.45593999997E+02  0.45594000000E+02  0.51100000000E-03 0. -1.
         11   -1    0    0    0    0 -0.00000000000E+00 -0.00000000000E+00 -0.45593999997E+02  0.45594000000E+02  0.51100000000E-03 0.  1.
         23    2    1    2    0    0  0.17763568394E-14 -0.71054273576E-14  0.00000000000E+00  0.91188000000E+02  0.91188000000E+02 0.  0.
    9900012    2    3    3    0    0  0.86847831813E+01 -0.25994647340E+02  0.35748655378E+02  0.46142317515E+02  0.99999977528E+01 0.  0.
        -12    1    3    3    0    0 -0.86847831813E+01  0.25994647340E+02 -0.35748655378E+02  0.45045682485E+02  0.00000000000E+00 0.  1.
         11    1    4    4    0    0  0.30041950789E+00 -0.17564608456E+01  0.54402227298E+01  0.57246336297E+01  0.51100000000E-03 0. -1.
        -11    1    4    4    0    0  0.28065609783E+01 -0.18571306628E+02  0.20911587491E+02  0.28108089690E+02  0.51100000000E-03 0.  1.
         12    1    4    4    0    0  0.55778026951E+01 -0.56668798663E+01  0.93968451577E+01  0.12309594195E+02  0.00000000000E+00 0. -1.
</event>
<event>
 8    1  0.8828843E-009  0.9118800E+02  0.7816164E-02  0.1184000E+00
        -11   -1    0    0    0    0  0.00000000000E+00  0.00000000000E+00  0.45593999997E+02  0.45594000000E+02  0.51100000000E-03 0. -1.
         11   -1    0    0    0    0 -0.00000000000E+00 -0.00000000000E+00 -0.45593999997E+02  0.45594000000E+02  0.51100000000E-03 0.  1.
         23    2    1    2    0    0  0.00000000000E+00  0.17763568394E-14  0.00000000000E+00  0.91188000000E+02  0.91188000000E+02 0.  0.
    9900012    2    3    3    0    0 -0.12473820200E+02  0.11838790752E+02  0.41633643942E+02  0.46142318023E+02  0.10000002390E+02 0.  0.
        -12    1    3    3    0    0  0.12473820200E+02 -0.11838790752E+02 -0.41633643942E+02  0.45045681977E+02  0.00000000000E+00 0.  1.
         11    1    4    4    0    0 -0.70819471186E+01  0.11102588323E+01  0.14587037888E+02  0.16253255805E+02  0.51100000000E-03 0. -1.
        -11    1    4    4    0    0  0.62567946580E+00  0.45718543614E+00  0.11417417939E+01  0.13798796694E+01  0.51100000000E-03 0.  1.
        -12    1    4    4    0    0 -0.60175525472E+01  0.10271346484E+02  0.25904864261E+02  0.28509182549E+02  0.00000000000E+00 0.  1.
</event>
<event>
 8    1  0.8828843E-009  0.9118800E+02  0.7816164E-02  0.1184000E+00
        -11   -1    0    0    0    0  0.00000000000E+00  0.00000000000E+00  0.45593999997E+02  0.45594000000E+02  0.51100000000E-03 0. -1.
         11   -1    0    0    0    0 -0.00000000000E+00 -0.00000000000E+00 -0.45593999997E+02  0.45594000000E+02  0.51100000000E-03 0.  1.
         23    2    1    2    0    0  0.00000000000E+00  0.00000000000E+00  0.35527136788E-14  0.91188000000E+02  0.91188000000E+02 0.  0.
    9900012    2    3    3    0    0  0.27306155393E+02 -0.18312356036E+02 -0.30791965847E+02  0.46142315782E+02  0.99999819489E+01 0.  0.
         12    1    3    3    0    0 -0.27306155393E+02  0.18312356036E+02  0.30791965847E+02  0.45045684218E+02  0.00000000000E+00 0. -1.
         11    1    4    4    0    0  0.51602695877E+01 -0.38502929252E+01 -0.82409427530E+01  0.10457833215E+02  0.51100000000E-03 0. -1.
        -11    1    4    4    0    0  0.20597182188E+02 -0.15330153221E+02 -0.22036963756E+02  0.33836153500E+02  0.51100000000E-03 0.  1.
         12    1    4    4    0    0  0.15487036180E+01  0.86809010993E+00 -0.51405933863E+00  0.18483290667E+01  0.00000000000E+00 0. -1.
</event>
<event>
 8    1  0.8828843E-009  0.9118800E+02  0.7816164E-02  0.1184000E+00
        -11   -1    0    0    0    0  0.00000000000E+00  0.00000000000E+00  0.45593999997E+02  0.45594000000E+02  0.51100000000E-03 0. -1.
         11   -1    0    0    0    0 -0.00000000000E+00 -0.00000000000E+00 -0.45593999997E+02  0.45594000000E+02  0.51100000000E-03 0.  1.
         23    2    1    2    0    0  0.00000000000E+00  0.00000000000E+00  0.00000000000E+00  0.91188000000E+02  0.91188000000E+02 0.  0.
    9900012    2    3    3    0    0 -0.38604732608E+02  0.11091054776E+02  0.20390603381E+02  0.46142316721E+02  0.99999905180E+01 0.  0.
        -12    1    3    3    0    0  0.38604732608E+02 -0.11091054776E+02 -0.20390603381E+02  0.45045683279E+02  0.00000000000E+00 0.  1.
         11    1    4    4    0    0 -0.18511582529E+02  0.22162329737E+01  0.12698869705E+02  0.22557740764E+02  0.51100000000E-03 0. -1.
        -11    1    4    4    0    0 -0.13790657684E+02  0.42286337697E+01  0.56614354390E+01  0.15495658566E+02  0.51100000000E-03 0.  1.
        -12    1    4    4    0    0 -0.63024923958E+01  0.46461880328E+01  0.20302982369E+01  0.80889173915E+01  0.00000000000E+00 0.  1.
</event>
<event>
 8    1  0.8828843E-009  0.9118800E+02  0.7816164E-02  0.1184000E+00
        -11   -1    0    0    0    0  0.00000000000E+00  0.00000000000E+00  0.45593999997E+02  0.45594000000E+02  0.51100000000E-03 0. -1.
         11   -1    0    0    0    0 -0.00000000000E+00 -0.00000000000E+00 -0.45593999997E+02  0.45594000000E+02  0.51100000000E-03 0.  1.
         23    2    1    2    0    0 -0.17763568394E-14  0.35527136788E-14 -0.71054273576E-14  0.91188000000E+02  0.91188000000E+02 0.  0.
    9900012    2    3    3    0    0  0.14312081875E+02 -0.19907463076E+02  0.37788496237E+02  0.46142320722E+02  0.10000027001E+02 0.  0.
        -12    1    3    3    0    0 -0.14312081875E+02  0.19907463076E+02 -0.37788496237E+02  0.45045679278E+02  0.00000000000E+00 0.  1.
         11    1    4    4    0    0  0.42045678830E+01 -0.10859375081E+02  0.13195324029E+02  0.17598891861E+02  0.51100000000E-03 0. -1.
        -11    1    4    4    0    0  0.58962528196E+01 -0.24485087886E+01  0.83409999125E+01  0.10503964604E+02  0.51100000000E-03 0.  1.
         12    1    4    4    0    0  0.42112611720E+01 -0.65995792069E+01  0.16252172296E+02  0.18039464258E+02  0.00000000000E+00 0. -1.
</event>
<event>
 8    1  0.8828843E-009  0.9118800E+02  0.7816164E-02  0.1184000E+00
        -11   -1    0    0    0    0  0.00000000000E+00  0.00000000000E+00  0.45593999997E+02  0.45594000000E+02  0.51100000000E-03 0.  1.
         11   -1    0    0    0    0 -0.00000000000E+00 -0.00000000000E+00 -0.45593999997E+02  0.45594000000E+02  0.51100000000E-03 0. -1.
         23    2    1    2    0    0  0.71054273576E-14 -0.35527136788E-14 -0.88817841970E-15  0.91188000000E+02  0.91188000000E+02 0.  0.
    9900012    2    3    3    0    0  0.36811266886E+02 -0.25099201978E+02 -0.66388374214E+01  0.46142317943E+02  0.10000001660E+02 0.  0.
         12    1    3    3    0    0 -0.36811266886E+02  0.25099201978E+02  0.66388374214E+01  0.45045682057E+02  0.00000000000E+00 0. -1.
         11    1    4    4    0    0  0.13197619825E+02 -0.64244644918E+01 -0.91481671306E+00  0.14706726452E+02  0.51100000000E-03 0. -1.
        -11    1    4    4    0    0  0.38175043687E+01 -0.14375932490E+01  0.12673219464E+01  0.42715476272E+01  0.51100000000E-03 0.  1.
         12    1    4    4    0    0  0.19796142692E+02 -0.17237144237E+02 -0.69913426548E+01  0.27164043864E+02  0.00000000000E+00 0. -1.
</event>
<event>
 8    1  0.8828843E-009  0.9118800E+02  0.7816164E-02  0.1184000E+00
        -11   -1    0    0    0    0  0.00000000000E+00  0.00000000000E+00  0.45593999997E+02  0.45594000000E+02  0.51100000000E-03 0.  1.
         11   -1    0    0    0    0 -0.00000000000E+00 -0.00000000000E+00 -0.45593999997E+02  0.45594000000E+02  0.51100000000E-03 0. -1.
         23    2    1    2    0    0 -0.22204460493E-15  0.00000000000E+00 -0.35527136788E-14  0.91188000000E+02  0.91188000000E+02 0.  0.
    9900012    2    3    3    0    0 -0.17328482759E+01  0.32905393054E+02 -0.30713935758E+02  0.46142317577E+02  0.99999983234E+01 0.  0.
         12    1    3    3    0    0  0.17328482759E+01 -0.32905393054E+02  0.30713935758E+02  0.45045682423E+02  0.00000000000E+00 0. -1.
         11    1    4    4    0    0 -0.36558328137E+01  0.28990303341E+02 -0.26653151319E+02  0.39549883399E+02  0.51100000000E-03 0. -1.
        -11    1    4    4    0    0  0.12221509100E+01  0.24851599656E+01 -0.67445273250E+00  0.28503613194E+01  0.51100000000E-03 0.  1.
         12    1    4    4    0    0  0.70083362781E+00  0.14299297475E+01 -0.33863317065E+01  0.37420728591E+01  0.00000000000E+00 0. -1.
</event>
<event>
 8    1  0.8828843E-009  0.9118800E+02  0.7816164E-02  0.1184000E+00
        -11   -1    0    0    0    0  0.00000000000E+00  0.00000000000E+00  0.45593999997E+02  0.45594000000E+02  0.51100000000E-03 0. -1.
         11   -1    0    0    0    0 -0.00000000000E+00 -0.00000000000E+00 -0.45593999997E+02  0.45594000000E+02  0.51100000000E-03 0.  1.
         23    2    1    2    0    0 -0.17763568394E-14 -0.22204460493E-15  0.71054273576E-14  0.91188000000E+02  0.91188000000E+02 0.  0.
    9900012    2    3    3    0    0  0.12661895751E+02 -0.55388059677E+00 -0.43225953773E+02  0.46142317995E+02  0.10000002132E+02 0.  0.
         12    1    3    3    0    0 -0.12661895751E+02  0.55388059677E+00  0.43225953773E+02  0.45045682005E+02  0.00000000000E+00 0. -1.
         11    1    4    4    0    0  0.45266921386E+01  0.24618548037E+01 -0.95117494666E+01  0.10817811653E+02  0.51100000000E-03 0. -1.
        -11    1    4    4    0    0  0.48144784560E+01 -0.26429779044E+00 -0.26374617095E+02  0.26811741519E+02  0.51100000000E-03 0.  1.
         12    1    4    4    0    0  0.33207251564E+01 -0.27514376100E+01 -0.73395872116E+01  0.85127648225E+01  0.00000000000E+00 0. -1.
</event>
<event>
 8    1  0.8828843E-009  0.9118800E+02  0.7816164E-02  0.1184000E+00
        -11   -1    0    0    0    0  0.00000000000E+00  0.00000000000E+00  0.45593999997E+02  0.45594000000E+02  0.51100000000E-03 0. -1.
         11   -1    0    0    0    0 -0.00000000000E+00 -0.00000000000E+00 -0.45593999997E+02  0.45594000000E+02  0.51100000000E-03 0.  1.
         23    2    1    2    0    0 -0.44408920985E-15 -0.35527136788E-14  0.00000000000E+00  0.91188000000E+02  0.91188000000E+02 0.  0.
    9900012    2    3    3    0    0  0.30709017139E+01  0.27410899795E+02 -0.35613559470E+02  0.46142317820E+02  0.10000000542E+02 0.  0.
         12    1    3    3    0    0 -0.30709017139E+01 -0.27410899795E+02  0.35613559470E+02  0.45045682180E+02  0.00000000000E+00 0. -1.
         11    1    4    4    0    0  0.45424227864E+01  0.14473303604E+02 -0.16897569124E+02  0.22707663124E+02  0.51100000000E-03 0. -1.
        -11    1    4    4    0    0 -0.97316172826E+00  0.19232979667E+01 -0.70966841595E+01  0.74168082852E+01  0.51100000000E-03 0.  1.
        -12    1    4    4    0    0 -0.49835934428E+00  0.11014298225E+02 -0.11619306186E+02  0.16017846411E+02  0.00000000000E+00 0.  1.
</event>
<event>
 8    1  0.8828843E-009  0.9118800E+02  0.7816164E-02  0.1184000E+00
        -11   -1    0    0    0    0  0.00000000000E+00  0.00000000000E+00  0.45593999997E+02  0.45594000000E+02  0.51100000000E-03 0. -1.
         11   -1    0    0    0    0 -0.00000000000E+00 -0.00000000000E+00 -0.45593999997E+02  0.45594000000E+02  0.51100000000E-03 0.  1.
         23    2    1    2    0    0  0.00000000000E+00  0.00000000000E+00 -0.71054273576E-14  0.91188000000E+02  0.91188000000E+02 0.  0.
    9900012    2    3    3    0    0 -0.13791061164E+02  0.11585031725E+02 -0.41288099038E+02  0.46142318184E+02  0.10000003856E+02 0.  0.
         12    1    3    3    0    0  0.13791061164E+02 -0.11585031725E+02  0.41288099038E+02  0.45045681816E+02  0.00000000000E+00 0. -1.
         11    1    4    4    0    0 -0.46512536515E+01  0.23677826523E+00 -0.76909575106E+01  0.89911652286E+01  0.51100000000E-03 0. -1.
        -11    1    4    4    0    0 -0.66937421448E+01  0.99241288766E+01 -0.31283103366E+02  0.33495179867E+02  0.51100000000E-03 0.  1.
         12    1    4    4    0    0 -0.24460653673E+01  0.14241245828E+01 -0.23140381618E+01  0.36559730883E+01  0.00000000000E+00 0. -1.
</event>
<event>
 8    1  0.8828843E-009  0.9118800E+02  0.7816164E-02  0.1184000E+00
        -11   -1    0    0    0    0  0.00000000000E+00  0.00000000000E+00  0.45593999997E+02  0.45594000000E+02  0.51100000000E-03 0.  1.
         11   -1    0    0    0    0 -0.00000000000E+00 -0.00000000000E+00 -0.45593999997E+02  0.45594000000E+02  0.51100000000E-03 0. -1.
         23    2    1    2    0    0  0.00000000000E+00  0.00000000000E+00  0.00000000000E+00  0.91188000000E+02  0.91188000000E+02 0.  0.
    9900012    2    3    3    0    0 -0.36037391068E+02 -0.25843751945E+02  0.79069816042E+01  0.46142318435E+02  0.10000006144E+02 0.  0.
         12    1    3    3    0    0  0.36037391068E+02  0.25843751945E+02 -0.79069816042E+01  0.45045681565E+02  0.00000000000E+00 0. -1.
         11    1    4    4    0    0 -0.10949145979E+02 -0.11299632782E+02  0.22021683960E+01  0.15887575164E+02  0.51100000000E-03 0.  1.
        -11    1    4    4    0    0 -0.89408422735E+01 -0.54820693463E+01  0.52602529756E+01  0.11732945347E+02  0.51100000000E-03 0. -1.
         12    1    4    4    0    0 -0.16147402815E+02 -0.90620498167E+01  0.44456023258E+00  0.18521797925E+02  0.00000000000E+00 0. -1.
</event>
<event>
 8    1  0.8828843E-009  0.9118800E+02  0.7816164E-02  0.1184000E+00
        -11   -1    0    0    0    0  0.00000000000E+00  0.00000000000E+00  0.45593999997E+02  0.45594000000E+02  0.51100000000E-03 0. -1.
         11   -1    0    0    0    0 -0.00000000000E+00 -0.00000000000E+00 -0.45593999997E+02  0.45594000000E+02  0.51100000000E-03 0.  1.
         23    2    1    2    0    0 -0.17763568394E-14  0.00000000000E+00 -0.14210854715E-13  0.91188000000E+02  0.91188000000E+02 0.  0.
    9900012    2    3    3    0    0  0.13339158515E+02 -0.16747436999E+01 -0.42992738720E+02  0.46142317643E+02  0.99999989207E+01 0.  0.
         12    1    3    3    0    0 -0.13339158515E+02  0.16747436999E+01  0.42992738720E+02  0.45045682357E+02  0.00000000000E+00 0. -1.
         11    1    4    4    0    0 -0.95597820343E+00 -0.77078837139E+00 -0.44336150284E+01  0.46005381772E+01  0.51100000000E-03 0. -1.
        -11    1    4    4    0    0  0.47731139052E+01 -0.20403041900E+01 -0.82073713812E+01  0.97111483765E+01  0.51100000000E-03 0.  1.
        -12    1    4    4    0    0  0.95220228133E+01  0.11363488615E+01 -0.30351752311E+02  0.31830631089E+02  0.00000000000E+00 0.  1.
</event>
<event>
 8    1  0.8828843E-009  0.9118800E+02  0.7816164E-02  0.1184000E+00
        -11   -1    0    0    0    0  0.00000000000E+00  0.00000000000E+00  0.45593999997E+02  0.45594000000E+02  0.51100000000E-03 0.  1.
         11   -1    0    0    0    0 -0.00000000000E+00 -0.00000000000E+00 -0.45593999997E+02  0.45594000000E+02  0.51100000000E-03 0. -1.
         23    2    1    2    0    0  0.00000000000E+00  0.00000000000E+00  0.00000000000E+00  0.91188000000E+02  0.91188000000E+02 0.  0.
    9900012    2    3    3    0    0  0.35641345478E+02 -0.22625969772E+02 -0.15712206878E+02  0.46142318069E+02  0.10000002811E+02 0.  0.
         12    1    3    3    0    0 -0.35641345478E+02  0.22625969772E+02  0.15712206878E+02  0.45045681931E+02  0.00000000000E+00 0. -1.
         11    1    4    4    0    0  0.14901408851E+02 -0.12284759959E+02 -0.82077881285E+01  0.20984163058E+02  0.51100000000E-03 0. -1.
        -11    1    4    4    0    0  0.96836112479E+01 -0.77222218258E+01 -0.57718930411E+01  0.13664544861E+02  0.51100000000E-03 0.  1.
         12    1    4    4    0    0  0.11056325379E+02 -0.26189879874E+01 -0.17325257087E+01  0.11493610150E+02  0.00000000000E+00 0. -1.
</event>
<event>
 8    1  0.8828843E-009  0.9118800E+02  0.7816164E-02  0.1184000E+00
        -11   -1    0    0    0    0  0.00000000000E+00  0.00000000000E+00  0.45593999997E+02  0.45594000000E+02  0.51100000000E-03 0. -1.
         11   -1    0    0    0    0 -0.00000000000E+00 -0.00000000000E+00 -0.45593999997E+02  0.45594000000E+02  0.51100000000E-03 0.  1.
         23    2    1    2    0    0  0.00000000000E+00 -0.17763568394E-14  0.71054273576E-14  0.91188000000E+02  0.91188000000E+02 0.  0.
    9900012    2    3    3    0    0  0.27399773828E+02 -0.12354830382E+02 -0.33551811757E+02  0.46142317501E+02  0.99999976273E+01 0.  0.
         12    1    3    3    0    0 -0.27399773828E+02  0.12354830382E+02  0.33551811757E+02  0.45045682499E+02  0.00000000000E+00 0. -1.
         11    1    4    4    0    0  0.78175783237E+01 -0.22339901816E+01 -0.93637240740E+01  0.12400990758E+02  0.51100000000E-03 0. -1.
        -11    1    4    4    0    0  0.42498168928E+00 -0.22723072000E+00 -0.45559537639E+01  0.45813707770E+01  0.51100000000E-03 0.  1.
        -12    1    4    4    0    0  0.19157213815E+02 -0.98936094807E+01 -0.19632133919E+02  0.29159955966E+02  0.00000000000E+00 0.  1.
</event>
<event>
 8    1  0.8828843E-009  0.9118800E+02  0.7816164E-02  0.1184000E+00
        -11   -1    0    0    0    0  0.00000000000E+00  0.00000000000E+00  0.45593999997E+02  0.45594000000E+02  0.51100000000E-03 0. -1.
         11   -1    0    0    0    0 -0.00000000000E+00 -0.00000000000E+00 -0.45593999997E+02  0.45594000000E+02  0.51100000000E-03 0.  1.
         23    2    1    2    0    0  0.00000000000E+00  0.00000000000E+00  0.00000000000E+00  0.91188000000E+02  0.91188000000E+02 0.  0.
    9900012    2    3    3    0    0  0.32819138966E+02  0.30588058691E+02 -0.40482512432E+01  0.46142317021E+02  0.99999932518E+01 0.  0.
         12    1    3    3    0    0 -0.32819138966E+02 -0.30588058691E+02  0.40482512432E+01  0.45045682979E+02  0.00000000000E+00 0. -1.
         11    1    4    4    0    0  0.49809655183E+01  0.43491689721E+01 -0.38393076726E+01  0.76462783044E+01  0.51100000000E-03 0. -1.
        -11    1    4    4    0    0  0.10570125396E+02  0.12790505754E+02 -0.63069999426E+00  0.16604889975E+02  0.51100000000E-03 0.  1.
         12    1    4    4    0    0  0.17268048051E+02  0.13448383965E+02  0.42175642367E+00  0.21891148742E+02  0.00000000000E+00 0. -1.
</event>
<event>
 8    1  0.8828843E-009  0.9118800E+02  0.7816164E-02  0.1184000E+00
        -11   -1    0    0    0    0  0.00000000000E+00  0.00000000000E+00  0.45593999997E+02  0.45594000000E+02  0.51100000000E-03 0. -1.
         11   -1    0    0    0    0 -0.00000000000E+00 -0.00000000000E+00 -0.45593999997E+02  0.45594000000E+02  0.51100000000E-03 0.  1.
         23    2    1    2    0    0  0.00000000000E+00  0.00000000000E+00 -0.35527136788E-14  0.91188000000E+02  0.91188000000E+02 0.  0.
    9900012    2    3    3    0    0  0.31790647861E+02 -0.72393298584E+01  0.31081504908E+02  0.46142321677E+02  0.10000035711E+02 0.  0.
        -12    1    3    3    0    0 -0.31790647861E+02  0.72393298584E+01 -0.31081504908E+02  0.45045678323E+02  0.00000000000E+00 0.  1.
         11    1    4    4    0    0  0.35507117529E+01 -0.14045964921E+01  0.19964620434E+01  0.43088636796E+01  0.51100000000E-03 0.  1.
        -11    1    4    4    0    0  0.19987044752E+02 -0.79785040856E+01  0.21524138691E+02  0.30437263872E+02  0.51100000000E-03 0. -1.
         12    1    4    4    0    0  0.82528913565E+01  0.21437707194E+01  0.75609041731E+01  0.11396194126E+02  0.00000000000E+00 0. -1.
</event>
<event>
 8    1  0.8828843E-009  0.9118800E+02  0.7816164E-02  0.1184000E+00
        -11   -1    0    0    0    0  0.00000000000E+00  0.00000000000E+00  0.45593999997E+02  0.45594000000E+02  0.51100000000E-03 0. -1.
         11   -1    0    0    0    0 -0.00000000000E+00 -0.00000000000E+00 -0.45593999997E+02  0.45594000000E+02  0.51100000000E-03 0.  1.
         23    2    1    2    0    0  0.35527136788E-14 -0.88817841970E-15 -0.71054273576E-14  0.91188000000E+02  0.91188000000E+02 0.  0.
    9900012    2    3    3    0    0 -0.20327639358E+02  0.43689956716E+01  0.39960135975E+02  0.46142317497E+02  0.99999975895E+01 0.  0.
        -12    1    3    3    0    0  0.20327639358E+02 -0.43689956716E+01 -0.39960135975E+02  0.45045682503E+02  0.00000000000E+00 0.  1.
         11    1    4    4    0    0 -0.19435267761E+02  0.21854935451E+01  0.31548292723E+02  0.37118739054E+02  0.51100000000E-03 0. -1.
        -11    1    4    4    0    0 -0.38396324211E+00  0.39416130264E+00  0.17221317777E+00  0.57658350957E+00  0.51100000000E-03 0.  1.
        -12    1    4    4    0    0 -0.50840835484E+00  0.17893408238E+01  0.82396300741E+01  0.84469949330E+01  0.00000000000E+00 0.  1.
</event>
<event>
 8    1  0.8828843E-009  0.9118800E+02  0.7816164E-02  0.1184000E+00
        -11   -1    0    0    0    0  0.00000000000E+00  0.00000000000E+00  0.45593999997E+02  0.45594000000E+02  0.51100000000E-03 0. -1.
         11   -1    0    0    0    0 -0.00000000000E+00 -0.00000000000E+00 -0.45593999997E+02  0.45594000000E+02  0.51100000000E-03 0.  1.
         23    2    1    2    0    0  0.00000000000E+00  0.00000000000E+00  0.00000000000E+00  0.91188000000E+02  0.91188000000E+02 0.  0.
    9900012    2    3    3    0    0  0.17662920911E+02 -0.21355733860E+02 -0.35511510176E+02  0.46142317646E+02  0.99999989490E+01 0.  0.
         12    1    3    3    0    0 -0.17662920911E+02  0.21355733860E+02  0.35511510176E+02  0.45045682354E+02  0.00000000000E+00 0. -1.
         11    1    4    4    0    0  0.54573136976E+01 -0.53309914668E+01 -0.50077575717E+01  0.91257536111E+01  0.51100000000E-03 0. -1.
        -11    1    4    4    0    0  0.11448223255E+00 -0.20685959082E+01 -0.59081523753E+01  0.62608673491E+01  0.51100000000E-03 0.  1.
        -12    1    4    4    0    0  0.12091124981E+02 -0.13956146485E+02 -0.24595600229E+02  0.30755696686E+02  0.00000000000E+00 0.  1.
</event>
<event>
 8    1  0.8828843E-009  0.9118800E+02  0.7816164E-02  0.1184000E+00
        -11   -1    0    0    0    0  0.00000000000E+00  0.00000000000E+00  0.45593999997E+02  0.45594000000E+02  0.51100000000E-03 0. -1.
         11   -1    0    0    0    0 -0.00000000000E+00 -0.00000000000E+00 -0.45593999997E+02  0.45594000000E+02  0.51100000000E-03 0.  1.
         23    2    1    2    0    0  0.00000000000E+00  0.17763568394E-14  0.00000000000E+00  0.91188000000E+02  0.91188000000E+02 0.  0.
    9900012    2    3    3    0    0 -0.28453645699E+02  0.80801364748E+01  0.33973738390E+02  0.46142318085E+02  0.10000002955E+02 0.  0.
        -12    1    3    3    0    0  0.28453645699E+02 -0.80801364748E+01 -0.33973738390E+02  0.45045681915E+02  0.00000000000E+00 0.  1.
         11    1    4    4    0    0 -0.65650086696E+01 -0.91246024142E+00  0.42529345010E+01  0.78752380697E+01  0.51100000000E-03 0. -1.
        -11    1    4    4    0    0 -0.33161397761E+01  0.33014232611E+01  0.58763327536E+01  0.75118217135E+01  0.51100000000E-03 0.  1.
         12    1    4    4    0    0 -0.18572497253E+02  0.56911734551E+01  0.23844471135E+02  0.30755258302E+02  0.00000000000E+00 0. -1.
</event>
<event>
 8    1  0.8828843E-009  0.9118800E+02  0.7816164E-02  0.1184000E+00
        -11   -1    0    0    0    0  0.00000000000E+00  0.00000000000E+00  0.45593999997E+02  0.45594000000E+02  0.51100000000E-03 0. -1.
         11   -1    0    0    0    0 -0.00000000000E+00 -0.00000000000E+00 -0.45593999997E+02  0.45594000000E+02  0.51100000000E-03 0.  1.
         23    2    1    2    0    0  0.35527136788E-14  0.35527136788E-14  0.00000000000E+00  0.91188000000E+02  0.91188000000E+02 0.  0.
    9900012    2    3    3    0    0 -0.18747097585E+02 -0.29725761563E+02 -0.28178696903E+02  0.46142317326E+02  0.99999960358E+01 0.  0.
         12    1    3    3    0    0  0.18747097585E+02  0.29725761563E+02  0.28178696903E+02  0.45045682674E+02  0.00000000000E+00 0. -1.
         11    1    4    4    0    0 -0.19659888985E+01 -0.14176253635E+01  0.28313536178E-01  0.24239587327E+01  0.51100000000E-03 0. -1.
        -11    1    4    4    0    0 -0.13659888104E+02 -0.17953992053E+02 -0.19888515216E+02  0.30074763697E+02  0.51100000000E-03 0.  1.
        -12    1    4    4    0    0 -0.31212205825E+01 -0.10354144146E+02 -0.83184952232E+01  0.13643594897E+02  0.00000000000E+00 0.  1.
</event>
<event>
 8    1  0.8828843E-009  0.9118800E+02  0.7816164E-02  0.1184000E+00
        -11   -1    0    0    0    0  0.00000000000E+00  0.00000000000E+00  0.45593999997E+02  0.45594000000E+02  0.51100000000E-03 0. -1.
         11   -1    0    0    0    0 -0.00000000000E+00 -0.00000000000E+00 -0.45593999997E+02  0.45594000000E+02  0.51100000000E-03 0.  1.
         23    2    1    2    0    0  0.00000000000E+00  0.00000000000E+00  0.00000000000E+00  0.91188000000E+02  0.91188000000E+02 0.  0.
    9900012    2    3    3    0    0 -0.38480984209E+02  0.63061628254E+01  0.22551265256E+02  0.46142318743E+02  0.10000008952E+02 0.  0.
        -12    1    3    3    0    0  0.38480984209E+02 -0.63061628254E+01 -0.22551265256E+02  0.45045681257E+02  0.00000000000E+00 0.  1.
         11    1    4    4    0    0 -0.22450260177E+02  0.40144493667E+01  0.16434653659E+02  0.28110991211E+02  0.51100000000E-03 0. -1.
        -11    1    4    4    0    0 -0.13088939744E+02  0.21146355978E+01  0.69484565140E+01  0.14969070630E+02  0.51100000000E-03 0.  1.
        -12    1    4    4    0    0 -0.29417842884E+01  0.17707786092E+00 -0.83184491673E+00  0.30622569019E+01  0.00000000000E+00 0.  1.
</event>
<event>
 8    1  0.8828843E-009  0.9118800E+02  0.7816164E-02  0.1184000E+00
        -11   -1    0    0    0    0  0.00000000000E+00  0.00000000000E+00  0.45593999997E+02  0.45594000000E+02  0.51100000000E-03 0. -1.
         11   -1    0    0    0    0 -0.00000000000E+00 -0.00000000000E+00 -0.45593999997E+02  0.45594000000E+02  0.51100000000E-03 0.  1.
         23    2    1    2    0    0  0.88817841970E-15  0.00000000000E+00  0.00000000000E+00  0.91188000000E+02  0.91188000000E+02 0.  0.
    9900012    2    3    3    0    0  0.44803684082E+01  0.10247498809E+02  0.43635176225E+02  0.46142317220E+02  0.99999950660E+01 0.  0.
        -12    1    3    3    0    0 -0.44803684082E+01 -0.10247498809E+02 -0.43635176225E+02  0.45045682780E+02  0.00000000000E+00 0.  1.
         11    1    4    4    0    0  0.37876989368E+01  0.67177937565E+01  0.16893336864E+02  0.18570413211E+02  0.51100000000E-03 0. -1.
        -11    1    4    4    0    0 -0.56333908618E+00  0.13583570394E+01  0.11750317370E+01  0.18823348842E+01  0.51100000000E-03 0.  1.
        -12    1    4    4    0    0  0.12560085575E+01  0.21713480133E+01  0.25566807624E+02  0.25689569124E+02  0.00000000000E+00 0.  1.
</event>
<event>
 8    1  0.8828843E-009  0.9118800E+02  0.7816164E-02  0.1184000E+00
        -11   -1    0    0    0    0  0.00000000000E+00  0.00000000000E+00  0.45593999997E+02  0.45594000000E+02  0.51100000000E-03 0.  1.
         11   -1    0    0    0    0 -0.00000000000E+00 -0.00000000000E+00 -0.45593999997E+02  0.45594000000E+02  0.51100000000E-03 0. -1.
         23    2    1    2    0    0 -0.35527136788E-14 -0.71054273576E-14  0.00000000000E+00  0.91188000000E+02  0.91188000000E+02 0.  0.
    9900012    2    3    3    0    0  0.19005585065E+02 -0.39090716724E+02 -0.11824431745E+02  0.46142316702E+02  0.99999903455E+01 0.  0.
         12    1    3    3    0    0 -0.19005585065E+02  0.39090716724E+02  0.11824431745E+02  0.45045683298E+02  0.00000000000E+00 0. -1.
         11    1    4    4    0    0  0.26546922521E-01  0.40352827626E+00  0.34831688917E+00  0.53372720115E+00  0.51100000000E-03 0. -1.
        -11    1    4    4    0    0  0.56631031020E+01 -0.90154831025E+01 -0.38619099929E+01  0.11325370695E+02  0.51100000000E-03 0.  1.
         12    1    4    4    0    0  0.13315935040E+02 -0.30478761898E+02 -0.83108386416E+01  0.34283218807E+02  0.00000000000E+00 0. -1.
</event>
<event>
 8    1  0.8828843E-009  0.9118800E+02  0.7816164E-02  0.1184000E+00
        -11   -1    0    0    0    0  0.00000000000E+00  0.00000000000E+00  0.45593999997E+02  0.45594000000E+02  0.51100000000E-03 0. -1.
         11   -1    0    0    0    0 -0.00000000000E+00 -0.00000000000E+00 -0.45593999997E+02  0.45594000000E+02  0.51100000000E-03 0.  1.
         23    2    1    2    0    0 -0.71054273576E-14  0.35527136788E-14 -0.71054273576E-14  0.91188000000E+02  0.91188000000E+02 0.  0.
    9900012    2    3    3    0    0 -0.33847186496E+02  0.24790364909E+02 -0.16398758083E+02  0.46142317713E+02  0.99999995626E+01 0.  0.
         12    1    3    3    0    0  0.33847186496E+02 -0.24790364909E+02  0.16398758083E+02  0.45045682287E+02  0.00000000000E+00 0. -1.
         11    1    4    4    0    0 -0.19648866959E+02  0.11173561393E+02 -0.89398703342E+01  0.24307359561E+02  0.51100000000E-03 0. -1.
        -11    1    4    4    0    0 -0.55510825762E+00 -0.59926183064E+00 -0.25605903101E+00  0.85605280668E+00  0.51100000000E-03 0.  1.
        -12    1    4    4    0    0 -0.13643211279E+02  0.14216065346E+02 -0.72028287176E+01  0.20978905345E+02  0.00000000000E+00 0.  1.
</event>
<event>
 8    1  0.8828843E-009  0.9118800E+02  0.7816164E-02  0.1184000E+00
        -11   -1    0    0    0    0  0.00000000000E+00  0.00000000000E+00  0.45593999997E+02  0.45594000000E+02  0.51100000000E-03 0. -1.
         11   -1    0    0    0    0 -0.00000000000E+00 -0.00000000000E+00 -0.45593999997E+02  0.45594000000E+02  0.51100000000E-03 0.  1.
         23    2    1    2    0    0  0.71054273576E-14 -0.35527136788E-14  0.00000000000E+00  0.91188000000E+02  0.91188000000E+02 0.  0.
    9900012    2    3    3    0    0  0.37071541658E+02 -0.12274490111E+02 -0.22453310511E+02  0.46142318061E+02  0.10000002738E+02 0.  0.
         12    1    3    3    0    0 -0.37071541658E+02  0.12274490111E+02  0.22453310511E+02  0.45045681939E+02  0.00000000000E+00 0. -1.
         11    1    4    4    0    0  0.10235229231E+01 -0.16465758215E+01  0.43745452104E-01  0.19392588883E+01  0.51100000000E-03 0. -1.
        -11    1    4    4    0    0  0.34029688859E+00 -0.19288049483E+00  0.36778895340E+00  0.53691138285E+00  0.51100000000E-03 0.  1.
        -12    1    4    4    0    0  0.35707721847E+02 -0.10435033795E+02 -0.22864844916E+02  0.43666147790E+02  0.00000000000E+00 0.  1.
</event>
<event>
 8    1  0.8828843E-009  0.9118800E+02  0.7816164E-02  0.1184000E+00
        -11   -1    0    0    0    0  0.00000000000E+00  0.00000000000E+00  0.45593999997E+02  0.45594000000E+02  0.51100000000E-03 0. -1.
         11   -1    0    0    0    0 -0.00000000000E+00 -0.00000000000E+00 -0.45593999997E+02  0.45594000000E+02  0.51100000000E-03 0.  1.
         23    2    1    2    0    0  0.00000000000E+00  0.00000000000E+00  0.00000000000E+00  0.91188000000E+02  0.91188000000E+02 0.  0.
    9900012    2    3    3    0    0 -0.68851456755E+01  0.21771461705E+02  0.38829263410E+02  0.46142317935E+02  0.10000001587E+02 0.  0.
        -12    1    3    3    0    0  0.68851456755E+01 -0.21771461705E+02 -0.38829263410E+02  0.45045682065E+02  0.00000000000E+00 0.  1.
         11    1    4    4    0    0 -0.20506220567E+01  0.10554947741E+02  0.20540405326E+02  0.23184482393E+02  0.51100000000E-03 0. -1.
        -11    1    4    4    0    0  0.89574945753E+00  0.12134535158E+01  0.56645938431E+01  0.58619502040E+01  0.51100000000E-03 0.  1.
         12    1    4    4    0    0 -0.57302730764E+01  0.10003060449E+02  0.12624264240E+02  0.17095885338E+02  0.00000000000E+00 0. -1.
</event>
<event>
 8    1  0.8828843E-009  0.9118800E+02  0.7816164E-02  0.1184000E+00
        -11   -1    0    0    0    0  0.00000000000E+00  0.00000000000E+00  0.45593999997E+02  0.45594000000E+02  0.51100000000E-03 0.  1.
         11   -1    0    0    0    0 -0.00000000000E+00 -0.00000000000E+00 -0.45593999997E+02  0.45594000000E+02  0.51100000000E-03 0. -1.
         23    2    1    2    0    0  0.00000000000E+00 -0.35527136788E-14 -0.17763568394E-14  0.91188000000E+02  0.91188000000E+02 0.  0.
    9900012    2    3    3    0    0  0.34900309074E+02  0.24997415988E+02  0.13645919851E+02  0.46142317542E+02  0.99999979984E+01 0.  0.
        -12    1    3    3    0    0 -0.34900309074E+02 -0.24997415988E+02 -0.13645919851E+02  0.45045682458E+02  0.00000000000E+00 0.  1.
         11    1    4    4    0    0  0.12605255798E+02  0.95690344806E+01  0.84299354535E+01  0.17931054253E+02  0.51100000000E-03 0.  1.
        -11    1    4    4    0    0  0.20544490147E+02  0.15536083599E+02  0.39740843733E+01  0.26062220088E+02  0.51100000000E-03 0. -1.
         12    1    4    4    0    0  0.17505631289E+01 -0.10770209179E+00  0.12419000242E+01  0.21490432008E+01  0.00000000000E+00 0. -1.
</event>
<event>
 8    1  0.8828843E-009  0.9118800E+02  0.7816164E-02  0.1184000E+00
        -11   -1    0    0    0    0  0.00000000000E+00  0.00000000000E+00  0.45593999997E+02  0.45594000000E+02  0.51100000000E-03 0.  1.
         11   -1    0    0    0    0 -0.00000000000E+00 -0.00000000000E+00 -0.45593999997E+02  0.45594000000E+02  0.51100000000E-03 0. -1.
         23    2    1    2    0    0 -0.71054273576E-14 -0.17763568394E-14  0.88817841970E-15  0.91188000000E+02  0.91188000000E+02 0.  0.
    9900012    2    3    3    0    0 -0.42743234151E+02 -0.12953882208E+02  0.58588644472E+01  0.46142318492E+02  0.10000006664E+02 0.  0.
         12    1    3    3    0    0  0.42743234151E+02  0.12953882208E+02 -0.58588644472E+01  0.45045681508E+02  0.00000000000E+00 0. -1.
         11    1    4    4    0    0 -0.14475141203E+02 -0.78180642509E+01  0.18897984822E+01  0.16559685384E+02  0.51100000000E-03 0. -1.
        -11    1    4    4    0    0 -0.47045889127E+01  0.46785284577E+00  0.24234067496E+01  0.53127152811E+01  0.51100000000E-03 0.  1.
         12    1    4    4    0    0 -0.23563504035E+02 -0.56036708032E+01  0.15456592153E+01  0.24269917826E+02  0.00000000000E+00 0. -1.
</event>
<event>
 8    1  0.8828843E-009  0.9118800E+02  0.7816164E-02  0.1184000E+00
        -11   -1    0    0    0    0  0.00000000000E+00  0.00000000000E+00  0.45593999997E+02  0.45594000000E+02  0.51100000000E-03 0. -1.
         11   -1    0    0    0    0 -0.00000000000E+00 -0.00000000000E+00 -0.45593999997E+02  0.45594000000E+02  0.51100000000E-03 0.  1.
         23    2    1    2    0    0  0.00000000000E+00  0.35527136788E-14 -0.71054273576E-14  0.91188000000E+02  0.91188000000E+02 0.  0.
    9900012    2    3    3    0    0 -0.11453592196E+02  0.20464514539E+02 -0.38459489727E+02  0.46142317858E+02  0.10000000888E+02 0.  0.
         12    1    3    3    0    0  0.11453592196E+02 -0.20464514539E+02  0.38459489727E+02  0.45045682142E+02  0.00000000000E+00 0. -1.
         11    1    4    4    0    0 -0.60442049680E+01  0.99983432275E+01 -0.21978393256E+02  0.24890742282E+02  0.51100000000E-03 0. -1.
        -11    1    4    4    0    0 -0.57902447680E+01  0.42616201420E+01 -0.84121587608E+01  0.11065837338E+02  0.51100000000E-03 0.  1.
         12    1    4    4    0    0  0.38085754023E+00  0.62045511697E+01 -0.80689377106E+01  0.10185738238E+02  0.00000000000E+00 0. -1.
</event>
<event>
 8    1  0.8828843E-009  0.9118800E+02  0.7816164E-02  0.1184000E+00
        -11   -1    0    0    0    0  0.00000000000E+00  0.00000000000E+00  0.45593999997E+02  0.45594000000E+02  0.51100000000E-03 0. -1.
         11   -1    0    0    0    0 -0.00000000000E+00 -0.00000000000E+00 -0.45593999997E+02  0.45594000000E+02  0.51100000000E-03 0.  1.
         23    2    1    2    0    0  0.00000000000E+00 -0.35527136788E-14 -0.71054273576E-14  0.91188000000E+02  0.91188000000E+02 0.  0.
    9900012    2    3    3    0    0  0.95208937734E+01 -0.25498623355E+02  0.35892704392E+02  0.46142318300E+02  0.10000004916E+02 0.  0.
        -12    1    3    3    0    0 -0.95208937734E+01  0.25498623355E+02 -0.35892704392E+02  0.45045681700E+02  0.00000000000E+00 0.  1.
         11    1    4    4    0    0  0.72338177808E-01 -0.14179874241E+01  0.38121381402E+00  0.14701174715E+01  0.51100000000E-03 0. -1.
        -11    1    4    4    0    0  0.47109251772E+00 -0.12132645789E+02  0.15163690059E+02  0.19425769444E+02  0.51100000000E-03 0.  1.
         12    1    4    4    0    0  0.89774630779E+01 -0.11947990142E+02  0.20347800518E+02  0.25246431385E+02  0.00000000000E+00 0. -1.
</event>
<event>
 8    1  0.8828843E-009  0.9118800E+02  0.7816164E-02  0.1184000E+00
        -11   -1    0    0    0    0  0.00000000000E+00  0.00000000000E+00  0.45593999997E+02  0.45594000000E+02  0.51100000000E-03 0. -1.
         11   -1    0    0    0    0 -0.00000000000E+00 -0.00000000000E+00 -0.45593999997E+02  0.45594000000E+02  0.51100000000E-03 0.  1.
         23    2    1    2    0    0  0.00000000000E+00  0.00000000000E+00  0.71054273576E-14  0.91188000000E+02  0.91188000000E+02 0.  0.
    9900012    2    3    3    0    0  0.14785406538E+02  0.23836369531E+01 -0.42483214567E+02  0.46142317725E+02  0.99999996748E+01 0.  0.
         12    1    3    3    0    0 -0.14785406538E+02 -0.23836369531E+01  0.42483214567E+02  0.45045682275E+02  0.00000000000E+00 0. -1.
         11    1    4    4    0    0  0.92577267048E+01 -0.18399848294E+01 -0.22289986791E+02  0.24206085172E+02  0.51100000000E-03 0. -1.
        -11    1    4    4    0    0  0.42877973261E+01  0.30340073767E+00 -0.12415927289E+02  0.13138969086E+02  0.51100000000E-03 0.  1.
         12    1    4    4    0    0  0.12398825068E+01  0.39202210448E+01 -0.77773004867E+01  0.87972634683E+01  0.00000000000E+00 0. -1.
</event>
<event>
 8    1  0.8828843E-009  0.9118800E+02  0.7816164E-02  0.1184000E+00
        -11   -1    0    0    0    0  0.00000000000E+00  0.00000000000E+00  0.45593999997E+02  0.45594000000E+02  0.51100000000E-03 0.  1.
         11   -1    0    0    0    0 -0.00000000000E+00 -0.00000000000E+00 -0.45593999997E+02  0.45594000000E+02  0.51100000000E-03 0. -1.
         23    2    1    2    0    0  0.00000000000E+00  0.11102230246E-15  0.00000000000E+00  0.91188000000E+02  0.91188000000E+02 0.  0.
    9900012    2    3    3    0    0  0.43173249849E+02 -0.38438273390E+00  0.12846649072E+02  0.46142316023E+02  0.99999841501E+01 0.  0.
        -12    1    3    3    0    0 -0.43173249849E+02  0.38438273390E+00 -0.12846649072E+02  0.45045683977E+02  0.00000000000E+00 0.  1.
         11    1    4    4    0    0  0.24218955156E+02  0.20524382395E+01  0.70097065831E+01  0.25296368874E+02  0.51100000000E-03 0. -1.
        -11    1    4    4    0    0  0.17253045972E+02 -0.20472696743E+01  0.70186864084E+01  0.18738219435E+02  0.51100000000E-03 0.  1.
        -12    1    4    4    0    0  0.17012487206E+01 -0.38955129908E+00 -0.11817439196E+01  0.21077277138E+01  0.00000000000E+00 0.  1.
</event>
<event>
 8    1  0.8828843E-009  0.9118800E+02  0.7816164E-02  0.1184000E+00
        -11   -1    0    0    0    0  0.00000000000E+00  0.00000000000E+00  0.45593999997E+02  0.45594000000E+02  0.51100000000E-03 0. -1.
         11   -1    0    0    0    0 -0.00000000000E+00 -0.00000000000E+00 -0.45593999997E+02  0.45594000000E+02  0.51100000000E-03 0.  1.
         23    2    1    2    0    0 -0.71054273576E-14 -0.17763568394E-14  0.00000000000E+00  0.91188000000E+02  0.91188000000E+02 0.  0.
    9900012    2    3    3    0    0  0.42313355998E+02 -0.79688305744E+01  0.13235977246E+02  0.46142318185E+02  0.10000003865E+02 0.  0.
        -12    1    3    3    0    0 -0.42313355998E+02  0.79688305744E+01 -0.13235977246E+02  0.45045681815E+02  0.00000000000E+00 0.  1.
         11    1    4    4    0    0  0.14691054036E+01  0.11227231953E+01  0.14142516130E+01  0.23278500695E+01  0.51100000000E-03 0. -1.
        -11    1    4    4    0    0  0.62581320327E+01 -0.33689492439E+01  0.14233499807E+01  0.72484454178E+01  0.51100000000E-03 0.  1.
         12    1    4    4    0    0  0.34586118562E+02 -0.57226045259E+01  0.10398375652E+02  0.36566022698E+02  0.00000000000E+00 0. -1.
</event>
<event>
 8    1  0.8828843E-009  0.9118800E+02  0.7816164E-02  0.1184000E+00
        -11   -1    0    0    0    0  0.00000000000E+00  0.00000000000E+00  0.45593999997E+02  0.45594000000E+02  0.51100000000E-03 0. -1.
         11   -1    0    0    0    0 -0.00000000000E+00 -0.00000000000E+00 -0.45593999997E+02  0.45594000000E+02  0.51100000000E-03 0.  1.
         23    2    1    2    0    0  0.00000000000E+00  0.00000000000E+00  0.00000000000E+00  0.91188000000E+02  0.91188000000E+02 0.  0.
    9900012    2    3    3    0    0  0.20413589471E+02 -0.39651376235E+02  0.63377591244E+01  0.46142318041E+02  0.10000002556E+02 0.  0.
        -12    1    3    3    0    0 -0.20413589471E+02  0.39651376235E+02 -0.63377591244E+01  0.45045681959E+02  0.00000000000E+00 0.  1.
         11    1    4    4    0    0  0.40172245391E+01 -0.10140811906E+02  0.41872343281E+01  0.11683624895E+02  0.51100000000E-03 0. -1.
        -11    1    4    4    0    0  0.13699753479E+02 -0.26091130438E+02 -0.28214904457E+00  0.29470492722E+02  0.51100000000E-03 0.  1.
         12    1    4    4    0    0  0.26966114528E+01 -0.34194338909E+01  0.24326738408E+01  0.49882004248E+01  0.00000000000E+00 0. -1.
</event>
<event>
 8    1  0.8828843E-009  0.9118800E+02  0.7816164E-02  0.1184000E+00
        -11   -1    0    0    0    0  0.00000000000E+00  0.00000000000E+00  0.45593999997E+02  0.45594000000E+02  0.51100000000E-03 0. -1.
         11   -1    0    0    0    0 -0.00000000000E+00 -0.00000000000E+00 -0.45593999997E+02  0.45594000000E+02  0.51100000000E-03 0.  1.
         23    2    1    2    0    0 -0.71054273576E-14  0.88817841970E-15  0.00000000000E+00  0.91188000000E+02  0.91188000000E+02 0.  0.
    9900012    2    3    3    0    0  0.40034835235E+02 -0.61885648063E+01 -0.19698403468E+02  0.46142318011E+02  0.10000002279E+02 0.  0.
         12    1    3    3    0    0 -0.40034835235E+02  0.61885648063E+01  0.19698403468E+02  0.45045681989E+02  0.00000000000E+00 0. -1.
         11    1    4    4    0    0  0.17031813531E+00 -0.27315394523E+00  0.48933376128E+00  0.58572103945E+00  0.51100000000E-03 0. -1.
        -11    1    4    4    0    0  0.18889650033E+02  0.52786724714E+00 -0.94097601799E+01  0.21110213384E+02  0.51100000000E-03 0.  1.
        -12    1    4    4    0    0  0.20974867067E+02 -0.64432781082E+01 -0.10777977050E+02  0.24446383588E+02  0.00000000000E+00 0.  1.
</event>
<event>
 8    1  0.8828843E-009  0.9118800E+02  0.7816164E-02  0.1184000E+00
        -11   -1    0    0    0    0  0.00000000000E+00  0.00000000000E+00  0.45593999997E+02  0.45594000000E+02  0.51100000000E-03 0. -1.
         11   -1    0    0    0    0 -0.00000000000E+00 -0.00000000000E+00 -0.45593999997E+02  0.45594000000E+02  0.51100000000E-03 0.  1.
         23    2    1    2    0    0  0.35527136788E-14  0.88817841970E-15  0.00000000000E+00  0.91188000000E+02  0.91188000000E+02 0.  0.
    9900012    2    3    3    0    0 -0.10205294479E+02 -0.42749287267E+01  0.43665666327E+02  0.46142318001E+02  0.10000002185E+02 0.  0.
        -12    1    3    3    0    0  0.10205294479E+02  0.42749287267E+01 -0.43665666327E+02  0.45045681999E+02  0.00000000000E+00 0.  1.
         11    1    4    4    0    0 -0.14491902303E+01  0.17074127138E-01  0.31396017702E+01  0.34579681007E+01  0.51100000000E-03 0. -1.
        -11    1    4    4    0    0 -0.44868868925E+01  0.12266741689E+01  0.67652176517E+01  0.82100580776E+01  0.51100000000E-03 0.  1.
         12    1    4    4    0    0 -0.42692173561E+01 -0.55186770227E+01  0.33760846905E+02  0.34474291822E+02  0.00000000000E+00 0. -1.
</event>
<event>
 8    1  0.8828843E-009  0.9118800E+02  0.7816164E-02  0.1184000E+00
        -11   -1    0    0    0    0  0.00000000000E+00  0.00000000000E+00  0.45593999997E+02  0.45594000000E+02  0.51100000000E-03 0. -1.
         11   -1    0    0    0    0 -0.00000000000E+00 -0.00000000000E+00 -0.45593999997E+02  0.45594000000E+02  0.51100000000E-03 0.  1.
         23    2    1    2    0    0  0.00000000000E+00  0.00000000000E+00 -0.71054273576E-14  0.91188000000E+02  0.91188000000E+02 0.  0.
    9900012    2    3    3    0    0  0.22760828915E+02 -0.50623767241E+01  0.38541283353E+02  0.46142317482E+02  0.99999974554E+01 0.  0.
        -12    1    3    3    0    0 -0.22760828915E+02  0.50623767241E+01 -0.38541283353E+02  0.45045682518E+02  0.00000000000E+00 0.  1.
         11    1    4    4    0    0  0.64640787459E+01  0.17540277162E+01  0.81968428855E+01  0.10585327620E+02  0.51100000000E-03 0.  1.
        -11    1    4    4    0    0  0.56091706294E+01 -0.53406739363E+01  0.12616231793E+02  0.14803881186E+02  0.51100000000E-03 0. -1.
         12    1    4    4    0    0  0.10687579540E+02 -0.14757305040E+01  0.17728208674E+02  0.20753108677E+02  0.00000000000E+00 0. -1.
</event>
<event>
 8    1  0.8828843E-009  0.9118800E+02  0.7816164E-02  0.1184000E+00
        -11   -1    0    0    0    0  0.00000000000E+00  0.00000000000E+00  0.45593999997E+02  0.45594000000E+02  0.51100000000E-03 0. -1.
         11   -1    0    0    0    0 -0.00000000000E+00 -0.00000000000E+00 -0.45593999997E+02  0.45594000000E+02  0.51100000000E-03 0.  1.
         23    2    1    2    0    0  0.00000000000E+00  0.88817841970E-15  0.00000000000E+00  0.91188000000E+02  0.91188000000E+02 0.  0.
    9900012    2    3    3    0    0 -0.26400813041E+01  0.43982721521E+01 -0.44752640351E+02  0.46142316016E+02  0.99999840882E+01 0.  0.
         12    1    3    3    0    0  0.26400813041E+01 -0.43982721521E+01  0.44752640351E+02  0.45045683984E+02  0.00000000000E+00 0. -1.
         11    1    4    4    0    0 -0.38096614664E-01  0.16758416222E+01 -0.26537547459E+01  0.31388391178E+01  0.51100000000E-03 0. -1.
        -11    1    4    4    0    0 -0.25341278440E+01 -0.24354197299E+01 -0.20347171546E+02  0.20648497848E+02  0.51100000000E-03 0.  1.
        -12    1    4    4    0    0 -0.67856845446E-01  0.51578502598E+01 -0.21751714058E+02  0.22354979050E+02  0.00000000000E+00 0.  1.
</event>
<event>
 8    1  0.9600172E-009  0.9118800E+02  0.7816164E-02  0.1184000E+00
        -11   -1    0    0    0    0  0.00000000000E+00  0.00000000000E+00  0.45593999997E+02  0.45594000000E+02  0.51100000000E-03 0. -1.
         11   -1    0    0    0    0 -0.00000000000E+00 -0.00000000000E+00 -0.45593999997E+02  0.45594000000E+02  0.51100000000E-03 0.  1.
         23    2    1    2    0    0  0.88817841970E-15  0.00000000000E+00  0.00000000000E+00  0.91188000000E+02  0.91188000000E+02 0.  0.
    9900012    2    3    3    0    0 -0.45008197876E+01  0.11337223837E+02  0.43362696409E+02  0.46142318043E+02  0.10000002570E+02 0.  0.
        -12    1    3    3    0    0  0.45008197876E+01 -0.11337223837E+02 -0.43362696409E+02  0.45045681957E+02  0.00000000000E+00 0.  1.
         11    1    4    4    0    0 -0.79188840586E+00  0.65175237617E+01  0.15188043755E+02  0.16546355387E+02  0.51100000000E-03 0. -1.
        -11    1    4    4    0    0 -0.16756824937E+01  0.18461685551E+01  0.20603711327E+01  0.32344056052E+01  0.51100000000E-03 0.  1.
         12    1    4    4    0    0 -0.20332488880E+01  0.29735315205E+01  0.26114281521E+02  0.26361557050E+02  0.00000000000E+00 0. -1.
</event>
<event>
 8    1  0.8828843E-009  0.9118800E+02  0.7816164E-02  0.1184000E+00
        -11   -1    0    0    0    0  0.00000000000E+00  0.00000000000E+00  0.45593999997E+02  0.45594000000E+02  0.51100000000E-03 0. -1.
         11   -1    0    0    0    0 -0.00000000000E+00 -0.00000000000E+00 -0.45593999997E+02  0.45594000000E+02  0.51100000000E-03 0.  1.
         23    2    1    2    0    0  0.00000000000E+00 -0.44408920985E-15  0.00000000000E+00  0.91188000000E+02  0.91188000000E+02 0.  0.
    9900012    2    3    3    0    0  0.88174118949E+01 -0.22404739398E+01 -0.44117423097E+02  0.46142317668E+02  0.99999991534E+01 0.  0.
         12    1    3    3    0    0 -0.88174118949E+01  0.22404739398E+01  0.44117423097E+02  0.45045682332E+02  0.00000000000E+00 0. -1.
         11    1    4    4    0    0  0.14256444726E+01 -0.46531607816E+01 -0.13127516084E+02  0.14000573068E+02  0.51100000000E-03 0. -1.
        -11    1    4    4    0    0  0.26086819781E+01 -0.39693198819E+00 -0.14654078210E+02  0.14889754368E+02  0.51100000000E-03 0.  1.
         12    1    4    4    0    0  0.47830854442E+01  0.28096188300E+01 -0.16335828802E+02  0.17251990233E+02  0.00000000000E+00 0. -1.
</event>
<event>
 8    1  0.8828843E-009  0.9118800E+02  0.7816164E-02  0.1184000E+00
        -11   -1    0    0    0    0  0.00000000000E+00  0.00000000000E+00  0.45593999997E+02  0.45594000000E+02  0.51100000000E-03 0. -1.
         11   -1    0    0    0    0 -0.00000000000E+00 -0.00000000000E+00 -0.45593999997E+02  0.45594000000E+02  0.51100000000E-03 0.  1.
         23    2    1    2    0    0  0.00000000000E+00  0.00000000000E+00  0.00000000000E+00  0.91188000000E+02  0.91188000000E+02 0.  0.
    9900012    2    3    3    0    0 -0.40210219465E+02  0.20257553487E+02  0.13722955387E+01  0.46142318545E+02  0.10000007146E+02 0.  0.
        -12    1    3    3    0    0  0.40210219465E+02 -0.20257553487E+02 -0.13722955387E+01  0.45045681455E+02  0.00000000000E+00 0.  1.
         11    1    4    4    0    0 -0.99701428174E+01  0.58784862864E+01 -0.25210718934E+01  0.11845511917E+02  0.51100000000E-03 0. -1.
        -11    1    4    4    0    0 -0.20116066417E+02  0.12723173188E+02  0.31801200974E+01  0.24013505120E+02  0.51100000000E-03 0.  1.
        -12    1    4    4    0    0 -0.10124010231E+02  0.16558940125E+01  0.71324733468E+00  0.10283301508E+02  0.00000000000E+00 0.  1.
</event>
<event>
 8    1  0.8828843E-009  0.9118800E+02  0.7816164E-02  0.1184000E+00
        -11   -1    0    0    0    0  0.00000000000E+00  0.00000000000E+00  0.45593999997E+02  0.45594000000E+02  0.51100000000E-03 0.  1.
         11   -1    0    0    0    0 -0.00000000000E+00 -0.00000000000E+00 -0.45593999997E+02  0.45594000000E+02  0.51100000000E-03 0. -1.
         23    2    1    2    0    0  0.00000000000E+00  0.00000000000E+00 -0.17763568394E-14  0.91188000000E+02  0.91188000000E+02 0.  0.
    9900012    2    3    3    0    0  0.42368601794E+02  0.29135977942E+01  0.15017521939E+02  0.46142318351E+02  0.10000005375E+02 0.  0.
        -12    1    3    3    0    0 -0.42368601794E+02 -0.29135977942E+01 -0.15017521939E+02  0.45045681649E+02  0.00000000000E+00 0.  1.
         11    1    4    4    0    0  0.18632654558E+02 -0.16444442013E+01  0.24365442512E+01  0.18863105809E+02  0.51100000000E-03 0. -1.
        -11    1    4    4    0    0  0.85543844733E+01  0.12145762216E+01  0.39755251394E+01  0.95109142310E+01  0.51100000000E-03 0.  1.
         12    1    4    4    0    0  0.15181562763E+02  0.33434657739E+01  0.86054525485E+01  0.17768298311E+02  0.00000000000E+00 0. -1.
</event>
<event>
 8    1  0.8828843E-009  0.9118800E+02  0.7816164E-02  0.1184000E+00
        -11   -1    0    0    0    0  0.00000000000E+00  0.00000000000E+00  0.45593999997E+02  0.45594000000E+02  0.51100000000E-03 0. -1.
         11   -1    0    0    0    0 -0.00000000000E+00 -0.00000000000E+00 -0.45593999997E+02  0.45594000000E+02  0.51100000000E-03 0.  1.
         23    2    1    2    0    0 -0.35527136788E-14 -0.88817841970E-15  0.00000000000E+00  0.91188000000E+02  0.91188000000E+02 0.  0.
    9900012    2    3    3    0    0 -0.27123629790E+02 -0.57041320726E+01  0.35508943149E+02  0.46142318085E+02  0.10000002949E+02 0.  0.
        -12    1    3    3    0    0  0.27123629790E+02  0.57041320726E+01 -0.35508943149E+02  0.45045681915E+02  0.00000000000E+00 0.  1.
         11    1    4    4    0    0 -0.21207141867E+02 -0.38858094587E+01  0.27071518681E+02  0.34607939916E+02  0.51100000000E-03 0. -1.
        -11    1    4    4    0    0 -0.24861809452E+01  0.16158937745E+01  0.26102477988E+01  0.39503926660E+01  0.51100000000E-03 0.  1.
        -12    1    4    4    0    0 -0.34303069781E+01 -0.34342163884E+01  0.58271766690E+01  0.75839855022E+01  0.00000000000E+00 0.  1.
</event>
<event>
 8    1  0.8828843E-009  0.9118800E+02  0.7816164E-02  0.1184000E+00
        -11   -1    0    0    0    0  0.00000000000E+00  0.00000000000E+00  0.45593999997E+02  0.45594000000E+02  0.51100000000E-03 0. -1.
         11   -1    0    0    0    0 -0.00000000000E+00 -0.00000000000E+00 -0.45593999997E+02  0.45594000000E+02  0.51100000000E-03 0.  1.
         23    2    1    2    0    0  0.17763568394E-14  0.00000000000E+00 -0.17763568394E-14  0.91188000000E+02  0.91188000000E+02 0.  0.
    9900012    2    3    3    0    0 -0.10726346139E+02  0.42191936081E+02  0.11571488115E+02  0.46142319753E+02  0.10000018161E+02 0.  0.
        -12    1    3    3    0    0  0.10726346139E+02 -0.42191936081E+02 -0.11571488115E+02  0.45045680247E+02  0.00000000000E+00 0.  1.
         11    1    4    4    0    0 -0.61986755733E+01  0.24246666568E+02  0.77328240471E+01  0.26193911249E+02  0.51100000000E-03 0. -1.
        -11    1    4    4    0    0 -0.58958220156E+01  0.11750022302E+02  0.34530682347E+01  0.13592182379E+02  0.51100000000E-03 0.  1.
        -12    1    4    4    0    0  0.13681514503E+01  0.61952472113E+01  0.38559583294E+00  0.63562261245E+01  0.00000000000E+00 0.  1.
</event>
<event>
 8    1  0.8828843E-009  0.9118800E+02  0.7816164E-02  0.1184000E+00
        -11   -1    0    0    0    0  0.00000000000E+00  0.00000000000E+00  0.45593999997E+02  0.45594000000E+02  0.51100000000E-03 0. -1.
         11   -1    0    0    0    0 -0.00000000000E+00 -0.00000000000E+00 -0.45593999997E+02  0.45594000000E+02  0.51100000000E-03 0.  1.
         23    2    1    2    0    0  0.00000000000E+00  0.00000000000E+00  0.00000000000E+00  0.91188000000E+02  0.91188000000E+02 0.  0.
    9900012    2    3    3    0    0 -0.13180379135E+02 -0.14982291288E+02 -0.40384666775E+02  0.46142325880E+02  0.10000074035E+02 0.  0.
         12    1    3    3    0    0  0.13180379135E+02  0.14982291288E+02  0.40384666775E+02  0.45045674120E+02  0.00000000000E+00 0. -1.
         11    1    4    4    0    0 -0.76321367181E+00  0.23179849230E+00  0.16452337323E+00  0.81442854280E+00  0.51100000000E-03 0. -1.
        -11    1    4    4    0    0 -0.47729485725E+01 -0.72634914013E+01 -0.23146818496E+02  0.24724776079E+02  0.51100000000E-03 0.  1.
        -12    1    4    4    0    0 -0.76442168906E+01 -0.79505983790E+01 -0.17402371652E+02  0.20603121258E+02  0.00000000000E+00 0.  1.
</event>
<event>
 8    1  0.8828843E-009  0.9118800E+02  0.7816164E-02  0.1184000E+00
        -11   -1    0    0    0    0  0.00000000000E+00  0.00000000000E+00  0.45593999997E+02  0.45594000000E+02  0.51100000000E-03 0. -1.
         11   -1    0    0    0    0 -0.00000000000E+00 -0.00000000000E+00 -0.45593999997E+02  0.45594000000E+02  0.51100000000E-03 0.  1.
         23    2    1    2    0    0  0.00000000000E+00  0.22204460493E-15  0.00000000000E+00  0.91188000000E+02  0.91188000000E+02 0.  0.
    9900012    2    3    3    0    0  0.35040350508E+01 -0.12286144064E+01 -0.44892379803E+02  0.46142317417E+02  0.99999968639E+01 0.  0.
         12    1    3    3    0    0 -0.35040350508E+01  0.12286144064E+01  0.44892379803E+02  0.45045682583E+02  0.00000000000E+00 0. -1.
         11    1    4    4    0    0  0.10109592504E+01 -0.21601126014E+01 -0.36445908079E+02  0.36523859886E+02  0.51100000000E-03 0. -1.
        -11    1    4    4    0    0  0.23650222187E+00 -0.69863428418E-01 -0.64193257790E+01  0.64240608588E+01  0.51100000000E-03 0.  1.
         12    1    4    4    0    0  0.22565735786E+01  0.10013616234E+01 -0.20271459453E+01  0.31943966722E+01  0.00000000000E+00 0. -1.
</event>
<event>
 8    1  0.8828843E-009  0.9118800E+02  0.7816164E-02  0.1184000E+00
        -11   -1    0    0    0    0  0.00000000000E+00  0.00000000000E+00  0.45593999997E+02  0.45594000000E+02  0.51100000000E-03 0. -1.
         11   -1    0    0    0    0 -0.00000000000E+00 -0.00000000000E+00 -0.45593999997E+02  0.45594000000E+02  0.51100000000E-03 0.  1.
         23    2    1    2    0    0  0.00000000000E+00  0.00000000000E+00  0.00000000000E+00  0.91188000000E+02  0.91188000000E+02 0.  0.
    9900012    2    3    3    0    0  0.23485234267E+02  0.30313378232E+02  0.23635914823E+02  0.46142316545E+02  0.99999889067E+01 0.  0.
        -12    1    3    3    0    0 -0.23485234267E+02 -0.30313378232E+02 -0.23635914823E+02  0.45045683455E+02  0.00000000000E+00 0.  1.
         11    1    4    4    0    0  0.83833860129E+01  0.85536289363E+01  0.92320548799E+01  0.15122055634E+02  0.51100000000E-03 0. -1.
        -11    1    4    4    0    0  0.71247960808E+01  0.15007329623E+02  0.61934180792E+01  0.17729666928E+02  0.51100000000E-03 0.  1.
        -12    1    4    4    0    0  0.79770521736E+01  0.67524196728E+01  0.82104418642E+01  0.13290593983E+02  0.00000000000E+00 0.  1.
</event>
<event>
 8    1  0.8828843E-009  0.9118800E+02  0.7816164E-02  0.1184000E+00
        -11   -1    0    0    0    0  0.00000000000E+00  0.00000000000E+00  0.45593999997E+02  0.45594000000E+02  0.51100000000E-03 0. -1.
         11   -1    0    0    0    0 -0.00000000000E+00 -0.00000000000E+00 -0.45593999997E+02  0.45594000000E+02  0.51100000000E-03 0.  1.
         23    2    1    2    0    0 -0.71054273576E-14  0.00000000000E+00  0.35527136788E-14  0.91188000000E+02  0.91188000000E+02 0.  0.
    9900012    2    3    3    0    0  0.33346381686E+02 -0.80669764312E+01 -0.29190000755E+02  0.46142318472E+02  0.10000006481E+02 0.  0.
         12    1    3    3    0    0 -0.33346381686E+02  0.80669764312E+01  0.29190000755E+02  0.45045681528E+02  0.00000000000E+00 0. -1.
         11    1    4    4    0    0  0.65416649447E+01 -0.11877262291E+01 -0.66162671073E+01  0.93797155895E+01  0.51100000000E-03 0. -1.
        -11    1    4    4    0    0  0.23847264585E+02 -0.30908258885E+01 -0.20185336391E+02  0.31395748730E+02  0.51100000000E-03 0.  1.
         12    1    4    4    0    0  0.29574521558E+01 -0.37884243136E+01 -0.23883972567E+01  0.53668541521E+01  0.00000000000E+00 0. -1.
</event>
<event>
 8    1  0.8828843E-009  0.9118800E+02  0.7816164E-02  0.1184000E+00
        -11   -1    0    0    0    0  0.00000000000E+00  0.00000000000E+00  0.45593999997E+02  0.45594000000E+02  0.51100000000E-03 0. -1.
         11   -1    0    0    0    0 -0.00000000000E+00 -0.00000000000E+00 -0.45593999997E+02  0.45594000000E+02  0.51100000000E-03 0.  1.
         23    2    1    2    0    0  0.00000000000E+00  0.00000000000E+00  0.00000000000E+00  0.91188000000E+02  0.91188000000E+02 0.  0.
    9900012    2    3    3    0    0  0.33377894113E+02  0.29659433135E+02  0.59453969225E+01  0.46142317256E+02  0.99999953937E+01 0.  0.
        -12    1    3    3    0    0 -0.33377894113E+02 -0.29659433135E+02 -0.59453969225E+01  0.45045682744E+02  0.00000000000E+00 0.  1.
         11    1    4    4    0    0  0.38490909954E+01  0.22580025724E+01  0.27753974711E+01  0.52551792064E+01  0.51100000000E-03 0. -1.
        -11    1    4    4    0    0  0.16173627219E+02  0.14166422078E+02 -0.13711444635E+01  0.21544228213E+02  0.51100000000E-03 0.  1.
        -12    1    4    4    0    0  0.13355175899E+02  0.13235008485E+02  0.45411439149E+01  0.19342909837E+02  0.00000000000E+00 0.  1.
</event>
<event>
 8    1  0.8828843E-009  0.9118800E+02  0.7816164E-02  0.1184000E+00
        -11   -1    0    0    0    0  0.00000000000E+00  0.00000000000E+00  0.45593999997E+02  0.45594000000E+02  0.51100000000E-03 0. -1.
         11   -1    0    0    0    0 -0.00000000000E+00 -0.00000000000E+00 -0.45593999997E+02  0.45594000000E+02  0.51100000000E-03 0.  1.
         23    2    1    2    0    0 -0.35527136788E-14  0.00000000000E+00  0.00000000000E+00  0.91188000000E+02  0.91188000000E+02 0.  0.
    9900012    2    3    3    0    0 -0.19381161386E+02 -0.36592225090E+02  0.17733960179E+02  0.46142315442E+02  0.99999788507E+01 0.  0.
        -12    1    3    3    0    0  0.19381161386E+02  0.36592225090E+02 -0.17733960179E+02  0.45045684558E+02  0.00000000000E+00 0.  1.
         11    1    4    4    0    0 -0.10678840907E+01 -0.69065412567E+01  0.22492911729E+01  0.73416619102E+01  0.51100000000E-03 0. -1.
        -11    1    4    4    0    0 -0.15819069892E+02 -0.24826066338E+02  0.15643344579E+02  0.33336028136E+02  0.51100000000E-03 0.  1.
        -12    1    4    4    0    0 -0.24942074036E+01 -0.48596174954E+01 -0.15867557253E+00  0.54646253953E+01  0.00000000000E+00 0.  1.
</event>
<event>
 8    1  0.8828843E-009  0.9118800E+02  0.7816164E-02  0.1184000E+00
        -11   -1    0    0    0    0  0.00000000000E+00  0.00000000000E+00  0.45593999997E+02  0.45594000000E+02  0.51100000000E-03 0. -1.
         11   -1    0    0    0    0 -0.00000000000E+00 -0.00000000000E+00 -0.45593999997E+02  0.45594000000E+02  0.51100000000E-03 0.  1.
         23    2    1    2    0    0 -0.22204460493E-15  0.00000000000E+00 -0.71054273576E-14  0.91188000000E+02  0.91188000000E+02 0.  0.
    9900012    2    3    3    0    0 -0.52968948499E+00  0.21035365606E+02  0.39828964574E+02  0.46142316564E+02  0.99999890875E+01 0.  0.
        -12    1    3    3    0    0  0.52968948499E+00 -0.21035365606E+02 -0.39828964574E+02  0.45045683436E+02  0.00000000000E+00 0.  1.
         11    1    4    4    0    0  0.16459740006E+01  0.88311712476E+00  0.60142643092E+01  0.62976584306E+01  0.51100000000E-03 0.  1.
        -11    1    4    4    0    0  0.10198269413E+01  0.14642900436E+02  0.24504853141E+02  0.28564705632E+02  0.51100000000E-03 0. -1.
         12    1    4    4    0    0 -0.31954904269E+01  0.55093480457E+01  0.93098471243E+01  0.11279952501E+02  0.00000000000E+00 0. -1.
</event>
<event>
 8    1  0.8828843E-009  0.9118800E+02  0.7816164E-02  0.1184000E+00
        -11   -1    0    0    0    0  0.00000000000E+00  0.00000000000E+00  0.45593999997E+02  0.45594000000E+02  0.51100000000E-03 0.  1.
         11   -1    0    0    0    0 -0.00000000000E+00 -0.00000000000E+00 -0.45593999997E+02  0.45594000000E+02  0.51100000000E-03 0. -1.
         23    2    1    2    0    0  0.00000000000E+00  0.00000000000E+00  0.00000000000E+00  0.91188000000E+02  0.91188000000E+02 0.  0.
    9900012    2    3    3    0    0 -0.36993075283E+01  0.44374278241E+02  0.68082440907E+01  0.46142316154E+02  0.99999853433E+01 0.  0.
         12    1    3    3    0    0  0.36993075283E+01 -0.44374278241E+02 -0.68082440907E+01  0.45045683846E+02  0.00000000000E+00 0. -1.
         11    1    4    4    0    0 -0.25018511450E+01  0.63846528465E+01  0.36644244837E+01  0.77750278572E+01  0.51100000000E-03 0. -1.
        -11    1    4    4    0    0 -0.25299876226E+01  0.17830288436E+02  0.21886180104E+01  0.18141391130E+02  0.51100000000E-03 0.  1.
         12    1    4    4    0    0  0.13325312392E+01  0.20159336959E+02  0.95520159659E+00  0.20225897167E+02  0.00000000000E+00 0. -1.
</event>
<event>
 8    1  0.8828843E-009  0.9118800E+02  0.7816164E-02  0.1184000E+00
        -11   -1    0    0    0    0  0.00000000000E+00  0.00000000000E+00  0.45593999997E+02  0.45594000000E+02  0.51100000000E-03 0. -1.
         11   -1    0    0    0    0 -0.00000000000E+00 -0.00000000000E+00 -0.45593999997E+02  0.45594000000E+02  0.51100000000E-03 0.  1.
         23    2    1    2    0    0  0.00000000000E+00  0.00000000000E+00  0.00000000000E+00  0.91188000000E+02  0.91188000000E+02 0.  0.
    9900012    2    3    3    0    0  0.19139154998E+02  0.24691945265E+02 -0.32451718623E+02  0.46142318114E+02  0.10000003217E+02 0.  0.
         12    1    3    3    0    0 -0.19139154998E+02 -0.24691945265E+02  0.32451718623E+02  0.45045681886E+02  0.00000000000E+00 0. -1.
         11    1    4    4    0    0  0.21227336347E+01  0.58139053834E+01 -0.71492618469E+01  0.94561852302E+01  0.51100000000E-03 0. -1.
        -11    1    4    4    0    0  0.77404467301E+01  0.40752955163E+01 -0.11345561746E+02  0.14326350572E+02  0.51100000000E-03 0.  1.
        -12    1    4    4    0    0  0.92759746333E+01  0.14802744365E+02 -0.13956895031E+02  0.22359782312E+02  0.00000000000E+00 0.  1.
</event>
<event>
 8    1  0.8828843E-009  0.9118800E+02  0.7816164E-02  0.1184000E+00
        -11   -1    0    0    0    0  0.00000000000E+00  0.00000000000E+00  0.45593999997E+02  0.45594000000E+02  0.51100000000E-03 0.  1.
         11   -1    0    0    0    0 -0.00000000000E+00 -0.00000000000E+00 -0.45593999997E+02  0.45594000000E+02  0.51100000000E-03 0. -1.
         23    2    1    2    0    0  0.00000000000E+00  0.00000000000E+00  0.00000000000E+00  0.91188000000E+02  0.91188000000E+02 0.  0.
    9900012    2    3    3    0    0  0.43100326917E+02  0.33135115305E+01 -0.12668701113E+02  0.46142317334E+02  0.99999961024E+01 0.  0.
         12    1    3    3    0    0 -0.43100326917E+02 -0.33135115305E+01  0.12668701113E+02  0.45045682666E+02  0.00000000000E+00 0. -1.
         11    1    4    4    0    0  0.70503758883E+01 -0.84615080437E+00 -0.41120349450E+01  0.82056445816E+01  0.51100000000E-03 0. -1.
        -11    1    4    4    0    0  0.15640630296E+02  0.38651240250E+01 -0.89946779346E+00  0.16136218341E+02  0.51100000000E-03 0.  1.
        -12    1    4    4    0    0  0.20409320733E+02  0.29453830992E+00 -0.76571983742E+01  0.21800454411E+02  0.00000000000E+00 0.  1.
</event>
<event>
 8    1  0.8828843E-009  0.9118800E+02  0.7816164E-02  0.1184000E+00
        -11   -1    0    0    0    0  0.00000000000E+00  0.00000000000E+00  0.45593999997E+02  0.45594000000E+02  0.51100000000E-03 0.  1.
         11   -1    0    0    0    0 -0.00000000000E+00 -0.00000000000E+00 -0.45593999997E+02  0.45594000000E+02  0.51100000000E-03 0. -1.
         23    2    1    2    0    0  0.35527136788E-14 -0.71054273576E-14 -0.88817841970E-15  0.91188000000E+02  0.91188000000E+02 0.  0.
    9900012    2    3    3    0    0 -0.16497368416E+02  0.41477579413E+02  0.60465502362E+01  0.46142317317E+02  0.99999959520E+01 0.  0.
         12    1    3    3    0    0  0.16497368416E+02 -0.41477579413E+02 -0.60465502362E+01  0.45045682683E+02  0.00000000000E+00 0. -1.
         11    1    4    4    0    0 -0.10962077226E+02  0.25351980202E+02  0.35123578214E+01  0.27842893078E+02  0.51100000000E-03 0. -1.
        -11    1    4    4    0    0 -0.54031152989E+01  0.16689945869E+02  0.24240096037E+01  0.17709426045E+02  0.51100000000E-03 0.  1.
         12    1    4    4    0    0 -0.13217589127E+00 -0.56434665767E+00  0.11018281111E+00  0.58999819332E+00  0.00000000000E+00 0. -1.
</event>
<event>
 8    1  0.8828843E-009  0.9118800E+02  0.7816164E-02  0.1184000E+00
        -11   -1    0    0    0    0  0.00000000000E+00  0.00000000000E+00  0.45593999997E+02  0.45594000000E+02  0.51100000000E-03 0. -1.
         11   -1    0    0    0    0 -0.00000000000E+00 -0.00000000000E+00 -0.45593999997E+02  0.45594000000E+02  0.51100000000E-03 0.  1.
         23    2    1    2    0    0  0.00000000000E+00  0.88817841970E-15  0.00000000000E+00  0.91188000000E+02  0.91188000000E+02 0.  0.
    9900012    2    3    3    0    0  0.29354122171E+02 -0.24039627665E+01 -0.34083280367E+02  0.46142317344E+02  0.99999961965E+01 0.  0.
         12    1    3    3    0    0 -0.29354122171E+02  0.24039627665E+01  0.34083280367E+02  0.45045682656E+02  0.00000000000E+00 0. -1.
         11    1    4    4    0    0  0.76786585685E+01 -0.46650794322E+00 -0.12608161939E+02  0.14769738482E+02  0.51100000000E-03 0. -1.
        -11    1    4    4    0    0  0.11477019934E+02 -0.43694217073E+01 -0.10077188175E+02  0.15885954627E+02  0.51100000000E-03 0.  1.
        -12    1    4    4    0    0  0.10198443668E+02  0.24319668841E+01 -0.11397930252E+02  0.15486624235E+02  0.00000000000E+00 0.  1.
</event>
<event>
 8    1  0.8828843E-009  0.9118800E+02  0.7816164E-02  0.1184000E+00
        -11   -1    0    0    0    0  0.00000000000E+00  0.00000000000E+00  0.45593999997E+02  0.45594000000E+02  0.51100000000E-03 0. -1.
         11   -1    0    0    0    0 -0.00000000000E+00 -0.00000000000E+00 -0.45593999997E+02  0.45594000000E+02  0.51100000000E-03 0.  1.
         23    2    1    2    0    0 -0.35527136788E-14  0.17763568394E-14  0.00000000000E+00  0.91188000000E+02  0.91188000000E+02 0.  0.
    9900012    2    3    3    0    0 -0.19046931589E+02  0.14613100686E+02  0.38115419615E+02  0.46142317332E+02  0.99999960872E+01 0.  0.
        -12    1    3    3    0    0  0.19046931589E+02 -0.14613100686E+02 -0.38115419615E+02  0.45045682668E+02  0.00000000000E+00 0.  1.
         11    1    4    4    0    0 -0.54475329675E+01  0.20634440902E+01  0.77603959693E+01  0.97034613828E+01  0.51100000000E-03 0. -1.
        -11    1    4    4    0    0 -0.12049993079E+02  0.13262653244E+02  0.24587464914E+02  0.30424393756E+02  0.51100000000E-03 0.  1.
        -12    1    4    4    0    0 -0.15494055428E+01 -0.71299664760E+00  0.57675587309E+01  0.60144621929E+01  0.00000000000E+00 0.  1.
</event>
<event>
 8    1  0.8828843E-009  0.9118800E+02  0.7816164E-02  0.1184000E+00
        -11   -1    0    0    0    0  0.00000000000E+00  0.00000000000E+00  0.45593999997E+02  0.45594000000E+02  0.51100000000E-03 0. -1.
         11   -1    0    0    0    0 -0.00000000000E+00 -0.00000000000E+00 -0.45593999997E+02  0.45594000000E+02  0.51100000000E-03 0.  1.
         23    2    1    2    0    0  0.88817841970E-15  0.00000000000E+00  0.00000000000E+00  0.91188000000E+02  0.91188000000E+02 0.  0.
    9900012    2    3    3    0    0  0.56328412959E+01  0.88700496075E+01  0.43803032603E+02  0.46142330437E+02  0.10000115591E+02 0.  0.
        -12    1    3    3    0    0 -0.56328412959E+01 -0.88700496075E+01 -0.43803032603E+02  0.45045669563E+02  0.00000000000E+00 0.  1.
         11    1    4    4    0    0  0.52824157452E+01  0.43477588974E+01  0.13253473094E+02  0.14915142402E+02  0.51100000000E-03 0. -1.
        -11    1    4    4    0    0 -0.51864292329E+00  0.44048098243E+01  0.14727708912E+02  0.15381051659E+02  0.51100000000E-03 0.  1.
         12    1    4    4    0    0  0.86906847397E+00  0.11748088591E+00  0.15821850597E+02  0.15846136377E+02  0.00000000000E+00 0. -1.
</event>
<event>
 8    1  0.8828843E-009  0.9118800E+02  0.7816164E-02  0.1184000E+00
        -11   -1    0    0    0    0  0.00000000000E+00  0.00000000000E+00  0.45593999997E+02  0.45594000000E+02  0.51100000000E-03 0. -1.
         11   -1    0    0    0    0 -0.00000000000E+00 -0.00000000000E+00 -0.45593999997E+02  0.45594000000E+02  0.51100000000E-03 0.  1.
         23    2    1    2    0    0 -0.71054273576E-14  0.00000000000E+00  0.00000000000E+00  0.91188000000E+02  0.91188000000E+02 0.  0.
    9900012    2    3    3    0    0 -0.41946988737E+02 -0.16230321938E+02  0.24779513053E+01  0.46142318110E+02  0.10000003180E+02 0.  0.
        -12    1    3    3    0    0  0.41946988737E+02  0.16230321938E+02 -0.24779513053E+01  0.45045681890E+02  0.00000000000E+00 0.  1.
         11    1    4    4    0    0 -0.11296758306E+02 -0.57246084540E+01 -0.15452827661E+01  0.12758361543E+02  0.51100000000E-03 0. -1.
        -11    1    4    4    0    0 -0.27033707598E+02 -0.81492541871E+01  0.56059808184E+01  0.28786432768E+02  0.51100000000E-03 0.  1.
        -12    1    4    4    0    0 -0.36165228325E+01 -0.23564592970E+01 -0.15827467470E+01  0.45975237989E+01  0.00000000000E+00 0.  1.
</event>
<event>
 8    1  0.8828843E-009  0.9118800E+02  0.7816164E-02  0.1184000E+00
        -11   -1    0    0    0    0  0.00000000000E+00  0.00000000000E+00  0.45593999997E+02  0.45594000000E+02  0.51100000000E-03 0. -1.
         11   -1    0    0    0    0 -0.00000000000E+00 -0.00000000000E+00 -0.45593999997E+02  0.45594000000E+02  0.51100000000E-03 0.  1.
         23    2    1    2    0    0  0.00000000000E+00  0.35527136788E-14  0.00000000000E+00  0.91188000000E+02  0.91188000000E+02 0.  0.
    9900012    2    3    3    0    0  0.85305916408E+01 -0.18659057523E+02  0.40102145695E+02  0.46142317513E+02  0.99999977377E+01 0.  0.
        -12    1    3    3    0    0 -0.85305916408E+01  0.18659057523E+02 -0.40102145695E+02  0.45045682487E+02  0.00000000000E+00 0.  1.
         11    1    4    4    0    0  0.37547377791E+01 -0.64560844242E+01  0.13164115186E+02  0.15135158102E+02  0.51100000000E-03 0. -1.
        -11    1    4    4    0    0 -0.34818899436E+00 -0.85637099491E+01  0.11529833743E+02  0.14366468949E+02  0.51100000000E-03 0.  1.
         12    1    4    4    0    0  0.51240428561E+01 -0.36392631492E+01  0.15408196766E+02  0.16640690462E+02  0.00000000000E+00 0. -1.
</event>
<event>
 8    1  0.9666747E-009  0.9118800E+02  0.7816164E-02  0.1184000E+00
        -11   -1    0    0    0    0  0.00000000000E+00  0.00000000000E+00  0.45593999997E+02  0.45594000000E+02  0.51100000000E-03 0. -1.
         11   -1    0    0    0    0 -0.00000000000E+00 -0.00000000000E+00 -0.45593999997E+02  0.45594000000E+02  0.51100000000E-03 0.  1.
         23    2    1    2    0    0  0.00000000000E+00  0.00000000000E+00  0.00000000000E+00  0.91188000000E+02  0.91188000000E+02 0.  0.
    9900012    2    3    3    0    0 -0.17001912083E+02  0.55877901968E+01  0.41337937334E+02  0.46142317890E+02  0.10000001173E+02 0.  0.
        -12    1    3    3    0    0  0.17001912083E+02 -0.55877901968E+01 -0.41337937334E+02  0.45045682110E+02  0.00000000000E+00 0.  1.
         11    1    4    4    0    0 -0.10258516965E+02  0.25732109956E+01  0.19261309724E+02  0.21973999129E+02  0.51100000000E-03 0. -1.
        -11    1    4    4    0    0 -0.57524405118E+00 -0.94908912920E-01 -0.36486709605E+00  0.68778025493E+00  0.51100000000E-03 0.  1.
         12    1    4    4    0    0 -0.61681510662E+01  0.31094881141E+01  0.22441494706E+02  0.23480538506E+02  0.00000000000E+00 0. -1.
</event>
<event>
 8    1  0.8828843E-009  0.9118800E+02  0.7816164E-02  0.1184000E+00
        -11   -1    0    0    0    0  0.00000000000E+00  0.00000000000E+00  0.45593999997E+02  0.45594000000E+02  0.51100000000E-03 0. -1.
         11   -1    0    0    0    0 -0.00000000000E+00 -0.00000000000E+00 -0.45593999997E+02  0.45594000000E+02  0.51100000000E-03 0.  1.
         23    2    1    2    0    0  0.00000000000E+00  0.00000000000E+00  0.00000000000E+00  0.91188000000E+02  0.91188000000E+02 0.  0.
    9900012    2    3    3    0    0 -0.31776667130E+02 -0.18834278607E+02 -0.25780358579E+02  0.46142317487E+02  0.99999975026E+01 0.  0.
         12    1    3    3    0    0  0.31776667130E+02  0.18834278607E+02  0.25780358579E+02  0.45045682513E+02  0.00000000000E+00 0. -1.
         11    1    4    4    0    0 -0.12024848950E+02 -0.55553057226E+01 -0.11716930311E+02  0.17684594146E+02  0.51100000000E-03 0. -1.
        -11    1    4    4    0    0 -0.14087056735E+02 -0.11192616857E+02 -0.13296960625E+02  0.22372505485E+02  0.51100000000E-03 0.  1.
        -12    1    4    4    0    0 -0.56647614451E+01 -0.20863560277E+01 -0.76646764342E+00  0.60852178558E+01  0.00000000000E+00 0.  1.
</event>
<event>
 8    1  0.8828843E-009  0.9118800E+02  0.7816164E-02  0.1184000E+00
        -11   -1    0    0    0    0  0.00000000000E+00  0.00000000000E+00  0.45593999997E+02  0.45594000000E+02  0.51100000000E-03 0. -1.
         11   -1    0    0    0    0 -0.00000000000E+00 -0.00000000000E+00 -0.45593999997E+02  0.45594000000E+02  0.51100000000E-03 0.  1.
         23    2    1    2    0    0  0.17763568394E-14 -0.17763568394E-14  0.00000000000E+00  0.91188000000E+02  0.91188000000E+02 0.  0.
    9900012    2    3    3    0    0 -0.13034246585E+02 -0.12873113463E+02  0.41152215159E+02  0.46142318223E+02  0.10000004210E+02 0.  0.
        -12    1    3    3    0    0  0.13034246585E+02  0.12873113463E+02 -0.41152215159E+02  0.45045681777E+02  0.00000000000E+00 0.  1.
         11    1    4    4    0    0 -0.38452176180E+01 -0.92303292819E+01  0.18515660946E+02  0.21043155127E+02  0.51100000000E-03 0. -1.
        -11    1    4    4    0    0 -0.17008631387E+01  0.10287273871E+01  0.49061361861E+01  0.52935232115E+01  0.51100000000E-03 0.  1.
        -12    1    4    4    0    0 -0.74881658281E+01 -0.46715115683E+01  0.17730418027E+02  0.19805639884E+02  0.00000000000E+00 0.  1.
</event>
<event>
 8    1  0.8828843E-009  0.9118800E+02  0.7816164E-02  0.1184000E+00
        -11   -1    0    0    0    0  0.00000000000E+00  0.00000000000E+00  0.45593999997E+02  0.45594000000E+02  0.51100000000E-03 0. -1.
         11   -1    0    0    0    0 -0.00000000000E+00 -0.00000000000E+00 -0.45593999997E+02  0.45594000000E+02  0.51100000000E-03 0.  1.
         23    2    1    2    0    0  0.00000000000E+00  0.00000000000E+00  0.00000000000E+00  0.91188000000E+02  0.91188000000E+02 0.  0.
    9900012    2    3    3    0    0  0.75022082642E+01 -0.29118996701E+02 -0.33539743690E+02  0.46142317582E+02  0.99999983684E+01 0.  0.
         12    1    3    3    0    0 -0.75022082642E+01  0.29118996701E+02  0.33539743690E+02  0.45045682418E+02  0.00000000000E+00 0. -1.
         11    1    4    4    0    0 -0.61221447404E+00 -0.10457664471E+01  0.25465177841E+00  0.12382575716E+01  0.51100000000E-03 0. -1.
        -11    1    4    4    0    0  0.26244604226E+01 -0.45003774379E+01 -0.43383891860E+01  0.67795877886E+01  0.51100000000E-03 0.  1.
        -12    1    4    4    0    0  0.54899623157E+01 -0.23572852816E+02 -0.29456006282E+02  0.38124472222E+02  0.00000000000E+00 0.  1.
</event>
<event>
 8    1  0.8828843E-009  0.9118800E+02  0.7816164E-02  0.1184000E+00
        -11   -1    0    0    0    0  0.00000000000E+00  0.00000000000E+00  0.45593999997E+02  0.45594000000E+02  0.51100000000E-03 0. -1.
         11   -1    0    0    0    0 -0.00000000000E+00 -0.00000000000E+00 -0.45593999997E+02  0.45594000000E+02  0.51100000000E-03 0.  1.
         23    2    1    2    0    0  0.00000000000E+00  0.00000000000E+00  0.35527136788E-14  0.91188000000E+02  0.91188000000E+02 0.  0.
    9900012    2    3    3    0    0  0.22949772468E+02  0.23644257732E+02 -0.30714337587E+02  0.46142317483E+02  0.99999974629E+01 0.  0.
         12    1    3    3    0    0 -0.22949772468E+02 -0.23644257732E+02  0.30714337587E+02  0.45045682517E+02  0.00000000000E+00 0. -1.
         11    1    4    4    0    0  0.17756400859E+02  0.20099786769E+02 -0.20089930486E+02  0.33509647966E+02  0.51100000000E-03 0.  1.
        -11    1    4    4    0    0  0.36956791502E+01  0.99025438034E+00 -0.52447274519E+01  0.64919807782E+01  0.51100000000E-03 0. -1.
        -12    1    4    4    0    0  0.14976924582E+01  0.25542165823E+01 -0.53796796497E+01  0.61406887384E+01  0.00000000000E+00 0.  1.
</event>
<event>
 8    1  0.8828843E-009  0.9118800E+02  0.7816164E-02  0.1184000E+00
        -11   -1    0    0    0    0  0.00000000000E+00  0.00000000000E+00  0.45593999997E+02  0.45594000000E+02  0.51100000000E-03 0. -1.
         11   -1    0    0    0    0 -0.00000000000E+00 -0.00000000000E+00 -0.45593999997E+02  0.45594000000E+02  0.51100000000E-03 0.  1.
         23    2    1    2    0    0 -0.35527136788E-14  0.88817841970E-15  0.00000000000E+00  0.91188000000E+02  0.91188000000E+02 0.  0.
    9900012    2    3    3    0    0 -0.16451384574E+02 -0.79786729134E+01 -0.41168024516E+02  0.46142317427E+02  0.99999969568E+01 0.  0.
         12    1    3    3    0    0  0.16451384574E+02  0.79786729134E+01  0.41168024516E+02  0.45045682573E+02  0.00000000000E+00 0. -1.
         11    1    4    4    0    0 -0.85900555595E+01 -0.24580884404E+01 -0.18971055658E+02  0.20969792711E+02  0.51100000000E-03 0. -1.
        -11    1    4    4    0    0 -0.69879070899E+01 -0.62666801473E+01 -0.13752756629E+02  0.16650538752E+02  0.51100000000E-03 0.  1.
        -12    1    4    4    0    0 -0.87342192493E+00  0.74609567428E+00 -0.84442122289E+01  0.85219859646E+01  0.00000000000E+00 0.  1.
</event>
<event>
 8    1  0.8828843E-009  0.9118800E+02  0.7816164E-02  0.1184000E+00
        -11   -1    0    0    0    0  0.00000000000E+00  0.00000000000E+00  0.45593999997E+02  0.45594000000E+02  0.51100000000E-03 0. -1.
         11   -1    0    0    0    0 -0.00000000000E+00 -0.00000000000E+00 -0.45593999997E+02  0.45594000000E+02  0.51100000000E-03 0.  1.
         23    2    1    2    0    0 -0.35527136788E-14  0.00000000000E+00  0.00000000000E+00  0.91188000000E+02  0.91188000000E+02 0.  0.
    9900012    2    3    3    0    0 -0.28168445077E+02  0.70892340349E+01 -0.34429563782E+02  0.46142318747E+02  0.10000008994E+02 0.  0.
         12    1    3    3    0    0  0.28168445077E+02 -0.70892340349E+01  0.34429563782E+02  0.45045681253E+02  0.00000000000E+00 0. -1.
         11    1    4    4    0    0 -0.84993435019E+01  0.31459735609E+01 -0.13395290629E+02  0.16173119702E+02  0.51100000000E-03 0. -1.
        -11    1    4    4    0    0 -0.12183937515E+02  0.58670881434E+01 -0.11992906695E+02  0.18074868407E+02  0.51100000000E-03 0.  1.
         12    1    4    4    0    0 -0.74851640600E+01 -0.19238276694E+01 -0.90413664586E+01  0.11894330639E+02  0.00000000000E+00 0. -1.
</event>
<event>
 8    1  0.8828843E-009  0.9118800E+02  0.7816164E-02  0.1184000E+00
        -11   -1    0    0    0    0  0.00000000000E+00  0.00000000000E+00  0.45593999997E+02  0.45594000000E+02  0.51100000000E-03 0. -1.
         11   -1    0    0    0    0 -0.00000000000E+00 -0.00000000000E+00 -0.45593999997E+02  0.45594000000E+02  0.51100000000E-03 0.  1.
         23    2    1    2    0    0  0.00000000000E+00  0.17763568394E-14 -0.71054273576E-14  0.91188000000E+02  0.91188000000E+02 0.  0.
    9900012    2    3    3    0    0  0.28119610087E+02 -0.10627987215E+02  0.33547680662E+02  0.46142318059E+02  0.10000002720E+02 0.  0.
        -12    1    3    3    0    0 -0.28119610087E+02  0.10627987215E+02 -0.33547680662E+02  0.45045681941E+02  0.00000000000E+00 0.  1.
         11    1    4    4    0    0  0.11431013585E+01 -0.13584342718E+01  0.39518421961E+01  0.43323297878E+01  0.51100000000E-03 0. -1.
        -11    1    4    4    0    0  0.12992290562E+02 -0.48948980118E+01  0.90439831589E+01  0.16569649129E+02  0.51100000000E-03 0.  1.
         12    1    4    4    0    0  0.13984218166E+02 -0.43746549311E+01  0.20551855307E+02  0.25240339143E+02  0.00000000000E+00 0. -1.
</event>
<event>
 8    1  0.8828843E-009  0.9118800E+02  0.7816164E-02  0.1184000E+00
        -11   -1    0    0    0    0  0.00000000000E+00  0.00000000000E+00  0.45593999997E+02  0.45594000000E+02  0.51100000000E-03 0. -1.
         11   -1    0    0    0    0 -0.00000000000E+00 -0.00000000000E+00 -0.45593999997E+02  0.45594000000E+02  0.51100000000E-03 0.  1.
         23    2    1    2    0    0  0.00000000000E+00  0.00000000000E+00 -0.35527136788E-14  0.91188000000E+02  0.91188000000E+02 0.  0.
    9900012    2    3    3    0    0  0.58620092872E+01  0.33038188195E+02 -0.30053759529E+02  0.46142317699E+02  0.99999994348E+01 0.  0.
         12    1    3    3    0    0 -0.58620092872E+01 -0.33038188195E+02  0.30053759529E+02  0.45045682301E+02  0.00000000000E+00 0. -1.
         11    1    4    4    0    0  0.24123955690E+01  0.74539098821E+01 -0.91905595367E+01  0.12076705253E+02  0.51100000000E-03 0. -1.
        -11    1    4    4    0    0 -0.22443795592E+01  0.38031907146E+01 -0.33613102988E+01  0.55497663377E+01  0.51100000000E-03 0.  1.
        -12    1    4    4    0    0  0.56939932774E+01  0.21781087598E+02 -0.17501889694E+02  0.28515846108E+02  0.00000000000E+00 0.  1.
</event>
<event>
 8    1  0.8828843E-009  0.9118800E+02  0.7816164E-02  0.1184000E+00
        -11   -1    0    0    0    0  0.00000000000E+00  0.00000000000E+00  0.45593999997E+02  0.45594000000E+02  0.51100000000E-03 0.  1.
         11   -1    0    0    0    0 -0.00000000000E+00 -0.00000000000E+00 -0.45593999997E+02  0.45594000000E+02  0.51100000000E-03 0. -1.
         23    2    1    2    0    0 -0.71054273576E-14  0.17763568394E-14  0.88817841970E-15  0.91188000000E+02  0.91188000000E+02 0.  0.
    9900012    2    3    3    0    0  0.42108868970E+02 -0.15756457390E+02 -0.27732130592E+01  0.46142317564E+02  0.99999982043E+01 0.  0.
        -12    1    3    3    0    0 -0.42108868970E+02  0.15756457390E+02  0.27732130592E+01  0.45045682436E+02  0.00000000000E+00 0.  1.
         11    1    4    4    0    0  0.20383721396E+02 -0.74198099110E+01 -0.22747708157E+01  0.21811104044E+02  0.51100000000E-03 0. -1.
        -11    1    4    4    0    0  0.38206322256E+01 -0.39714849870E+01 -0.19486997361E+01  0.58452848115E+01  0.51100000000E-03 0.  1.
        -12    1    4    4    0    0  0.17904515348E+02 -0.43651624920E+01  0.14502574926E+01  0.18485928709E+02  0.00000000000E+00 0.  1.
</event>
<event>
 8    1  0.8828843E-009  0.9118800E+02  0.7816164E-02  0.1184000E+00
        -11   -1    0    0    0    0  0.00000000000E+00  0.00000000000E+00  0.45593999997E+02  0.45594000000E+02  0.51100000000E-03 0. -1.
         11   -1    0    0    0    0 -0.00000000000E+00 -0.00000000000E+00 -0.45593999997E+02  0.45594000000E+02  0.51100000000E-03 0.  1.
         23    2    1    2    0    0  0.00000000000E+00 -0.71054273576E-14  0.17763568394E-14  0.91188000000E+02  0.91188000000E+02 0.  0.
    9900012    2    3    3    0    0 -0.23784392212E+01 -0.43230295592E+02  0.12433747443E+02  0.46142317570E+02  0.99999982596E+01 0.  0.
        -12    1    3    3    0    0  0.23784392212E+01  0.43230295592E+02 -0.12433747443E+02  0.45045682430E+02  0.00000000000E+00 0.  1.
         11    1    4    4    0    0 -0.35728494534E+01 -0.12224564281E+02  0.48594009448E+01  0.13631544405E+02  0.51100000000E-03 0. -1.
        -11    1    4    4    0    0 -0.11027246048E+01 -0.26806895017E+02  0.63667295061E+01  0.27574641736E+02  0.51100000000E-03 0.  1.
        -12    1    4    4    0    0  0.22971348369E+01 -0.41988362942E+01  0.12076169922E+01  0.49361314290E+01  0.00000000000E+00 0.  1.
</event>
<event>
 8    1  0.8828843E-009  0.9118800E+02  0.7816164E-02  0.1184000E+00
        -11   -1    0    0    0    0  0.00000000000E+00  0.00000000000E+00  0.45593999997E+02  0.45594000000E+02  0.51100000000E-03 0. -1.
         11   -1    0    0    0    0 -0.00000000000E+00 -0.00000000000E+00 -0.45593999997E+02  0.45594000000E+02  0.51100000000E-03 0.  1.
         23    2    1    2    0    0  0.00000000000E+00  0.88817841970E-15  0.00000000000E+00  0.91188000000E+02  0.91188000000E+02 0.  0.
    9900012    2    3    3    0    0  0.37595903934E+02 -0.43979448255E+01  0.24419656276E+02  0.46142317366E+02  0.99999963990E+01 0.  0.
        -12    1    3    3    0    0 -0.37595903934E+02  0.43979448255E+01 -0.24419656276E+02  0.45045682634E+02  0.00000000000E+00 0.  1.
         11    1    4    4    0    0  0.29950533391E+01 -0.47480781720E+00  0.45835416983E+01  0.54958749739E+01  0.51100000000E-03 0. -1.
        -11    1    4    4    0    0  0.17709923778E+02  0.11975537279E+01  0.11285934986E+02  0.21034444702E+02  0.51100000000E-03 0.  1.
        -12    1    4    4    0    0  0.16890926817E+02 -0.51206907362E+01  0.85501795913E+01  0.19611997690E+02  0.00000000000E+00 0.  1.
</event>
<event>
 8    1  0.8828843E-009  0.9118800E+02  0.7816164E-02  0.1184000E+00
        -11   -1    0    0    0    0  0.00000000000E+00  0.00000000000E+00  0.45593999997E+02  0.45594000000E+02  0.51100000000E-03 0. -1.
         11   -1    0    0    0    0 -0.00000000000E+00 -0.00000000000E+00 -0.45593999997E+02  0.45594000000E+02  0.51100000000E-03 0.  1.
         23    2    1    2    0    0 -0.88817841970E-15  0.71054273576E-14  0.35527136788E-14  0.91188000000E+02  0.91188000000E+02 0.  0.
    9900012    2    3    3    0    0  0.46521253863E+01 -0.34943233336E+02 -0.28043564113E+02  0.46142319688E+02  0.10000017573E+02 0.  0.
         12    1    3    3    0    0 -0.46521253863E+01  0.34943233336E+02  0.28043564113E+02  0.45045680312E+02  0.00000000000E+00 0. -1.
         11    1    4    4    0    0  0.45448425744E+01 -0.11088828496E+02 -0.65291293797E+01  0.13647243024E+02  0.51100000000E-03 0. -1.
        -11    1    4    4    0    0 -0.29555378942E+00 -0.20891675787E+02 -0.16362220746E+02  0.26538118570E+02  0.51100000000E-03 0.  1.
        -12    1    4    4    0    0  0.40283660136E+00 -0.29627290535E+01 -0.51522139867E+01  0.59569580943E+01  0.00000000000E+00 0.  1.
</event>
<event>
 8    1  0.8828843E-009  0.9118800E+02  0.7816164E-02  0.1184000E+00
        -11   -1    0    0    0    0  0.00000000000E+00  0.00000000000E+00  0.45593999997E+02  0.45594000000E+02  0.51100000000E-03 0. -1.
         11   -1    0    0    0    0 -0.00000000000E+00 -0.00000000000E+00 -0.45593999997E+02  0.45594000000E+02  0.51100000000E-03 0.  1.
         23    2    1    2    0    0  0.00000000000E+00 -0.71054273576E-14 -0.71054273576E-14  0.91188000000E+02  0.91188000000E+02 0.  0.
    9900012    2    3    3    0    0  0.13971264134E+02 -0.26527041826E+02  0.33618938917E+02  0.46142320702E+02  0.10000026818E+02 0.  0.
        -12    1    3    3    0    0 -0.13971264134E+02  0.26527041826E+02 -0.33618938917E+02  0.45045679298E+02  0.00000000000E+00 0.  1.
         11    1    4    4    0    0  0.15976439123E+01 -0.86378301253E+01  0.10190986079E+02  0.13454396042E+02  0.51100000000E-03 0. -1.
        -11    1    4    4    0    0  0.34978157682E+01 -0.84292076203E+01  0.58440073744E+01  0.10836912785E+02  0.51100000000E-03 0.  1.
        -12    1    4    4    0    0  0.88758044531E+01 -0.94600040804E+01  0.17583945463E+02  0.21851011875E+02  0.00000000000E+00 0.  1.
</event>
<event>
 8    1  0.8828843E-009  0.9118800E+02  0.7816164E-02  0.1184000E+00
        -11   -1    0    0    0    0  0.00000000000E+00  0.00000000000E+00  0.45593999997E+02  0.45594000000E+02  0.51100000000E-03 0. -1.
         11   -1    0    0    0    0 -0.00000000000E+00 -0.00000000000E+00 -0.45593999997E+02  0.45594000000E+02  0.51100000000E-03 0.  1.
         23    2    1    2    0    0  0.00000000000E+00  0.00000000000E+00  0.00000000000E+00  0.91188000000E+02  0.91188000000E+02 0.  0.
    9900012    2    3    3    0    0 -0.23832277315E+02  0.19358284414E+02 -0.32960476421E+02  0.46142316262E+02  0.99999863344E+01 0.  0.
         12    1    3    3    0    0  0.23832277315E+02 -0.19358284414E+02  0.32960476421E+02  0.45045683738E+02  0.00000000000E+00 0. -1.
         11    1    4    4    0    0 -0.17376570047E+02  0.93669152230E+01 -0.18289112776E+02  0.26910517159E+02  0.51100000000E-03 0. -1.
        -11    1    4    4    0    0 -0.59504972012E+01  0.61556883460E+01 -0.10327771199E+02  0.13415057739E+02  0.51100000000E-03 0.  1.
         12    1    4    4    0    0 -0.50521006730E+00  0.38356808446E+01 -0.43435924467E+01  0.58167413641E+01  0.00000000000E+00 0. -1.
</event>
<event>
 8    1  0.8828843E-009  0.9118800E+02  0.7816164E-02  0.1184000E+00
        -11   -1    0    0    0    0  0.00000000000E+00  0.00000000000E+00  0.45593999997E+02  0.45594000000E+02  0.51100000000E-03 0. -1.
         11   -1    0    0    0    0 -0.00000000000E+00 -0.00000000000E+00 -0.45593999997E+02  0.45594000000E+02  0.51100000000E-03 0.  1.
         23    2    1    2    0    0  0.00000000000E+00  0.00000000000E+00  0.00000000000E+00  0.91188000000E+02  0.91188000000E+02 0.  0.
    9900012    2    3    3    0    0 -0.15269320427E+02  0.41251823025E+02  0.97081633820E+01  0.46142317793E+02  0.10000000295E+02 0.  0.
        -12    1    3    3    0    0  0.15269320427E+02 -0.41251823025E+02 -0.97081633820E+01  0.45045682207E+02  0.00000000000E+00 0.  1.
         11    1    4    4    0    0 -0.12497278439E+01  0.79783944419E+01  0.32535154432E+01  0.87064321369E+01  0.51100000000E-03 0. -1.
        -11    1    4    4    0    0 -0.12175596721E+02  0.23471180588E+02  0.20141071361E+01  0.26517882674E+02  0.51100000000E-03 0.  1.
        -12    1    4    4    0    0 -0.18439958620E+01  0.98022479958E+01  0.44405408028E+01  0.10918002983E+02  0.00000000000E+00 0.  1.
</event>
<event>
 8    1  0.8828843E-009  0.9118800E+02  0.7816164E-02  0.1184000E+00
        -11   -1    0    0    0    0  0.00000000000E+00  0.00000000000E+00  0.45593999997E+02  0.45594000000E+02  0.51100000000E-03 0. -1.
         11   -1    0    0    0    0 -0.00000000000E+00 -0.00000000000E+00 -0.45593999997E+02  0.45594000000E+02  0.51100000000E-03 0.  1.
         23    2    1    2    0    0  0.35527136788E-14 -0.35527136788E-14  0.00000000000E+00  0.91188000000E+02  0.91188000000E+02 0.  0.
    9900012    2    3    3    0    0  0.17983693428E+02 -0.21430391952E+02  0.35304940224E+02  0.46142315048E+02  0.99999752623E+01 0.  0.
        -12    1    3    3    0    0 -0.17983693428E+02  0.21430391952E+02 -0.35304940224E+02  0.45045684952E+02  0.00000000000E+00 0.  1.
         11    1    4    4    0    0  0.14317147933E+01 -0.20183268055E+01  0.84094801937E+01  0.87660029508E+01  0.51100000000E-03 0. -1.
        -11    1    4    4    0    0 -0.15272178703E+00 -0.99363000569E+00  0.53509862586E+00  0.11388394676E+01  0.51100000000E-03 0.  1.
         12    1    4    4    0    0  0.16704700422E+02 -0.18418435141E+02  0.26360361405E+02  0.36237472630E+02  0.00000000000E+00 0. -1.
</event>
<event>
 8    1  0.8828843E-009  0.9118800E+02  0.7816164E-02  0.1184000E+00
        -11   -1    0    0    0    0  0.00000000000E+00  0.00000000000E+00  0.45593999997E+02  0.45594000000E+02  0.51100000000E-03 0. -1.
         11   -1    0    0    0    0 -0.00000000000E+00 -0.00000000000E+00 -0.45593999997E+02  0.45594000000E+02  0.51100000000E-03 0.  1.
         23    2    1    2    0    0  0.00000000000E+00  0.00000000000E+00  0.00000000000E+00  0.91188000000E+02  0.91188000000E+02 0.  0.
    9900012    2    3    3    0    0 -0.77907924018E+01  0.10345664315E+02 -0.43143762740E+02  0.46142317857E+02  0.10000000877E+02 0.  0.
         12    1    3    3    0    0  0.77907924018E+01 -0.10345664315E+02  0.43143762740E+02  0.45045682143E+02  0.00000000000E+00 0. -1.
         11    1    4    4    0    0 -0.20638741588E+01  0.30872652361E+00 -0.55382922288E+01  0.59184093879E+01  0.51100000000E-03 0. -1.
        -11    1    4    4    0    0  0.20995012475E+00  0.77744152775E+01 -0.17814866792E+02  0.19438495082E+02  0.51100000000E-03 0.  1.
        -12    1    4    4    0    0 -0.59368683677E+01  0.22625225143E+01 -0.19790603719E+02  0.20785413388E+02  0.00000000000E+00 0.  1.
</event>
<event>
 8    1  0.8828843E-009  0.9118800E+02  0.7816164E-02  0.1184000E+00
        -11   -1    0    0    0    0  0.00000000000E+00  0.00000000000E+00  0.45593999997E+02  0.45594000000E+02  0.51100000000E-03 0. -1.
         11   -1    0    0    0    0 -0.00000000000E+00 -0.00000000000E+00 -0.45593999997E+02  0.45594000000E+02  0.51100000000E-03 0.  1.
         23    2    1    2    0    0 -0.17763568394E-14  0.00000000000E+00  0.44408920985E-15  0.91188000000E+02  0.91188000000E+02 0.  0.
    9900012    2    3    3    0    0 -0.97169091493E+01  0.43856490223E+02  0.33620527754E+01  0.46142318110E+02  0.10000003182E+02 0.  0.
        -12    1    3    3    0    0  0.97169091493E+01 -0.43856490223E+02 -0.33620527754E+01  0.45045681890E+02  0.00000000000E+00 0.  1.
         11    1    4    4    0    0 -0.67466130183E+01  0.11912899608E+02 -0.21102888277E+00  0.13692278763E+02  0.51100000000E-03 0. -1.
        -11    1    4    4    0    0 -0.89240770684E+00  0.11556122116E+02 -0.29886757172E+00  0.11594381051E+02  0.51100000000E-03 0.  1.
        -12    1    4    4    0    0 -0.20778884242E+01  0.20387468499E+02  0.38719492299E+01  0.20855658296E+02  0.00000000000E+00 0.  1.
</event>
<event>
 8    1  0.8828843E-009  0.9118800E+02  0.7816164E-02  0.1184000E+00
        -11   -1    0    0    0    0  0.00000000000E+00  0.00000000000E+00  0.45593999997E+02  0.45594000000E+02  0.51100000000E-03 0. -1.
         11   -1    0    0    0    0 -0.00000000000E+00 -0.00000000000E+00 -0.45593999997E+02  0.45594000000E+02  0.51100000000E-03 0.  1.
         23    2    1    2    0    0  0.00000000000E+00  0.00000000000E+00  0.00000000000E+00  0.91188000000E+02  0.91188000000E+02 0.  0.
    9900012    2    3    3    0    0  0.19985961306E+02  0.21757122016E+02 -0.34004447580E+02  0.46142318043E+02  0.10000002572E+02 0.  0.
         12    1    3    3    0    0 -0.19985961306E+02 -0.21757122016E+02  0.34004447580E+02  0.45045681957E+02  0.00000000000E+00 0. -1.
         11    1    4    4    0    0  0.16619901166E+02  0.19382271646E+02 -0.30177638109E+02  0.39529525813E+02  0.51100000000E-03 0.  1.
        -11    1    4    4    0    0  0.49785946443E+00 -0.70678489118E+00 -0.16747957783E+01  0.18847679138E+01  0.51100000000E-03 0. -1.
        -12    1    4    4    0    0  0.28682006756E+01  0.30816352615E+01 -0.21520136923E+01  0.47280243159E+01  0.00000000000E+00 0.  1.
</event>
<event>
 8    1  0.8828843E-009  0.9118800E+02  0.7816164E-02  0.1184000E+00
        -11   -1    0    0    0    0  0.00000000000E+00  0.00000000000E+00  0.45593999997E+02  0.45594000000E+02  0.51100000000E-03 0. -1.
         11   -1    0    0    0    0 -0.00000000000E+00 -0.00000000000E+00 -0.45593999997E+02  0.45594000000E+02  0.51100000000E-03 0.  1.
         23    2    1    2    0    0  0.44408920985E-15 -0.17763568394E-14  0.00000000000E+00  0.91188000000E+02  0.91188000000E+02 0.  0.
    9900012    2    3    3    0    0 -0.15863466893E+01  0.12558033227E+02 -0.43230691740E+02  0.46142318712E+02  0.10000008672E+02 0.  0.
         12    1    3    3    0    0  0.15863466893E+01 -0.12558033227E+02  0.43230691740E+02  0.45045681288E+02  0.00000000000E+00 0. -1.
         11    1    4    4    0    0  0.25094375658E+01  0.66521915669E+01 -0.26835573300E+02  0.27761428712E+02  0.51100000000E-03 0. -1.
        -11    1    4    4    0    0 -0.28258159868E+01  0.49807962029E+01 -0.15604360336E+02  0.16621962235E+02  0.51100000000E-03 0.  1.
         12    1    4    4    0    0 -0.12699682683E+01  0.92504545726E+00 -0.79075810429E+00  0.17589277643E+01  0.00000000000E+00 0. -1.
</event>
<event>
 8    1  0.8828843E-009  0.9118800E+02  0.7816164E-02  0.1184000E+00
        -11   -1    0    0    0    0  0.00000000000E+00  0.00000000000E+00  0.45593999997E+02  0.45594000000E+02  0.51100000000E-03 0. -1.
         11   -1    0    0    0    0 -0.00000000000E+00 -0.00000000000E+00 -0.45593999997E+02  0.45594000000E+02  0.51100000000E-03 0.  1.
         23    2    1    2    0    0  0.00000000000E+00  0.00000000000E+00  0.00000000000E+00  0.91188000000E+02  0.91188000000E+02 0.  0.
    9900012    2    3    3    0    0  0.29359949116E+02 -0.23845781696E+02  0.24463963892E+02  0.46142318231E+02  0.10000004285E+02 0.  0.
        -12    1    3    3    0    0 -0.29359949116E+02  0.23845781696E+02 -0.24463963892E+02  0.45045681769E+02  0.00000000000E+00 0.  1.
         11    1    4    4    0    0  0.11287562810E+02 -0.60823190612E+01  0.11176030209E+02  0.17009036741E+02  0.51100000000E-03 0. -1.
        -11    1    4    4    0    0  0.15763017480E+02 -0.12545102757E+02  0.94195225413E+01  0.22239148554E+02  0.51100000000E-03 0.  1.
         12    1    4    4    0    0  0.23093688260E+01 -0.52183598776E+01  0.38684111413E+01  0.68941329364E+01  0.00000000000E+00 0. -1.
</event>
<event>
 8    1  0.8828843E-009  0.9118800E+02  0.7816164E-02  0.1184000E+00
        -11   -1    0    0    0    0  0.00000000000E+00  0.00000000000E+00  0.45593999997E+02  0.45594000000E+02  0.51100000000E-03 0.  1.
         11   -1    0    0    0    0 -0.00000000000E+00 -0.00000000000E+00 -0.45593999997E+02  0.45594000000E+02  0.51100000000E-03 0. -1.
         23    2    1    2    0    0  0.00000000000E+00  0.17763568394E-14  0.17763568394E-14  0.91188000000E+02  0.91188000000E+02 0.  0.
    9900012    2    3    3    0    0 -0.41270025222E+02 -0.14425185368E+02  0.10854207132E+02  0.46142303566E+02  0.99998705584E+01 0.  0.
        -12    1    3    3    0    0  0.41270025222E+02  0.14425185368E+02 -0.10854207132E+02  0.45045696434E+02  0.00000000000E+00 0.  1.
         11    1    4    4    0    0 -0.78476117151E+01 -0.55293261263E+01  0.41767817194E+01  0.10469191126E+02  0.51100000000E-03 0. -1.
        -11    1    4    4    0    0 -0.13479749377E+02 -0.24552665639E+01  0.52318369474E+01  0.14666427488E+02  0.51100000000E-03 0.  1.
         12    1    4    4    0    0 -0.19942664130E+02 -0.64405926781E+01  0.14455884652E+01  0.21006684952E+02  0.00000000000E+00 0. -1.
</event>
<event>
 8    1  0.8828843E-009  0.9118800E+02  0.7816164E-02  0.1184000E+00
        -11   -1    0    0    0    0  0.00000000000E+00  0.00000000000E+00  0.45593999997E+02  0.45594000000E+02  0.51100000000E-03 0. -1.
         11   -1    0    0    0    0 -0.00000000000E+00 -0.00000000000E+00 -0.45593999997E+02  0.45594000000E+02  0.51100000000E-03 0.  1.
         23    2    1    2    0    0  0.35527136788E-14 -0.17763568394E-14  0.00000000000E+00  0.91188000000E+02  0.91188000000E+02 0.  0.
    9900012    2    3    3    0    0 -0.17602656479E+02  0.14952207987E+02  0.38674168395E+02  0.46142319410E+02  0.10000015034E+02 0.  0.
        -12    1    3    3    0    0  0.17602656479E+02 -0.14952207987E+02 -0.38674168395E+02  0.45045680590E+02  0.00000000000E+00 0.  1.
         11    1    4    4    0    0 -0.84385528086E+01  0.10326355227E+02  0.14665773384E+02  0.19822403865E+02  0.51100000000E-03 0. -1.
        -11    1    4    4    0    0  0.16300851202E+00 -0.37473523280E-01  0.27021634062E-01  0.16942983730E+00  0.51100000000E-03 0.  1.
        -12    1    4    4    0    0 -0.93271121821E+01  0.46633262832E+01  0.23981373377E+02  0.26150485707E+02  0.00000000000E+00 0.  1.
</event>
<event>
 8    1  0.9224476E-009  0.9118800E+02  0.7816164E-02  0.1184000E+00
        -11   -1    0    0    0    0  0.00000000000E+00  0.00000000000E+00  0.45593999997E+02  0.45594000000E+02  0.51100000000E-03 0. -1.
         11   -1    0    0    0    0 -0.00000000000E+00 -0.00000000000E+00 -0.45593999997E+02  0.45594000000E+02  0.51100000000E-03 0.  1.
         23    2    1    2    0    0  0.00000000000E+00  0.00000000000E+00  0.71054273576E-14  0.91188000000E+02  0.91188000000E+02 0.  0.
    9900012    2    3    3    0    0 -0.27422087441E+02 -0.73273372608E+01  0.34977888564E+02  0.46142318305E+02  0.10000004964E+02 0.  0.
        -12    1    3    3    0    0  0.27422087441E+02  0.73273372608E+01 -0.34977888564E+02  0.45045681695E+02  0.00000000000E+00 0.  1.
         11    1    4    4    0    0 -0.55876285345E+01 -0.39792564937E+00  0.74798064294E+01  0.93449152989E+01  0.51100000000E-03 0. -1.
        -11    1    4    4    0    0 -0.16019253646E+02 -0.39981501539E+01  0.24698594054E+02  0.29708958927E+02  0.51100000000E-03 0.  1.
        -12    1    4    4    0    0 -0.58152052607E+01 -0.29312614576E+01  0.27994880801E+01  0.70884440794E+01  0.00000000000E+00 0.  1.
</event>
