<event>
 7    1  0.1193961E-011  0.5930185E+02  0.7816164E-02  0.1266605E+00
        -11   -1    0    0    0    0  0.00000000000E+00  0.00000000000E+00  0.45593999997E+02  0.45594000000E+02  0.51100000000E-03 0.  1.
         11   -1    0    0    0    0 -0.00000000000E+00 -0.00000000000E+00 -0.45593999997E+02  0.45594000000E+02  0.51100000000E-03 0. -1.
    9900012    2    1    2    0    0 -0.29038144657E+02 -0.58682314454E+01  0.11793066441E+02  0.59301852514E+02  0.49999833101E+02 0.  0.
         12    1    1    2    0    0  0.29038144657E+02  0.58682314454E+01 -0.11793066441E+02  0.31886147486E+02  0.00000000000E+00 0. -1.
         11    1    3    3    0    0  0.35665818519E+00 -0.10674648178E+02  0.21870634279E+01  0.10902227547E+02  0.51100000000E-03 0. -1.
        -11    1    3    3    0    0  0.84125064267E+01  0.30604199063E+01 -0.12187006447E+01  0.90344709808E+01  0.51100000000E-03 0.  1.
         12    1    3    3    0    0 -0.37807309269E+02  0.17459968267E+01  0.10824703658E+02  0.39365153986E+02  0.00000000000E+00 0. -1.
</event>
<event>
 7    1  0.1193961E-011  0.5930195E+02  0.7816164E-02  0.1266605E+00
        -11   -1    0    0    0    0  0.00000000000E+00  0.00000000000E+00  0.45593999997E+02  0.45594000000E+02  0.51100000000E-03 0. -1.
         11   -1    0    0    0    0 -0.00000000000E+00 -0.00000000000E+00 -0.45593999997E+02  0.45594000000E+02  0.51100000000E-03 0.  1.
    9900012    2    1    2    0    0  0.17223735825E+02  0.26142658520E+02 -0.60518151714E+01  0.59301950744E+02  0.50000012249E+02 0.  0.
         12    1    1    2    0    0 -0.17223735825E+02 -0.26142658520E+02  0.60518151714E+01  0.31886049256E+02  0.00000000000E+00 0. -1.
         11    1    3    3    0    0  0.69246875387E+01  0.11077878856E+02 -0.15993748625E+02  0.20651166863E+02  0.51100000000E-03 0. -1.
        -11    1    3    3    0    0  0.16489186822E+02  0.27211968044E+01 -0.58190355665E+01  0.17696309482E+02  0.51100000000E-03 0.  1.
         12    1    3    3    0    0 -0.61901385352E+01  0.12343582860E+02  0.15760969020E+02  0.20954474399E+02  0.00000000000E+00 0. -1.
</event>
<event>
 7    1  0.1193961E-011  0.5930196E+02  0.7816164E-02  0.1266605E+00
        -11   -1    0    0    0    0  0.00000000000E+00  0.00000000000E+00  0.45593999997E+02  0.45594000000E+02  0.51100000000E-03 0. -1.
         11   -1    0    0    0    0 -0.00000000000E+00 -0.00000000000E+00 -0.45593999997E+02  0.45594000000E+02  0.51100000000E-03 0.  1.
    9900012    2    1    2    0    0 -0.24627768342E+02  0.11395940623E+02  0.16742916576E+02  0.59301957730E+02  0.50000024990E+02 0.  0.
         12    1    1    2    0    0  0.24627768342E+02 -0.11395940623E+02 -0.16742916576E+02  0.31886042270E+02  0.00000000000E+00 0. -1.
         11    1    3    3    0    0 -0.20134272369E+02  0.17863878648E+02  0.16026518998E+02  0.31326608429E+02  0.51100000000E-03 0. -1.
        -11    1    3    3    0    0 -0.15095548044E+02 -0.79942324815E+01 -0.10739932847E+01  0.17115396155E+02  0.51100000000E-03 0.  1.
         12    1    3    3    0    0  0.10602052071E+02  0.15262944559E+01  0.17903908630E+01  0.10859953146E+02  0.00000000000E+00 0. -1.
</event>
<event>
 7    1  0.1193961E-011  0.5930195E+02  0.7816164E-02  0.1266605E+00
        -11   -1    0    0    0    0  0.00000000000E+00  0.00000000000E+00  0.45593999997E+02  0.45594000000E+02  0.51100000000E-03 0.  1.
         11   -1    0    0    0    0 -0.00000000000E+00 -0.00000000000E+00 -0.45593999997E+02  0.45594000000E+02  0.51100000000E-03 0. -1.
    9900012    2    1    2    0    0  0.74620257072E+01  0.27847570002E+02  0.13621712137E+02  0.59301952515E+02  0.50000015479E+02 0.  0.
         12    1    1    2    0    0 -0.74620257072E+01 -0.27847570002E+02 -0.13621712137E+02  0.31886047485E+02  0.00000000000E+00 0. -1.
         11    1    3    3    0    0  0.76134052047E+01 -0.78748224562E+01  0.11258325756E+02  0.15707535345E+02  0.51100000000E-03 0. -1.
        -11    1    3    3    0    0 -0.40367033632E+01 -0.79408463887E-01 -0.54124568280E+01  0.67524787243E+01  0.51100000000E-03 0.  1.
        -12    1    3    3    0    0  0.38853238656E+01  0.35801800922E+02  0.77758432088E+01  0.36841938445E+02  0.00000000000E+00 0.  1.
</event>
<event>
 7    1  0.1193961E-011  0.5930193E+02  0.7816164E-02  0.1266605E+00
        -11   -1    0    0    0    0  0.00000000000E+00  0.00000000000E+00  0.45593999997E+02  0.45594000000E+02  0.51100000000E-03 0.  1.
         11   -1    0    0    0    0 -0.00000000000E+00 -0.00000000000E+00 -0.45593999997E+02  0.45594000000E+02  0.51100000000E-03 0. -1.
    9900012    2    1    2    0    0  0.15926952411E+02  0.15682573530E+01  0.27578872516E+02  0.59301930103E+02  0.49999974604E+02 0.  0.
         12    1    1    2    0    0 -0.15926952411E+02 -0.15682573530E+01 -0.27578872516E+02  0.31886069897E+02  0.00000000000E+00 0. -1.
         11    1    3    3    0    0 -0.27636604734E+01  0.86376320930E+00  0.88207553265E+01  0.92838370777E+01  0.51100000000E-03 0. -1.
        -11    1    3    3    0    0 -0.40097068528E+01 -0.53311073912E+01  0.24868251547E+02  0.25747395797E+02  0.51100000000E-03 0.  1.
         12    1    3    3    0    0  0.22700319738E+02  0.60356015349E+01 -0.61101343574E+01  0.24270697228E+02  0.00000000000E+00 0. -1.
</event>
<event>
 7    1  0.1193961E-011  0.5930196E+02  0.7816164E-02  0.1266605E+00
        -11   -1    0    0    0    0  0.00000000000E+00  0.00000000000E+00  0.45593999997E+02  0.45594000000E+02  0.51100000000E-03 0.  1.
         11   -1    0    0    0    0 -0.00000000000E+00 -0.00000000000E+00 -0.45593999997E+02  0.45594000000E+02  0.51100000000E-03 0. -1.
    9900012    2    1    2    0    0 -0.21264019970E+02  0.19465663537E+02  0.13625311509E+02  0.59301957349E+02  0.50000024295E+02 0.  0.
         12    1    1    2    0    0  0.21264019970E+02 -0.19465663537E+02 -0.13625311509E+02  0.31886042651E+02  0.00000000000E+00 0. -1.
         11    1    3    3    0    0 -0.41743911222E+01 -0.17221768307E+01 -0.30202212269E+01  0.54326025805E+01  0.51100000000E-03 0. -1.
        -11    1    3    3    0    0 -0.12277870496E+02 -0.12312520678E+02  0.58023888865E+01  0.18330629733E+02  0.51100000000E-03 0.  1.
         12    1    3    3    0    0 -0.48117583514E+01  0.33500361045E+02  0.10843143850E+02  0.35538725035E+02  0.00000000000E+00 0. -1.
</event>
<event>
 7    1  0.1193961E-011  0.5930200E+02  0.7816164E-02  0.1266605E+00
        -11   -1    0    0    0    0  0.00000000000E+00  0.00000000000E+00  0.45593999997E+02  0.45594000000E+02  0.51100000000E-03 0.  1.
         11   -1    0    0    0    0 -0.00000000000E+00 -0.00000000000E+00 -0.45593999997E+02  0.45594000000E+02  0.51100000000E-03 0. -1.
    9900012    2    1    2    0    0 -0.28832022532E+01 -0.31437230571E+02  0.44838314842E+01  0.59301998903E+02  0.50000100079E+02 0.  0.
         12    1    1    2    0    0  0.28832022532E+01  0.31437230571E+02 -0.44838314842E+01  0.31886001097E+02  0.00000000000E+00 0. -1.
         11    1    3    3    0    0  0.49150127088E+01 -0.17384505495E+02 -0.97446749062E+01  0.20526496792E+02  0.51100000000E-03 0. -1.
        -11    1    3    3    0    0 -0.38390925716E+01 -0.22581650088E+02  0.15057829762E+01  0.22955106950E+02  0.51100000000E-03 0.  1.
        -12    1    3    3    0    0 -0.39591223905E+01  0.85289250123E+01  0.12722723414E+02  0.15820395161E+02  0.00000000000E+00 0.  1.
</event>
<event>
 7    1  0.1193961E-011  0.5930196E+02  0.7816164E-02  0.1266605E+00
        -11   -1    0    0    0    0  0.00000000000E+00  0.00000000000E+00  0.45593999997E+02  0.45594000000E+02  0.51100000000E-03 0. -1.
         11   -1    0    0    0    0 -0.00000000000E+00 -0.00000000000E+00 -0.45593999997E+02  0.45594000000E+02  0.51100000000E-03 0.  1.
    9900012    2    1    2    0    0  0.27424570674E+02  0.16266301811E+02  0.14110714686E+00  0.59301959755E+02  0.50000028684E+02 0.  0.
         12    1    1    2    0    0 -0.27424570674E+02 -0.16266301811E+02 -0.14110714686E+00  0.31886040245E+02  0.00000000000E+00 0. -1.
         11    1    3    3    0    0  0.51777402677E+01  0.26559797090E+02  0.73742086326E+01  0.28046582126E+02  0.51100000000E-03 0.  1.
        -11    1    3    3    0    0 -0.13798159663E+01  0.16154348559E+01  0.23009325058E+01  0.31317427308E+01  0.51100000000E-03 0. -1.
        -12    1    3    3    0    0  0.23626646372E+02 -0.11908930135E+02 -0.95340339916E+01  0.28123634899E+02  0.00000000000E+00 0.  1.
</event>
<event>
 7    1  0.1193961E-011  0.5930195E+02  0.7816164E-02  0.1266605E+00
        -11   -1    0    0    0    0  0.00000000000E+00  0.00000000000E+00  0.45593999997E+02  0.45594000000E+02  0.51100000000E-03 0.  1.
         11   -1    0    0    0    0 -0.00000000000E+00 -0.00000000000E+00 -0.45593999997E+02  0.45594000000E+02  0.51100000000E-03 0. -1.
    9900012    2    1    2    0    0  0.23925791794E+02  0.14049148640E+02  0.15712986087E+02  0.59301952546E+02  0.50000015536E+02 0.  0.
         12    1    1    2    0    0 -0.23925791794E+02 -0.14049148640E+02 -0.15712986087E+02  0.31886047454E+02  0.00000000000E+00 0. -1.
         11    1    3    3    0    0 -0.29688986346E+01 -0.58237414302E+01  0.13414028180E+02  0.14922013122E+02  0.51100000000E-03 0. -1.
        -11    1    3    3    0    0  0.15818137457E+02  0.79700427634E+01  0.15421844014E+02  0.23485491848E+02  0.51100000000E-03 0.  1.
         12    1    3    3    0    0  0.11076552971E+02  0.11902847307E+02 -0.13122886108E+02  0.20894447576E+02  0.00000000000E+00 0. -1.
</event>
<event>
 7    1  0.1193961E-011  0.5930197E+02  0.7816164E-02  0.1266605E+00
        -11   -1    0    0    0    0  0.00000000000E+00  0.00000000000E+00  0.45593999997E+02  0.45594000000E+02  0.51100000000E-03 0. -1.
         11   -1    0    0    0    0 -0.00000000000E+00 -0.00000000000E+00 -0.45593999997E+02  0.45594000000E+02  0.51100000000E-03 0.  1.
    9900012    2    1    2    0    0  0.38732898519E+01 -0.34572825213E+01 -0.31460515309E+02  0.59301965436E+02  0.50000039043E+02 0.  0.
         12    1    1    2    0    0 -0.38732898519E+01  0.34572825213E+01  0.31460515309E+02  0.31886034564E+02  0.00000000000E+00 0. -1.
         11    1    3    3    0    0 -0.24876667333E+01 -0.15947973336E+02 -0.24470862690E+02  0.29314662890E+02  0.51100000000E-03 0. -1.
        -11    1    3    3    0    0 -0.19316483121E+01  0.63610149354E+01 -0.15339797736E+02  0.16718348335E+02  0.51100000000E-03 0.  1.
         12    1    3    3    0    0  0.82926048974E+01  0.61296758791E+01  0.83501451171E+01  0.13268954211E+02  0.00000000000E+00 0. -1.
</event>
<event>
 7    1  0.1193961E-011  0.5930220E+02  0.7816164E-02  0.1266604E+00
        -11   -1    0    0    0    0  0.00000000000E+00  0.00000000000E+00  0.45593999997E+02  0.45594000000E+02  0.51100000000E-03 0. -1.
         11   -1    0    0    0    0 -0.00000000000E+00 -0.00000000000E+00 -0.45593999997E+02  0.45594000000E+02  0.51100000000E-03 0.  1.
    9900012    2    1    2    0    0  0.13323933936E+02 -0.28343830339E+02  0.59836688185E+01  0.59302200239E+02  0.50000467266E+02 0.  0.
         12    1    1    2    0    0 -0.13323933936E+02  0.28343830339E+02 -0.59836688185E+01  0.31885799761E+02  0.00000000000E+00 0. -1.
         11    1    3    3    0    0  0.16632073249E+02 -0.92600299747E+01 -0.68763589366E+01  0.20240017988E+02  0.51100000000E-03 0. -1.
        -11    1    3    3    0    0  0.31633011238E+01  0.19598054538E+01 -0.79435061926E+01  0.87719212440E+01  0.51100000000E-03 0.  1.
         12    1    3    3    0    0 -0.64714404362E+01 -0.21043605819E+02  0.20803533948E+02  0.30290261007E+02  0.00000000000E+00 0. -1.
</event>
<event>
 7    1  0.1193961E-011  0.5930196E+02  0.7816164E-02  0.1266605E+00
        -11   -1    0    0    0    0  0.00000000000E+00  0.00000000000E+00  0.45593999997E+02  0.45594000000E+02  0.51100000000E-03 0.  1.
         11   -1    0    0    0    0 -0.00000000000E+00 -0.00000000000E+00 -0.45593999997E+02  0.45594000000E+02  0.51100000000E-03 0. -1.
    9900012    2    1    2    0    0  0.10485518864E+02 -0.15273812229E+02  0.25951573608E+02  0.59301958876E+02  0.50000027079E+02 0.  0.
         12    1    1    2    0    0 -0.10485518864E+02  0.15273812229E+02 -0.25951573608E+02  0.31886041124E+02  0.00000000000E+00 0. -1.
         11    1    3    3    0    0 -0.11396779442E+01 -0.10982441116E+02  0.16502536856E+02  0.19855644074E+02  0.51100000000E-03 0.  1.
        -11    1    3    3    0    0 -0.53585468888E+01 -0.92691680263E+01  0.17091867655E+02  0.20168377249E+02  0.51100000000E-03 0. -1.
         12    1    3    3    0    0  0.16983743697E+02  0.49777969133E+01 -0.76428309027E+01  0.19277937552E+02  0.00000000000E+00 0. -1.
</event>
<event>
 7    1  0.1193961E-011  0.5930194E+02  0.7816164E-02  0.1266605E+00
        -11   -1    0    0    0    0  0.00000000000E+00  0.00000000000E+00  0.45593999997E+02  0.45594000000E+02  0.51100000000E-03 0.  1.
         11   -1    0    0    0    0 -0.00000000000E+00 -0.00000000000E+00 -0.45593999997E+02  0.45594000000E+02  0.51100000000E-03 0. -1.
    9900012    2    1    2    0    0  0.44086076875E+01  0.65288190290E+01  0.30897566960E+02  0.59301938096E+02  0.49999989182E+02 0.  0.
         12    1    1    2    0    0 -0.44086076875E+01 -0.65288190290E+01 -0.30897566960E+02  0.31886061904E+02  0.00000000000E+00 0. -1.
         11    1    3    3    0    0  0.60076090975E+01  0.15635061916E+01  0.94743824875E+01  0.11326952038E+02  0.51100000000E-03 0. -1.
        -11    1    3    3    0    0  0.81496762088E+01  0.18780501021E+02  0.23237531470E+02  0.30969457696E+02  0.51100000000E-03 0.  1.
         12    1    3    3    0    0 -0.97486776187E+01 -0.13815188184E+02 -0.18143469975E+01  0.17005528362E+02  0.00000000000E+00 0. -1.
</event>
<event>
 7    1  0.1193961E-011  0.5930193E+02  0.7816164E-02  0.1266605E+00
        -11   -1    0    0    0    0  0.00000000000E+00  0.00000000000E+00  0.45593999997E+02  0.45594000000E+02  0.51100000000E-03 0.  1.
         11   -1    0    0    0    0 -0.00000000000E+00 -0.00000000000E+00 -0.45593999997E+02  0.45594000000E+02  0.51100000000E-03 0. -1.
    9900012    2    1    2    0    0  0.23994443019E+02 -0.37593933086E+01  0.20660466766E+02  0.59301933751E+02  0.49999981258E+02 0.  0.
         12    1    1    2    0    0 -0.23994443019E+02  0.37593933086E+01 -0.20660466766E+02  0.31886066249E+02  0.00000000000E+00 0. -1.
         11    1    3    3    0    0  0.27436318800E+02 -0.15754191535E+02  0.21063762667E+02  0.38008265392E+02  0.51100000000E-03 0.  1.
        -11    1    3    3    0    0 -0.22442905768E+01  0.92375156199E-01  0.69146423904E+01  0.72703268847E+01  0.51100000000E-03 0. -1.
        -12    1    3    3    0    0 -0.11975852042E+01  0.11902423070E+02 -0.73179382909E+01  0.14023341474E+02  0.00000000000E+00 0.  1.
</event>
<event>
 7    1  0.1193961E-011  0.5930193E+02  0.7816164E-02  0.1266605E+00
        -11   -1    0    0    0    0  0.00000000000E+00  0.00000000000E+00  0.45593999997E+02  0.45594000000E+02  0.51100000000E-03 0.  1.
         11   -1    0    0    0    0 -0.00000000000E+00 -0.00000000000E+00 -0.45593999997E+02  0.45594000000E+02  0.51100000000E-03 0. -1.
    9900012    2    1    2    0    0 -0.24534711472E+02  0.10648688327E+02  0.17360144421E+02  0.59301933381E+02  0.49999980583E+02 0.  0.
         12    1    1    2    0    0  0.24534711472E+02 -0.10648688327E+02 -0.17360144421E+02  0.31886066619E+02  0.00000000000E+00 0. -1.
         11    1    3    3    0    0  0.78785333020E+01  0.15414191605E+02 -0.10779470772E+01  0.17344467705E+02  0.51100000000E-03 0.  1.
        -11    1    3    3    0    0 -0.71176352403E+01  0.11206229007E+01  0.13810342255E+02  0.15576972766E+02  0.51100000000E-03 0. -1.
        -12    1    3    3    0    0 -0.25295609534E+02 -0.58861261785E+01  0.46277492432E+01  0.26380492910E+02  0.00000000000E+00 0.  1.
</event>
<event>
 7    1  0.1193961E-011  0.5930205E+02  0.7816164E-02  0.1266604E+00
        -11   -1    0    0    0    0  0.00000000000E+00  0.00000000000E+00  0.45593999997E+02  0.45594000000E+02  0.51100000000E-03 0. -1.
         11   -1    0    0    0    0 -0.00000000000E+00 -0.00000000000E+00 -0.45593999997E+02  0.45594000000E+02  0.51100000000E-03 0.  1.
    9900012    2    1    2    0    0 -0.26190522745E+02 -0.89365609663E+01 -0.15840077776E+02  0.59302052194E+02  0.50000197268E+02 0.  0.
         12    1    1    2    0    0  0.26190522745E+02  0.89365609663E+01  0.15840077776E+02  0.31885947806E+02  0.00000000000E+00 0. -1.
         11    1    3    3    0    0 -0.14644192028E+01 -0.52733400658E+01 -0.11582329029E+02  0.12810268734E+02  0.51100000000E-03 0.  1.
        -11    1    3    3    0    0  0.79536806762E+01 -0.15256118368E+01  0.81320326685E+01  0.11476867315E+02  0.51100000000E-03 0. -1.
        -12    1    3    3    0    0 -0.32679784218E+02 -0.21376090636E+01 -0.12389781416E+02  0.35014916144E+02  0.00000000000E+00 0.  1.
</event>
<event>
 7    1  0.1193961E-011  0.5930195E+02  0.7816164E-02  0.1266605E+00
        -11   -1    0    0    0    0  0.00000000000E+00  0.00000000000E+00  0.45593999997E+02  0.45594000000E+02  0.51100000000E-03 0.  1.
         11   -1    0    0    0    0 -0.00000000000E+00 -0.00000000000E+00 -0.45593999997E+02  0.45594000000E+02  0.51100000000E-03 0. -1.
    9900012    2    1    2    0    0  0.16873798989E+02  0.13587621117E+02  0.23395976028E+02  0.59301949222E+02  0.50000009473E+02 0.  0.
         12    1    1    2    0    0 -0.16873798989E+02 -0.13587621117E+02 -0.23395976028E+02  0.31886050778E+02  0.00000000000E+00 0. -1.
         11    1    3    3    0    0  0.89468019941E+01  0.85333364779E+01  0.15846579935E+02  0.20099183895E+02  0.51100000000E-03 0. -1.
        -11    1    3    3    0    0  0.16987527460E+02  0.41189792804E+01  0.18168810111E+02  0.25212055462E+02  0.51100000000E-03 0.  1.
         12    1    3    3    0    0 -0.90605304656E+01  0.93530535883E+00 -0.10619414018E+02  0.13990709864E+02  0.00000000000E+00 0. -1.
</event>
<event>
 7    1  0.1193961E-011  0.5930194E+02  0.7816164E-02  0.1266605E+00
        -11   -1    0    0    0    0  0.00000000000E+00  0.00000000000E+00  0.45593999997E+02  0.45594000000E+02  0.51100000000E-03 0.  1.
         11   -1    0    0    0    0 -0.00000000000E+00 -0.00000000000E+00 -0.45593999997E+02  0.45594000000E+02  0.51100000000E-03 0. -1.
    9900012    2    1    2    0    0  0.27692752803E+02 -0.14487847291E+02  0.63193835361E+01  0.59301939014E+02  0.49999990856E+02 0.  0.
         12    1    1    2    0    0 -0.27692752803E+02  0.14487847291E+02 -0.63193835361E+01  0.31886060986E+02  0.00000000000E+00 0. -1.
         11    1    3    3    0    0 -0.32603902161E+01 -0.32235340273E+01  0.59548602616E+00  0.46234099813E+01  0.51100000000E-03 0. -1.
        -11    1    3    3    0    0  0.15266126964E+02  0.13187563236E+02  0.13900174296E+02  0.24498597966E+02  0.51100000000E-03 0.  1.
         12    1    3    3    0    0  0.15687016054E+02 -0.24451876500E+02 -0.81762767860E+01  0.30179931066E+02  0.00000000000E+00 0. -1.
</event>
<event>
 7    1  0.1193961E-011  0.5930196E+02  0.7816164E-02  0.1266605E+00
        -11   -1    0    0    0    0  0.00000000000E+00  0.00000000000E+00  0.45593999997E+02  0.45594000000E+02  0.51100000000E-03 0. -1.
         11   -1    0    0    0    0 -0.00000000000E+00 -0.00000000000E+00 -0.45593999997E+02  0.45594000000E+02  0.51100000000E-03 0.  1.
    9900012    2    1    2    0    0 -0.73913161429E+01 -0.24543445016E+02 -0.18965959273E+02  0.59301955110E+02  0.50000020212E+02 0.  0.
         12    1    1    2    0    0  0.73913161429E+01  0.24543445016E+02  0.18965959273E+02  0.31886044890E+02  0.00000000000E+00 0. -1.
         11    1    3    3    0    0  0.40796580678E+01  0.38347228226E+00 -0.82739547763E+01  0.92330378989E+01  0.51100000000E-03 0. -1.
        -11    1    3    3    0    0  0.90753123816E+01 -0.26304840714E+02 -0.26144924943E+01  0.27948908942E+02  0.51100000000E-03 0.  1.
        -12    1    3    3    0    0 -0.20546286592E+02  0.13779234154E+01 -0.80775120023E+01  0.22120008269E+02  0.00000000000E+00 0.  1.
</event>
<event>
 7    1  0.1193961E-011  0.5930195E+02  0.7816164E-02  0.1266605E+00
        -11   -1    0    0    0    0  0.00000000000E+00  0.00000000000E+00  0.45593999997E+02  0.45594000000E+02  0.51100000000E-03 0. -1.
         11   -1    0    0    0    0 -0.00000000000E+00 -0.00000000000E+00 -0.45593999997E+02  0.45594000000E+02  0.51100000000E-03 0.  1.
    9900012    2    1    2    0    0 -0.27310052580E+02 -0.86848779621E+01  0.13980488393E+02  0.59301950812E+02  0.50000012373E+02 0.  0.
         12    1    1    2    0    0  0.27310052580E+02  0.86848779621E+01 -0.13980488393E+02  0.31886049188E+02  0.00000000000E+00 0. -1.
         11    1    3    3    0    0  0.95499524324E+00  0.92185665324E+00  0.10733673325E+02  0.10815432442E+02  0.51100000000E-03 0. -1.
        -11    1    3    3    0    0 -0.17721356192E+02  0.59053540521E+01  0.16977239744E+02  0.25241757889E+02  0.51100000000E-03 0.  1.
        -12    1    3    3    0    0 -0.10543691631E+02 -0.15512088667E+02 -0.13730424676E+02  0.23244760481E+02  0.00000000000E+00 0.  1.
</event>
<event>
 7    1  0.1193961E-011  0.5930195E+02  0.7816164E-02  0.1266605E+00
        -11   -1    0    0    0    0  0.00000000000E+00  0.00000000000E+00  0.45593999997E+02  0.45594000000E+02  0.51100000000E-03 0. -1.
         11   -1    0    0    0    0 -0.00000000000E+00 -0.00000000000E+00 -0.45593999997E+02  0.45594000000E+02  0.51100000000E-03 0.  1.
    9900012    2    1    2    0    0 -0.26127824999E+02 -0.87616561055E+01 -0.16040270545E+02  0.59301950762E+02  0.50000012281E+02 0.  0.
         12    1    1    2    0    0  0.26127824999E+02  0.87616561055E+01  0.16040270545E+02  0.31886049238E+02  0.00000000000E+00 0. -1.
         11    1    3    3    0    0 -0.27412496701E+01 -0.16776491276E+02 -0.10697441800E+02  0.20084829365E+02  0.51100000000E-03 0. -1.
        -11    1    3    3    0    0 -0.11381421020E+02 -0.20061958415E+01  0.11451447410E+02  0.16269517947E+02  0.51100000000E-03 0.  1.
        -12    1    3    3    0    0 -0.12005154309E+02  0.10021031012E+02 -0.16794276155E+02  0.22947603450E+02  0.00000000000E+00 0.  1.
</event>
<event>
 7    1  0.1193961E-011  0.5930193E+02  0.7816164E-02  0.1266605E+00
        -11   -1    0    0    0    0  0.00000000000E+00  0.00000000000E+00  0.45593999997E+02  0.45594000000E+02  0.51100000000E-03 0.  1.
         11   -1    0    0    0    0 -0.00000000000E+00 -0.00000000000E+00 -0.45593999997E+02  0.45594000000E+02  0.51100000000E-03 0. -1.
    9900012    2    1    2    0    0 -0.11035432801E+02  0.18804791145E+02  0.23266293559E+02  0.59301931521E+02  0.49999977190E+02 0.  0.
         12    1    1    2    0    0  0.11035432801E+02 -0.18804791145E+02 -0.23266293559E+02  0.31886068479E+02  0.00000000000E+00 0. -1.
         11    1    3    3    0    0 -0.54307404283E+01 -0.78018422054E+01  0.53811617685E+01  0.10923304703E+02  0.51100000000E-03 0. -1.
        -11    1    3    3    0    0  0.12477498902E+02  0.19101341606E+01  0.11574816453E+02  0.17126382208E+02  0.51100000000E-03 0.  1.
        -12    1    3    3    0    0 -0.18082191274E+02  0.24696499190E+02  0.63103153374E+01  0.31252244610E+02  0.00000000000E+00 0.  1.
</event>
<event>
 7    1  0.1193961E-011  0.5930197E+02  0.7816164E-02  0.1266605E+00
        -11   -1    0    0    0    0  0.00000000000E+00  0.00000000000E+00  0.45593999997E+02  0.45594000000E+02  0.51100000000E-03 0.  1.
         11   -1    0    0    0    0 -0.00000000000E+00 -0.00000000000E+00 -0.45593999997E+02  0.45594000000E+02  0.51100000000E-03 0. -1.
    9900012    2    1    2    0    0  0.20708219223E+02  0.24012909562E+02 -0.33568928721E+01  0.59301970163E+02  0.50000047664E+02 0.  0.
         12    1    1    2    0    0 -0.20708219223E+02 -0.24012909562E+02  0.33568928721E+01  0.31886029837E+02  0.00000000000E+00 0. -1.
         11    1    3    3    0    0 -0.57366885692E+01  0.15865889939E+02  0.53713157391E+01  0.17705566705E+02  0.51100000000E-03 0. -1.
        -11    1    3    3    0    0  0.14650514475E+02 -0.10446525036E+02 -0.23130325141E+00  0.17995026011E+02  0.51100000000E-03 0.  1.
         12    1    3    3    0    0  0.11794393317E+02  0.18593544658E+02 -0.84969053598E+01  0.23601377447E+02  0.00000000000E+00 0. -1.
</event>
<event>
 7    1  0.1193961E-011  0.5930194E+02  0.7816164E-02  0.1266605E+00
        -11   -1    0    0    0    0  0.00000000000E+00  0.00000000000E+00  0.45593999997E+02  0.45594000000E+02  0.51100000000E-03 0. -1.
         11   -1    0    0    0    0 -0.00000000000E+00 -0.00000000000E+00 -0.45593999997E+02  0.45594000000E+02  0.51100000000E-03 0.  1.
    9900012    2    1    2    0    0  0.30835558512E+02 -0.50409177278E+01  0.63622316784E+01  0.59301944863E+02  0.50000001523E+02 0.  0.
         12    1    1    2    0    0 -0.30835558512E+02  0.50409177278E+01 -0.63622316784E+01  0.31886055137E+02  0.00000000000E+00 0. -1.
         11    1    3    3    0    0 -0.35433623932E+01 -0.26283848437E+01 -0.23377599354E+01  0.49928895154E+01  0.51100000000E-03 0. -1.
        -11    1    3    3    0    0 -0.16396803515E+01 -0.48771177530E+01 -0.11742535628E+02  0.12820373336E+02  0.51100000000E-03 0.  1.
         12    1    3    3    0    0  0.36018601257E+02  0.24645848689E+01  0.20442527242E+02  0.41488682012E+02  0.00000000000E+00 0. -1.
</event>
<event>
 7    1  0.1193961E-011  0.5930196E+02  0.7816164E-02  0.1266605E+00
        -11   -1    0    0    0    0  0.00000000000E+00  0.00000000000E+00  0.45593999997E+02  0.45594000000E+02  0.51100000000E-03 0.  1.
         11   -1    0    0    0    0 -0.00000000000E+00 -0.00000000000E+00 -0.45593999997E+02  0.45594000000E+02  0.51100000000E-03 0. -1.
    9900012    2    1    2    0    0  0.31430513396E+02 -0.53155412837E+01  0.76661003107E+00  0.59301955366E+02  0.50000020678E+02 0.  0.
         12    1    1    2    0    0 -0.31430513396E+02  0.53155412837E+01 -0.76661003107E+00  0.31886044634E+02  0.00000000000E+00 0. -1.
         11    1    3    3    0    0  0.35109216233E+01 -0.63913746233E+01  0.58513219385E+00  0.73156421568E+01  0.51100000000E-03 0. -1.
        -11    1    3    3    0    0 -0.99135137737E+00  0.18213568299E+01  0.17932892931E+02  0.18052389520E+02  0.51100000000E-03 0.  1.
         12    1    3    3    0    0  0.28910943150E+02 -0.74552349025E+00 -0.17751415094E+02  0.33933923689E+02  0.00000000000E+00 0. -1.
</event>
<event>
 7    1  0.1193961E-011  0.5930184E+02  0.7816164E-02  0.1266605E+00
        -11   -1    0    0    0    0  0.00000000000E+00  0.00000000000E+00  0.45593999997E+02  0.45594000000E+02  0.51100000000E-03 0. -1.
         11   -1    0    0    0    0 -0.00000000000E+00 -0.00000000000E+00 -0.45593999997E+02  0.45594000000E+02  0.51100000000E-03 0.  1.
    9900012    2    1    2    0    0  0.26551668919E+01 -0.30477223797E+02 -0.89897649658E+01  0.59301843823E+02  0.49999817250E+02 0.  0.
         12    1    1    2    0    0 -0.26551668919E+01  0.30477223797E+02  0.89897649658E+01  0.31886156177E+02  0.00000000000E+00 0. -1.
         11    1    3    3    0    0 -0.12342773496E+02  0.63409395164E+01 -0.30506008782E+01  0.14207664745E+02  0.51100000000E-03 0. -1.
        -11    1    3    3    0    0 -0.89357564551E+00 -0.24405947976E+02 -0.16452547818E+01  0.24477655884E+02  0.51100000000E-03 0.  1.
         12    1    3    3    0    0  0.15891516034E+02 -0.12412215338E+02 -0.42939093057E+01  0.20616523193E+02  0.00000000000E+00 0. -1.
</event>
<event>
 7    1  0.1193961E-011  0.5930194E+02  0.7816164E-02  0.1266605E+00
        -11   -1    0    0    0    0  0.00000000000E+00  0.00000000000E+00  0.45593999997E+02  0.45594000000E+02  0.51100000000E-03 0. -1.
         11   -1    0    0    0    0 -0.00000000000E+00 -0.00000000000E+00 -0.45593999997E+02  0.45594000000E+02  0.51100000000E-03 0.  1.
    9900012    2    1    2    0    0  0.31018936192E+02 -0.66793541870E+00 -0.73552911835E+01  0.59301939588E+02  0.49999991903E+02 0.  0.
         12    1    1    2    0    0 -0.31018936192E+02  0.66793541870E+00  0.73552911835E+01  0.31886060412E+02  0.00000000000E+00 0. -1.
         11    1    3    3    0    0  0.33992029735E+02  0.39774391003E+01 -0.13543408099E+01  0.34250727680E+02  0.51100000000E-03 0. -1.
        -11    1    3    3    0    0  0.42404551623E+01 -0.92182437437E+01 -0.11151978002E+02  0.15077270686E+02  0.51100000000E-03 0.  1.
         12    1    3    3    0    0 -0.72135487056E+01  0.45728692247E+01  0.51510276287E+01  0.99739412223E+01  0.00000000000E+00 0. -1.
</event>
<event>
 7    1  0.1193961E-011  0.5930196E+02  0.7816164E-02  0.1266605E+00
        -11   -1    0    0    0    0  0.00000000000E+00  0.00000000000E+00  0.45593999997E+02  0.45594000000E+02  0.51100000000E-03 0.  1.
         11   -1    0    0    0    0 -0.00000000000E+00 -0.00000000000E+00 -0.45593999997E+02  0.45594000000E+02  0.51100000000E-03 0. -1.
    9900012    2    1    2    0    0  0.57853928176E+01 -0.18639907333E+02  0.25215123127E+02  0.59301963091E+02  0.50000034767E+02 0.  0.
         12    1    1    2    0    0 -0.57853928176E+01  0.18639907333E+02 -0.25215123127E+02  0.31886036909E+02  0.00000000000E+00 0. -1.
         11    1    3    3    0    0 -0.10900911915E+01  0.51460375217E+01 -0.44172671675E+01  0.68689337215E+01  0.51100000000E-03 0. -1.
        -11    1    3    3    0    0  0.12157440369E+01  0.57535335711E+01  0.20007388068E+02  0.20853698944E+02  0.51100000000E-03 0.  1.
         12    1    3    3    0    0  0.56597399722E+01 -0.29539478426E+02  0.96250022274E+01  0.31579330425E+02  0.00000000000E+00 0. -1.
</event>
<event>
 7    1  0.1193961E-011  0.5930195E+02  0.7816164E-02  0.1266605E+00
        -11   -1    0    0    0    0  0.00000000000E+00  0.00000000000E+00  0.45593999997E+02  0.45594000000E+02  0.51100000000E-03 0.  1.
         11   -1    0    0    0    0 -0.00000000000E+00 -0.00000000000E+00 -0.45593999997E+02  0.45594000000E+02  0.51100000000E-03 0. -1.
    9900012    2    1    2    0    0 -0.11456530573E+02 -0.23645296541E+02  0.18065656446E+02  0.59301951576E+02  0.50000013766E+02 0.  0.
         12    1    1    2    0    0  0.11456530573E+02  0.23645296541E+02 -0.18065656446E+02  0.31886048424E+02  0.00000000000E+00 0. -1.
         11    1    3    3    0    0 -0.10367437361E+02 -0.88019419074E+01  0.52138937627E+01  0.14565116793E+02  0.51100000000E-03 0. -1.
        -11    1    3    3    0    0 -0.14404727186E+02 -0.23003562856E+02  0.95649494229E+01  0.28777566386E+02  0.51100000000E-03 0.  1.
         12    1    3    3    0    0  0.13315633974E+02  0.81602082217E+01  0.32868132599E+01  0.15959268397E+02  0.00000000000E+00 0. -1.
</event>
<event>
 7    1  0.1193961E-011  0.5930193E+02  0.7816164E-02  0.1266605E+00
        -11   -1    0    0    0    0  0.00000000000E+00  0.00000000000E+00  0.45593999997E+02  0.45594000000E+02  0.51100000000E-03 0.  1.
         11   -1    0    0    0    0 -0.00000000000E+00 -0.00000000000E+00 -0.45593999997E+02  0.45594000000E+02  0.51100000000E-03 0. -1.
    9900012    2    1    2    0    0  0.98244524800E+01 -0.15198911962E+02  0.26252514159E+02  0.59301932650E+02  0.49999979250E+02 0.  0.
         12    1    1    2    0    0 -0.98244524800E+01  0.15198911962E+02 -0.26252514159E+02  0.31886067350E+02  0.00000000000E+00 0. -1.
         11    1    3    3    0    0  0.19274085276E+02 -0.27815923705E+01  0.96786255244E+00  0.19497804428E+02  0.51100000000E-03 0. -1.
        -11    1    3    3    0    0  0.65365176575E+01 -0.38360461505E+01 -0.12277179356E+01  0.76777994729E+01  0.51100000000E-03 0.  1.
        -12    1    3    3    0    0 -0.15986150453E+02 -0.85812734406E+01  0.26512369542E+02  0.32126328750E+02  0.00000000000E+00 0.  1.
</event>
<event>
 7    1  0.1193961E-011  0.5930194E+02  0.7816164E-02  0.1266605E+00
        -11   -1    0    0    0    0  0.00000000000E+00  0.00000000000E+00  0.45593999997E+02  0.45594000000E+02  0.51100000000E-03 0.  1.
         11   -1    0    0    0    0 -0.00000000000E+00 -0.00000000000E+00 -0.45593999997E+02  0.45594000000E+02  0.51100000000E-03 0. -1.
    9900012    2    1    2    0    0  0.53196303715E+01  0.30611163497E+02  0.71678947981E+01  0.59301944839E+02  0.50000001479E+02 0.  0.
         12    1    1    2    0    0 -0.53196303715E+01 -0.30611163497E+02 -0.71678947981E+01  0.31886055161E+02  0.00000000000E+00 0. -1.
         11    1    3    3    0    0 -0.15391245207E+02  0.62481931950E+01 -0.25332285543E+01  0.16803201909E+02  0.51100000000E-03 0.  1.
        -11    1    3    3    0    0  0.92195801644E+01  0.11324724486E+02  0.18050357055E+02  0.23217782693E+02  0.51100000000E-03 0. -1.
         12    1    3    3    0    0  0.11491295414E+02  0.13038245816E+02 -0.83492337031E+01  0.19280960237E+02  0.00000000000E+00 0. -1.
</event>
<event>
 7    1  0.1193961E-011  0.5930196E+02  0.7816164E-02  0.1266605E+00
        -11   -1    0    0    0    0  0.00000000000E+00  0.00000000000E+00  0.45593999997E+02  0.45594000000E+02  0.51100000000E-03 0. -1.
         11   -1    0    0    0    0 -0.00000000000E+00 -0.00000000000E+00 -0.45593999997E+02  0.45594000000E+02  0.51100000000E-03 0.  1.
    9900012    2    1    2    0    0  0.11541680273E+02  0.25477541170E+02  0.15310261190E+02  0.59301959398E+02  0.50000028032E+02 0.  0.
         12    1    1    2    0    0 -0.11541680273E+02 -0.25477541170E+02 -0.15310261190E+02  0.31886040602E+02  0.00000000000E+00 0. -1.
         11    1    3    3    0    0  0.25847934281E+02  0.67949745582E+01  0.13744744274E+02  0.30053375538E+02  0.51100000000E-03 0.  1.
        -11    1    3    3    0    0 -0.20239908652E+01 -0.26696466011E+01  0.31050347559E+01  0.45677995899E+01  0.51100000000E-03 0. -1.
        -12    1    3    3    0    0 -0.12282263143E+02  0.21352213213E+02 -0.15395178400E+01  0.24680784270E+02  0.00000000000E+00 0.  1.
</event>
<event>
 7    1  0.1193961E-011  0.5930216E+02  0.7816164E-02  0.1266604E+00
        -11   -1    0    0    0    0  0.00000000000E+00  0.00000000000E+00  0.45593999997E+02  0.45594000000E+02  0.51100000000E-03 0.  1.
         11   -1    0    0    0    0 -0.00000000000E+00 -0.00000000000E+00 -0.45593999997E+02  0.45594000000E+02  0.51100000000E-03 0. -1.
    9900012    2    1    2    0    0 -0.12502975356E+01 -0.11067703013E+02  0.29877240503E+02  0.59302159976E+02  0.50000393837E+02 0.  0.
         12    1    1    2    0    0  0.12502975356E+01  0.11067703013E+02 -0.29877240503E+02  0.31885840024E+02  0.00000000000E+00 0. -1.
         11    1    3    3    0    0  0.14520225221E+02  0.73440206977E+01  0.30642425962E+01  0.16557812761E+02  0.51100000000E-03 0. -1.
        -11    1    3    3    0    0 -0.15866673626E+01  0.46441456516E+01  0.92653330811E+01  0.10484846185E+02  0.51100000000E-03 0.  1.
        -12    1    3    3    0    0 -0.14183855394E+02 -0.23055869362E+02  0.17547664826E+02  0.32259501031E+02  0.00000000000E+00 0.  1.
</event>
<event>
 7    1  0.1193961E-011  0.5930194E+02  0.7816164E-02  0.1266605E+00
        -11   -1    0    0    0    0  0.00000000000E+00  0.00000000000E+00  0.45593999997E+02  0.45594000000E+02  0.51100000000E-03 0. -1.
         11   -1    0    0    0    0 -0.00000000000E+00 -0.00000000000E+00 -0.45593999997E+02  0.45594000000E+02  0.51100000000E-03 0.  1.
    9900012    2    1    2    0    0 -0.13434136971E+02  0.15015128203E+02 -0.24714182594E+02  0.59301938274E+02  0.49999989506E+02 0.  0.
         12    1    1    2    0    0  0.13434136971E+02 -0.15015128203E+02  0.24714182594E+02  0.31886061726E+02  0.00000000000E+00 0. -1.
         11    1    3    3    0    0  0.19366965669E+01  0.11369374362E+02  0.45229420820E+01  0.12388319995E+02  0.51100000000E-03 0. -1.
        -11    1    3    3    0    0 -0.33561238684E+01  0.17462318722E+02 -0.18626159630E+02  0.25751309975E+02  0.51100000000E-03 0.  1.
        -12    1    3    3    0    0 -0.12014709669E+02 -0.13816564881E+02 -0.10610965046E+02  0.21162308304E+02  0.00000000000E+00 0.  1.
</event>
<event>
 7    1  0.1193961E-011  0.5930194E+02  0.7816164E-02  0.1266605E+00
        -11   -1    0    0    0    0  0.00000000000E+00  0.00000000000E+00  0.45593999997E+02  0.45594000000E+02  0.51100000000E-03 0.  1.
         11   -1    0    0    0    0 -0.00000000000E+00 -0.00000000000E+00 -0.45593999997E+02  0.45594000000E+02  0.51100000000E-03 0. -1.
    9900012    2    1    2    0    0 -0.26820486650E+02  0.65964664489E+01  0.15933256959E+02  0.59301944254E+02  0.50000000412E+02 0.  0.
         12    1    1    2    0    0  0.26820486650E+02 -0.65964664489E+01 -0.15933256959E+02  0.31886055746E+02  0.00000000000E+00 0. -1.
         11    1    3    3    0    0 -0.19011852744E+02 -0.20377695507E+01  0.32152487716E+01  0.19389194785E+02  0.51100000000E-03 0. -1.
        -11    1    3    3    0    0 -0.13029544253E+02 -0.10746649677E+02  0.15943491375E+01  0.16964711968E+02  0.51100000000E-03 0.  1.
        -12    1    3    3    0    0  0.52209103471E+01  0.19380885677E+02  0.11123659050E+02  0.22948037501E+02  0.00000000000E+00 0.  1.
</event>
<event>
 7    1  0.1193961E-011  0.5930195E+02  0.7816164E-02  0.1266605E+00
        -11   -1    0    0    0    0  0.00000000000E+00  0.00000000000E+00  0.45593999997E+02  0.45594000000E+02  0.51100000000E-03 0.  1.
         11   -1    0    0    0    0 -0.00000000000E+00 -0.00000000000E+00 -0.45593999997E+02  0.45594000000E+02  0.51100000000E-03 0. -1.
    9900012    2    1    2    0    0  0.15757682283E+02  0.18194937875E+02  0.20913148897E+02  0.59301951138E+02  0.50000012968E+02 0.  0.
         12    1    1    2    0    0 -0.15757682283E+02 -0.18194937875E+02 -0.20913148897E+02  0.31886048862E+02  0.00000000000E+00 0. -1.
         11    1    3    3    0    0 -0.27768593659E+01  0.29366793919E+02  0.19122982767E+02  0.35154060977E+02  0.51100000000E-03 0. -1.
        -11    1    3    3    0    0  0.47080438519E+01  0.11643317301E+01  0.27827625106E+01  0.55915215050E+01  0.51100000000E-03 0.  1.
        -12    1    3    3    0    0  0.13826497797E+02 -0.12336187774E+02 -0.99259638008E+00  0.18556368656E+02  0.00000000000E+00 0.  1.
</event>
<event>
 7    1  0.1193961E-011  0.5930195E+02  0.7816164E-02  0.1266605E+00
        -11   -1    0    0    0    0  0.00000000000E+00  0.00000000000E+00  0.45593999997E+02  0.45594000000E+02  0.51100000000E-03 0.  1.
         11   -1    0    0    0    0 -0.00000000000E+00 -0.00000000000E+00 -0.45593999997E+02  0.45594000000E+02  0.51100000000E-03 0. -1.
    9900012    2    1    2    0    0 -0.79709272639E+01 -0.12519719398E+02  0.28221292895E+02  0.59301946185E+02  0.50000003934E+02 0.  0.
         12    1    1    2    0    0  0.79709272639E+01  0.12519719398E+02 -0.28221292895E+02  0.31886053815E+02  0.00000000000E+00 0. -1.
         11    1    3    3    0    0  0.79083907776E+01 -0.15369650778E+02  0.16875099021E+01  0.17367109709E+02  0.51100000000E-03 0. -1.
        -11    1    3    3    0    0 -0.17159150288E+02 -0.95963412401E+01  0.13383246743E+02  0.23783134728E+02  0.51100000000E-03 0.  1.
         12    1    3    3    0    0  0.12798322468E+01  0.12446272620E+02  0.13150536249E+02  0.18151701748E+02  0.00000000000E+00 0. -1.
</event>
<event>
 7    1  0.1193961E-011  0.5930198E+02  0.7816164E-02  0.1266605E+00
        -11   -1    0    0    0    0  0.00000000000E+00  0.00000000000E+00  0.45593999997E+02  0.45594000000E+02  0.51100000000E-03 0. -1.
         11   -1    0    0    0    0 -0.00000000000E+00 -0.00000000000E+00 -0.45593999997E+02  0.45594000000E+02  0.51100000000E-03 0.  1.
    9900012    2    1    2    0    0  0.16093543894E+02 -0.13746442136E+02 -0.23848512755E+02  0.59301978186E+02  0.50000062297E+02 0.  0.
         12    1    1    2    0    0 -0.16093543894E+02  0.13746442136E+02  0.23848512755E+02  0.31886021814E+02  0.00000000000E+00 0. -1.
         11    1    3    3    0    0  0.33851849641E+01 -0.12431705743E+02 -0.25272969527E+01  0.13129890139E+02  0.51100000000E-03 0. -1.
        -11    1    3    3    0    0  0.10026982391E+02 -0.18188132811E+02 -0.27712604948E+01  0.20953005417E+02  0.51100000000E-03 0.  1.
        -12    1    3    3    0    0  0.26813765387E+01  0.16873396417E+02 -0.18549955307E+02  0.25219082630E+02  0.00000000000E+00 0.  1.
</event>
<event>
 7    1  0.1193961E-011  0.5930201E+02  0.7816164E-02  0.1266605E+00
        -11   -1    0    0    0    0  0.00000000000E+00  0.00000000000E+00  0.45593999997E+02  0.45594000000E+02  0.51100000000E-03 0.  1.
         11   -1    0    0    0    0 -0.00000000000E+00 -0.00000000000E+00 -0.45593999997E+02  0.45594000000E+02  0.51100000000E-03 0. -1.
    9900012    2    1    2    0    0 -0.22594173979E+01 -0.21480837309E+02  0.23456016557E+02  0.59302014815E+02  0.50000129099E+02 0.  0.
         12    1    1    2    0    0  0.22594173979E+01  0.21480837309E+02 -0.23456016557E+02  0.31885985185E+02  0.00000000000E+00 0. -1.
         11    1    3    3    0    0  0.26978635880E+01 -0.25609444767E+02  0.21965911717E+02  0.33847059060E+02  0.51100000000E-03 0. -1.
        -11    1    3    3    0    0 -0.34025096673E+01  0.58716649976E+00  0.12927834679E+02  0.13380984504E+02  0.51100000000E-03 0.  1.
         12    1    3    3    0    0 -0.15547713185E+01  0.35414409577E+01 -0.11437729839E+02  0.12073971251E+02  0.00000000000E+00 0. -1.
</event>
<event>
 7    1  0.1193961E-011  0.5930194E+02  0.7816164E-02  0.1266605E+00
        -11   -1    0    0    0    0  0.00000000000E+00  0.00000000000E+00  0.45593999997E+02  0.45594000000E+02  0.51100000000E-03 0.  1.
         11   -1    0    0    0    0 -0.00000000000E+00 -0.00000000000E+00 -0.45593999997E+02  0.45594000000E+02  0.51100000000E-03 0. -1.
    9900012    2    1    2    0    0 -0.15004131448E+02 -0.12066654151E+02  0.25416386451E+02  0.59301940301E+02  0.49999993203E+02 0.  0.
         12    1    1    2    0    0  0.15004131448E+02  0.12066654151E+02 -0.25416386451E+02  0.31886059699E+02  0.00000000000E+00 0. -1.
         11    1    3    3    0    0  0.64066441971E+01 -0.95320421883E+01  0.89376124033E+01  0.14552863425E+02  0.51100000000E-03 0. -1.
        -11    1    3    3    0    0 -0.10674179144E+01 -0.13816554950E+02 -0.32654835485E+01  0.14237273432E+02  0.51100000000E-03 0.  1.
        -12    1    3    3    0    0 -0.20343357730E+02  0.11281942988E+02  0.19744257597E+02  0.30511803444E+02  0.00000000000E+00 0.  1.
</event>
<event>
 7    1  0.1193961E-011  0.5930194E+02  0.7816164E-02  0.1266605E+00
        -11   -1    0    0    0    0  0.00000000000E+00  0.00000000000E+00  0.45593999997E+02  0.45594000000E+02  0.51100000000E-03 0.  1.
         11   -1    0    0    0    0 -0.00000000000E+00 -0.00000000000E+00 -0.45593999997E+02  0.45594000000E+02  0.51100000000E-03 0. -1.
    9900012    2    1    2    0    0 -0.16855572432E+02 -0.58835621675E+01  0.26419580768E+02  0.59301939193E+02  0.49999991183E+02 0.  0.
         12    1    1    2    0    0  0.16855572432E+02  0.58835621675E+01 -0.26419580768E+02  0.31886060807E+02  0.00000000000E+00 0. -1.
         11    1    3    3    0    0  0.83596174430E+01  0.11424281666E+02 -0.88426785683E+00  0.14183770489E+02  0.51100000000E-03 0. -1.
        -11    1    3    3    0    0  0.12587372286E+01  0.62096820879E+00 -0.15209314991E+01  0.20696023321E+01  0.51100000000E-03 0.  1.
        -12    1    3    3    0    0 -0.26473927104E+02 -0.17928812042E+02  0.28824780124E+02  0.43048566373E+02  0.00000000000E+00 0.  1.
</event>
<event>
 7    1  0.1193961E-011  0.5930222E+02  0.7816164E-02  0.1266604E+00
        -11   -1    0    0    0    0  0.00000000000E+00  0.00000000000E+00  0.45593999997E+02  0.45594000000E+02  0.51100000000E-03 0.  1.
         11   -1    0    0    0    0 -0.00000000000E+00 -0.00000000000E+00 -0.45593999997E+02  0.45594000000E+02  0.51100000000E-03 0. -1.
    9900012    2    1    2    0    0  0.12189872600E+02 -0.25168090377E+02  0.15319171199E+02  0.59302223023E+02  0.50000508818E+02 0.  0.
         12    1    1    2    0    0 -0.12189872600E+02  0.25168090377E+02 -0.15319171199E+02  0.31885776977E+02  0.00000000000E+00 0. -1.
         11    1    3    3    0    0 -0.19645643295E+01 -0.16824386110E+02  0.20153932866E+02  0.26326801765E+02  0.51100000000E-03 0. -1.
        -11    1    3    3    0    0  0.60828360811E+00  0.19685468793E+01  0.10112429204E+02  0.10320194302E+02  0.51100000000E-03 0.  1.
         12    1    3    3    0    0  0.13546153321E+02 -0.10312251146E+02 -0.14947190871E+02  0.22655226956E+02  0.00000000000E+00 0. -1.
</event>
<event>
 7    1  0.1193961E-011  0.5930194E+02  0.7816164E-02  0.1266605E+00
        -11   -1    0    0    0    0  0.00000000000E+00  0.00000000000E+00  0.45593999997E+02  0.45594000000E+02  0.51100000000E-03 0.  1.
         11   -1    0    0    0    0 -0.00000000000E+00 -0.00000000000E+00 -0.45593999997E+02  0.45594000000E+02  0.51100000000E-03 0. -1.
    9900012    2    1    2    0    0  0.18541792994E+02  0.16884915805E+02  0.19693207793E+02  0.59301938745E+02  0.49999990366E+02 0.  0.
         12    1    1    2    0    0 -0.18541792994E+02 -0.16884915805E+02 -0.19693207793E+02  0.31886061255E+02  0.00000000000E+00 0. -1.
         11    1    3    3    0    0 -0.46188958736E+01  0.12877841828E+02  0.86533319507E+01  0.16188056194E+02  0.51100000000E-03 0. -1.
        -11    1    3    3    0    0 -0.72366188967E+01  0.54035142659E+01  0.87878318048E+01  0.12601293885E+02  0.51100000000E-03 0.  1.
         12    1    3    3    0    0  0.30397307764E+02 -0.13964402885E+01  0.22520440378E+01  0.30512588666E+02  0.00000000000E+00 0. -1.
</event>
<event>
 7    1  0.1193961E-011  0.5930195E+02  0.7816164E-02  0.1266605E+00
        -11   -1    0    0    0    0  0.00000000000E+00  0.00000000000E+00  0.45593999997E+02  0.45594000000E+02  0.51100000000E-03 0.  1.
         11   -1    0    0    0    0 -0.00000000000E+00 -0.00000000000E+00 -0.45593999997E+02  0.45594000000E+02  0.51100000000E-03 0. -1.
    9900012    2    1    2    0    0  0.31625742646E+02 -0.40474442780E+01  0.38841249757E+00  0.59301948702E+02  0.50000008526E+02 0.  0.
         12    1    1    2    0    0 -0.31625742646E+02  0.40474442780E+01 -0.38841249757E+00  0.31886051298E+02  0.00000000000E+00 0. -1.
         11    1    3    3    0    0  0.18708289279E+02  0.15590465137E+02  0.89606172692E+01  0.25949091565E+02  0.51100000000E-03 0. -1.
        -11    1    3    3    0    0  0.18146368744E+01  0.43289229767E+01  0.17280998760E+01  0.50018807030E+01  0.51100000000E-03 0.  1.
         12    1    3    3    0    0  0.11102816492E+02 -0.23966832392E+02 -0.10300304648E+02  0.28350976434E+02  0.00000000000E+00 0. -1.
</event>
<event>
 7    1  0.1193961E-011  0.5930199E+02  0.7816164E-02  0.1266605E+00
        -11   -1    0    0    0    0  0.00000000000E+00  0.00000000000E+00  0.45593999997E+02  0.45594000000E+02  0.51100000000E-03 0.  1.
         11   -1    0    0    0    0 -0.00000000000E+00 -0.00000000000E+00 -0.45593999997E+02  0.45594000000E+02  0.51100000000E-03 0. -1.
    9900012    2    1    2    0    0 -0.45476202477E+01  0.57490896753E+01  0.31031995402E+02  0.59301990205E+02  0.50000084217E+02 0.  0.
         12    1    1    2    0    0  0.45476202477E+01 -0.57490896753E+01 -0.31031995402E+02  0.31886009795E+02  0.00000000000E+00 0. -1.
         11    1    3    3    0    0 -0.10427964310E+01  0.14549345816E+01  0.54096635167E+00  0.18700010396E+01  0.51100000000E-03 0. -1.
        -11    1    3    3    0    0  0.11698144004E+00  0.23701844638E+02  0.29253530972E+02  0.37650500641E+02  0.51100000000E-03 0.  1.
         12    1    3    3    0    0 -0.36218052568E+01 -0.19407689544E+02  0.12374980780E+01  0.19781488525E+02  0.00000000000E+00 0. -1.
</event>
<event>
 7    1  0.1193961E-011  0.5930191E+02  0.7816164E-02  0.1266605E+00
        -11   -1    0    0    0    0  0.00000000000E+00  0.00000000000E+00  0.45593999997E+02  0.45594000000E+02  0.51100000000E-03 0.  1.
         11   -1    0    0    0    0 -0.00000000000E+00 -0.00000000000E+00 -0.45593999997E+02  0.45594000000E+02  0.51100000000E-03 0. -1.
    9900012    2    1    2    0    0 -0.14277781847E+02 -0.32473887949E+01  0.28325290759E+02  0.59301910791E+02  0.49999939385E+02 0.  0.
         12    1    1    2    0    0  0.14277781847E+02  0.32473887949E+01 -0.28325290759E+02  0.31886089209E+02  0.00000000000E+00 0. -1.
         11    1    3    3    0    0  0.21772652228E+01 -0.17695325173E+02  0.91081044187E+01  0.20020554018E+02  0.51100000000E-03 0. -1.
        -11    1    3    3    0    0 -0.17563439067E+02 -0.95819853725E+00  0.15381471947E+02  0.23366262341E+02  0.51100000000E-03 0.  1.
         12    1    3    3    0    0  0.11083919970E+01  0.15406134916E+02  0.38357143932E+01  0.15915094431E+02  0.00000000000E+00 0. -1.
</event>
<event>
 7    1  0.1193961E-011  0.5930194E+02  0.7816164E-02  0.1266605E+00
        -11   -1    0    0    0    0  0.00000000000E+00  0.00000000000E+00  0.45593999997E+02  0.45594000000E+02  0.51100000000E-03 0. -1.
         11   -1    0    0    0    0 -0.00000000000E+00 -0.00000000000E+00 -0.45593999997E+02  0.45594000000E+02  0.51100000000E-03 0.  1.
    9900012    2    1    2    0    0 -0.20398980404E+02 -0.13044144658E+02 -0.20747361746E+02  0.59301935163E+02  0.49999983833E+02 0.  0.
         12    1    1    2    0    0  0.20398980404E+02  0.13044144658E+02  0.20747361746E+02  0.31886064837E+02  0.00000000000E+00 0. -1.
         11    1    3    3    0    0 -0.10839056491E+02 -0.15464927164E+02 -0.29663965634E+02  0.35165323476E+02  0.51100000000E-03 0. -1.
        -11    1    3    3    0    0  0.19460398894E+01 -0.18069907204E+01 -0.49569318829E+01  0.56234740746E+01  0.51100000000E-03 0.  1.
         12    1    3    3    0    0 -0.11505963802E+02  0.42277732265E+01  0.13873535771E+02  0.18513137612E+02  0.00000000000E+00 0. -1.
</event>
<event>
 7    1  0.1193961E-011  0.5930197E+02  0.7816164E-02  0.1266605E+00
        -11   -1    0    0    0    0  0.00000000000E+00  0.00000000000E+00  0.45593999997E+02  0.45594000000E+02  0.51100000000E-03 0.  1.
         11   -1    0    0    0    0 -0.00000000000E+00 -0.00000000000E+00 -0.45593999997E+02  0.45594000000E+02  0.51100000000E-03 0. -1.
    9900012    2    1    2    0    0 -0.77322772810E+01 -0.30380814894E+02  0.58255134925E+01  0.59301974330E+02  0.50000055264E+02 0.  0.
         12    1    1    2    0    0  0.77322772810E+01  0.30380814894E+02 -0.58255134925E+01  0.31886025670E+02  0.00000000000E+00 0. -1.
         11    1    3    3    0    0  0.89873075061E+01 -0.17459975300E+02  0.17588500824E+02  0.26362431511E+02  0.51100000000E-03 0. -1.
        -11    1    3    3    0    0  0.20006680448E+01 -0.10544612966E+02 -0.56513868915E-01  0.10732880755E+02  0.51100000000E-03 0.  1.
        -12    1    3    3    0    0 -0.18720252832E+02 -0.23762266274E+01 -0.11706473462E+02  0.22206662063E+02  0.00000000000E+00 0.  1.
</event>
<event>
 7    1  0.1193961E-011  0.5930196E+02  0.7816164E-02  0.1266605E+00
        -11   -1    0    0    0    0  0.00000000000E+00  0.00000000000E+00  0.45593999997E+02  0.45594000000E+02  0.51100000000E-03 0.  1.
         11   -1    0    0    0    0 -0.00000000000E+00 -0.00000000000E+00 -0.45593999997E+02  0.45594000000E+02  0.51100000000E-03 0. -1.
    9900012    2    1    2    0    0 -0.51815091143E-01  0.27793382838E+02  0.15628329196E+02  0.59301960926E+02  0.50000030818E+02 0.  0.
         12    1    1    2    0    0  0.51815091143E-01 -0.27793382838E+02 -0.15628329196E+02  0.31886039074E+02  0.00000000000E+00 0. -1.
         11    1    3    3    0    0  0.26125370970E+01  0.11067797707E+00 -0.68413044399E+01  0.73240048060E+01  0.51100000000E-03 0. -1.
        -11    1    3    3    0    0 -0.17874094819E+02  0.13828507449E+02  0.15736893191E+01  0.22653639491E+02  0.51100000000E-03 0.  1.
         12    1    3    3    0    0  0.15209742631E+02  0.13854197412E+02  0.20895944317E+02  0.29324316628E+02  0.00000000000E+00 0. -1.
</event>
<event>
 7    1  0.1193961E-011  0.5930195E+02  0.7816164E-02  0.1266605E+00
        -11   -1    0    0    0    0  0.00000000000E+00  0.00000000000E+00  0.45593999997E+02  0.45594000000E+02  0.51100000000E-03 0.  1.
         11   -1    0    0    0    0 -0.00000000000E+00 -0.00000000000E+00 -0.45593999997E+02  0.45594000000E+02  0.51100000000E-03 0. -1.
    9900012    2    1    2    0    0  0.26471222333E+02 -0.92364074953E+01  0.15188258951E+02  0.59301952186E+02  0.50000014879E+02 0.  0.
         12    1    1    2    0    0 -0.26471222333E+02  0.92364074953E+01 -0.15188258951E+02  0.31886047814E+02  0.00000000000E+00 0. -1.
         11    1    3    3    0    0  0.16359469914E+02 -0.93400335465E+01 -0.53953782390E+01  0.19595371625E+02  0.51100000000E-03 0. -1.
        -11    1    3    3    0    0  0.53134314575E+01 -0.68227601106E+01 -0.68348323104E+01  0.11022592361E+02  0.51100000000E-03 0.  1.
        -12    1    3    3    0    0  0.47983209613E+01  0.69263861618E+01  0.27418469500E+02  0.28683988200E+02  0.00000000000E+00 0.  1.
</event>
<event>
 7    1  0.1193961E-011  0.5930193E+02  0.7816164E-02  0.1266605E+00
        -11   -1    0    0    0    0  0.00000000000E+00  0.00000000000E+00  0.45593999997E+02  0.45594000000E+02  0.51100000000E-03 0.  1.
         11   -1    0    0    0    0 -0.00000000000E+00 -0.00000000000E+00 -0.45593999997E+02  0.45594000000E+02  0.51100000000E-03 0. -1.
    9900012    2    1    2    0    0 -0.21051977189E+02  0.12606964869E+02  0.20361734940E+02  0.59301928487E+02  0.49999971658E+02 0.  0.
         12    1    1    2    0    0  0.21051977189E+02 -0.12606964869E+02 -0.20361734940E+02  0.31886071513E+02  0.00000000000E+00 0. -1.
         11    1    3    3    0    0 -0.15317994563E+02  0.18416430778E+02  0.26445042795E+02  0.35681173870E+02  0.51100000000E-03 0. -1.
        -11    1    3    3    0    0 -0.77761110635E+01 -0.20990909280E+01  0.64960335783E+01  0.10347586120E+02  0.51100000000E-03 0.  1.
         12    1    3    3    0    0  0.20421284385E+01 -0.37103749809E+01 -0.12579341433E+02  0.13273168497E+02  0.00000000000E+00 0. -1.
</event>
<event>
 7    1  0.1193961E-011  0.5930193E+02  0.7816164E-02  0.1266605E+00
        -11   -1    0    0    0    0  0.00000000000E+00  0.00000000000E+00  0.45593999997E+02  0.45594000000E+02  0.51100000000E-03 0. -1.
         11   -1    0    0    0    0 -0.00000000000E+00 -0.00000000000E+00 -0.45593999997E+02  0.45594000000E+02  0.51100000000E-03 0.  1.
    9900012    2    1    2    0    0 -0.89704593124E+01 -0.22220475689E+02 -0.21035752158E+02  0.59301928605E+02  0.49999971873E+02 0.  0.
         12    1    1    2    0    0  0.89704593124E+01  0.22220475689E+02  0.21035752158E+02  0.31886071395E+02  0.00000000000E+00 0. -1.
         11    1    3    3    0    0 -0.70980475669E+01  0.11031949347E+02 -0.12162104318E+02  0.17888626760E+02  0.51100000000E-03 0. -1.
        -11    1    3    3    0    0 -0.59474420566E+01 -0.12743483506E+02 -0.14042962932E+02  0.19873933859E+02  0.51100000000E-03 0.  1.
         12    1    3    3    0    0  0.40750303111E+01 -0.20508941530E+02  0.51693150914E+01  0.21539367986E+02  0.00000000000E+00 0. -1.
</event>
<event>
 7    1  0.1193961E-011  0.5930195E+02  0.7816164E-02  0.1266605E+00
        -11   -1    0    0    0    0  0.00000000000E+00  0.00000000000E+00  0.45593999997E+02  0.45594000000E+02  0.51100000000E-03 0. -1.
         11   -1    0    0    0    0 -0.00000000000E+00 -0.00000000000E+00 -0.45593999997E+02  0.45594000000E+02  0.51100000000E-03 0.  1.
    9900012    2    1    2    0    0 -0.87373498801E+01  0.30600674505E+02  0.19944621266E+01  0.59301945960E+02  0.50000003524E+02 0.  0.
         12    1    1    2    0    0  0.87373498801E+01 -0.30600674505E+02 -0.19944621266E+01  0.31886054040E+02  0.00000000000E+00 0. -1.
         11    1    3    3    0    0 -0.55472108515E+01 -0.58195739139E+01 -0.88417249554E+01  0.11950526734E+02  0.51100000000E-03 0.  1.
        -11    1    3    3    0    0 -0.79476560015E+01  0.39253614477E+01  0.11479833913E+02  0.14503802445E+02  0.51100000000E-03 0. -1.
         12    1    3    3    0    0  0.47575169729E+01  0.32494886971E+02 -0.64364683135E+00  0.32847616782E+02  0.00000000000E+00 0. -1.
</event>
<event>
 7    1  0.1193961E-011  0.5930194E+02  0.7816164E-02  0.1266605E+00
        -11   -1    0    0    0    0  0.00000000000E+00  0.00000000000E+00  0.45593999997E+02  0.45594000000E+02  0.51100000000E-03 0. -1.
         11   -1    0    0    0    0 -0.00000000000E+00 -0.00000000000E+00 -0.45593999997E+02  0.45594000000E+02  0.51100000000E-03 0.  1.
    9900012    2    1    2    0    0  0.25996278700E+02  0.27402236611E+00  0.18461823744E+02  0.59301944577E+02  0.50000001002E+02 0.  0.
         12    1    1    2    0    0 -0.25996278700E+02 -0.27402236611E+00 -0.18461823744E+02  0.31886055423E+02  0.00000000000E+00 0. -1.
         11    1    3    3    0    0 -0.67030527375E+01 -0.70083993318E+01 -0.64131413411E+01  0.11626562661E+02  0.51100000000E-03 0. -1.
        -11    1    3    3    0    0  0.89766580667E+01  0.54882234335E+00 -0.38799090551E+01  0.97946562241E+01  0.51100000000E-03 0.  1.
        -12    1    3    3    0    0  0.23722673370E+02  0.67335993545E+01  0.28754874140E+02  0.37880725692E+02  0.00000000000E+00 0.  1.
</event>
<event>
 7    1  0.1193961E-011  0.5930195E+02  0.7816164E-02  0.1266605E+00
        -11   -1    0    0    0    0  0.00000000000E+00  0.00000000000E+00  0.45593999997E+02  0.45594000000E+02  0.51100000000E-03 0.  1.
         11   -1    0    0    0    0 -0.00000000000E+00 -0.00000000000E+00 -0.45593999997E+02  0.45594000000E+02  0.51100000000E-03 0. -1.
    9900012    2    1    2    0    0  0.25960637555E+02  0.38500946057E+01  0.18109179049E+02  0.59301948245E+02  0.50000007691E+02 0.  0.
         12    1    1    2    0    0 -0.25960637555E+02 -0.38500946057E+01 -0.18109179049E+02  0.31886051755E+02  0.00000000000E+00 0. -1.
         11    1    3    3    0    0  0.46717562368E+01  0.20196019428E+01 -0.91765929788E+01  0.10493519777E+02  0.51100000000E-03 0. -1.
        -11    1    3    3    0    0  0.21114670683E+02  0.12424371373E+02  0.62942481280E+01  0.25294502996E+02  0.51100000000E-03 0.  1.
         12    1    3    3    0    0  0.17421063463E+00 -0.10593878710E+02  0.20991523900E+02  0.23513925472E+02  0.00000000000E+00 0. -1.
</event>
<event>
 7    1  0.1193961E-011  0.5930193E+02  0.7816164E-02  0.1266605E+00
        -11   -1    0    0    0    0  0.00000000000E+00  0.00000000000E+00  0.45593999997E+02  0.45594000000E+02  0.51100000000E-03 0. -1.
         11   -1    0    0    0    0 -0.00000000000E+00 -0.00000000000E+00 -0.45593999997E+02  0.45594000000E+02  0.51100000000E-03 0.  1.
    9900012    2    1    2    0    0  0.24514661759E+02 -0.31734621858E+01 -0.20141542981E+02  0.59301933183E+02  0.49999980223E+02 0.  0.
         12    1    1    2    0    0 -0.24514661759E+02  0.31734621858E+01  0.20141542981E+02  0.31886066817E+02  0.00000000000E+00 0. -1.
         11    1    3    3    0    0 -0.17120731879E+01 -0.19070420398E+01 -0.19487073015E+01  0.32195441215E+01  0.51100000000E-03 0. -1.
        -11    1    3    3    0    0  0.10991632320E+02 -0.14249907991E+02 -0.28393241133E+02  0.33616246089E+02  0.51100000000E-03 0.  1.
        -12    1    3    3    0    0  0.15235102626E+02  0.12983487845E+02  0.10200405454E+02  0.22466142973E+02  0.00000000000E+00 0.  1.
</event>
<event>
 7    1  0.1193961E-011  0.5930194E+02  0.7816164E-02  0.1266605E+00
        -11   -1    0    0    0    0  0.00000000000E+00  0.00000000000E+00  0.45593999997E+02  0.45594000000E+02  0.51100000000E-03 0.  1.
         11   -1    0    0    0    0 -0.00000000000E+00 -0.00000000000E+00 -0.45593999997E+02  0.45594000000E+02  0.51100000000E-03 0. -1.
    9900012    2    1    2    0    0 -0.21338223867E+01  0.31808631062E+02 -0.61506418141E+00  0.59301944867E+02  0.50000001531E+02 0.  0.
         12    1    1    2    0    0  0.21338223867E+01 -0.31808631062E+02  0.61506418141E+00  0.31886055133E+02  0.00000000000E+00 0. -1.
         11    1    3    3    0    0  0.16559304103E+02  0.20331826881E+02 -0.80336964453E+01  0.27425061815E+02  0.51100000000E-03 0. -1.
        -11    1    3    3    0    0 -0.91249526681E+01  0.13710714236E+02  0.12630005496E+02  0.20754890632E+02  0.51100000000E-03 0.  1.
        -12    1    3    3    0    0 -0.95681738217E+01 -0.22339100560E+01 -0.52113732324E+01  0.11121992420E+02  0.00000000000E+00 0.  1.
</event>
<event>
 7    1  0.1193961E-011  0.5930201E+02  0.7816164E-02  0.1266605E+00
        -11   -1    0    0    0    0  0.00000000000E+00  0.00000000000E+00  0.45593999997E+02  0.45594000000E+02  0.51100000000E-03 0. -1.
         11   -1    0    0    0    0 -0.00000000000E+00 -0.00000000000E+00 -0.45593999997E+02  0.45594000000E+02  0.51100000000E-03 0.  1.
    9900012    2    1    2    0    0  0.52993824716E+01 -0.38549418005E+01 -0.31205328403E+02  0.59302006968E+02  0.50000114788E+02 0.  0.
         12    1    1    2    0    0 -0.52993824716E+01  0.38549418005E+01  0.31205328403E+02  0.31885993032E+02  0.00000000000E+00 0. -1.
         11    1    3    3    0    0 -0.45890023151E+00  0.48392262752E+01 -0.86041554220E+01  0.98823170943E+01  0.51100000000E-03 0. -1.
        -11    1    3    3    0    0  0.19584777103E+02 -0.74101483822E+01 -0.27614920568E+02  0.34656278384E+02  0.51100000000E-03 0.  1.
         12    1    3    3    0    0 -0.13826494399E+02 -0.12840196936E+01  0.50137475869E+01  0.14763411490E+02  0.00000000000E+00 0. -1.
</event>
<event>
 7    1  0.1193961E-011  0.5930195E+02  0.7816164E-02  0.1266605E+00
        -11   -1    0    0    0    0  0.00000000000E+00  0.00000000000E+00  0.45593999997E+02  0.45594000000E+02  0.51100000000E-03 0.  1.
         11   -1    0    0    0    0 -0.00000000000E+00 -0.00000000000E+00 -0.45593999997E+02  0.45594000000E+02  0.51100000000E-03 0. -1.
    9900012    2    1    2    0    0  0.12376591297E+02  0.76538023782E+01  0.28371805003E+02  0.59301952548E+02  0.50000015540E+02 0.  0.
         12    1    1    2    0    0 -0.12376591297E+02 -0.76538023782E+01 -0.28371805003E+02  0.31886047452E+02  0.00000000000E+00 0. -1.
         11    1    3    3    0    0 -0.11963032659E+02  0.50473740972E+00  0.10118870496E+02  0.15676748727E+02  0.51100000000E-03 0.  1.
        -11    1    3    3    0    0 -0.60737231288E+01  0.36974973362E+01 -0.14044557114E+01  0.72480407906E+01  0.51100000000E-03 0. -1.
        -12    1    3    3    0    0  0.30413347085E+02  0.34515676322E+01  0.19657390218E+02  0.36377163031E+02  0.00000000000E+00 0.  1.
</event>
<event>
 7    1  0.1193961E-011  0.5930194E+02  0.7816164E-02  0.1266605E+00
        -11   -1    0    0    0    0  0.00000000000E+00  0.00000000000E+00  0.45593999997E+02  0.45594000000E+02  0.51100000000E-03 0.  1.
         11   -1    0    0    0    0 -0.00000000000E+00 -0.00000000000E+00 -0.45593999997E+02  0.45594000000E+02  0.51100000000E-03 0. -1.
    9900012    2    1    2    0    0 -0.52857012939E+01 -0.29608745115E+02  0.10587949325E+02  0.59301935703E+02  0.49999984818E+02 0.  0.
         12    1    1    2    0    0  0.52857012939E+01  0.29608745115E+02 -0.10587949325E+02  0.31886064297E+02  0.00000000000E+00 0. -1.
         11    1    3    3    0    0 -0.12543267204E+02  0.53545790038E+01 -0.49384257368E+01  0.14504934246E+02  0.51100000000E-03 0. -1.
        -11    1    3    3    0    0 -0.11963749388E+01 -0.15254702024E+01 -0.45103139195E+01  0.49093079193E+01  0.51100000000E-03 0.  1.
        -12    1    3    3    0    0  0.84539408494E+01 -0.33437853916E+02  0.20036688982E+02  0.39887693538E+02  0.00000000000E+00 0.  1.
</event>
<event>
 7    1  0.1193961E-011  0.5930196E+02  0.7816164E-02  0.1266605E+00
        -11   -1    0    0    0    0  0.00000000000E+00  0.00000000000E+00  0.45593999997E+02  0.45594000000E+02  0.51100000000E-03 0. -1.
         11   -1    0    0    0    0 -0.00000000000E+00 -0.00000000000E+00 -0.45593999997E+02  0.45594000000E+02  0.51100000000E-03 0.  1.
    9900012    2    1    2    0    0  0.12110212513E+02  0.29119813466E+02  0.47009607858E+01  0.59301955784E+02  0.50000021441E+02 0.  0.
         12    1    1    2    0    0 -0.12110212513E+02 -0.29119813466E+02 -0.47009607858E+01  0.31886044216E+02  0.00000000000E+00 0. -1.
         11    1    3    3    0    0  0.22753228104E+01  0.77511799510E+01  0.10193146317E+02  0.13006079987E+02  0.51100000000E-03 0.  1.
        -11    1    3    3    0    0 -0.11815726540E+02 -0.34970689205E+01 -0.50647347276E+01  0.13322628225E+02  0.51100000000E-03 0. -1.
         12    1    3    3    0    0  0.21650616242E+02  0.24865702436E+02 -0.42745080406E+00  0.32973247572E+02  0.00000000000E+00 0. -1.
</event>
<event>
 7    1  0.1193961E-011  0.5930195E+02  0.7816164E-02  0.1266605E+00
        -11   -1    0    0    0    0  0.00000000000E+00  0.00000000000E+00  0.45593999997E+02  0.45594000000E+02  0.51100000000E-03 0. -1.
         11   -1    0    0    0    0 -0.00000000000E+00 -0.00000000000E+00 -0.45593999997E+02  0.45594000000E+02  0.51100000000E-03 0.  1.
    9900012    2    1    2    0    0 -0.31392919454E+02 -0.52970071659E+01 -0.17737696373E+01  0.59301953907E+02  0.50000018017E+02 0.  0.
         12    1    1    2    0    0  0.31392919454E+02  0.52970071659E+01  0.17737696373E+01  0.31886046093E+02  0.00000000000E+00 0. -1.
         11    1    3    3    0    0 -0.51738076396E+01  0.52207604326E+01  0.94982190113E+01  0.12010028711E+02  0.51100000000E-03 0. -1.
        -11    1    3    3    0    0 -0.26235822744E+02  0.79613767444E+01 -0.76059473084E+01  0.28452633436E+02  0.51100000000E-03 0.  1.
         12    1    3    3    0    0  0.16710930482E-01 -0.18479144343E+02 -0.36660413403E+01  0.18839291760E+02  0.00000000000E+00 0. -1.
</event>
<event>
 7    1  0.1193961E-011  0.5930195E+02  0.7816164E-02  0.1266605E+00
        -11   -1    0    0    0    0  0.00000000000E+00  0.00000000000E+00  0.45593999997E+02  0.45594000000E+02  0.51100000000E-03 0.  1.
         11   -1    0    0    0    0 -0.00000000000E+00 -0.00000000000E+00 -0.45593999997E+02  0.45594000000E+02  0.51100000000E-03 0. -1.
    9900012    2    1    2    0    0  0.66760210980E+01 -0.16717387143E+01  0.31134481972E+02  0.59301953903E+02  0.50000018011E+02 0.  0.
         12    1    1    2    0    0 -0.66760210980E+01  0.16717387143E+01 -0.31134481972E+02  0.31886046097E+02  0.00000000000E+00 0. -1.
         11    1    3    3    0    0  0.13757693979E+02 -0.18111436130E+02  0.11824649156E+02  0.25634363465E+02  0.51100000000E-03 0. -1.
        -11    1    3    3    0    0  0.12406290534E+01  0.52686476358E+01  0.18976450274E+02  0.19733308735E+02  0.51100000000E-03 0.  1.
        -12    1    3    3    0    0 -0.83223019348E+01  0.11171049780E+02  0.33338254171E+00  0.13934281704E+02  0.00000000000E+00 0.  1.
</event>
<event>
 7    1  0.1193961E-011  0.5930194E+02  0.7816164E-02  0.1266605E+00
        -11   -1    0    0    0    0  0.00000000000E+00  0.00000000000E+00  0.45593999997E+02  0.45594000000E+02  0.51100000000E-03 0.  1.
         11   -1    0    0    0    0 -0.00000000000E+00 -0.00000000000E+00 -0.45593999997E+02  0.45594000000E+02  0.51100000000E-03 0. -1.
    9900012    2    1    2    0    0  0.22906283945E+01 -0.31329023418E+02 -0.54741143498E+01  0.59301943256E+02  0.49999998593E+02 0.  0.
         12    1    1    2    0    0 -0.22906283945E+01  0.31329023418E+02  0.54741143498E+01  0.31886056744E+02  0.00000000000E+00 0. -1.
         11    1    3    3    0    0  0.87505987364E+01 -0.25909348881E+02  0.10278293753E+02  0.29214904765E+02  0.51100000000E-03 0. -1.
        -11    1    3    3    0    0 -0.17969086590E+01 -0.58928098233E+01  0.55397559600E+01  0.82851061972E+01  0.51100000000E-03 0.  1.
         12    1    3    3    0    0 -0.46630616829E+01  0.47313528640E+00 -0.21292164063E+02  0.21801932294E+02  0.00000000000E+00 0. -1.
</event>
<event>
 7    1  0.1193961E-011  0.5930194E+02  0.7816164E-02  0.1266605E+00
        -11   -1    0    0    0    0  0.00000000000E+00  0.00000000000E+00  0.45593999997E+02  0.45594000000E+02  0.51100000000E-03 0.  1.
         11   -1    0    0    0    0 -0.00000000000E+00 -0.00000000000E+00 -0.45593999997E+02  0.45594000000E+02  0.51100000000E-03 0. -1.
    9900012    2    1    2    0    0 -0.12003623548E+01  0.11130184305E+01  0.31844016312E+02  0.59301936356E+02  0.49999986008E+02 0.  0.
         12    1    1    2    0    0  0.12003623548E+01 -0.11130184305E+01 -0.31844016312E+02  0.31886063644E+02  0.00000000000E+00 0. -1.
         11    1    3    3    0    0 -0.47449264669E+01  0.64802622554E+01  0.10558473779E+02  0.13266103229E+02  0.51100000000E-03 0.  1.
        -11    1    3    3    0    0 -0.15876336171E+01 -0.23580283298E+01  0.32880761628E+02  0.33003414423E+02  0.51100000000E-03 0. -1.
         12    1    3    3    0    0  0.51321977292E+01 -0.30092154951E+01 -0.11595219094E+02  0.13032418704E+02  0.00000000000E+00 0. -1.
</event>
<event>
 7    1  0.1193961E-011  0.5930196E+02  0.7816164E-02  0.1266605E+00
        -11   -1    0    0    0    0  0.00000000000E+00  0.00000000000E+00  0.45593999997E+02  0.45594000000E+02  0.51100000000E-03 0.  1.
         11   -1    0    0    0    0 -0.00000000000E+00 -0.00000000000E+00 -0.45593999997E+02  0.45594000000E+02  0.51100000000E-03 0. -1.
    9900012    2    1    2    0    0  0.19966070374E+02 -0.18585000551E+02  0.16512827931E+02  0.59301957631E+02  0.50000024809E+02 0.  0.
         12    1    1    2    0    0 -0.19966070374E+02  0.18585000551E+02 -0.16512827931E+02  0.31886042369E+02  0.00000000000E+00 0. -1.
         11    1    3    3    0    0 -0.58395536455E+01 -0.85737985758E+00 -0.56352706004E+01  0.81603775648E+01  0.51100000000E-03 0. -1.
        -11    1    3    3    0    0  0.83473177271E+01  0.65063211942E+01  0.18146215298E+02  0.21007024031E+02  0.51100000000E-03 0.  1.
        -12    1    3    3    0    0  0.17458306293E+02 -0.24233941888E+02  0.40018832337E+01  0.30134556035E+02  0.00000000000E+00 0.  1.
</event>
<event>
 7    1  0.1193961E-011  0.5930195E+02  0.7816164E-02  0.1266605E+00
        -11   -1    0    0    0    0  0.00000000000E+00  0.00000000000E+00  0.45593999997E+02  0.45594000000E+02  0.51100000000E-03 0. -1.
         11   -1    0    0    0    0 -0.00000000000E+00 -0.00000000000E+00 -0.45593999997E+02  0.45594000000E+02  0.51100000000E-03 0.  1.
    9900012    2    1    2    0    0 -0.28782342360E+02 -0.10920412123E+02 -0.83091335544E+01  0.59301947672E+02  0.50000006646E+02 0.  0.
         12    1    1    2    0    0  0.28782342360E+02  0.10920412123E+02  0.83091335544E+01  0.31886052328E+02  0.00000000000E+00 0. -1.
         11    1    3    3    0    0 -0.29079470172E+02 -0.12264549189E+02 -0.85139420491E+01  0.32688254187E+02  0.51100000000E-03 0. -1.
        -11    1    3    3    0    0 -0.51386243427E+01 -0.36148078118E+01 -0.11316367021E+02  0.12943433025E+02  0.51100000000E-03 0.  1.
        -12    1    3    3    0    0  0.54357521550E+01  0.49589448787E+01  0.11521175515E+02  0.13670260461E+02  0.00000000000E+00 0.  1.
</event>
<event>
 7    1  0.1193961E-011  0.5930193E+02  0.7816164E-02  0.1266605E+00
        -11   -1    0    0    0    0  0.00000000000E+00  0.00000000000E+00  0.45593999997E+02  0.45594000000E+02  0.51100000000E-03 0.  1.
         11   -1    0    0    0    0 -0.00000000000E+00 -0.00000000000E+00 -0.45593999997E+02  0.45594000000E+02  0.51100000000E-03 0. -1.
    9900012    2    1    2    0    0 -0.11168783101E+02  0.83975708871E+01  0.28661133885E+02  0.59301929242E+02  0.49999973035E+02 0.  0.
         12    1    1    2    0    0  0.11168783101E+02 -0.83975708871E+01 -0.28661133885E+02  0.31886070758E+02  0.00000000000E+00 0. -1.
         11    1    3    3    0    0 -0.10205874134E+02  0.11581833242E+02  0.17341702084E+02  0.23217091970E+02  0.51100000000E-03 0. -1.
        -11    1    3    3    0    0 -0.57346316608E+01  0.12452985206E+02  0.13911157118E+02  0.19531593213E+02  0.51100000000E-03 0.  1.
         12    1    3    3    0    0  0.47717226941E+01 -0.15637247561E+02 -0.25917253172E+01  0.16553244059E+02  0.00000000000E+00 0. -1.
</event>
<event>
 7    1  0.1193961E-011  0.5930181E+02  0.7816164E-02  0.1266605E+00
        -11   -1    0    0    0    0  0.00000000000E+00  0.00000000000E+00  0.45593999997E+02  0.45594000000E+02  0.51100000000E-03 0. -1.
         11   -1    0    0    0    0 -0.00000000000E+00 -0.00000000000E+00 -0.45593999997E+02  0.45594000000E+02  0.51100000000E-03 0.  1.
    9900012    2    1    2    0    0  0.16750416358E+01  0.31721105275E+02 -0.27739363874E+01  0.59301811651E+02  0.49999758575E+02 0.  0.
         12    1    1    2    0    0 -0.16750416358E+01 -0.31721105275E+02  0.27739363874E+01  0.31886188349E+02  0.00000000000E+00 0. -1.
         11    1    3    3    0    0 -0.11399806710E+02  0.27521792927E+00 -0.63360054008E+01  0.13045163956E+02  0.51100000000E-03 0. -1.
        -11    1    3    3    0    0  0.51733199024E+01  0.10971211197E+02 -0.13726883957E+02  0.18318243839E+02  0.51100000000E-03 0.  1.
         12    1    3    3    0    0  0.79015284433E+01  0.20474676150E+02  0.17288952970E+02  0.27938403855E+02  0.00000000000E+00 0. -1.
</event>
<event>
 7    1  0.1193961E-011  0.5930195E+02  0.7816164E-02  0.1266605E+00
        -11   -1    0    0    0    0  0.00000000000E+00  0.00000000000E+00  0.45593999997E+02  0.45594000000E+02  0.51100000000E-03 0.  1.
         11   -1    0    0    0    0 -0.00000000000E+00 -0.00000000000E+00 -0.45593999997E+02  0.45594000000E+02  0.51100000000E-03 0. -1.
    9900012    2    1    2    0    0 -0.11423581939E+02  0.29297503693E+02  0.52800054328E+01  0.59301946554E+02  0.50000004608E+02 0.  0.
         12    1    1    2    0    0  0.11423581939E+02 -0.29297503693E+02 -0.52800054328E+01  0.31886053446E+02  0.00000000000E+00 0. -1.
         11    1    3    3    0    0 -0.80530540755E+01 -0.98926401538E+01  0.63719631982E+01  0.14258959444E+02  0.51100000000E-03 0. -1.
        -11    1    3    3    0    0 -0.30092411574E+01  0.12781601866E+02 -0.10700047948E+02  0.16938592177E+02  0.51100000000E-03 0.  1.
        -12    1    3    3    0    0 -0.36128670654E+00  0.26408541981E+02  0.96080901821E+01  0.28104394933E+02  0.00000000000E+00 0.  1.
</event>
<event>
 7    1  0.1193961E-011  0.5930173E+02  0.7816164E-02  0.1266606E+00
        -11   -1    0    0    0    0  0.00000000000E+00  0.00000000000E+00  0.45593999997E+02  0.45594000000E+02  0.51100000000E-03 0.  1.
         11   -1    0    0    0    0 -0.00000000000E+00 -0.00000000000E+00 -0.45593999997E+02  0.45594000000E+02  0.51100000000E-03 0. -1.
    9900012    2    1    2    0    0 -0.58866072406E+01  0.28885057747E+02  0.12154651298E+02  0.59301729381E+02  0.49999608534E+02 0.  0.
         12    1    1    2    0    0  0.58866072406E+01 -0.28885057747E+02 -0.12154651298E+02  0.31886270619E+02  0.00000000000E+00 0. -1.
         11    1    3    3    0    0 -0.43358066514E+01  0.16671291834E+02  0.19246580782E+02  0.25829480498E+02  0.51100000000E-03 0.  1.
        -11    1    3    3    0    0 -0.15035831568E+02  0.76563813996E+01  0.13432133677E+01  0.16926329475E+02  0.51100000000E-03 0. -1.
         12    1    3    3    0    0  0.13485030979E+02  0.45573845133E+01 -0.84351428522E+01  0.16545919408E+02  0.00000000000E+00 0. -1.
</event>
<event>
 7    1  0.1193961E-011  0.5930197E+02  0.7816164E-02  0.1266605E+00
        -11   -1    0    0    0    0  0.00000000000E+00  0.00000000000E+00  0.45593999997E+02  0.45594000000E+02  0.51100000000E-03 0. -1.
         11   -1    0    0    0    0 -0.00000000000E+00 -0.00000000000E+00 -0.45593999997E+02  0.45594000000E+02  0.51100000000E-03 0.  1.
    9900012    2    1    2    0    0  0.20330835378E+02  0.24154951522E+02 -0.44625636569E+01  0.59301968190E+02  0.50000044066E+02 0.  0.
         12    1    1    2    0    0 -0.20330835378E+02 -0.24154951522E+02  0.44625636569E+01  0.31886031810E+02  0.00000000000E+00 0. -1.
         11    1    3    3    0    0 -0.60300530747E+00 -0.65204702495E+01  0.38536761939E+01  0.75980897694E+01  0.51100000000E-03 0. -1.
        -11    1    3    3    0    0 -0.48365336279E+01  0.18737214259E+02 -0.12439712163E+02  0.23004818945E+02  0.51100000000E-03 0.  1.
        -12    1    3    3    0    0  0.25770374313E+02  0.11938207512E+02  0.41234723124E+01  0.28699059475E+02  0.00000000000E+00 0.  1.
</event>
<event>
 7    1  0.1193961E-011  0.5930194E+02  0.7816164E-02  0.1266605E+00
        -11   -1    0    0    0    0  0.00000000000E+00  0.00000000000E+00  0.45593999997E+02  0.45594000000E+02  0.51100000000E-03 0.  1.
         11   -1    0    0    0    0 -0.00000000000E+00 -0.00000000000E+00 -0.45593999997E+02  0.45594000000E+02  0.51100000000E-03 0. -1.
    9900012    2    1    2    0    0 -0.10101906544E+02 -0.94227940046E+00  0.30228871039E+02  0.59301936420E+02  0.49999986126E+02 0.  0.
         12    1    1    2    0    0  0.10101906544E+02  0.94227940046E+00 -0.30228871039E+02  0.31886063580E+02  0.00000000000E+00 0. -1.
         11    1    3    3    0    0  0.48110584614E+01 -0.16481393217E+02  0.10318681187E+00  0.17169544364E+02  0.51100000000E-03 0. -1.
        -11    1    3    3    0    0 -0.20578967736E+01 -0.29049199030E+01 -0.10356869435E+01  0.37075795986E+01  0.51100000000E-03 0.  1.
        -12    1    3    3    0    0 -0.12855068232E+02  0.18444033720E+02  0.31161371171E+02  0.38424812457E+02  0.00000000000E+00 0.  1.
</event>
<event>
 7    1  0.1193961E-011  0.5930194E+02  0.7816164E-02  0.1266605E+00
        -11   -1    0    0    0    0  0.00000000000E+00  0.00000000000E+00  0.45593999997E+02  0.45594000000E+02  0.51100000000E-03 0. -1.
         11   -1    0    0    0    0 -0.00000000000E+00 -0.00000000000E+00 -0.45593999997E+02  0.45594000000E+02  0.51100000000E-03 0.  1.
    9900012    2    1    2    0    0  0.20743055450E+01 -0.18528327120E+02 -0.25867333106E+02  0.59301943935E+02  0.49999999831E+02 0.  0.
         12    1    1    2    0    0 -0.20743055450E+01  0.18528327120E+02  0.25867333106E+02  0.31886056065E+02  0.00000000000E+00 0. -1.
         11    1    3    3    0    0 -0.15958634637E+01  0.49737156653E+01 -0.14356171162E+01  0.54171601859E+01  0.51100000000E-03 0. -1.
        -11    1    3    3    0    0 -0.70485487846E+00  0.12021281593E+02 -0.40964780591E+01  0.12719636955E+02  0.51100000000E-03 0.  1.
        -12    1    3    3    0    0  0.43750238872E+01 -0.35523324378E+02 -0.20335237931E+02  0.41165146794E+02  0.00000000000E+00 0.  1.
</event>
<event>
 7    1  0.1193961E-011  0.5930194E+02  0.7816164E-02  0.1266605E+00
        -11   -1    0    0    0    0  0.00000000000E+00  0.00000000000E+00  0.45593999997E+02  0.45594000000E+02  0.51100000000E-03 0.  1.
         11   -1    0    0    0    0 -0.00000000000E+00 -0.00000000000E+00 -0.45593999997E+02  0.45594000000E+02  0.51100000000E-03 0. -1.
    9900012    2    1    2    0    0  0.31074287453E+02 -0.67924086245E+01  0.22298974748E+01  0.59301943512E+02  0.49999999059E+02 0.  0.
         12    1    1    2    0    0 -0.31074287453E+02  0.67924086245E+01 -0.22298974748E+01  0.31886056488E+02  0.00000000000E+00 0. -1.
         11    1    3    3    0    0 -0.78966315394E+00 -0.30839502834E+01  0.92480053201E+01  0.97805889347E+01  0.51100000000E-03 0.  1.
        -11    1    3    3    0    0 -0.40395838457E+01 -0.84724976035E+01  0.58789629513E+01  0.11075362700E+02  0.51100000000E-03 0. -1.
         12    1    3    3    0    0  0.35903534453E+02  0.47640392624E+01 -0.12897070797E+02  0.38445991877E+02  0.00000000000E+00 0. -1.
</event>
<event>
 7    1  0.1193961E-011  0.5930184E+02  0.7816164E-02  0.1266605E+00
        -11   -1    0    0    0    0  0.00000000000E+00  0.00000000000E+00  0.45593999997E+02  0.45594000000E+02  0.51100000000E-03 0.  1.
         11   -1    0    0    0    0 -0.00000000000E+00 -0.00000000000E+00 -0.45593999997E+02  0.45594000000E+02  0.51100000000E-03 0. -1.
    9900012    2    1    2    0    0 -0.22984622165E+02 -0.26054653252E+01  0.21946439491E+02  0.59301835101E+02  0.49999801344E+02 0.  0.
         12    1    1    2    0    0  0.22984622165E+02  0.26054653252E+01 -0.21946439491E+02  0.31886164899E+02  0.00000000000E+00 0. -1.
         11    1    3    3    0    0  0.18277048777E+01  0.95622845803E+01 -0.20444164302E+01  0.99477349339E+01  0.51100000000E-03 0. -1.
        -11    1    3    3    0    0  0.15474869519E+01  0.73826947461E+01 -0.16320359646E+01  0.77176705833E+01  0.51100000000E-03 0.  1.
        -12    1    3    3    0    0 -0.26359813994E+02 -0.19550444652E+02  0.25622891886E+02  0.41636429584E+02  0.00000000000E+00 0.  1.
</event>
<event>
 7    1  0.1193961E-011  0.5930197E+02  0.7816164E-02  0.1266605E+00
        -11   -1    0    0    0    0  0.00000000000E+00  0.00000000000E+00  0.45593999997E+02  0.45594000000E+02  0.51100000000E-03 0.  1.
         11   -1    0    0    0    0 -0.00000000000E+00 -0.00000000000E+00 -0.45593999997E+02  0.45594000000E+02  0.51100000000E-03 0. -1.
    9900012    2    1    2    0    0  0.62471757426E+01  0.15289270548E+02  0.27275073401E+02  0.59301974414E+02  0.50000055417E+02 0.  0.
         12    1    1    2    0    0 -0.62471757426E+01 -0.15289270548E+02 -0.27275073401E+02  0.31886025586E+02  0.00000000000E+00 0. -1.
         11    1    3    3    0    0  0.13547508837E+02 -0.22228730145E+01 -0.46057093832E+01  0.14480632559E+02  0.51100000000E-03 0. -1.
        -11    1    3    3    0    0  0.50422074673E+01  0.70368609345E+01  0.26315556592E+02  0.27702884091E+02  0.51100000000E-03 0.  1.
        -12    1    3    3    0    0 -0.12342540562E+02  0.10475282628E+02  0.55652261921E+01  0.17118457764E+02  0.00000000000E+00 0.  1.
</event>
<event>
 7    1  0.1193961E-011  0.5930197E+02  0.7816164E-02  0.1266605E+00
        -11   -1    0    0    0    0  0.00000000000E+00  0.00000000000E+00  0.45593999997E+02  0.45594000000E+02  0.51100000000E-03 0.  1.
         11   -1    0    0    0    0 -0.00000000000E+00 -0.00000000000E+00 -0.45593999997E+02  0.45594000000E+02  0.51100000000E-03 0. -1.
    9900012    2    1    2    0    0  0.10863751362E+02 -0.21855571770E+02  0.20519062218E+02  0.59301968178E+02  0.50000044044E+02 0.  0.
         12    1    1    2    0    0 -0.10863751362E+02  0.21855571770E+02 -0.20519062218E+02  0.31886031822E+02  0.00000000000E+00 0. -1.
         11    1    3    3    0    0 -0.15655641328E+01 -0.12060896728E+02 -0.78620484995E+01  0.14481989773E+02  0.51100000000E-03 0. -1.
        -11    1    3    3    0    0  0.17594435371E+01 -0.18226350464E+02  0.24670813270E+02  0.30723680126E+02  0.51100000000E-03 0.  1.
         12    1    3    3    0    0  0.10669871958E+02  0.84316754221E+01  0.37102974477E+01  0.14096298279E+02  0.00000000000E+00 0. -1.
</event>
<event>
 7    1  0.1193961E-011  0.5930195E+02  0.7816164E-02  0.1266605E+00
        -11   -1    0    0    0    0  0.00000000000E+00  0.00000000000E+00  0.45593999997E+02  0.45594000000E+02  0.51100000000E-03 0.  1.
         11   -1    0    0    0    0 -0.00000000000E+00 -0.00000000000E+00 -0.45593999997E+02  0.45594000000E+02  0.51100000000E-03 0. -1.
    9900012    2    1    2    0    0 -0.27691016469E+02 -0.14197937666E+02  0.69531764637E+01  0.59301945212E+02  0.50000002159E+02 0.  0.
         12    1    1    2    0    0  0.27691016469E+02  0.14197937666E+02 -0.69531764637E+01  0.31886054788E+02  0.00000000000E+00 0. -1.
         11    1    3    3    0    0 -0.15429686204E+01 -0.42238722300E+01  0.98734308508E+01  0.10849261994E+02  0.51100000000E-03 0. -1.
        -11    1    3    3    0    0 -0.15838707974E+02 -0.13751616980E+02  0.16133072529E+02  0.26462193208E+02  0.51100000000E-03 0.  1.
         12    1    3    3    0    0 -0.10309339874E+02  0.37775515445E+01 -0.19053326916E+02  0.21990490010E+02  0.00000000000E+00 0. -1.
</event>
<event>
 7    1  0.1193961E-011  0.5930218E+02  0.7816164E-02  0.1266604E+00
        -11   -1    0    0    0    0  0.00000000000E+00  0.00000000000E+00  0.45593999997E+02  0.45594000000E+02  0.51100000000E-03 0.  1.
         11   -1    0    0    0    0 -0.00000000000E+00 -0.00000000000E+00 -0.45593999997E+02  0.45594000000E+02  0.51100000000E-03 0. -1.
    9900012    2    1    2    0    0 -0.37635038280E+01  0.31355498134E+02  0.44015889430E+01  0.59302184823E+02  0.50000439150E+02 0.  0.
         12    1    1    2    0    0  0.37635038280E+01 -0.31355498134E+02 -0.44015889430E+01  0.31885815177E+02  0.00000000000E+00 0. -1.
         11    1    3    3    0    0 -0.14091455451E+02  0.67331244553E+01  0.14748062210E+00  0.15618125126E+02  0.51100000000E-03 0. -1.
        -11    1    3    3    0    0  0.67248583493E+01 -0.11600775389E+01  0.14248577049E+02  0.15798463466E+02  0.51100000000E-03 0.  1.
         12    1    3    3    0    0  0.36030932742E+01  0.25782451218E+02 -0.99944687281E+01  0.27885596230E+02  0.00000000000E+00 0. -1.
</event>
<event>
 7    1  0.1950986E-011  0.5930191E+02  0.7816164E-02  0.1266605E+00
        -11   -1    0    0    0    0  0.00000000000E+00  0.00000000000E+00  0.45593999997E+02  0.45594000000E+02  0.51100000000E-03 0. -1.
         11   -1    0    0    0    0 -0.00000000000E+00 -0.00000000000E+00 -0.45593999997E+02  0.45594000000E+02  0.51100000000E-03 0.  1.
    9900012    2    1    2    0    0  0.25366310462E+02 -0.10879249167E+02 -0.15966049073E+02  0.59301913820E+02  0.49999944908E+02 0.  0.
         12    1    1    2    0    0 -0.25366310462E+02  0.10879249167E+02  0.15966049073E+02  0.31886086180E+02  0.00000000000E+00 0. -1.
         11    1    3    3    0    0 -0.26976439146E+01  0.14424638289E+01  0.10675486699E+02  0.11105133998E+02  0.51100000000E-03 0. -1.
        -11    1    3    3    0    0  0.13533639059E+02  0.13574709944E+01  0.15146344560E+01  0.13685621341E+02  0.51100000000E-03 0.  1.
        -12    1    3    3    0    0  0.14530315317E+02 -0.13679183991E+02 -0.28156170227E+02  0.34511158482E+02  0.00000000000E+00 0.  1.
</event>
<event>
 7    1  0.1193961E-011  0.5930191E+02  0.7816164E-02  0.1266605E+00
        -11   -1    0    0    0    0  0.00000000000E+00  0.00000000000E+00  0.45593999997E+02  0.45594000000E+02  0.51100000000E-03 0. -1.
         11   -1    0    0    0    0 -0.00000000000E+00 -0.00000000000E+00 -0.45593999997E+02  0.45594000000E+02  0.51100000000E-03 0.  1.
    9900012    2    1    2    0    0 -0.12015279945E+02 -0.25330397516E+02  0.15189697801E+02  0.59301907268E+02  0.49999932958E+02 0.  0.
         12    1    1    2    0    0  0.12015279945E+02  0.25330397516E+02 -0.15189697801E+02  0.31886092732E+02  0.00000000000E+00 0. -1.
         11    1    3    3    0    0  0.55736324865E+01 -0.35389659331E+01 -0.50381999217E+01  0.83050055799E+01  0.51100000000E-03 0.  1.
        -11    1    3    3    0    0 -0.22860444176E+02  0.16548005233E+00  0.40454701999E+01  0.23216225382E+02  0.51100000000E-03 0. -1.
        -12    1    3    3    0    0  0.52715317446E+01 -0.21956911635E+02  0.16182427523E+02  0.27780676306E+02  0.00000000000E+00 0.  1.
</event>
<event>
 7    1  0.1193961E-011  0.5930194E+02  0.7816164E-02  0.1266605E+00
        -11   -1    0    0    0    0  0.00000000000E+00  0.00000000000E+00  0.45593999997E+02  0.45594000000E+02  0.51100000000E-03 0.  1.
         11   -1    0    0    0    0 -0.00000000000E+00 -0.00000000000E+00 -0.45593999997E+02  0.45594000000E+02  0.51100000000E-03 0. -1.
    9900012    2    1    2    0    0  0.13788306503E+02 -0.11827571805E+02  0.26205186066E+02  0.59301943051E+02  0.49999998219E+02 0.  0.
         12    1    1    2    0    0 -0.13788306503E+02  0.11827571805E+02 -0.26205186066E+02  0.31886056949E+02  0.00000000000E+00 0. -1.
         11    1    3    3    0    0  0.10548149884E+02 -0.38590801654E+00  0.70406100039E+01  0.12687891096E+02  0.51100000000E-03 0. -1.
        -11    1    3    3    0    0  0.14969251945E+02  0.94540990161E+01  0.36782037495E+01  0.18082800532E+02  0.51100000000E-03 0.  1.
         12    1    3    3    0    0 -0.11729095326E+02 -0.20895762805E+02  0.15486372312E+02  0.28531251423E+02  0.00000000000E+00 0. -1.
</event>
<event>
 7    1  0.1193961E-011  0.5930193E+02  0.7816164E-02  0.1266605E+00
        -11   -1    0    0    0    0  0.00000000000E+00  0.00000000000E+00  0.45593999997E+02  0.45594000000E+02  0.51100000000E-03 0. -1.
         11   -1    0    0    0    0 -0.00000000000E+00 -0.00000000000E+00 -0.45593999997E+02  0.45594000000E+02  0.51100000000E-03 0.  1.
    9900012    2    1    2    0    0  0.13964880264E+02 -0.21944055857E+01 -0.28581252336E+02  0.59301932796E+02  0.49999979516E+02 0.  0.
         12    1    1    2    0    0 -0.13964880264E+02  0.21944055857E+01  0.28581252336E+02  0.31886067204E+02  0.00000000000E+00 0. -1.
         11    1    3    3    0    0  0.53591631370E+01  0.13282832301E+02  0.85591397224E+00  0.14348757871E+02  0.51100000000E-03 0. -1.
        -11    1    3    3    0    0 -0.17065438997E+01  0.40007781537E+01 -0.20851778412E+02  0.21300591098E+02  0.51100000000E-03 0.  1.
         12    1    3    3    0    0  0.10312261027E+02 -0.19478016040E+02 -0.85853878958E+01  0.23652583826E+02  0.00000000000E+00 0. -1.
</event>
<event>
 7    1  0.1193961E-011  0.5930195E+02  0.7816164E-02  0.1266605E+00
        -11   -1    0    0    0    0  0.00000000000E+00  0.00000000000E+00  0.45593999997E+02  0.45594000000E+02  0.51100000000E-03 0.  1.
         11   -1    0    0    0    0 -0.00000000000E+00 -0.00000000000E+00 -0.45593999997E+02  0.45594000000E+02  0.51100000000E-03 0. -1.
    9900012    2    1    2    0    0 -0.24630538920E+02 -0.12109791609E+02 -0.16229897429E+02  0.59301951784E+02  0.50000014145E+02 0.  0.
         12    1    1    2    0    0  0.24630538920E+02  0.12109791609E+02  0.16229897429E+02  0.31886048216E+02  0.00000000000E+00 0. -1.
         11    1    3    3    0    0 -0.11865538233E+01  0.10930662129E+02 -0.86604710074E+01  0.13996108134E+02  0.51100000000E-03 0. -1.
        -11    1    3    3    0    0 -0.21569985722E+02 -0.85984860044E+00  0.59727726055E+00  0.21595378303E+02  0.51100000000E-03 0.  1.
         12    1    3    3    0    0 -0.18739993752E+01 -0.22180605138E+02 -0.81667036816E+01  0.23710465347E+02  0.00000000000E+00 0. -1.
</event>
<event>
 7    1  0.1193961E-011  0.5930194E+02  0.7816164E-02  0.1266605E+00
        -11   -1    0    0    0    0  0.00000000000E+00  0.00000000000E+00  0.45593999997E+02  0.45594000000E+02  0.51100000000E-03 0.  1.
         11   -1    0    0    0    0 -0.00000000000E+00 -0.00000000000E+00 -0.45593999997E+02  0.45594000000E+02  0.51100000000E-03 0. -1.
    9900012    2    1    2    0    0  0.23179028275E+02  0.15468663665E+01  0.21841713533E+02  0.59301943527E+02  0.49999999087E+02 0.  0.
         12    1    1    2    0    0 -0.23179028275E+02 -0.15468663665E+01 -0.21841713533E+02  0.31886056473E+02  0.00000000000E+00 0. -1.
         11    1    3    3    0    0 -0.14880959938E+01 -0.56189333972E+01 -0.27532808118E+00  0.58191621410E+01  0.51100000000E-03 0. -1.
        -11    1    3    3    0    0  0.65090964850E+01  0.17916458209E+02  0.25783328835E+02  0.32064744781E+02  0.51100000000E-03 0.  1.
         12    1    3    3    0    0  0.18158027784E+02 -0.10750658445E+02 -0.36662872211E+01  0.21418036605E+02  0.00000000000E+00 0. -1.
</event>
<event>
 7    1  0.1193961E-011  0.5930196E+02  0.7816164E-02  0.1266605E+00
        -11   -1    0    0    0    0  0.00000000000E+00  0.00000000000E+00  0.45593999997E+02  0.45594000000E+02  0.51100000000E-03 0.  1.
         11   -1    0    0    0    0 -0.00000000000E+00 -0.00000000000E+00 -0.45593999997E+02  0.45594000000E+02  0.51100000000E-03 0. -1.
    9900012    2    1    2    0    0 -0.30899439934E+00 -0.19856774676E+02  0.24946596643E+02  0.59301958193E+02  0.50000025834E+02 0.  0.
         12    1    1    2    0    0  0.30899439934E+00  0.19856774676E+02 -0.24946596643E+02  0.31886041807E+02  0.00000000000E+00 0. -1.
         11    1    3    3    0    0 -0.11976597409E+02  0.11004330612E+01  0.12871248843E+02  0.17615870273E+02  0.51100000000E-03 0. -1.
        -11    1    3    3    0    0 -0.81873820335E+01 -0.12440358577E+01  0.10891037470E+02  0.13681942377E+02  0.51100000000E-03 0.  1.
         12    1    3    3    0    0  0.19854985043E+02 -0.19713171880E+02  0.11843103300E+01  0.28004145543E+02  0.00000000000E+00 0. -1.
</event>
<event>
 7    1  0.1193961E-011  0.5930192E+02  0.7816164E-02  0.1266605E+00
        -11   -1    0    0    0    0  0.00000000000E+00  0.00000000000E+00  0.45593999997E+02  0.45594000000E+02  0.51100000000E-03 0.  1.
         11   -1    0    0    0    0 -0.00000000000E+00 -0.00000000000E+00 -0.45593999997E+02  0.45594000000E+02  0.51100000000E-03 0. -1.
    9900012    2    1    2    0    0 -0.29697405628E+02 -0.19518644083E+01  0.11444488331E+02  0.59301921708E+02  0.49999959293E+02 0.  0.
         12    1    1    2    0    0  0.29697405628E+02  0.19518644083E+01 -0.11444488331E+02  0.31886078292E+02  0.00000000000E+00 0. -1.
         11    1    3    3    0    0 -0.13929017623E+02 -0.21033509737E+01  0.18613288213E+02  0.23343009995E+02  0.51100000000E-03 0. -1.
        -11    1    3    3    0    0 -0.16411062834E+02  0.20171794551E+01  0.95698880908E+01  0.19104312461E+02  0.51100000000E-03 0.  1.
         12    1    3    3    0    0  0.64267482846E+00 -0.18656928897E+01 -0.16738687973E+02  0.16854599252E+02  0.00000000000E+00 0. -1.
</event>
<event>
 7    1  0.1193961E-011  0.5930212E+02  0.7816164E-02  0.1266604E+00
        -11   -1    0    0    0    0  0.00000000000E+00  0.00000000000E+00  0.45593999997E+02  0.45594000000E+02  0.51100000000E-03 0.  1.
         11   -1    0    0    0    0 -0.00000000000E+00 -0.00000000000E+00 -0.45593999997E+02  0.45594000000E+02  0.51100000000E-03 0. -1.
    9900012    2    1    2    0    0 -0.29354480123E+02 -0.53048188465E+01  0.11264226445E+02  0.59302119054E+02  0.50000319205E+02 0.  0.
         12    1    1    2    0    0  0.29354480123E+02  0.53048188465E+01 -0.11264226445E+02  0.31885880946E+02  0.00000000000E+00 0. -1.
         11    1    3    3    0    0 -0.20843118137E+01 -0.63939196632E+01 -0.55009104269E+01  0.86883013405E+01  0.51100000000E-03 0. -1.
        -11    1    3    3    0    0 -0.31165338896E+02 -0.76996768305E+01  0.96247289346E+00  0.32116813760E+02  0.51100000000E-03 0.  1.
         12    1    3    3    0    0  0.38951705864E+01  0.87887776472E+01  0.15802663978E+02  0.18497003953E+02  0.00000000000E+00 0. -1.
</event>
<event>
 7    1  0.1193961E-011  0.5930190E+02  0.7816164E-02  0.1266605E+00
        -11   -1    0    0    0    0  0.00000000000E+00  0.00000000000E+00  0.45593999997E+02  0.45594000000E+02  0.51100000000E-03 0.  1.
         11   -1    0    0    0    0 -0.00000000000E+00 -0.00000000000E+00 -0.45593999997E+02  0.45594000000E+02  0.51100000000E-03 0. -1.
    9900012    2    1    2    0    0 -0.65960965747E+01 -0.15817428416E+02  0.26889100712E+02  0.59301901637E+02  0.49999922690E+02 0.  0.
         12    1    1    2    0    0  0.65960965747E+01  0.15817428416E+02 -0.26889100712E+02  0.31886098363E+02  0.00000000000E+00 0. -1.
         11    1    3    3    0    0  0.63650962976E+01 -0.73884599919E+01 -0.19514113306E+01  0.99454410849E+01  0.51100000000E-03 0. -1.
        -11    1    3    3    0    0  0.96207849804E+01  0.76836694533E+01  0.88788877573E+01  0.15180017391E+02  0.51100000000E-03 0.  1.
        -12    1    3    3    0    0 -0.22581977853E+02 -0.16112637877E+02  0.19961624285E+02  0.34176443162E+02  0.00000000000E+00 0.  1.
</event>
<event>
 7    1  0.1193961E-011  0.5930192E+02  0.7816164E-02  0.1266605E+00
        -11   -1    0    0    0    0  0.00000000000E+00  0.00000000000E+00  0.45593999997E+02  0.45594000000E+02  0.51100000000E-03 0. -1.
         11   -1    0    0    0    0 -0.00000000000E+00 -0.00000000000E+00 -0.45593999997E+02  0.45594000000E+02  0.51100000000E-03 0.  1.
    9900012    2    1    2    0    0 -0.27952083546E+02  0.10497454604E+02  0.11189585063E+02  0.59301916176E+02  0.49999949205E+02 0.  0.
         12    1    1    2    0    0  0.27952083546E+02 -0.10497454604E+02 -0.11189585063E+02  0.31886083824E+02  0.00000000000E+00 0. -1.
         11    1    3    3    0    0  0.93780722345E+01  0.44021550091E+01  0.18717365655E+01  0.10527611581E+02  0.51100000000E-03 0. -1.
        -11    1    3    3    0    0 -0.11374547450E+00 -0.80582713729E+01  0.15494349480E+01  0.82066695115E+01  0.51100000000E-03 0.  1.
         12    1    3    3    0    0 -0.37216410306E+02  0.14153570967E+02  0.77684135500E+01  0.40567635084E+02  0.00000000000E+00 0. -1.
</event>
<event>
 7    1  0.1193961E-011  0.5930206E+02  0.7816164E-02  0.1266604E+00
        -11   -1    0    0    0    0  0.00000000000E+00  0.00000000000E+00  0.45593999997E+02  0.45594000000E+02  0.51100000000E-03 0.  1.
         11   -1    0    0    0    0 -0.00000000000E+00 -0.00000000000E+00 -0.45593999997E+02  0.45594000000E+02  0.51100000000E-03 0. -1.
    9900012    2    1    2    0    0 -0.62858277824E+00 -0.31864370356E+02  0.98978455300E+00  0.59302064418E+02  0.50000219562E+02 0.  0.
         12    1    1    2    0    0  0.62858277824E+00  0.31864370356E+02 -0.98978455300E+00  0.31885935582E+02  0.00000000000E+00 0. -1.
         11    1    3    3    0    0  0.14603247167E+02 -0.15828892748E+01  0.30752432416E+01  0.15007247834E+02  0.51100000000E-03 0. -1.
        -11    1    3    3    0    0  0.78504717757E+01 -0.28664259903E+01 -0.12213469451E+01  0.84461821956E+01  0.51100000000E-03 0.  1.
         12    1    3    3    0    0 -0.23082301721E+02 -0.27415055091E+02 -0.86411174354E+00  0.35848634388E+02  0.00000000000E+00 0. -1.
</event>
<event>
 7    1  0.1193961E-011  0.5930194E+02  0.7816164E-02  0.1266605E+00
        -11   -1    0    0    0    0  0.00000000000E+00  0.00000000000E+00  0.45593999997E+02  0.45594000000E+02  0.51100000000E-03 0. -1.
         11   -1    0    0    0    0 -0.00000000000E+00 -0.00000000000E+00 -0.45593999997E+02  0.45594000000E+02  0.51100000000E-03 0.  1.
    9900012    2    1    2    0    0  0.60999891421E+01 -0.19073492191E+02 -0.24813560236E+02  0.59301941236E+02  0.49999994909E+02 0.  0.
         12    1    1    2    0    0 -0.60999891421E+01  0.19073492191E+02  0.24813560236E+02  0.31886058764E+02  0.00000000000E+00 0. -1.
         11    1    3    3    0    0 -0.11533964016E+01  0.30525399524E+01 -0.14721076148E+01  0.35798637559E+01  0.51100000000E-03 0. -1.
        -11    1    3    3    0    0 -0.12600516787E+02 -0.23688175264E+02 -0.23706244173E+02  0.35803473067E+02  0.51100000000E-03 0.  1.
         12    1    3    3    0    0  0.19853902331E+02  0.15621431205E+01  0.36479155119E+00  0.19918604413E+02  0.00000000000E+00 0. -1.
</event>
<event>
 7    1  0.1193961E-011  0.5930194E+02  0.7816164E-02  0.1266605E+00
        -11   -1    0    0    0    0  0.00000000000E+00  0.00000000000E+00  0.45593999997E+02  0.45594000000E+02  0.51100000000E-03 0. -1.
         11   -1    0    0    0    0 -0.00000000000E+00 -0.00000000000E+00 -0.45593999997E+02  0.45594000000E+02  0.51100000000E-03 0.  1.
    9900012    2    1    2    0    0  0.67392530456E+01 -0.13018883983E+02 -0.28316288244E+02  0.59301936404E+02  0.49999986095E+02 0.  0.
         12    1    1    2    0    0 -0.67392530456E+01  0.13018883983E+02  0.28316288244E+02  0.31886063596E+02  0.00000000000E+00 0. -1.
         11    1    3    3    0    0  0.78889275523E+01  0.57926533883E+01  0.21417701075E+01  0.10018841782E+02  0.51100000000E-03 0. -1.
        -11    1    3    3    0    0 -0.11088579843E+02 -0.16124371373E+02 -0.27969582772E+01  0.19768028000E+02  0.51100000000E-03 0.  1.
         12    1    3    3    0    0  0.99389053366E+01 -0.26871659984E+01 -0.27661100074E+02  0.29515066622E+02  0.00000000000E+00 0. -1.
</event>
<event>
 7    1  0.1193961E-011  0.5930195E+02  0.7816164E-02  0.1266605E+00
        -11   -1    0    0    0    0  0.00000000000E+00  0.00000000000E+00  0.45593999997E+02  0.45594000000E+02  0.51100000000E-03 0. -1.
         11   -1    0    0    0    0 -0.00000000000E+00 -0.00000000000E+00 -0.45593999997E+02  0.45594000000E+02  0.51100000000E-03 0.  1.
    9900012    2    1    2    0    0  0.28693635788E+02  0.13789507590E+02  0.18014200039E+01  0.59301947119E+02  0.50000005638E+02 0.  0.
         12    1    1    2    0    0 -0.28693635788E+02 -0.13789507590E+02 -0.18014200039E+01  0.31886052881E+02  0.00000000000E+00 0. -1.
         11    1    3    3    0    0  0.51486491301E+01  0.10469080468E+02  0.11048620427E+02  0.16068050513E+02  0.51100000000E-03 0. -1.
        -11    1    3    3    0    0 -0.82049626488E+01  0.53943378342E+01 -0.53394617418E+01  0.11177215426E+02  0.51100000000E-03 0.  1.
        -12    1    3    3    0    0  0.31749949307E+02 -0.20739107122E+01 -0.39077386810E+01  0.32056681179E+02  0.00000000000E+00 0.  1.
</event>
<event>
 7    1  0.1193961E-011  0.5930194E+02  0.7816164E-02  0.1266605E+00
        -11   -1    0    0    0    0  0.00000000000E+00  0.00000000000E+00  0.45593999997E+02  0.45594000000E+02  0.51100000000E-03 0. -1.
         11   -1    0    0    0    0 -0.00000000000E+00 -0.00000000000E+00 -0.45593999997E+02  0.45594000000E+02  0.51100000000E-03 0.  1.
    9900012    2    1    2    0    0 -0.31850674976E+02  0.13247697152E+00  0.14958353233E+01  0.59301943958E+02  0.49999999874E+02 0.  0.
         12    1    1    2    0    0  0.31850674976E+02 -0.13247697152E+00 -0.14958353233E+01  0.31886056042E+02  0.00000000000E+00 0. -1.
         11    1    3    3    0    0 -0.22375775095E+02 -0.17825545037E+01 -0.90082855923E+00  0.22464734675E+02  0.51100000000E-03 0. -1.
        -11    1    3    3    0    0 -0.78834502994E+01  0.10789751546E+01 -0.16255581772E+02  0.18098533505E+02  0.51100000000E-03 0.  1.
         12    1    3    3    0    0 -0.15914495812E+01  0.83605632061E+00  0.18652245655E+02  0.18738675778E+02  0.00000000000E+00 0. -1.
</event>
<event>
 7    1  0.1193961E-011  0.5930194E+02  0.7816164E-02  0.1266605E+00
        -11   -1    0    0    0    0  0.00000000000E+00  0.00000000000E+00  0.45593999997E+02  0.45594000000E+02  0.51100000000E-03 0. -1.
         11   -1    0    0    0    0 -0.00000000000E+00 -0.00000000000E+00 -0.45593999997E+02  0.45594000000E+02  0.51100000000E-03 0.  1.
    9900012    2    1    2    0    0 -0.18950612238E+02  0.28460856776E+01 -0.25485194728E+02  0.59301936301E+02  0.49999985908E+02 0.  0.
         12    1    1    2    0    0  0.18950612238E+02 -0.28460856776E+01  0.25485194728E+02  0.31886063699E+02  0.00000000000E+00 0. -1.
         11    1    3    3    0    0 -0.13908060474E+02  0.67332760154E+01 -0.13442497805E+02  0.20481013148E+02  0.51100000000E-03 0. -1.
        -11    1    3    3    0    0 -0.18682918912E+02  0.64062266894E+01 -0.52919681267E+01  0.20447399013E+02  0.51100000000E-03 0.  1.
         12    1    3    3    0    0  0.13640367149E+02 -0.10293417027E+02 -0.67507287962E+01  0.18373524140E+02  0.00000000000E+00 0. -1.
</event>
<event>
 7    1  0.1193961E-011  0.5930194E+02  0.7816164E-02  0.1266605E+00
        -11   -1    0    0    0    0  0.00000000000E+00  0.00000000000E+00  0.45593999997E+02  0.45594000000E+02  0.51100000000E-03 0.  1.
         11   -1    0    0    0    0 -0.00000000000E+00 -0.00000000000E+00 -0.45593999997E+02  0.45594000000E+02  0.51100000000E-03 0. -1.
    9900012    2    1    2    0    0 -0.16936107792E+02  0.11251420080E+02  0.24562056608E+02  0.59301939947E+02  0.49999992557E+02 0.  0.
         12    1    1    2    0    0  0.16936107792E+02 -0.11251420080E+02 -0.24562056608E+02  0.31886060053E+02  0.00000000000E+00 0. -1.
         11    1    3    3    0    0 -0.60654464507E+01  0.75069116887E+01 -0.75028446156E+01  0.12224403516E+02  0.51100000000E-03 0. -1.
        -11    1    3    3    0    0 -0.63144560627E+01 -0.11462280404E+02  0.22201589600E+01  0.13273482343E+02  0.51100000000E-03 0.  1.
        -12    1    3    3    0    0 -0.45562052782E+01  0.15206788795E+02  0.29844742263E+02  0.33804054088E+02  0.00000000000E+00 0.  1.
</event>
<event>
 7    1  0.1193961E-011  0.5930196E+02  0.7816164E-02  0.1266605E+00
        -11   -1    0    0    0    0  0.00000000000E+00  0.00000000000E+00  0.45593999997E+02  0.45594000000E+02  0.51100000000E-03 0. -1.
         11   -1    0    0    0    0 -0.00000000000E+00 -0.00000000000E+00 -0.45593999997E+02  0.45594000000E+02  0.51100000000E-03 0.  1.
    9900012    2    1    2    0    0 -0.29172538637E+02  0.68989041766E+01 -0.10866810385E+02  0.59301961404E+02  0.50000031690E+02 0.  0.
         12    1    1    2    0    0  0.29172538637E+02 -0.68989041766E+01  0.10866810385E+02  0.31886038596E+02  0.00000000000E+00 0. -1.
         11    1    3    3    0    0 -0.10739773829E+02  0.12497766109E+02 -0.10441822231E+02  0.19508166274E+02  0.51100000000E-03 0. -1.
        -11    1    3    3    0    0 -0.22136017013E+02  0.14159179072E+01 -0.12413548223E+02  0.25418580850E+02  0.51100000000E-03 0.  1.
         12    1    3    3    0    0  0.37032522046E+01 -0.70147798392E+01  0.11988560068E+02  0.14375214280E+02  0.00000000000E+00 0. -1.
</event>
<event>
 7    1  0.1193961E-011  0.5930195E+02  0.7816164E-02  0.1266605E+00
        -11   -1    0    0    0    0  0.00000000000E+00  0.00000000000E+00  0.45593999997E+02  0.45594000000E+02  0.51100000000E-03 0.  1.
         11   -1    0    0    0    0 -0.00000000000E+00 -0.00000000000E+00 -0.45593999997E+02  0.45594000000E+02  0.51100000000E-03 0. -1.
    9900012    2    1    2    0    0 -0.17710330216E+02  0.21609758912E+02  0.15364975457E+02  0.59301953720E+02  0.50000017677E+02 0.  0.
         12    1    1    2    0    0  0.17710330216E+02 -0.21609758912E+02 -0.15364975457E+02  0.31886046280E+02  0.00000000000E+00 0. -1.
         11    1    3    3    0    0 -0.23656983828E+01  0.21540544219E+02  0.68975362089E+00  0.21681036285E+02  0.51100000000E-03 0. -1.
        -11    1    3    3    0    0 -0.13215580152E+01  0.12439548904E+02 -0.18750149395E+01  0.12649291435E+02  0.51100000000E-03 0.  1.
         12    1    3    3    0    0 -0.14023073818E+02 -0.12370334211E+02  0.16550236776E+02  0.24971626000E+02  0.00000000000E+00 0. -1.
</event>
<event>
 7    1  0.1193961E-011  0.5930193E+02  0.7816164E-02  0.1266605E+00
        -11   -1    0    0    0    0  0.00000000000E+00  0.00000000000E+00  0.45593999997E+02  0.45594000000E+02  0.51100000000E-03 0. -1.
         11   -1    0    0    0    0 -0.00000000000E+00 -0.00000000000E+00 -0.45593999997E+02  0.45594000000E+02  0.51100000000E-03 0.  1.
    9900012    2    1    2    0    0 -0.49592320813E+01 -0.31485363516E+02 -0.89404165639E+00  0.59301930800E+02  0.49999975875E+02 0.  0.
         12    1    1    2    0    0  0.49592320813E+01  0.31485363516E+02  0.89404165639E+00  0.31886069200E+02  0.00000000000E+00 0. -1.
         11    1    3    3    0    0  0.56565599348E+00 -0.12648189429E+01 -0.17032063466E+02  0.17088327005E+02  0.51100000000E-03 0. -1.
        -11    1    3    3    0    0  0.61918549724E+01 -0.39802904174E+01  0.10666914213E+02  0.12960124957E+02  0.51100000000E-03 0.  1.
        -12    1    3    3    0    0 -0.11716743047E+02 -0.26240254155E+02  0.54711075972E+01  0.29253478838E+02  0.00000000000E+00 0.  1.
</event>
<event>
 7    1  0.1193961E-011  0.5930196E+02  0.7816164E-02  0.1266605E+00
        -11   -1    0    0    0    0  0.00000000000E+00  0.00000000000E+00  0.45593999997E+02  0.45594000000E+02  0.51100000000E-03 0.  1.
         11   -1    0    0    0    0 -0.00000000000E+00 -0.00000000000E+00 -0.45593999997E+02  0.45594000000E+02  0.51100000000E-03 0. -1.
    9900012    2    1    2    0    0  0.18625272278E+02  0.89576383404E+01  0.24281254730E+02  0.59301962565E+02  0.50000033807E+02 0.  0.
         12    1    1    2    0    0 -0.18625272278E+02 -0.89576383404E+01 -0.24281254730E+02  0.31886037435E+02  0.00000000000E+00 0. -1.
         11    1    3    3    0    0  0.77338008181E+01  0.11083185116E+02 -0.18621310926E+01  0.13642441126E+02  0.51100000000E-03 0. -1.
        -11    1    3    3    0    0 -0.86809671807E+01  0.10345804130E+02  0.54429686409E+01  0.14560932737E+02  0.51100000000E-03 0.  1.
        -12    1    3    3    0    0  0.19572438641E+02 -0.12471350905E+02  0.20700417182E+02  0.31098588702E+02  0.00000000000E+00 0.  1.
</event>
<event>
 7    1  0.1193961E-011  0.5930196E+02  0.7816164E-02  0.1266605E+00
        -11   -1    0    0    0    0  0.00000000000E+00  0.00000000000E+00  0.45593999997E+02  0.45594000000E+02  0.51100000000E-03 0.  1.
         11   -1    0    0    0    0 -0.00000000000E+00 -0.00000000000E+00 -0.45593999997E+02  0.45594000000E+02  0.51100000000E-03 0. -1.
    9900012    2    1    2    0    0  0.31080266146E+02 -0.29964616021E+01  0.64620097212E+01  0.59301963942E+02  0.50000036319E+02 0.  0.
         12    1    1    2    0    0 -0.31080266146E+02  0.29964616021E+01 -0.64620097212E+01  0.31886036058E+02  0.00000000000E+00 0. -1.
         11    1    3    3    0    0  0.11874288041E+01  0.63205239006E+01  0.79849009103E+01  0.10252690006E+02  0.51100000000E-03 0. -1.
        -11    1    3    3    0    0 -0.36452959875E+01 -0.11570620419E+02  0.74784783805E+01  0.14251143072E+02  0.51100000000E-03 0.  1.
         12    1    3    3    0    0  0.33538133329E+02  0.22536349158E+01 -0.90013695696E+01  0.34798130865E+02  0.00000000000E+00 0. -1.
</event>
<event>
 7    1  0.1193961E-011  0.5930195E+02  0.7816164E-02  0.1266605E+00
        -11   -1    0    0    0    0  0.00000000000E+00  0.00000000000E+00  0.45593999997E+02  0.45594000000E+02  0.51100000000E-03 0.  1.
         11   -1    0    0    0    0 -0.00000000000E+00 -0.00000000000E+00 -0.45593999997E+02  0.45594000000E+02  0.51100000000E-03 0. -1.
    9900012    2    1    2    0    0 -0.23367171960E+01  0.78318453906E+01  0.30820802418E+02  0.59301954288E+02  0.50000018712E+02 0.  0.
         12    1    1    2    0    0  0.23367171960E+01 -0.78318453906E+01 -0.30820802418E+02  0.31886045712E+02  0.00000000000E+00 0. -1.
         11    1    3    3    0    0 -0.38173137000E+01  0.50582180937E+01 -0.63670046113E+01  0.89831064866E+01  0.51100000000E-03 0. -1.
        -11    1    3    3    0    0 -0.90369932442E+00  0.82163309352E+01 -0.36608484575E+01  0.90402753385E+01  0.51100000000E-03 0.  1.
        -12    1    3    3    0    0  0.23842958284E+01 -0.54427036382E+01  0.40848655487E+02  0.41278572463E+02  0.00000000000E+00 0.  1.
</event>
<event>
 7    1  0.1193961E-011  0.5930193E+02  0.7816164E-02  0.1266605E+00
        -11   -1    0    0    0    0  0.00000000000E+00  0.00000000000E+00  0.45593999997E+02  0.45594000000E+02  0.51100000000E-03 0. -1.
         11   -1    0    0    0    0 -0.00000000000E+00 -0.00000000000E+00 -0.45593999997E+02  0.45594000000E+02  0.51100000000E-03 0.  1.
    9900012    2    1    2    0    0 -0.22886914682E+02 -0.20083273923E+02  0.94642852433E+01  0.59301930153E+02  0.49999974696E+02 0.  0.
         12    1    1    2    0    0  0.22886914682E+02  0.20083273923E+02 -0.94642852433E+01  0.31886069847E+02  0.00000000000E+00 0. -1.
         11    1    3    3    0    0 -0.19909224157E+02  0.70296882486E+01  0.93792363786E+01  0.23103328737E+02  0.51100000000E-03 0. -1.
        -11    1    3    3    0    0  0.73718457985E+01 -0.21055550484E+01 -0.42861839618E+01  0.87834415667E+01  0.51100000000E-03 0.  1.
        -12    1    3    3    0    0 -0.10349536323E+02 -0.25007407123E+02  0.43712328265E+01  0.27415159849E+02  0.00000000000E+00 0.  1.
</event>
<event>
 7    1  0.1193961E-011  0.5930197E+02  0.7816164E-02  0.1266605E+00
        -11   -1    0    0    0    0  0.00000000000E+00  0.00000000000E+00  0.45593999997E+02  0.45594000000E+02  0.51100000000E-03 0. -1.
         11   -1    0    0    0    0 -0.00000000000E+00 -0.00000000000E+00 -0.45593999997E+02  0.45594000000E+02  0.51100000000E-03 0.  1.
    9900012    2    1    2    0    0  0.16917243430E+02 -0.25611928986E+02 -0.86345040312E+01  0.59301973413E+02  0.50000053591E+02 0.  0.
         12    1    1    2    0    0 -0.16917243430E+02  0.25611928986E+02  0.86345040312E+01  0.31886026587E+02  0.00000000000E+00 0. -1.
         11    1    3    3    0    0  0.84120839675E+01  0.47183152695E+01 -0.40211926819E+01  0.10449672076E+02  0.51100000000E-03 0. -1.
        -11    1    3    3    0    0 -0.57030005143E+01  0.36404566054E+01 -0.95465626595E+01  0.11701025512E+02  0.51100000000E-03 0.  1.
         12    1    3    3    0    0  0.14208159977E+02 -0.33970700860E+02  0.49332513102E+01  0.37151275824E+02  0.00000000000E+00 0. -1.
</event>
<event>
 7    1  0.1193961E-011  0.5930202E+02  0.7816164E-02  0.1266605E+00
        -11   -1    0    0    0    0  0.00000000000E+00  0.00000000000E+00  0.45593999997E+02  0.45594000000E+02  0.51100000000E-03 0. -1.
         11   -1    0    0    0    0 -0.00000000000E+00 -0.00000000000E+00 -0.45593999997E+02  0.45594000000E+02  0.51100000000E-03 0.  1.
    9900012    2    1    2    0    0 -0.28455981783E+02 -0.13713889561E+02 -0.43476822340E+01  0.59302015509E+02  0.50000130365E+02 0.  0.
         12    1    1    2    0    0  0.28455981783E+02  0.13713889561E+02  0.43476822340E+01  0.31885984491E+02  0.00000000000E+00 0. -1.
         11    1    3    3    0    0 -0.17737112724E+02 -0.40400234725E+01 -0.45608275823E+01  0.18754415639E+02  0.51100000000E-03 0. -1.
        -11    1    3    3    0    0 -0.15145658456E+01  0.59607957014E+01 -0.15418293677E+02  0.16599661902E+02  0.51100000000E-03 0.  1.
        -12    1    3    3    0    0 -0.92043032128E+01 -0.15634661790E+02  0.15631439026E+02  0.23947937968E+02  0.00000000000E+00 0.  1.
</event>
<event>
 7    1  0.1193961E-011  0.5930203E+02  0.7816164E-02  0.1266604E+00
        -11   -1    0    0    0    0  0.00000000000E+00  0.00000000000E+00  0.45593999997E+02  0.45594000000E+02  0.51100000000E-03 0.  1.
         11   -1    0    0    0    0 -0.00000000000E+00 -0.00000000000E+00 -0.45593999997E+02  0.45594000000E+02  0.51100000000E-03 0. -1.
    9900012    2    1    2    0    0  0.18483976791E+02  0.22259060499E+02  0.13401181807E+02  0.59302033712E+02  0.50000163562E+02 0.  0.
         12    1    1    2    0    0 -0.18483976791E+02 -0.22259060499E+02 -0.13401181807E+02  0.31885966288E+02  0.00000000000E+00 0. -1.
         11    1    3    3    0    0  0.68220306006E+01  0.12892062779E+02 -0.29855714165E+01  0.14888217528E+02  0.51100000000E-03 0.  1.
        -11    1    3    3    0    0  0.54349886937E+00 -0.93147342125E+01  0.20284137801E+02  0.22327245935E+02  0.51100000000E-03 0. -1.
         12    1    3    3    0    0  0.11118447321E+02  0.18681731932E+02 -0.38973845768E+01  0.22086570249E+02  0.00000000000E+00 0. -1.
</event>
<event>
 7    1  0.1193961E-011  0.5930195E+02  0.7816164E-02  0.1266605E+00
        -11   -1    0    0    0    0  0.00000000000E+00  0.00000000000E+00  0.45593999997E+02  0.45594000000E+02  0.51100000000E-03 0. -1.
         11   -1    0    0    0    0 -0.00000000000E+00 -0.00000000000E+00 -0.45593999997E+02  0.45594000000E+02  0.51100000000E-03 0.  1.
    9900012    2    1    2    0    0 -0.18456616571E+02  0.18810151333E+02 -0.17951377493E+02  0.59301945959E+02  0.50000003522E+02 0.  0.
         12    1    1    2    0    0  0.18456616571E+02 -0.18810151333E+02  0.17951377493E+02  0.31886054041E+02  0.00000000000E+00 0. -1.
         11    1    3    3    0    0  0.14268882965E+01 -0.29532049668E+00  0.29474539449E+01  0.32879643284E+01  0.51100000000E-03 0. -1.
        -11    1    3    3    0    0 -0.10641143529E+02 -0.93021347127E+01  0.64284466739E+01  0.15527027169E+02  0.51100000000E-03 0.  1.
        -12    1    3    3    0    0 -0.92423613390E+01  0.28407606542E+02 -0.27327278112E+02  0.40486954461E+02  0.00000000000E+00 0.  1.
</event>
<event>
 7    1  0.1193961E-011  0.5930170E+02  0.7816164E-02  0.1266606E+00
        -11   -1    0    0    0    0  0.00000000000E+00  0.00000000000E+00  0.45593999997E+02  0.45594000000E+02  0.51100000000E-03 0. -1.
         11   -1    0    0    0    0 -0.00000000000E+00 -0.00000000000E+00 -0.45593999997E+02  0.45594000000E+02  0.51100000000E-03 0.  1.
    9900012    2    1    2    0    0  0.14801913731E+02 -0.91142267044E+01 -0.26731448811E+02  0.59301699900E+02  0.49999554767E+02 0.  0.
         12    1    1    2    0    0 -0.14801913731E+02  0.91142267044E+01  0.26731448811E+02  0.31886300100E+02  0.00000000000E+00 0. -1.
         11    1    3    3    0    0  0.83257915405E+01  0.15513656853E+02 -0.82964923335E+01  0.19463405124E+02  0.51100000000E-03 0. -1.
        -11    1    3    3    0    0  0.78486377193E+01  0.19211443727E+01 -0.77208062453E+01  0.11175990296E+02  0.51100000000E-03 0.  1.
        -12    1    3    3    0    0 -0.13725155284E+01 -0.26549027930E+02 -0.10714150232E+02  0.28662304480E+02  0.00000000000E+00 0.  1.
</event>
<event>
 7    1  0.1193961E-011  0.5930194E+02  0.7816164E-02  0.1266605E+00
        -11   -1    0    0    0    0  0.00000000000E+00  0.00000000000E+00  0.45593999997E+02  0.45594000000E+02  0.51100000000E-03 0.  1.
         11   -1    0    0    0    0 -0.00000000000E+00 -0.00000000000E+00 -0.45593999997E+02  0.45594000000E+02  0.51100000000E-03 0. -1.
    9900012    2    1    2    0    0  0.31872070248E-01  0.31875250573E+02  0.82977261730E+00  0.59301935058E+02  0.49999983641E+02 0.  0.
         12    1    1    2    0    0 -0.31872070248E-01 -0.31875250573E+02 -0.82977261730E+00  0.31886064942E+02  0.00000000000E+00 0. -1.
         11    1    3    3    0    0 -0.52008665377E+01 -0.69769118503E+00 -0.27492556927E+01  0.59240351837E+01  0.51100000000E-03 0. -1.
        -11    1    3    3    0    0 -0.98309020748E+01  0.34661563649E+02 -0.42407637233E+01  0.36277468316E+02  0.51100000000E-03 0.  1.
         12    1    3    3    0    0  0.15063640683E+02 -0.20886218913E+01  0.78197920333E+01  0.17100431558E+02  0.00000000000E+00 0. -1.
</event>
<event>
 7    1  0.1193961E-011  0.5930194E+02  0.7816164E-02  0.1266605E+00
        -11   -1    0    0    0    0  0.00000000000E+00  0.00000000000E+00  0.45593999997E+02  0.45594000000E+02  0.51100000000E-03 0.  1.
         11   -1    0    0    0    0 -0.00000000000E+00 -0.00000000000E+00 -0.45593999997E+02  0.45594000000E+02  0.51100000000E-03 0. -1.
    9900012    2    1    2    0    0 -0.15418598332E+02 -0.19097881098E+02 -0.20353337463E+02  0.59301943756E+02  0.49999999504E+02 0.  0.
         12    1    1    2    0    0  0.15418598332E+02  0.19097881098E+02  0.20353337463E+02  0.31886056244E+02  0.00000000000E+00 0. -1.
         11    1    3    3    0    0 -0.12522615117E+02 -0.72872764055E+01  0.28084299571E+01  0.14758304980E+02  0.51100000000E-03 0. -1.
        -11    1    3    3    0    0 -0.16046063807E+02 -0.47699532147E+00 -0.58465093674E+00  0.16063794857E+02  0.51100000000E-03 0.  1.
        -12    1    3    3    0    0  0.13150080593E+02 -0.11333609371E+02 -0.22577116483E+02  0.28479843919E+02  0.00000000000E+00 0.  1.
</event>
<event>
 7    1  0.1193961E-011  0.5930192E+02  0.7816164E-02  0.1266605E+00
        -11   -1    0    0    0    0  0.00000000000E+00  0.00000000000E+00  0.45593999997E+02  0.45594000000E+02  0.51100000000E-03 0.  1.
         11   -1    0    0    0    0 -0.00000000000E+00 -0.00000000000E+00 -0.45593999997E+02  0.45594000000E+02  0.51100000000E-03 0. -1.
    9900012    2    1    2    0    0 -0.26382379603E+01  0.28163906545E+01  0.31651690472E+02  0.59301923640E+02  0.49999962819E+02 0.  0.
         12    1    1    2    0    0  0.26382379603E+01 -0.28163906545E+01 -0.31651690472E+02  0.31886076360E+02  0.00000000000E+00 0. -1.
         11    1    3    3    0    0 -0.45960611327E+01  0.10271271459E+02  0.14619327542E+02  0.18448510329E+02  0.51100000000E-03 0. -1.
        -11    1    3    3    0    0 -0.70081135475E+01 -0.58404816576E+01  0.26312426664E+02  0.27849033712E+02  0.51100000000E-03 0.  1.
         12    1    3    3    0    0  0.89659367199E+01 -0.16143991471E+01 -0.92800637335E+01  0.13004379600E+02  0.00000000000E+00 0. -1.
</event>
<event>
 7    1  0.1193961E-011  0.5930192E+02  0.7816164E-02  0.1266605E+00
        -11   -1    0    0    0    0  0.00000000000E+00  0.00000000000E+00  0.45593999997E+02  0.45594000000E+02  0.51100000000E-03 0. -1.
         11   -1    0    0    0    0 -0.00000000000E+00 -0.00000000000E+00 -0.45593999997E+02  0.45594000000E+02  0.51100000000E-03 0.  1.
    9900012    2    1    2    0    0  0.90154810560E+01  0.19471129114E+02 -0.23586404993E+02  0.59301917329E+02  0.49999951307E+02 0.  0.
         12    1    1    2    0    0 -0.90154810560E+01 -0.19471129114E+02  0.23586404993E+02  0.31886082671E+02  0.00000000000E+00 0. -1.
         11    1    3    3    0    0  0.21292677140E+02  0.82098087466E+01 -0.85300541318E+01  0.24362694498E+02  0.51100000000E-03 0. -1.
        -11    1    3    3    0    0 -0.34296405269E+01  0.16962610852E+02 -0.94070836794E+00  0.17331403104E+02  0.51100000000E-03 0.  1.
         12    1    3    3    0    0 -0.88475555574E+01 -0.57012904845E+01 -0.14115642493E+02  0.17607819726E+02  0.00000000000E+00 0. -1.
</event>
<event>
 7    1  0.1193961E-011  0.5930192E+02  0.7816164E-02  0.1266605E+00
        -11   -1    0    0    0    0  0.00000000000E+00  0.00000000000E+00  0.45593999997E+02  0.45594000000E+02  0.51100000000E-03 0.  1.
         11   -1    0    0    0    0 -0.00000000000E+00 -0.00000000000E+00 -0.45593999997E+02  0.45594000000E+02  0.51100000000E-03 0. -1.
    9900012    2    1    2    0    0  0.30972614237E+02  0.41814964287E+01  0.63193881845E+01  0.59301915071E+02  0.49999947190E+02 0.  0.
         12    1    1    2    0    0 -0.30972614237E+02 -0.41814964287E+01 -0.63193881845E+01  0.31886084929E+02  0.00000000000E+00 0. -1.
         11    1    3    3    0    0  0.12743228507E+02  0.90045953195E+01 -0.13743882296E+02  0.20793434312E+02  0.51100000000E-03 0. -1.
        -11    1    3    3    0    0  0.11695012013E+02  0.47665801533E+01 -0.27395237724E+01  0.12922793162E+02  0.51100000000E-03 0.  1.
        -12    1    3    3    0    0  0.65343737176E+01 -0.95896790442E+01  0.22802794253E+02  0.25585687597E+02  0.00000000000E+00 0.  1.
</event>
<event>
 7    1  0.1193961E-011  0.5930193E+02  0.7816164E-02  0.1266605E+00
        -11   -1    0    0    0    0  0.00000000000E+00  0.00000000000E+00  0.45593999997E+02  0.45594000000E+02  0.51100000000E-03 0. -1.
         11   -1    0    0    0    0 -0.00000000000E+00 -0.00000000000E+00 -0.45593999997E+02  0.45594000000E+02  0.51100000000E-03 0.  1.
    9900012    2    1    2    0    0  0.25942806351E+02 -0.91960163513E+01 -0.16097377893E+02  0.59301929481E+02  0.49999973471E+02 0.  0.
         12    1    1    2    0    0 -0.25942806351E+02  0.91960163513E+01  0.16097377893E+02  0.31886070519E+02  0.00000000000E+00 0. -1.
         11    1    3    3    0    0 -0.91777104353E+00 -0.29768578508E+01 -0.10353644965E+02  0.10812120545E+02  0.51100000000E-03 0. -1.
        -11    1    3    3    0    0  0.24042840177E+02 -0.20118097787E+02  0.35261052968E+01  0.31547257268E+02  0.51100000000E-03 0.  1.
         12    1    3    3    0    0  0.28177372181E+01  0.13898939287E+02 -0.92698382246E+01  0.16942551668E+02  0.00000000000E+00 0. -1.
</event>
<event>
 7    1  0.1193961E-011  0.5930192E+02  0.7816164E-02  0.1266605E+00
        -11   -1    0    0    0    0  0.00000000000E+00  0.00000000000E+00  0.45593999997E+02  0.45594000000E+02  0.51100000000E-03 0.  1.
         11   -1    0    0    0    0 -0.00000000000E+00 -0.00000000000E+00 -0.45593999997E+02  0.45594000000E+02  0.51100000000E-03 0. -1.
    9900012    2    1    2    0    0 -0.81361688690E+01  0.20795927056E+02  0.22760801886E+02  0.59301922654E+02  0.49999961020E+02 0.  0.
         12    1    1    2    0    0  0.81361688690E+01 -0.20795927056E+02 -0.22760801886E+02  0.31886077346E+02  0.00000000000E+00 0. -1.
         11    1    3    3    0    0  0.54775413512E+01 -0.19872211188E+01  0.11683148532E+02  0.13055591404E+02  0.51100000000E-03 0. -1.
        -11    1    3    3    0    0 -0.34571112171E+01  0.25174213007E+02  0.20141658373E+02  0.32424975263E+02  0.51100000000E-03 0.  1.
         12    1    3    3    0    0 -0.10156599003E+02 -0.23910648321E+01 -0.90640050194E+01  0.13821355987E+02  0.00000000000E+00 0. -1.
</event>
<event>
 7    1  0.1193961E-011  0.5930197E+02  0.7816164E-02  0.1266605E+00
        -11   -1    0    0    0    0  0.00000000000E+00  0.00000000000E+00  0.45593999997E+02  0.45594000000E+02  0.51100000000E-03 0.  1.
         11   -1    0    0    0    0 -0.00000000000E+00 -0.00000000000E+00 -0.45593999997E+02  0.45594000000E+02  0.51100000000E-03 0. -1.
    9900012    2    1    2    0    0 -0.29416760788E+02  0.86726463727E+00  0.12272772919E+02  0.59301969857E+02  0.50000047106E+02 0.  0.
         12    1    1    2    0    0  0.29416760788E+02 -0.86726463727E+00 -0.12272772919E+02  0.31886030143E+02  0.00000000000E+00 0. -1.
         11    1    3    3    0    0 -0.22585833863E+01  0.41409250730E+01  0.64451432811E-01  0.47172676012E+01  0.51100000000E-03 0. -1.
        -11    1    3    3    0    0 -0.28179019974E+02  0.16565741280E+02  0.11681007287E+02  0.34712056729E+02  0.51100000000E-03 0.  1.
        -12    1    3    3    0    0  0.10208425727E+01 -0.19839401715E+02  0.52731419884E+00  0.19872645527E+02  0.00000000000E+00 0.  1.
</event>
<event>
 7    1  0.1193961E-011  0.5930193E+02  0.7816164E-02  0.1266605E+00
        -11   -1    0    0    0    0  0.00000000000E+00  0.00000000000E+00  0.45593999997E+02  0.45594000000E+02  0.51100000000E-03 0.  1.
         11   -1    0    0    0    0 -0.00000000000E+00 -0.00000000000E+00 -0.45593999997E+02  0.45594000000E+02  0.51100000000E-03 0. -1.
    9900012    2    1    2    0    0 -0.44697442538E+01 -0.27886024683E+02  0.14802441718E+02  0.59301933025E+02  0.49999979934E+02 0.  0.
         12    1    1    2    0    0  0.44697442538E+01  0.27886024683E+02 -0.14802441718E+02  0.31886066975E+02  0.00000000000E+00 0. -1.
         11    1    3    3    0    0  0.22739261346E+01 -0.22746229117E+01  0.71938531162E-02  0.32163179987E+01  0.51100000000E-03 0. -1.
        -11    1    3    3    0    0  0.33204484171E+01 -0.34131594293E+02  0.22307177106E+02  0.40909671930E+02  0.51100000000E-03 0.  1.
        -12    1    3    3    0    0 -0.10064118806E+02  0.85201925217E+01 -0.75119292419E+01  0.15175943097E+02  0.00000000000E+00 0.  1.
</event>
<event>
 7    1  0.1193961E-011  0.5930201E+02  0.7816164E-02  0.1266605E+00
        -11   -1    0    0    0    0  0.00000000000E+00  0.00000000000E+00  0.45593999997E+02  0.45594000000E+02  0.51100000000E-03 0.  1.
         11   -1    0    0    0    0 -0.00000000000E+00 -0.00000000000E+00 -0.45593999997E+02  0.45594000000E+02  0.51100000000E-03 0. -1.
    9900012    2    1    2    0    0 -0.23719578807E+02 -0.89376589742E+01  0.19344676060E+02  0.59302005291E+02  0.50000111729E+02 0.  0.
         12    1    1    2    0    0  0.23719578807E+02  0.89376589742E+01 -0.19344676060E+02  0.31885994709E+02  0.00000000000E+00 0. -1.
         11    1    3    3    0    0 -0.23655728797E+02 -0.15145646504E+02  0.41525634014E+00  0.28091930355E+02  0.51100000000E-03 0. -1.
        -11    1    3    3    0    0 -0.11817326140E+02  0.53604272467E+01  0.88910244360E+01  0.15730025211E+02  0.51100000000E-03 0.  1.
        -12    1    3    3    0    0  0.11753476131E+02  0.84756028331E+00  0.10038395284E+02  0.15480049725E+02  0.00000000000E+00 0.  1.
</event>
<event>
 7    1  0.1193961E-011  0.5930196E+02  0.7816164E-02  0.1266605E+00
        -11   -1    0    0    0    0  0.00000000000E+00  0.00000000000E+00  0.45593999997E+02  0.45594000000E+02  0.51100000000E-03 0.  1.
         11   -1    0    0    0    0 -0.00000000000E+00 -0.00000000000E+00 -0.45593999997E+02  0.45594000000E+02  0.51100000000E-03 0. -1.
    9900012    2    1    2    0    0  0.92838142970E+01 -0.23884651062E+01  0.30410947508E+02  0.59301957571E+02  0.50000024700E+02 0.  0.
         12    1    1    2    0    0 -0.92838142970E+01  0.23884651062E+01 -0.30410947508E+02  0.31886042429E+02  0.00000000000E+00 0. -1.
         11    1    3    3    0    0  0.85907233614E+01 -0.88869058808E+01 -0.73399638986E+00  0.12382098973E+02  0.51100000000E-03 0. -1.
        -11    1    3    3    0    0  0.92410194844E+01 -0.86182975170E+01  0.17202323840E+01  0.12752673952E+02  0.51100000000E-03 0.  1.
        -12    1    3    3    0    0 -0.85479285488E+01  0.15116738292E+02  0.29424711513E+02  0.34167184647E+02  0.00000000000E+00 0.  1.
</event>
<event>
 7    1  0.1193961E-011  0.5930194E+02  0.7816164E-02  0.1266605E+00
        -11   -1    0    0    0    0  0.00000000000E+00  0.00000000000E+00  0.45593999997E+02  0.45594000000E+02  0.51100000000E-03 0. -1.
         11   -1    0    0    0    0 -0.00000000000E+00 -0.00000000000E+00 -0.45593999997E+02  0.45594000000E+02  0.51100000000E-03 0.  1.
    9900012    2    1    2    0    0 -0.28632128028E+01  0.20565475107E+02 -0.24198839551E+02  0.59301943650E+02  0.49999999311E+02 0.  0.
         12    1    1    2    0    0  0.28632128028E+01 -0.20565475107E+02  0.24198839551E+02  0.31886056350E+02  0.00000000000E+00 0. -1.
         11    1    3    3    0    0  0.91502863759E+01  0.83759553641E+01 -0.19868345506E+02  0.23422969975E+02  0.51100000000E-03 0. -1.
        -11    1    3    3    0    0  0.59981592250E+01  0.49736668391E+00 -0.11715179582E+02  0.13170828395E+02  0.51100000000E-03 0.  1.
         12    1    3    3    0    0 -0.18011658404E+02  0.11692153059E+02  0.73846855369E+01  0.22708145281E+02  0.00000000000E+00 0. -1.
</event>
<event>
 7    1  0.1193961E-011  0.5930195E+02  0.7816164E-02  0.1266605E+00
        -11   -1    0    0    0    0  0.00000000000E+00  0.00000000000E+00  0.45593999997E+02  0.45594000000E+02  0.51100000000E-03 0.  1.
         11   -1    0    0    0    0 -0.00000000000E+00 -0.00000000000E+00 -0.45593999997E+02  0.45594000000E+02  0.51100000000E-03 0. -1.
    9900012    2    1    2    0    0 -0.68053433816E+01 -0.29744556592E+02  0.92557433900E+01  0.59301950839E+02  0.50000012422E+02 0.  0.
         12    1    1    2    0    0  0.68053433816E+01  0.29744556592E+02 -0.92557433900E+01  0.31886049161E+02  0.00000000000E+00 0. -1.
         11    1    3    3    0    0  0.14492080471E+02 -0.10966888786E+02 -0.50584092920E+01  0.18864796602E+02  0.51100000000E-03 0. -1.
        -11    1    3    3    0    0  0.53080288317E+01 -0.21588787782E+00  0.28634925179E+01  0.60350117908E+01  0.51100000000E-03 0.  1.
         12    1    3    3    0    0 -0.26605452684E+02 -0.18561779929E+02  0.11450660164E+02  0.34402142446E+02  0.00000000000E+00 0. -1.
</event>
<event>
 7    1  0.1193961E-011  0.5930195E+02  0.7816164E-02  0.1266605E+00
        -11   -1    0    0    0    0  0.00000000000E+00  0.00000000000E+00  0.45593999997E+02  0.45594000000E+02  0.51100000000E-03 0. -1.
         11   -1    0    0    0    0 -0.00000000000E+00 -0.00000000000E+00 -0.45593999997E+02  0.45594000000E+02  0.51100000000E-03 0.  1.
    9900012    2    1    2    0    0 -0.10640121582E+02  0.27621527224E+02 -0.11855758433E+02  0.59301953499E+02  0.50000017273E+02 0.  0.
         12    1    1    2    0    0  0.10640121582E+02 -0.27621527224E+02  0.11855758433E+02  0.31886046501E+02  0.00000000000E+00 0. -1.
         11    1    3    3    0    0  0.78017638742E+01 -0.99015792754E+00 -0.40834595110E+01  0.88612964125E+01  0.51100000000E-03 0. -1.
        -11    1    3    3    0    0 -0.10074865406E+02  0.36774098742E+02 -0.53404531190E+01  0.38501398560E+02  0.51100000000E-03 0.  1.
         12    1    3    3    0    0 -0.83670200509E+01 -0.81624135909E+01 -0.24318458025E+01  0.11939258527E+02  0.00000000000E+00 0. -1.
</event>
<event>
 7    1  0.1193961E-011  0.5930194E+02  0.7816164E-02  0.1266605E+00
        -11   -1    0    0    0    0  0.00000000000E+00  0.00000000000E+00  0.45593999997E+02  0.45594000000E+02  0.51100000000E-03 0.  1.
         11   -1    0    0    0    0 -0.00000000000E+00 -0.00000000000E+00 -0.45593999997E+02  0.45594000000E+02  0.51100000000E-03 0. -1.
    9900012    2    1    2    0    0 -0.57453178605E+01  0.21039667809E+02  0.23260364080E+02  0.59301939786E+02  0.49999992265E+02 0.  0.
         12    1    1    2    0    0  0.57453178605E+01 -0.21039667809E+02 -0.23260364080E+02  0.31886060214E+02  0.00000000000E+00 0. -1.
         11    1    3    3    0    0  0.96892181501E+01 -0.56364557402E+01  0.32450230858E+01  0.11669651098E+02  0.51100000000E-03 0. -1.
        -11    1    3    3    0    0  0.87894828407E+01  0.11508302622E+02  0.48127988461E+01  0.15259720536E+02  0.51100000000E-03 0.  1.
        -12    1    3    3    0    0 -0.24224018851E+02  0.15167820927E+02  0.15202542148E+02  0.32372568152E+02  0.00000000000E+00 0.  1.
</event>
<event>
 7    1  0.1193961E-011  0.5930194E+02  0.7816164E-02  0.1266605E+00
        -11   -1    0    0    0    0  0.00000000000E+00  0.00000000000E+00  0.45593999997E+02  0.45594000000E+02  0.51100000000E-03 0.  1.
         11   -1    0    0    0    0 -0.00000000000E+00 -0.00000000000E+00 -0.45593999997E+02  0.45594000000E+02  0.51100000000E-03 0. -1.
    9900012    2    1    2    0    0 -0.41365919797E+01 -0.12830794723E+01  0.31590552367E+02  0.59301942154E+02  0.49999996583E+02 0.  0.
         12    1    1    2    0    0  0.41365919797E+01  0.12830794723E+01 -0.31590552367E+02  0.31886057846E+02  0.00000000000E+00 0. -1.
         11    1    3    3    0    0  0.10513659273E+02 -0.11622721918E+02  0.17770981642E+01  0.15772849275E+02  0.51100000000E-03 0. -1.
        -11    1    3    3    0    0  0.42330289307E+01  0.75548708126E+01  0.66283501660E+00  0.86852724450E+01  0.51100000000E-03 0.  1.
        -12    1    3    3    0    0 -0.18883280183E+02  0.27847716332E+01  0.29150619186E+02  0.34843820434E+02  0.00000000000E+00 0.  1.
</event>
<event>
 7    1  0.1193961E-011  0.5930194E+02  0.7816164E-02  0.1266605E+00
        -11   -1    0    0    0    0  0.00000000000E+00  0.00000000000E+00  0.45593999997E+02  0.45594000000E+02  0.51100000000E-03 0. -1.
         11   -1    0    0    0    0 -0.00000000000E+00 -0.00000000000E+00 -0.45593999997E+02  0.45594000000E+02  0.51100000000E-03 0.  1.
    9900012    2    1    2    0    0 -0.17456590393E+02 -0.98779541814E+01  0.24787383033E+02  0.59301939024E+02  0.49999990874E+02 0.  0.
         12    1    1    2    0    0  0.17456590393E+02  0.98779541814E+01 -0.24787383033E+02  0.31886060976E+02  0.00000000000E+00 0. -1.
         11    1    3    3    0    0 -0.76357015012E+00 -0.55331804639E+01  0.20993537463E+02  0.21723897921E+02  0.51100000000E-03 0. -1.
        -11    1    3    3    0    0 -0.31424268847E+01 -0.15880472480E+02 -0.60008334256E+01  0.17264827105E+02  0.51100000000E-03 0.  1.
        -12    1    3    3    0    0 -0.13550593359E+02  0.11535698762E+02  0.97946789958E+01  0.20313213998E+02  0.00000000000E+00 0.  1.
</event>
<event>
 7    1  0.1193961E-011  0.5930194E+02  0.7816164E-02  0.1266605E+00
        -11   -1    0    0    0    0  0.00000000000E+00  0.00000000000E+00  0.45593999997E+02  0.45594000000E+02  0.51100000000E-03 0. -1.
         11   -1    0    0    0    0 -0.00000000000E+00 -0.00000000000E+00 -0.45593999997E+02  0.45594000000E+02  0.51100000000E-03 0.  1.
    9900012    2    1    2    0    0 -0.31599978731E+02  0.35013614705E+01 -0.24295163597E+01  0.59301941327E+02  0.49999995075E+02 0.  0.
         12    1    1    2    0    0  0.31599978731E+02 -0.35013614705E+01  0.24295163597E+01  0.31886058673E+02  0.00000000000E+00 0. -1.
         11    1    3    3    0    0  0.34909626477E+01 -0.53312668067E+01  0.21233199155E+01  0.67169720632E+01  0.51100000000E-03 0. -1.
        -11    1    3    3    0    0 -0.22279788493E+01 -0.12617182431E+02  0.14142408823E+01  0.12890200145E+02  0.51100000000E-03 0.  1.
         12    1    3    3    0    0 -0.32862962529E+02  0.21449810708E+02 -0.59670771575E+01  0.39694769119E+02  0.00000000000E+00 0. -1.
</event>
<event>
 7    1  0.1193961E-011  0.5930194E+02  0.7816164E-02  0.1266605E+00
        -11   -1    0    0    0    0  0.00000000000E+00  0.00000000000E+00  0.45593999997E+02  0.45594000000E+02  0.51100000000E-03 0. -1.
         11   -1    0    0    0    0 -0.00000000000E+00 -0.00000000000E+00 -0.45593999997E+02  0.45594000000E+02  0.51100000000E-03 0.  1.
    9900012    2    1    2    0    0 -0.32955519251E+01 -0.26617648682E+02 -0.17244150292E+02  0.59301943437E+02  0.49999998922E+02 0.  0.
         12    1    1    2    0    0  0.32955519251E+01  0.26617648682E+02  0.17244150292E+02  0.31886056563E+02  0.00000000000E+00 0. -1.
         11    1    3    3    0    0  0.46723780521E+01 -0.10643483874E+02  0.14593112327E+02  0.18656735869E+02  0.51100000000E-03 0. -1.
        -11    1    3    3    0    0  0.51649490591E+01 -0.72188479260E+01 -0.74124484494E+01  0.11564292302E+02  0.51100000000E-03 0.  1.
        -12    1    3    3    0    0 -0.13132879036E+02 -0.87553168821E+01 -0.24424814170E+02  0.29080915266E+02  0.00000000000E+00 0.  1.
</event>
<event>
 7    1  0.1193961E-011  0.5930193E+02  0.7816164E-02  0.1266605E+00
        -11   -1    0    0    0    0  0.00000000000E+00  0.00000000000E+00  0.45593999997E+02  0.45594000000E+02  0.51100000000E-03 0.  1.
         11   -1    0    0    0    0 -0.00000000000E+00 -0.00000000000E+00 -0.45593999997E+02  0.45594000000E+02  0.51100000000E-03 0. -1.
    9900012    2    1    2    0    0 -0.15526691938E+02 -0.23955982603E+02  0.14204021927E+02  0.59301929312E+02  0.49999973161E+02 0.  0.
         12    1    1    2    0    0  0.15526691938E+02  0.23955982603E+02 -0.14204021927E+02  0.31886070688E+02  0.00000000000E+00 0. -1.
         11    1    3    3    0    0 -0.16986315412E+02  0.68830109577E+00  0.15747880211E+02  0.23173355413E+02  0.51100000000E-03 0. -1.
        -11    1    3    3    0    0  0.36937596255E+01  0.10698126765E+01  0.77853758654E+01  0.86833424993E+01  0.51100000000E-03 0.  1.
         12    1    3    3    0    0 -0.22341361518E+01 -0.25714096376E+02 -0.93292341494E+01  0.27445231399E+02  0.00000000000E+00 0. -1.
</event>
<event>
 7    1  0.1193961E-011  0.5930200E+02  0.7816164E-02  0.1266605E+00
        -11   -1    0    0    0    0  0.00000000000E+00  0.00000000000E+00  0.45593999997E+02  0.45594000000E+02  0.51100000000E-03 0.  1.
         11   -1    0    0    0    0 -0.00000000000E+00 -0.00000000000E+00 -0.45593999997E+02  0.45594000000E+02  0.51100000000E-03 0. -1.
    9900012    2    1    2    0    0  0.24133830895E+02  0.24450091263E+01  0.20695338273E+02  0.59302001670E+02  0.50000105125E+02 0.  0.
         12    1    1    2    0    0 -0.24133830895E+02 -0.24450091263E+01 -0.20695338273E+02  0.31885998330E+02  0.00000000000E+00 0. -1.
         11    1    3    3    0    0  0.15655401932E+02 -0.74849305019E+01  0.87562487057E+01  0.19436761200E+02  0.51100000000E-03 0. -1.
        -11    1    3    3    0    0  0.18371171695E+02 -0.37871756820E+01  0.13152944418E+02  0.22909443385E+02  0.51100000000E-03 0.  1.
         12    1    3    3    0    0 -0.98927427323E+01  0.13717115310E+02 -0.12138548506E+01  0.16955797085E+02  0.00000000000E+00 0. -1.
</event>
<event>
 7    1  0.1193961E-011  0.5930196E+02  0.7816164E-02  0.1266605E+00
        -11   -1    0    0    0    0  0.00000000000E+00  0.00000000000E+00  0.45593999997E+02  0.45594000000E+02  0.51100000000E-03 0.  1.
         11   -1    0    0    0    0 -0.00000000000E+00 -0.00000000000E+00 -0.45593999997E+02  0.45594000000E+02  0.51100000000E-03 0. -1.
    9900012    2    1    2    0    0 -0.23900552497E+02 -0.17820759788E+02  0.11309445869E+02  0.59301961441E+02  0.50000031758E+02 0.  0.
         12    1    1    2    0    0  0.23900552497E+02  0.17820759788E+02 -0.11309445869E+02  0.31886038559E+02  0.00000000000E+00 0. -1.
         11    1    3    3    0    0 -0.20647953057E+01  0.16693478086E+01 -0.55563890132E+01  0.61582108512E+01  0.51100000000E-03 0. -1.
        -11    1    3    3    0    0  0.87047572233E+01 -0.17467850448E+02  0.38955991027E+01  0.19901615267E+02  0.51100000000E-03 0.  1.
        -12    1    3    3    0    0 -0.30540514415E+02 -0.20222571485E+01  0.12970235780E+02  0.33242135323E+02  0.00000000000E+00 0.  1.
</event>
<event>
 7    1  0.1193961E-011  0.5930201E+02  0.7816164E-02  0.1266605E+00
        -11   -1    0    0    0    0  0.00000000000E+00  0.00000000000E+00  0.45593999997E+02  0.45594000000E+02  0.51100000000E-03 0.  1.
         11   -1    0    0    0    0 -0.00000000000E+00 -0.00000000000E+00 -0.45593999997E+02  0.45594000000E+02  0.51100000000E-03 0. -1.
    9900012    2    1    2    0    0  0.17667516849E+02 -0.18989807984E+02  0.18546225406E+02  0.59302008786E+02  0.50000118104E+02 0.  0.
         12    1    1    2    0    0 -0.17667516849E+02  0.18989807984E+02 -0.18546225406E+02  0.31885991214E+02  0.00000000000E+00 0. -1.
         11    1    3    3    0    0  0.11892529463E+02 -0.71338596585E+01 -0.74132798532E+01  0.15725168651E+02  0.51100000000E-03 0. -1.
        -11    1    3    3    0    0  0.88453503435E+01 -0.20871214771E+02  0.95372354890E+01  0.24592817849E+02  0.51100000000E-03 0.  1.
        -12    1    3    3    0    0 -0.30703629581E+01  0.90152664454E+01  0.16422269770E+02  0.18984022286E+02  0.00000000000E+00 0.  1.
</event>
<event>
 7    1  0.1193961E-011  0.5930234E+02  0.7816164E-02  0.1266603E+00
        -11   -1    0    0    0    0  0.00000000000E+00  0.00000000000E+00  0.45593999997E+02  0.45594000000E+02  0.51100000000E-03 0. -1.
         11   -1    0    0    0    0 -0.00000000000E+00 -0.00000000000E+00 -0.45593999997E+02  0.45594000000E+02  0.51100000000E-03 0.  1.
    9900012    2    1    2    0    0  0.11279931040E+02  0.53857233905E+01 -0.29333465391E+02  0.59302344094E+02  0.50000729619E+02 0.  0.
         12    1    1    2    0    0 -0.11279931040E+02 -0.53857233905E+01  0.29333465391E+02  0.31885655906E+02  0.00000000000E+00 0. -1.
         11    1    3    3    0    0 -0.68659780632E+01 -0.11478165664E+02 -0.23784058868E+01  0.13584798732E+02  0.51100000000E-03 0. -1.
        -11    1    3    3    0    0 -0.10424340821E+01 -0.10352008334E+01 -0.17897499061E+02  0.17957694241E+02  0.51100000000E-03 0.  1.
        -12    1    3    3    0    0  0.19188343185E+02  0.17899089888E+02 -0.90575604440E+01  0.27759851120E+02  0.00000000000E+00 0.  1.
</event>
<event>
 7    1  0.1193961E-011  0.5930194E+02  0.7816164E-02  0.1266605E+00
        -11   -1    0    0    0    0  0.00000000000E+00  0.00000000000E+00  0.45593999997E+02  0.45594000000E+02  0.51100000000E-03 0.  1.
         11   -1    0    0    0    0 -0.00000000000E+00 -0.00000000000E+00 -0.45593999997E+02  0.45594000000E+02  0.51100000000E-03 0. -1.
    9900012    2    1    2    0    0 -0.16741928406E+02 -0.11895180965E+02  0.24391259332E+02  0.59301936763E+02  0.49999986750E+02 0.  0.
         12    1    1    2    0    0  0.16741928406E+02  0.11895180965E+02 -0.24391259332E+02  0.31886063237E+02  0.00000000000E+00 0. -1.
         11    1    3    3    0    0  0.46078591371E+01 -0.11223685471E+02  0.53483714527E+01  0.13259281988E+02  0.51100000000E-03 0. -1.
        -11    1    3    3    0    0 -0.13842998703E+02 -0.17842523940E+02  0.14237034162E+02  0.26696018722E+02  0.51100000000E-03 0.  1.
         12    1    3    3    0    0 -0.75067888406E+01  0.17171028446E+02  0.48058537173E+01  0.19346636052E+02  0.00000000000E+00 0. -1.
</event>
<event>
 7    1  0.1193961E-011  0.5930196E+02  0.7816164E-02  0.1266605E+00
        -11   -1    0    0    0    0  0.00000000000E+00  0.00000000000E+00  0.45593999997E+02  0.45594000000E+02  0.51100000000E-03 0. -1.
         11   -1    0    0    0    0 -0.00000000000E+00 -0.00000000000E+00 -0.45593999997E+02  0.45594000000E+02  0.51100000000E-03 0.  1.
    9900012    2    1    2    0    0 -0.15538310126E+02  0.17022598293E+02 -0.22034320833E+02  0.59301964988E+02  0.50000038227E+02 0.  0.
         12    1    1    2    0    0  0.15538310126E+02 -0.17022598293E+02  0.22034320833E+02  0.31886035012E+02  0.00000000000E+00 0. -1.
         11    1    3    3    0    0 -0.79185592404E+01  0.11957340430E+02 -0.34065187733E+01  0.14740622138E+02  0.51100000000E-03 0. -1.
        -11    1    3    3    0    0 -0.12648366934E+02  0.19567552424E+02 -0.45622436318E+01  0.23742037848E+02  0.51100000000E-03 0.  1.
        -12    1    3    3    0    0  0.50286160484E+01 -0.14502294561E+02 -0.14065558428E+02  0.20819305003E+02  0.00000000000E+00 0.  1.
</event>
<event>
 7    1  0.1193961E-011  0.5930194E+02  0.7816164E-02  0.1266605E+00
        -11   -1    0    0    0    0  0.00000000000E+00  0.00000000000E+00  0.45593999997E+02  0.45594000000E+02  0.51100000000E-03 0. -1.
         11   -1    0    0    0    0 -0.00000000000E+00 -0.00000000000E+00 -0.45593999997E+02  0.45594000000E+02  0.51100000000E-03 0.  1.
    9900012    2    1    2    0    0  0.22216650327E+02 -0.25092621367E+01 -0.22734224263E+02  0.59301938765E+02  0.49999990402E+02 0.  0.
         12    1    1    2    0    0 -0.22216650327E+02  0.25092621367E+01  0.22734224263E+02  0.31886061235E+02  0.00000000000E+00 0. -1.
         11    1    3    3    0    0  0.34030733781E+01 -0.22861981638E+01 -0.10917059545E+01  0.42425738194E+01  0.51100000000E-03 0. -1.
        -11    1    3    3    0    0  0.14795416227E+02 -0.21016775121E+02 -0.22068557242E+02  0.33876694007E+02  0.51100000000E-03 0.  1.
         12    1    3    3    0    0  0.40181607221E+01  0.20793711148E+02  0.42603893353E+00  0.21182670938E+02  0.00000000000E+00 0. -1.
</event>
<event>
 7    1  0.1193961E-011  0.5930188E+02  0.7816164E-02  0.1266605E+00
        -11   -1    0    0    0    0  0.00000000000E+00  0.00000000000E+00  0.45593999997E+02  0.45594000000E+02  0.51100000000E-03 0.  1.
         11   -1    0    0    0    0 -0.00000000000E+00 -0.00000000000E+00 -0.45593999997E+02  0.45594000000E+02  0.51100000000E-03 0. -1.
    9900012    2    1    2    0    0  0.14359678539E+02 -0.82196174158E+00  0.28457836280E+02  0.59301883356E+02  0.49999889350E+02 0.  0.
         12    1    1    2    0    0 -0.14359678539E+02  0.82196174158E+00 -0.28457836280E+02  0.31886116644E+02  0.00000000000E+00 0. -1.
         11    1    3    3    0    0 -0.13092639529E+02  0.52044369948E+01  0.95150196325E+01  0.17001146230E+02  0.51100000000E-03 0. -1.
        -11    1    3    3    0    0  0.10916473963E+02 -0.13965509286E+02  0.29596221507E+01  0.17971205217E+02  0.51100000000E-03 0.  1.
        -12    1    3    3    0    0  0.16535844105E+02  0.79391105495E+01  0.15983194497E+02  0.24329531909E+02  0.00000000000E+00 0.  1.
</event>
<event>
 7    1  0.1193961E-011  0.5930194E+02  0.7816164E-02  0.1266605E+00
        -11   -1    0    0    0    0  0.00000000000E+00  0.00000000000E+00  0.45593999997E+02  0.45594000000E+02  0.51100000000E-03 0. -1.
         11   -1    0    0    0    0 -0.00000000000E+00 -0.00000000000E+00 -0.45593999997E+02  0.45594000000E+02  0.51100000000E-03 0.  1.
    9900012    2    1    2    0    0 -0.19885607113E+02 -0.23462255659E+02  0.84146496391E+01  0.59301935027E+02  0.49999983585E+02 0.  0.
         12    1    1    2    0    0  0.19885607113E+02  0.23462255659E+02 -0.84146496391E+01  0.31886064973E+02  0.00000000000E+00 0. -1.
         11    1    3    3    0    0 -0.29809907423E+02 -0.31644171879E+02  0.83534568692E+01  0.44269226743E+02  0.51100000000E-03 0. -1.
        -11    1    3    3    0    0 -0.53104921092E+00 -0.33472629036E+00  0.13473695876E+01  0.14864252489E+01  0.51100000000E-03 0.  1.
        -12    1    3    3    0    0  0.10455349521E+02  0.85166425105E+01 -0.12861768177E+01  0.13546283035E+02  0.00000000000E+00 0.  1.
</event>
<event>
 7    1  0.1193961E-011  0.5930219E+02  0.7816164E-02  0.1266604E+00
        -11   -1    0    0    0    0  0.00000000000E+00  0.00000000000E+00  0.45593999997E+02  0.45594000000E+02  0.51100000000E-03 0. -1.
         11   -1    0    0    0    0 -0.00000000000E+00 -0.00000000000E+00 -0.45593999997E+02  0.45594000000E+02  0.51100000000E-03 0.  1.
    9900012    2    1    2    0    0 -0.94511840976E+01 -0.24119244157E+01 -0.30357246182E+02  0.59302193503E+02  0.50000454981E+02 0.  0.
         12    1    1    2    0    0  0.94511840976E+01  0.24119244157E+01  0.30357246182E+02  0.31885806497E+02  0.00000000000E+00 0. -1.
         11    1    3    3    0    0  0.18060454787E+01  0.19455214312E+01  0.41707939292E+01  0.49439231559E+01  0.51100000000E-03 0. -1.
        -11    1    3    3    0    0  0.13294180815E+02 -0.94785313150E+01 -0.93234542831E+01  0.18801717992E+02  0.51100000000E-03 0.  1.
        -12    1    3    3    0    0 -0.24551410392E+02  0.51210854680E+01 -0.25204585828E+02  0.35556552354E+02  0.00000000000E+00 0.  1.
</event>
<event>
 7    1  0.1193961E-011  0.5930194E+02  0.7816164E-02  0.1266605E+00
        -11   -1    0    0    0    0  0.00000000000E+00  0.00000000000E+00  0.45593999997E+02  0.45594000000E+02  0.51100000000E-03 0. -1.
         11   -1    0    0    0    0 -0.00000000000E+00 -0.00000000000E+00 -0.45593999997E+02  0.45594000000E+02  0.51100000000E-03 0.  1.
    9900012    2    1    2    0    0  0.16333507904E+02  0.16104662397E+02 -0.22148983809E+02  0.59301935409E+02  0.49999984281E+02 0.  0.
         12    1    1    2    0    0 -0.16333507904E+02 -0.16104662397E+02  0.22148983809E+02  0.31886064591E+02  0.00000000000E+00 0. -1.
         11    1    3    3    0    0  0.64353544764E+01 -0.10703442869E+02 -0.34054711391E+01  0.12945065099E+02  0.51100000000E-03 0. -1.
        -11    1    3    3    0    0  0.64795395757E+01 -0.24345923861E+01 -0.15200888754E+02  0.16702655249E+02  0.51100000000E-03 0.  1.
         12    1    3    3    0    0  0.34186138515E+01  0.29242697652E+02 -0.35426239155E+01  0.29654215060E+02  0.00000000000E+00 0. -1.
</event>
<event>
 7    1  0.1193961E-011  0.5930196E+02  0.7816164E-02  0.1266605E+00
        -11   -1    0    0    0    0  0.00000000000E+00  0.00000000000E+00  0.45593999997E+02  0.45594000000E+02  0.51100000000E-03 0. -1.
         11   -1    0    0    0    0 -0.00000000000E+00 -0.00000000000E+00 -0.45593999997E+02  0.45594000000E+02  0.51100000000E-03 0.  1.
    9900012    2    1    2    0    0  0.22361725934E+02  0.12626609808E+02 -0.18900827294E+02  0.59301963331E+02  0.50000035205E+02 0.  0.
         12    1    1    2    0    0 -0.22361725934E+02 -0.12626609808E+02  0.18900827294E+02  0.31886036669E+02  0.00000000000E+00 0. -1.
         11    1    3    3    0    0  0.15934699746E+02  0.12443551502E+01 -0.47604595553E+01  0.16677081615E+02  0.51100000000E-03 0. -1.
        -11    1    3    3    0    0  0.18203847708E+02 -0.47211377111E+01 -0.12554683461E+02  0.22611706918E+02  0.51100000000E-03 0.  1.
         12    1    3    3    0    0 -0.11776821520E+02  0.16103392369E+02 -0.15856842781E+01  0.20013174799E+02  0.00000000000E+00 0. -1.
</event>
<event>
 7    1  0.1193961E-011  0.5930194E+02  0.7816164E-02  0.1266605E+00
        -11   -1    0    0    0    0  0.00000000000E+00  0.00000000000E+00  0.45593999997E+02  0.45594000000E+02  0.51100000000E-03 0.  1.
         11   -1    0    0    0    0 -0.00000000000E+00 -0.00000000000E+00 -0.45593999997E+02  0.45594000000E+02  0.51100000000E-03 0. -1.
    9900012    2    1    2    0    0  0.27626291861E+02 -0.11867226673E+02  0.10614992153E+02  0.59301935186E+02  0.49999983875E+02 0.  0.
         12    1    1    2    0    0 -0.27626291861E+02  0.11867226673E+02 -0.10614992153E+02  0.31886064814E+02  0.00000000000E+00 0. -1.
         11    1    3    3    0    0  0.56543691008E+00 -0.88583465757E+01  0.15968080569E+01  0.90188590845E+01  0.51100000000E-03 0.  1.
        -11    1    3    3    0    0  0.32978634305E+01 -0.43519332531E+01 -0.15306404140E+02  0.16251191778E+02  0.51100000000E-03 0. -1.
        -12    1    3    3    0    0  0.23762991521E+02  0.13430531556E+01  0.24324588235E+02  0.34031884324E+02  0.00000000000E+00 0.  1.
</event>
<event>
 7    1  0.1193961E-011  0.5930195E+02  0.7816164E-02  0.1266605E+00
        -11   -1    0    0    0    0  0.00000000000E+00  0.00000000000E+00  0.45593999997E+02  0.45594000000E+02  0.51100000000E-03 0.  1.
         11   -1    0    0    0    0 -0.00000000000E+00 -0.00000000000E+00 -0.45593999997E+02  0.45594000000E+02  0.51100000000E-03 0. -1.
    9900012    2    1    2    0    0  0.26337274789E+02 -0.50765587724E+01  0.17242286779E+02  0.59301953747E+02  0.50000017725E+02 0.  0.
         12    1    1    2    0    0 -0.26337274789E+02  0.50765587724E+01 -0.17242286779E+02  0.31886046253E+02  0.00000000000E+00 0. -1.
         11    1    3    3    0    0 -0.31896905053E+01 -0.27984326818E+00 -0.23758551415E+01  0.39871199742E+01  0.51100000000E-03 0.  1.
        -11    1    3    3    0    0  0.70319431514E+01 -0.30435205669E+01 -0.13333594674E+02  0.15378426093E+02  0.51100000000E-03 0. -1.
         12    1    3    3    0    0  0.22495022143E+02 -0.17531949373E+01  0.32951736595E+02  0.39936407679E+02  0.00000000000E+00 0. -1.
</event>
<event>
 7    1  0.1193961E-011  0.5930196E+02  0.7816164E-02  0.1266605E+00
        -11   -1    0    0    0    0  0.00000000000E+00  0.00000000000E+00  0.45593999997E+02  0.45594000000E+02  0.51100000000E-03 0. -1.
         11   -1    0    0    0    0 -0.00000000000E+00 -0.00000000000E+00 -0.45593999997E+02  0.45594000000E+02  0.51100000000E-03 0.  1.
    9900012    2    1    2    0    0  0.25917322701E+02  0.13937034679E+02 -0.12278881878E+02  0.59301960864E+02  0.50000030705E+02 0.  0.
         12    1    1    2    0    0 -0.25917322701E+02 -0.13937034679E+02  0.12278881878E+02  0.31886039136E+02  0.00000000000E+00 0. -1.
         11    1    3    3    0    0  0.15538824349E+02  0.29969720294E+01  0.11690861486E+02  0.19675191132E+02  0.51100000000E-03 0. -1.
        -11    1    3    3    0    0  0.18673035815E+02  0.16884058022E+01 -0.17363232688E+02  0.25554154855E+02  0.51100000000E-03 0.  1.
        -12    1    3    3    0    0 -0.82945374638E+01  0.92516568475E+01 -0.66065106764E+01  0.14072614877E+02  0.00000000000E+00 0.  1.
</event>
<event>
 7    1  0.1193961E-011  0.5930202E+02  0.7816164E-02  0.1266605E+00
        -11   -1    0    0    0    0  0.00000000000E+00  0.00000000000E+00  0.45593999997E+02  0.45594000000E+02  0.51100000000E-03 0. -1.
         11   -1    0    0    0    0 -0.00000000000E+00 -0.00000000000E+00 -0.45593999997E+02  0.45594000000E+02  0.51100000000E-03 0.  1.
    9900012    2    1    2    0    0 -0.26597198165E+02 -0.60681667902E+01 -0.16507034319E+02  0.59302019062E+02  0.50000136843E+02 0.  0.
         12    1    1    2    0    0  0.26597198165E+02  0.60681667902E+01  0.16507034319E+02  0.31885980938E+02  0.00000000000E+00 0. -1.
         11    1    3    3    0    0  0.60290553114E+01  0.22299918417E+01 -0.92900757201E+01  0.11297250936E+02  0.51100000000E-03 0. -1.
        -11    1    3    3    0    0 -0.26611697910E+02 -0.60089662532E+01 -0.19909520703E+02  0.33773941967E+02  0.51100000000E-03 0.  1.
        -12    1    3    3    0    0 -0.60145555659E+01 -0.22891923787E+01  0.12692562104E+02  0.14230826159E+02  0.00000000000E+00 0.  1.
</event>
<event>
 7    1  0.1193961E-011  0.5930194E+02  0.7816164E-02  0.1266605E+00
        -11   -1    0    0    0    0  0.00000000000E+00  0.00000000000E+00  0.45593999997E+02  0.45594000000E+02  0.51100000000E-03 0.  1.
         11   -1    0    0    0    0 -0.00000000000E+00 -0.00000000000E+00 -0.45593999997E+02  0.45594000000E+02  0.51100000000E-03 0. -1.
    9900012    2    1    2    0    0 -0.94714108970E+01  0.23210617387E+02  0.19704836663E+02  0.59301937656E+02  0.49999988380E+02 0.  0.
         12    1    1    2    0    0  0.94714108970E+01 -0.23210617387E+02 -0.19704836663E+02  0.31886062344E+02  0.00000000000E+00 0. -1.
         11    1    3    3    0    0  0.20415296841E+01 -0.91367052955E+01 -0.97650120742E+00  0.94127988387E+01  0.51100000000E-03 0. -1.
        -11    1    3    3    0    0 -0.14444327075E+02  0.35428762928E+01  0.13436613489E+02  0.20043281652E+02  0.51100000000E-03 0.  1.
        -12    1    3    3    0    0  0.29313864937E+01  0.28804446390E+02  0.72447243816E+01  0.29845857166E+02  0.00000000000E+00 0.  1.
</event>
<event>
 7    1  0.1193961E-011  0.5930191E+02  0.7816164E-02  0.1266605E+00
        -11   -1    0    0    0    0  0.00000000000E+00  0.00000000000E+00  0.45593999997E+02  0.45594000000E+02  0.51100000000E-03 0. -1.
         11   -1    0    0    0    0 -0.00000000000E+00 -0.00000000000E+00 -0.45593999997E+02  0.45594000000E+02  0.51100000000E-03 0.  1.
    9900012    2    1    2    0    0  0.26707270835E+02  0.50622192347E+01 -0.16667876621E+02  0.59301913847E+02  0.49999944958E+02 0.  0.
         12    1    1    2    0    0 -0.26707270835E+02 -0.50622192347E+01  0.16667876621E+02  0.31886086153E+02  0.00000000000E+00 0. -1.
         11    1    3    3    0    0  0.12440175099E+01 -0.59806729534E+01  0.50651807780E+01  0.79354952659E+01  0.51100000000E-03 0. -1.
        -11    1    3    3    0    0 -0.88113293168E+01  0.83435064937E+01 -0.49109289476E+01  0.13090868891E+02  0.51100000000E-03 0.  1.
        -12    1    3    3    0    0  0.34274582642E+02  0.26993856944E+01 -0.16822128452E+02  0.38275549690E+02  0.00000000000E+00 0.  1.
</event>
<event>
 7    1  0.1193961E-011  0.5930196E+02  0.7816164E-02  0.1266605E+00
        -11   -1    0    0    0    0  0.00000000000E+00  0.00000000000E+00  0.45593999997E+02  0.45594000000E+02  0.51100000000E-03 0.  1.
         11   -1    0    0    0    0 -0.00000000000E+00 -0.00000000000E+00 -0.45593999997E+02  0.45594000000E+02  0.51100000000E-03 0. -1.
    9900012    2    1    2    0    0 -0.28247760324E+02  0.14648301943E+02 -0.20521019019E+01  0.59301955476E+02  0.50000020879E+02 0.  0.
         12    1    1    2    0    0  0.28247760324E+02 -0.14648301943E+02  0.20521019019E+01  0.31886044524E+02  0.00000000000E+00 0. -1.
         11    1    3    3    0    0 -0.21867806752E+02 -0.24329194419E+01  0.73616898113E+01  0.23201606546E+02  0.51100000000E-03 0. -1.
        -11    1    3    3    0    0 -0.57158333641E+01 -0.85326706038E+00  0.88014626581E+01  0.10529224136E+02  0.51100000000E-03 0.  1.
         12    1    3    3    0    0 -0.66412020785E+00  0.17934488445E+02 -0.18215254371E+02  0.25571124794E+02  0.00000000000E+00 0. -1.
</event>
<event>
 7    1  0.1193961E-011  0.5930194E+02  0.7816164E-02  0.1266605E+00
        -11   -1    0    0    0    0  0.00000000000E+00  0.00000000000E+00  0.45593999997E+02  0.45594000000E+02  0.51100000000E-03 0. -1.
         11   -1    0    0    0    0 -0.00000000000E+00 -0.00000000000E+00 -0.45593999997E+02  0.45594000000E+02  0.51100000000E-03 0.  1.
    9900012    2    1    2    0    0 -0.26967381896E+02 -0.16784000965E+02 -0.27889813552E+01  0.59301940480E+02  0.49999993529E+02 0.  0.
         12    1    1    2    0    0  0.26967381896E+02  0.16784000965E+02  0.27889813552E+01  0.31886059520E+02  0.00000000000E+00 0. -1.
         11    1    3    3    0    0 -0.21897228551E+02 -0.17044750527E+02 -0.25963189566E+01  0.27870289039E+02  0.51100000000E-03 0. -1.
        -11    1    3    3    0    0 -0.76045515949E+01 -0.45629289092E+01 -0.14008708960E+02  0.16579911103E+02  0.51100000000E-03 0.  1.
         12    1    3    3    0    0  0.25343982499E+01  0.48236784707E+01  0.13816046561E+02  0.14851740338E+02  0.00000000000E+00 0. -1.
</event>
<event>
 7    1  0.1193961E-011  0.5930197E+02  0.7816164E-02  0.1266605E+00
        -11   -1    0    0    0    0  0.00000000000E+00  0.00000000000E+00  0.45593999997E+02  0.45594000000E+02  0.51100000000E-03 0. -1.
         11   -1    0    0    0    0 -0.00000000000E+00 -0.00000000000E+00 -0.45593999997E+02  0.45594000000E+02  0.51100000000E-03 0.  1.
    9900012    2    1    2    0    0  0.29915797001E+02 -0.10290967177E+02 -0.39824298921E+01  0.59301973852E+02  0.50000054392E+02 0.  0.
         12    1    1    2    0    0 -0.29915797001E+02  0.10290967177E+02  0.39824298921E+01  0.31886026148E+02  0.00000000000E+00 0. -1.
         11    1    3    3    0    0  0.82725701197E+01  0.18442331327E+01  0.71571283241E+01  0.11093290690E+02  0.51100000000E-03 0. -1.
        -11    1    3    3    0    0  0.27259162982E+02  0.28897752340E+01 -0.15625951931E+02  0.31552862650E+02  0.51100000000E-03 0.  1.
        -12    1    3    3    0    0 -0.56159361003E+01 -0.15024975544E+02  0.44863937144E+01  0.16655820512E+02  0.00000000000E+00 0.  1.
</event>
<event>
 7    1  0.1193961E-011  0.5930195E+02  0.7816164E-02  0.1266605E+00
        -11   -1    0    0    0    0  0.00000000000E+00  0.00000000000E+00  0.45593999997E+02  0.45594000000E+02  0.51100000000E-03 0.  1.
         11   -1    0    0    0    0 -0.00000000000E+00 -0.00000000000E+00 -0.45593999997E+02  0.45594000000E+02  0.51100000000E-03 0. -1.
    9900012    2    1    2    0    0 -0.13215585829E+02  0.76132552726E+00  0.29008423025E+02  0.59301953965E+02  0.50000018123E+02 0.  0.
         12    1    1    2    0    0  0.13215585829E+02 -0.76132552726E+00 -0.29008423025E+02  0.31886046035E+02  0.00000000000E+00 0. -1.
         11    1    3    3    0    0 -0.59597814650E+01  0.54569931147E+01  0.56388103562E+01  0.98536263100E+01  0.51100000000E-03 0.  1.
        -11    1    3    3    0    0 -0.15690320358E+02  0.79941742177E+01  0.28387833521E+02  0.33406018419E+02  0.51100000000E-03 0. -1.
         12    1    3    3    0    0  0.84345159939E+01 -0.12689841805E+02 -0.50182208522E+01  0.16042309236E+02  0.00000000000E+00 0. -1.
</event>
<event>
 7    1  0.1193961E-011  0.5930193E+02  0.7816164E-02  0.1266605E+00
        -11   -1    0    0    0    0  0.00000000000E+00  0.00000000000E+00  0.45593999997E+02  0.45594000000E+02  0.51100000000E-03 0.  1.
         11   -1    0    0    0    0 -0.00000000000E+00 -0.00000000000E+00 -0.45593999997E+02  0.45594000000E+02  0.51100000000E-03 0. -1.
    9900012    2    1    2    0    0 -0.30164842438E+02  0.85234105112E+01  0.58442439826E+01  0.59301930412E+02  0.49999975169E+02 0.  0.
         12    1    1    2    0    0  0.30164842438E+02 -0.85234105112E+01 -0.58442439826E+01  0.31886069588E+02  0.00000000000E+00 0. -1.
         11    1    3    3    0    0  0.65307505935E+01 -0.42823833808E+01 -0.32110154680E+00  0.78161766357E+01  0.51100000000E-03 0. -1.
        -11    1    3    3    0    0 -0.17821909231E+02 -0.10805297453E+02  0.35921966536E+01  0.21148966375E+02  0.51100000000E-03 0.  1.
        -12    1    3    3    0    0 -0.18873683800E+02  0.23611091345E+02  0.25731488758E+01  0.30336787402E+02  0.00000000000E+00 0.  1.
</event>
<event>
 7    1  0.1193961E-011  0.5930195E+02  0.7816164E-02  0.1266605E+00
        -11   -1    0    0    0    0  0.00000000000E+00  0.00000000000E+00  0.45593999997E+02  0.45594000000E+02  0.51100000000E-03 0.  1.
         11   -1    0    0    0    0 -0.00000000000E+00 -0.00000000000E+00 -0.45593999997E+02  0.45594000000E+02  0.51100000000E-03 0. -1.
    9900012    2    1    2    0    0 -0.29820899035E+02 -0.44192627557E+01  0.10387701371E+02  0.59301949095E+02  0.50000009242E+02 0.  0.
         12    1    1    2    0    0  0.29820899035E+02  0.44192627557E+01 -0.10387701371E+02  0.31886050905E+02  0.00000000000E+00 0. -1.
         11    1    3    3    0    0 -0.92848316554E+01  0.10076479537E+02 -0.28573647288E+01  0.13996716478E+02  0.51100000000E-03 0.  1.
        -11    1    3    3    0    0 -0.13913230309E+01  0.12603713627E+01 -0.10683536352E+02  0.10847223838E+02  0.51100000000E-03 0. -1.
        -12    1    3    3    0    0 -0.19144744348E+02 -0.15756113655E+02  0.23928602452E+02  0.34458008779E+02  0.00000000000E+00 0.  1.
</event>
<event>
 7    1  0.1193961E-011  0.5930193E+02  0.7816164E-02  0.1266605E+00
        -11   -1    0    0    0    0  0.00000000000E+00  0.00000000000E+00  0.45593999997E+02  0.45594000000E+02  0.51100000000E-03 0. -1.
         11   -1    0    0    0    0 -0.00000000000E+00 -0.00000000000E+00 -0.45593999997E+02  0.45594000000E+02  0.51100000000E-03 0.  1.
    9900012    2    1    2    0    0  0.12789628454E+02 -0.27750154829E+02  0.91145877183E+01  0.59301930969E+02  0.49999976183E+02 0.  0.
         12    1    1    2    0    0 -0.12789628454E+02  0.27750154829E+02 -0.91145877183E+01  0.31886069031E+02  0.00000000000E+00 0. -1.
         11    1    3    3    0    0  0.84146432445E+01  0.54416113088E+01  0.56893174664E+01  0.11523267248E+02  0.51100000000E-03 0. -1.
        -11    1    3    3    0    0  0.11346958175E+02 -0.18185133257E+02  0.16204968996E+02  0.26871054163E+02  0.51100000000E-03 0.  1.
        -12    1    3    3    0    0 -0.69719729662E+01 -0.15006632880E+02 -0.12779698744E+02  0.20907609558E+02  0.00000000000E+00 0.  1.
</event>
<event>
 7    1  0.1193961E-011  0.5930192E+02  0.7816164E-02  0.1266605E+00
        -11   -1    0    0    0    0  0.00000000000E+00  0.00000000000E+00  0.45593999997E+02  0.45594000000E+02  0.51100000000E-03 0.  1.
         11   -1    0    0    0    0 -0.00000000000E+00 -0.00000000000E+00 -0.45593999997E+02  0.45594000000E+02  0.51100000000E-03 0. -1.
    9900012    2    1    2    0    0  0.22991195641E+01 -0.30821495064E+02  0.78403913629E+01  0.59301917684E+02  0.49999951954E+02 0.  0.
         12    1    1    2    0    0 -0.22991195641E+01  0.30821495064E+02 -0.78403913629E+01  0.31886082316E+02  0.00000000000E+00 0. -1.
         11    1    3    3    0    0  0.38416807477E+01 -0.11500747205E+02 -0.76164940171E+01  0.14319101879E+02  0.51100000000E-03 0. -1.
        -11    1    3    3    0    0  0.17587957593E+02 -0.76632054381E+01  0.11086683100E+02  0.22157967242E+02  0.51100000000E-03 0.  1.
        -12    1    3    3    0    0 -0.19130518776E+02 -0.11657542421E+02  0.43702022800E+01  0.22824848563E+02  0.00000000000E+00 0.  1.
</event>
<event>
 7    1  0.1193961E-011  0.5930196E+02  0.7816164E-02  0.1266605E+00
        -11   -1    0    0    0    0  0.00000000000E+00  0.00000000000E+00  0.45593999997E+02  0.45594000000E+02  0.51100000000E-03 0.  1.
         11   -1    0    0    0    0 -0.00000000000E+00 -0.00000000000E+00 -0.45593999997E+02  0.45594000000E+02  0.51100000000E-03 0. -1.
    9900012    2    1    2    0    0 -0.31014283597E+02  0.72970052343E+01 -0.12600327731E+01  0.59301956736E+02  0.50000023177E+02 0.  0.
         12    1    1    2    0    0  0.31014283597E+02 -0.72970052343E+01  0.12600327731E+01  0.31886043264E+02  0.00000000000E+00 0. -1.
         11    1    3    3    0    0  0.77686427448E+01 -0.28841771434E+01 -0.10177882716E+02  0.13124769892E+02  0.51100000000E-03 0. -1.
        -11    1    3    3    0    0 -0.78299065156E+01  0.57415629811E+01  0.11201825307E+02  0.14824097678E+02  0.51100000000E-03 0.  1.
        -12    1    3    3    0    0 -0.30953019826E+02  0.44396193966E+01 -0.22839753645E+01  0.31353089166E+02  0.00000000000E+00 0.  1.
</event>
<event>
 7    1  0.1193961E-011  0.5930195E+02  0.7816164E-02  0.1266605E+00
        -11   -1    0    0    0    0  0.00000000000E+00  0.00000000000E+00  0.45593999997E+02  0.45594000000E+02  0.51100000000E-03 0.  1.
         11   -1    0    0    0    0 -0.00000000000E+00 -0.00000000000E+00 -0.45593999997E+02  0.45594000000E+02  0.51100000000E-03 0. -1.
    9900012    2    1    2    0    0 -0.81876086095E+00 -0.31872507754E+02  0.43961271705E+00  0.59301946948E+02  0.50000005326E+02 0.  0.
         12    1    1    2    0    0  0.81876086095E+00  0.31872507754E+02 -0.43961271705E+00  0.31886053052E+02  0.00000000000E+00 0. -1.
         11    1    3    3    0    0 -0.55717808694E+01 -0.11450311696E+01 -0.59322157792E+01  0.82186995776E+01  0.51100000000E-03 0. -1.
        -11    1    3    3    0    0 -0.13403642734E+01 -0.32898255524E+02  0.18186027272E+02  0.37614138048E+02  0.51100000000E-03 0.  1.
         12    1    3    3    0    0  0.60933842818E+01  0.21707789390E+01 -0.11814198776E+02  0.13469109322E+02  0.00000000000E+00 0. -1.
</event>
<event>
 7    1  0.1193961E-011  0.5930198E+02  0.7816164E-02  0.1266605E+00
        -11   -1    0    0    0    0  0.00000000000E+00  0.00000000000E+00  0.45593999997E+02  0.45594000000E+02  0.51100000000E-03 0.  1.
         11   -1    0    0    0    0 -0.00000000000E+00 -0.00000000000E+00 -0.45593999997E+02  0.45594000000E+02  0.51100000000E-03 0. -1.
    9900012    2    1    2    0    0 -0.12612875595E+02 -0.49645722864E+01  0.28861513230E+02  0.59301975558E+02  0.50000057504E+02 0.  0.
         12    1    1    2    0    0  0.12612875595E+02  0.49645722864E+01 -0.28861513230E+02  0.31886024442E+02  0.00000000000E+00 0. -1.
         11    1    3    3    0    0 -0.78619544871E+01 -0.70815513466E+01  0.69126480781E+01  0.12638963626E+02  0.51100000000E-03 0. -1.
        -11    1    3    3    0    0 -0.22740856434E+02 -0.13178224056E+01  0.13649217550E+02  0.26555307327E+02  0.51100000000E-03 0.  1.
        -12    1    3    3    0    0  0.17989935326E+02  0.34348014658E+01  0.82996476023E+01  0.20107704605E+02  0.00000000000E+00 0.  1.
</event>
<event>
 7    1  0.1193961E-011  0.5930195E+02  0.7816164E-02  0.1266605E+00
        -11   -1    0    0    0    0  0.00000000000E+00  0.00000000000E+00  0.45593999997E+02  0.45594000000E+02  0.51100000000E-03 0.  1.
         11   -1    0    0    0    0 -0.00000000000E+00 -0.00000000000E+00 -0.45593999997E+02  0.45594000000E+02  0.51100000000E-03 0. -1.
    9900012    2    1    2    0    0 -0.19059296868E+02 -0.12324281622E+02  0.22395884273E+02  0.59301947454E+02  0.50000006249E+02 0.  0.
         12    1    1    2    0    0  0.19059296868E+02  0.12324281622E+02 -0.22395884273E+02  0.31886052546E+02  0.00000000000E+00 0. -1.
         11    1    3    3    0    0 -0.20514334310E+02 -0.12440173700E+02  0.35140026636E+02  0.42548998885E+02  0.51100000000E-03 0.  1.
        -11    1    3    3    0    0  0.25377964662E+01 -0.41333300252E+01 -0.21853613946E+01  0.53198338966E+01  0.51100000000E-03 0. -1.
        -12    1    3    3    0    0 -0.10827590241E+01  0.42492221036E+01 -0.10558780968E+02  0.11433114673E+02  0.00000000000E+00 0.  1.
</event>
<event>
 7    1  0.1193961E-011  0.5930194E+02  0.7816164E-02  0.1266605E+00
        -11   -1    0    0    0    0  0.00000000000E+00  0.00000000000E+00  0.45593999997E+02  0.45594000000E+02  0.51100000000E-03 0.  1.
         11   -1    0    0    0    0 -0.00000000000E+00 -0.00000000000E+00 -0.45593999997E+02  0.45594000000E+02  0.51100000000E-03 0. -1.
    9900012    2    1    2    0    0  0.87915757859E+01 -0.29645466585E+01  0.30506403248E+02  0.59301937515E+02  0.49999988122E+02 0.  0.
         12    1    1    2    0    0 -0.87915757859E+01  0.29645466585E+01 -0.30506403248E+02  0.31886062485E+02  0.00000000000E+00 0. -1.
         11    1    3    3    0    0  0.11272847129E+02  0.20002357531E+01  0.15575518958E+02  0.19330670359E+02  0.51100000000E-03 0.  1.
        -11    1    3    3    0    0 -0.13522542516E+02 -0.10113513592E+02  0.20514089977E+02  0.26570099758E+02  0.51100000000E-03 0. -1.
         12    1    3    3    0    0  0.11041271173E+02  0.51487311803E+01 -0.55832056873E+01  0.13401167398E+02  0.00000000000E+00 0. -1.
</event>
<event>
 7    1  0.1193961E-011  0.5930194E+02  0.7816164E-02  0.1266605E+00
        -11   -1    0    0    0    0  0.00000000000E+00  0.00000000000E+00  0.45593999997E+02  0.45594000000E+02  0.51100000000E-03 0.  1.
         11   -1    0    0    0    0 -0.00000000000E+00 -0.00000000000E+00 -0.45593999997E+02  0.45594000000E+02  0.51100000000E-03 0. -1.
    9900012    2    1    2    0    0 -0.31412062475E+02  0.16664206899E+01  0.52178505073E+01  0.59301943631E+02  0.49999999276E+02 0.  0.
         12    1    1    2    0    0  0.31412062475E+02 -0.16664206899E+01 -0.52178505073E+01  0.31886056369E+02  0.00000000000E+00 0. -1.
         11    1    3    3    0    0  0.33114431855E+01  0.14740324722E+02 -0.52840432090E+01  0.16005122360E+02  0.51100000000E-03 0. -1.
        -11    1    3    3    0    0  0.12539321460E+01  0.20774696921E+01  0.24285085242E+01  0.34330569558E+01  0.51100000000E-03 0.  1.
         12    1    3    3    0    0 -0.35977437807E+02 -0.15151373724E+02  0.80733851920E+01  0.39863764315E+02  0.00000000000E+00 0. -1.
</event>
<event>
 7    1  0.1193961E-011  0.5930195E+02  0.7816164E-02  0.1266605E+00
        -11   -1    0    0    0    0  0.00000000000E+00  0.00000000000E+00  0.45593999997E+02  0.45594000000E+02  0.51100000000E-03 0. -1.
         11   -1    0    0    0    0 -0.00000000000E+00 -0.00000000000E+00 -0.45593999997E+02  0.45594000000E+02  0.51100000000E-03 0.  1.
    9900012    2    1    2    0    0 -0.25383953040E+02  0.16640874172E+02 -0.97701952281E+01  0.59301945369E+02  0.50000002446E+02 0.  0.
         12    1    1    2    0    0  0.25383953040E+02 -0.16640874172E+02  0.97701952281E+01  0.31886054631E+02  0.00000000000E+00 0. -1.
         11    1    3    3    0    0 -0.33265050308E+02  0.17933721221E+02  0.31147793096E+01  0.37919438013E+02  0.51100000000E-03 0. -1.
        -11    1    3    3    0    0  0.42129500180E+01 -0.24111930787E+01  0.25465838662E+01  0.54815955310E+01  0.51100000000E-03 0.  1.
        -12    1    3    3    0    0  0.36681472501E+01  0.11183460298E+01 -0.15431558404E+02  0.15900911825E+02  0.00000000000E+00 0.  1.
</event>
<event>
 7    1  0.1193961E-011  0.5930195E+02  0.7816164E-02  0.1266605E+00
        -11   -1    0    0    0    0  0.00000000000E+00  0.00000000000E+00  0.45593999997E+02  0.45594000000E+02  0.51100000000E-03 0. -1.
         11   -1    0    0    0    0 -0.00000000000E+00 -0.00000000000E+00 -0.45593999997E+02  0.45594000000E+02  0.51100000000E-03 0.  1.
    9900012    2    1    2    0    0 -0.90365408148E+00  0.92719058931E+01 -0.30494843813E+02  0.59301947739E+02  0.50000006769E+02 0.  0.
         12    1    1    2    0    0  0.90365408148E+00 -0.92719058931E+01  0.30494843813E+02  0.31886052261E+02  0.00000000000E+00 0. -1.
         11    1    3    3    0    0 -0.12065189929E+02  0.22540280951E+01 -0.71138329932E+01  0.14186474925E+02  0.51100000000E-03 0. -1.
        -11    1    3    3    0    0  0.61544437572E+01 -0.98228405568E+01  0.42714885461E+01  0.12353582040E+02  0.51100000000E-03 0.  1.
         12    1    3    3    0    0  0.50070920900E+01  0.16840718355E+02 -0.27652499366E+02  0.32761890774E+02  0.00000000000E+00 0. -1.
</event>
<event>
 7    1  0.1193961E-011  0.5930183E+02  0.7816164E-02  0.1266605E+00
        -11   -1    0    0    0    0  0.00000000000E+00  0.00000000000E+00  0.45593999997E+02  0.45594000000E+02  0.51100000000E-03 0.  1.
         11   -1    0    0    0    0 -0.00000000000E+00 -0.00000000000E+00 -0.45593999997E+02  0.45594000000E+02  0.51100000000E-03 0. -1.
    9900012    2    1    2    0    0 -0.15894020984E+01  0.26291555354E+02  0.17970977319E+02  0.59301825759E+02  0.49999784305E+02 0.  0.
         12    1    1    2    0    0  0.15894020984E+01 -0.26291555354E+02 -0.17970977319E+02  0.31886174241E+02  0.00000000000E+00 0. -1.
         11    1    3    3    0    0 -0.16094651290E+02 -0.66231247742E+01 -0.10721779745E+01  0.17437119825E+02  0.51100000000E-03 0. -1.
        -11    1    3    3    0    0 -0.37770767891E+00 -0.27878117249E+00 -0.40053226327E+00  0.61709674110E+00  0.51100000000E-03 0.  1.
        -12    1    3    3    0    0  0.14882956871E+02  0.33193461300E+02  0.19443687557E+02  0.41247609193E+02  0.00000000000E+00 0.  1.
</event>
<event>
 7    1  0.1193961E-011  0.5930194E+02  0.7816164E-02  0.1266605E+00
        -11   -1    0    0    0    0  0.00000000000E+00  0.00000000000E+00  0.45593999997E+02  0.45594000000E+02  0.51100000000E-03 0.  1.
         11   -1    0    0    0    0 -0.00000000000E+00 -0.00000000000E+00 -0.45593999997E+02  0.45594000000E+02  0.51100000000E-03 0. -1.
    9900012    2    1    2    0    0 -0.25285135942E+01  0.78969248407E+01  0.30789051809E+02  0.59301944831E+02  0.50000001464E+02 0.  0.
         12    1    1    2    0    0  0.25285135942E+01 -0.78969248407E+01 -0.30789051809E+02  0.31886055169E+02  0.00000000000E+00 0. -1.
         11    1    3    3    0    0 -0.63614074181E+01 -0.11588125075E+02  0.40646544629E+01  0.13830168591E+02  0.51100000000E-03 0.  1.
        -11    1    3    3    0    0 -0.70896984392E+01  0.16743478332E+02  0.19860039385E+01  0.18290765498E+02  0.51100000000E-03 0. -1.
        -12    1    3    3    0    0  0.10922592263E+02  0.27415715838E+01  0.24738393408E+02  0.27181010741E+02  0.00000000000E+00 0.  1.
</event>
<event>
 7    1  0.1193961E-011  0.5930196E+02  0.7816164E-02  0.1266605E+00
        -11   -1    0    0    0    0  0.00000000000E+00  0.00000000000E+00  0.45593999997E+02  0.45594000000E+02  0.51100000000E-03 0. -1.
         11   -1    0    0    0    0 -0.00000000000E+00 -0.00000000000E+00 -0.45593999997E+02  0.45594000000E+02  0.51100000000E-03 0.  1.
    9900012    2    1    2    0    0  0.42634484489E+01 -0.15038840602E+02 -0.27791649282E+02  0.59301960905E+02  0.50000030780E+02 0.  0.
         12    1    1    2    0    0 -0.42634484489E+01  0.15038840602E+02  0.27791649282E+02  0.31886039095E+02  0.00000000000E+00 0. -1.
         11    1    3    3    0    0 -0.17479065023E+02 -0.13161706060E+02 -0.18543906427E+02  0.28681434523E+02  0.51100000000E-03 0. -1.
        -11    1    3    3    0    0  0.65876733355E+01 -0.13948108255E+01 -0.13315968710E+02  0.14921727787E+02  0.51100000000E-03 0.  1.
         12    1    3    3    0    0  0.15154840136E+02 -0.48232371648E+00  0.40682258543E+01  0.15698798595E+02  0.00000000000E+00 0. -1.
</event>
<event>
 7    1  0.1193961E-011  0.5930193E+02  0.7816164E-02  0.1266605E+00
        -11   -1    0    0    0    0  0.00000000000E+00  0.00000000000E+00  0.45593999997E+02  0.45594000000E+02  0.51100000000E-03 0.  1.
         11   -1    0    0    0    0 -0.00000000000E+00 -0.00000000000E+00 -0.45593999997E+02  0.45594000000E+02  0.51100000000E-03 0. -1.
    9900012    2    1    2    0    0 -0.37284580010E+01 -0.21570049934E+02  0.23185186121E+02  0.59301932373E+02  0.49999978745E+02 0.  0.
         12    1    1    2    0    0  0.37284580010E+01  0.21570049934E+02 -0.23185186121E+02  0.31886067627E+02  0.00000000000E+00 0. -1.
         11    1    3    3    0    0 -0.15470750920E+02 -0.22415368171E+02 -0.35833088049E+00  0.27238231689E+02  0.51100000000E-03 0. -1.
        -11    1    3    3    0    0 -0.16273131692E+01 -0.22282689303E+01 -0.17656024471E+01  0.32757720981E+01  0.51100000000E-03 0.  1.
        -12    1    3    3    0    0  0.13369606088E+02  0.30735871676E+01  0.25309119449E+02  0.28787928586E+02  0.00000000000E+00 0.  1.
</event>
<event>
 7    1  0.1193961E-011  0.5930191E+02  0.7816164E-02  0.1266605E+00
        -11   -1    0    0    0    0  0.00000000000E+00  0.00000000000E+00  0.45593999997E+02  0.45594000000E+02  0.51100000000E-03 0. -1.
         11   -1    0    0    0    0 -0.00000000000E+00 -0.00000000000E+00 -0.45593999997E+02  0.45594000000E+02  0.51100000000E-03 0.  1.
    9900012    2    1    2    0    0  0.11752497442E+02  0.18536091227E+01 -0.29583197450E+02  0.59301911587E+02  0.49999940837E+02 0.  0.
         12    1    1    2    0    0 -0.11752497442E+02 -0.18536091227E+01  0.29583197450E+02  0.31886088413E+02  0.00000000000E+00 0. -1.
         11    1    3    3    0    0  0.72668638236E+01 -0.13524099072E+02  0.16512312376E+00  0.15353691134E+02  0.51100000000E-03 0. -1.
        -11    1    3    3    0    0  0.14692466307E+02  0.96670791299E+01 -0.26508044819E+02  0.31811906977E+02  0.51100000000E-03 0.  1.
        -12    1    3    3    0    0 -0.10206832688E+02  0.57106290645E+01 -0.32402757540E+01  0.12136313477E+02  0.00000000000E+00 0.  1.
</event>
<event>
 7    1  0.1193961E-011  0.5930197E+02  0.7816164E-02  0.1266605E+00
        -11   -1    0    0    0    0  0.00000000000E+00  0.00000000000E+00  0.45593999997E+02  0.45594000000E+02  0.51100000000E-03 0. -1.
         11   -1    0    0    0    0 -0.00000000000E+00 -0.00000000000E+00 -0.45593999997E+02  0.45594000000E+02  0.51100000000E-03 0.  1.
    9900012    2    1    2    0    0 -0.22426545327E+02  0.23274741127E+01 -0.22546660856E+02  0.59301968782E+02  0.50000045146E+02 0.  0.
         12    1    1    2    0    0  0.22426545327E+02 -0.23274741127E+01  0.22546660856E+02  0.31886031218E+02  0.00000000000E+00 0. -1.
         11    1    3    3    0    0 -0.97444853781E+01  0.17305680588E+02  0.58983683482E+01  0.20717922804E+02  0.51100000000E-03 0. -1.
        -11    1    3    3    0    0 -0.42740203420E+01  0.22878429401E+01 -0.13206777435E+02  0.14068420156E+02  0.51100000000E-03 0.  1.
        -12    1    3    3    0    0 -0.84080396072E+01 -0.17266049415E+02 -0.15238251769E+02  0.24515625822E+02  0.00000000000E+00 0.  1.
</event>
<event>
 7    1  0.1193961E-011  0.5930194E+02  0.7816164E-02  0.1266605E+00
        -11   -1    0    0    0    0  0.00000000000E+00  0.00000000000E+00  0.45593999997E+02  0.45594000000E+02  0.51100000000E-03 0.  1.
         11   -1    0    0    0    0 -0.00000000000E+00 -0.00000000000E+00 -0.45593999997E+02  0.45594000000E+02  0.51100000000E-03 0. -1.
    9900012    2    1    2    0    0  0.18442244030E+02  0.19222661495E+02  0.17524095495E+02  0.59301937171E+02  0.49999987495E+02 0.  0.
         12    1    1    2    0    0 -0.18442244030E+02 -0.19222661495E+02 -0.17524095495E+02  0.31886062829E+02  0.00000000000E+00 0. -1.
         11    1    3    3    0    0 -0.29988564137E+01  0.10686394511E+02  0.21076239278E+02  0.23820160155E+02  0.51100000000E-03 0. -1.
        -11    1    3    3    0    0 -0.11253975148E+01  0.72097244371E+01  0.73741198839E+01  0.10374212758E+02  0.51100000000E-03 0.  1.
         12    1    3    3    0    0  0.22566497959E+02  0.13265425470E+01 -0.10926263667E+02  0.25107564258E+02  0.00000000000E+00 0. -1.
</event>
<event>
 7    1  0.1193961E-011  0.5930192E+02  0.7816164E-02  0.1266605E+00
        -11   -1    0    0    0    0  0.00000000000E+00  0.00000000000E+00  0.45593999997E+02  0.45594000000E+02  0.51100000000E-03 0.  1.
         11   -1    0    0    0    0 -0.00000000000E+00 -0.00000000000E+00 -0.45593999997E+02  0.45594000000E+02  0.51100000000E-03 0. -1.
    9900012    2    1    2    0    0 -0.10339440315E+02  0.26240467610E+02  0.14874671315E+02  0.59301921326E+02  0.49999958598E+02 0.  0.
         12    1    1    2    0    0  0.10339440315E+02 -0.26240467610E+02 -0.14874671315E+02  0.31886078674E+02  0.00000000000E+00 0. -1.
         11    1    3    3    0    0 -0.15372834354E+02  0.69240948865E+00 -0.27593944803E+01  0.15633864689E+02  0.51100000000E-03 0. -1.
        -11    1    3    3    0    0 -0.10177822229E+01  0.77168383472E+00 -0.76492921119E+01  0.77551948182E+01  0.51100000000E-03 0.  1.
        -12    1    3    3    0    0  0.60511762615E+01  0.24776374287E+02  0.25283357908E+02  0.35912861819E+02  0.00000000000E+00 0.  1.
</event>
<event>
 7    1  0.1193961E-011  0.5930196E+02  0.7816164E-02  0.1266605E+00
        -11   -1    0    0    0    0  0.00000000000E+00  0.00000000000E+00  0.45593999997E+02  0.45594000000E+02  0.51100000000E-03 0.  1.
         11   -1    0    0    0    0 -0.00000000000E+00 -0.00000000000E+00 -0.45593999997E+02  0.45594000000E+02  0.51100000000E-03 0. -1.
    9900012    2    1    2    0    0  0.10250025054E+02  0.81621657813E+01  0.29069498329E+02  0.59301957647E+02  0.50000024838E+02 0.  0.
         12    1    1    2    0    0 -0.10250025054E+02 -0.81621657813E+01 -0.29069498329E+02  0.31886042353E+02  0.00000000000E+00 0. -1.
         11    1    3    3    0    0 -0.21043285546E+01  0.18319885412E+02  0.18346154144E+01  0.18531384572E+02  0.51100000000E-03 0. -1.
        -11    1    3    3    0    0 -0.17248216227E+01  0.44021785629E+01 -0.20588619032E+01  0.51568496514E+01  0.51100000000E-03 0.  1.
        -12    1    3    3    0    0  0.14079175232E+02 -0.14559898194E+02  0.29293744818E+02  0.35613723423E+02  0.00000000000E+00 0.  1.
</event>
<event>
 7    1  0.1193961E-011  0.5930194E+02  0.7816164E-02  0.1266605E+00
        -11   -1    0    0    0    0  0.00000000000E+00  0.00000000000E+00  0.45593999997E+02  0.45594000000E+02  0.51100000000E-03 0.  1.
         11   -1    0    0    0    0 -0.00000000000E+00 -0.00000000000E+00 -0.45593999997E+02  0.45594000000E+02  0.51100000000E-03 0. -1.
    9900012    2    1    2    0    0 -0.30972862395E+02  0.96321112175E+00 -0.75149673888E+01  0.59301941675E+02  0.49999995710E+02 0.  0.
         12    1    1    2    0    0  0.30972862395E+02 -0.96321112175E+00  0.75149673888E+01  0.31886058325E+02  0.00000000000E+00 0. -1.
         11    1    3    3    0    0 -0.33457776428E+02  0.13540617216E+01 -0.94819596585E+01  0.34801779349E+02  0.51100000000E-03 0. -1.
        -11    1    3    3    0    0  0.85152997763E+00  0.79842980423E+00 -0.11158842334E+02  0.11219730654E+02  0.51100000000E-03 0.  1.
        -12    1    3    3    0    0  0.16333840548E+01 -0.11892804041E+01  0.13125834604E+02  0.13280431672E+02  0.00000000000E+00 0.  1.
</event>
<event>
 7    1  0.1193961E-011  0.5930195E+02  0.7816164E-02  0.1266605E+00
        -11   -1    0    0    0    0  0.00000000000E+00  0.00000000000E+00  0.45593999997E+02  0.45594000000E+02  0.51100000000E-03 0. -1.
         11   -1    0    0    0    0 -0.00000000000E+00 -0.00000000000E+00 -0.45593999997E+02  0.45594000000E+02  0.51100000000E-03 0.  1.
    9900012    2    1    2    0    0 -0.69506677356E+01 -0.18641567208E+02 -0.24917878621E+02  0.59301945291E+02  0.50000002304E+02 0.  0.
         12    1    1    2    0    0  0.69506677356E+01  0.18641567208E+02  0.24917878621E+02  0.31886054709E+02  0.00000000000E+00 0. -1.
         11    1    3    3    0    0  0.30735249450E+01  0.44368436088E+01  0.65564704530E+01  0.84923166367E+01  0.51100000000E-03 0. -1.
        -11    1    3    3    0    0 -0.63423044057E+01  0.44979647047E+01 -0.18588699552E+02  0.20149348946E+02  0.51100000000E-03 0.  1.
         12    1    3    3    0    0 -0.36818882748E+01 -0.27576375522E+02 -0.12885649522E+02  0.30660279708E+02  0.00000000000E+00 0. -1.
</event>
<event>
 7    1  0.1193961E-011  0.5930197E+02  0.7816164E-02  0.1266605E+00
        -11   -1    0    0    0    0  0.00000000000E+00  0.00000000000E+00  0.45593999997E+02  0.45594000000E+02  0.51100000000E-03 0.  1.
         11   -1    0    0    0    0 -0.00000000000E+00 -0.00000000000E+00 -0.45593999997E+02  0.45594000000E+02  0.51100000000E-03 0. -1.
    9900012    2    1    2    0    0  0.26659773263E+01  0.16399701252E+02  0.27215092436E+02  0.59301970260E+02  0.50000047842E+02 0.  0.
         12    1    1    2    0    0 -0.26659773263E+01 -0.16399701252E+02 -0.27215092436E+02  0.31886029740E+02  0.00000000000E+00 0. -1.
         11    1    3    3    0    0 -0.10564700701E+02  0.47775383308E+01 -0.62183409533E+00  0.11611393168E+02  0.51100000000E-03 0. -1.
        -11    1    3    3    0    0 -0.10523906345E+02  0.76216556544E+00  0.16055075347E+01  0.10672916930E+02  0.51100000000E-03 0.  1.
        -12    1    3    3    0    0  0.23754584372E+02  0.10859997356E+02  0.26231418997E+02  0.37017660162E+02  0.00000000000E+00 0.  1.
</event>
<event>
 7    1  0.1193961E-011  0.5930194E+02  0.7816164E-02  0.1266605E+00
        -11   -1    0    0    0    0  0.00000000000E+00  0.00000000000E+00  0.45593999997E+02  0.45594000000E+02  0.51100000000E-03 0.  1.
         11   -1    0    0    0    0 -0.00000000000E+00 -0.00000000000E+00 -0.45593999997E+02  0.45594000000E+02  0.51100000000E-03 0. -1.
    9900012    2    1    2    0    0 -0.29535747261E+02 -0.56175607303E+01  0.10620908846E+02  0.59301936280E+02  0.49999985870E+02 0.  0.
         12    1    1    2    0    0  0.29535747261E+02  0.56175607303E+01 -0.10620908846E+02  0.31886063720E+02  0.00000000000E+00 0. -1.
         11    1    3    3    0    0 -0.20773278246E+02 -0.32167533246E+01 -0.93926981059E+01  0.23023886922E+02  0.51100000000E-03 0. -1.
        -11    1    3    3    0    0 -0.49562906806E+01 -0.11013222460E+02  0.23350061125E+02  0.26288424089E+02  0.51100000000E-03 0.  1.
         12    1    3    3    0    0 -0.38061783347E+01  0.86124150542E+01 -0.33364541727E+01  0.99896252696E+01  0.00000000000E+00 0. -1.
</event>
<event>
 7    1  0.1193961E-011  0.5930193E+02  0.7816164E-02  0.1266605E+00
        -11   -1    0    0    0    0  0.00000000000E+00  0.00000000000E+00  0.45593999997E+02  0.45594000000E+02  0.51100000000E-03 0. -1.
         11   -1    0    0    0    0 -0.00000000000E+00 -0.00000000000E+00 -0.45593999997E+02  0.45594000000E+02  0.51100000000E-03 0.  1.
    9900012    2    1    2    0    0  0.31321045123E+02  0.54351950374E+01 -0.24844124812E+01  0.59301929090E+02  0.49999972757E+02 0.  0.
         12    1    1    2    0    0 -0.31321045123E+02 -0.54351950374E+01  0.24844124812E+01  0.31886070910E+02  0.00000000000E+00 0. -1.
         11    1    3    3    0    0 -0.26999765119E+01  0.12979810875E+01  0.90024021796E+01  0.94877749411E+01  0.51100000000E-03 0. -1.
        -11    1    3    3    0    0  0.69899063913E+01 -0.12739467147E+02 -0.10507569984E+02  0.17932145487E+02  0.51100000000E-03 0.  1.
        -12    1    3    3    0    0  0.27031115244E+02  0.16876681097E+02 -0.97924467704E+00  0.31882008662E+02  0.00000000000E+00 0.  1.
</event>
<event>
 7    1  0.1193961E-011  0.5930195E+02  0.7816164E-02  0.1266605E+00
        -11   -1    0    0    0    0  0.00000000000E+00  0.00000000000E+00  0.45593999997E+02  0.45594000000E+02  0.51100000000E-03 0. -1.
         11   -1    0    0    0    0 -0.00000000000E+00 -0.00000000000E+00 -0.45593999997E+02  0.45594000000E+02  0.51100000000E-03 0.  1.
    9900012    2    1    2    0    0  0.31433391425E+01 -0.17055631619E+02 -0.26757149030E+02  0.59301950149E+02  0.50000011164E+02 0.  0.
         12    1    1    2    0    0 -0.31433391425E+01  0.17055631619E+02  0.26757149030E+02  0.31886049851E+02  0.00000000000E+00 0. -1.
         11    1    3    3    0    0  0.27224804007E+01 -0.95842846923E+01 -0.21960878658E+01  0.10202608234E+02  0.51100000000E-03 0. -1.
        -11    1    3    3    0    0  0.10301209595E+02 -0.11843145402E+02 -0.32230665179E+02  0.35849557742E+02  0.51100000000E-03 0.  1.
         12    1    3    3    0    0 -0.98803508529E+01  0.43717984754E+01  0.76696040150E+01  0.13249784173E+02  0.00000000000E+00 0. -1.
</event>
<event>
 7    1  0.1193961E-011  0.5930196E+02  0.7816164E-02  0.1266605E+00
        -11   -1    0    0    0    0  0.00000000000E+00  0.00000000000E+00  0.45593999997E+02  0.45594000000E+02  0.51100000000E-03 0.  1.
         11   -1    0    0    0    0 -0.00000000000E+00 -0.00000000000E+00 -0.45593999997E+02  0.45594000000E+02  0.51100000000E-03 0. -1.
    9900012    2    1    2    0    0 -0.88015139845E+01 -0.24758024503E+01  0.30547068146E+02  0.59301958877E+02  0.50000027081E+02 0.  0.
         12    1    1    2    0    0  0.88015139845E+01  0.24758024503E+01 -0.30547068146E+02  0.31886041123E+02  0.00000000000E+00 0. -1.
         11    1    3    3    0    0  0.84554761802E+01 -0.25263036523E+01  0.63133472279E-01  0.88250367520E+01  0.51100000000E-03 0. -1.
        -11    1    3    3    0    0  0.94851207245E+01 -0.41791140616E+01  0.17755994290E+02  0.20559859994E+02  0.51100000000E-03 0.  1.
         12    1    3    3    0    0 -0.26742110889E+02  0.42296152636E+01  0.12727940384E+02  0.29917062130E+02  0.00000000000E+00 0. -1.
</event>
<event>
 7    1  0.1193961E-011  0.5930232E+02  0.7816164E-02  0.1266603E+00
        -11   -1    0    0    0    0  0.00000000000E+00  0.00000000000E+00  0.45593999997E+02  0.45594000000E+02  0.51100000000E-03 0. -1.
         11   -1    0    0    0    0 -0.00000000000E+00 -0.00000000000E+00 -0.45593999997E+02  0.45594000000E+02  0.51100000000E-03 0.  1.
    9900012    2    1    2    0    0 -0.20091305516E+02  0.10032017355E+02 -0.22636135050E+02  0.59302320776E+02  0.50000687094E+02 0.  0.
         12    1    1    2    0    0  0.20091305516E+02 -0.10032017355E+02  0.22636135050E+02  0.31885679224E+02  0.00000000000E+00 0. -1.
         11    1    3    3    0    0 -0.12698832345E+02 -0.90288495024E+00  0.81690227270E+01  0.15126416520E+02  0.51100000000E-03 0. -1.
        -11    1    3    3    0    0  0.97572003912E+00  0.18175093493E+02 -0.10398712536E+02  0.20962329921E+02  0.51100000000E-03 0.  1.
         12    1    3    3    0    0 -0.83681932101E+01 -0.72401911871E+01 -0.20406445241E+02  0.23213574335E+02  0.00000000000E+00 0. -1.
</event>
<event>
 7    1  0.1193961E-011  0.5930194E+02  0.7816164E-02  0.1266605E+00
        -11   -1    0    0    0    0  0.00000000000E+00  0.00000000000E+00  0.45593999997E+02  0.45594000000E+02  0.51100000000E-03 0. -1.
         11   -1    0    0    0    0 -0.00000000000E+00 -0.00000000000E+00 -0.45593999997E+02  0.45594000000E+02  0.51100000000E-03 0.  1.
    9900012    2    1    2    0    0  0.29078684103E+02 -0.33452628465E+01 -0.12647531254E+02  0.59301941926E+02  0.49999996167E+02 0.  0.
         12    1    1    2    0    0 -0.29078684103E+02  0.33452628465E+01  0.12647531254E+02  0.31886058074E+02  0.00000000000E+00 0. -1.
         11    1    3    3    0    0  0.18458251943E+02  0.26530289839E+01 -0.59578688711E-01  0.18648034145E+02  0.51100000000E-03 0. -1.
        -11    1    3    3    0    0  0.16361727291E+02  0.72990870430E+01 -0.17805397022E+02  0.25258957916E+02  0.51100000000E-03 0.  1.
         12    1    3    3    0    0 -0.57412951320E+01 -0.13297378873E+02  0.52174444564E+01  0.15394949865E+02  0.00000000000E+00 0. -1.
</event>
<event>
 7    1  0.1193961E-011  0.5930198E+02  0.7816164E-02  0.1266605E+00
        -11   -1    0    0    0    0  0.00000000000E+00  0.00000000000E+00  0.45593999997E+02  0.45594000000E+02  0.51100000000E-03 0.  1.
         11   -1    0    0    0    0 -0.00000000000E+00 -0.00000000000E+00 -0.45593999997E+02  0.45594000000E+02  0.51100000000E-03 0. -1.
    9900012    2    1    2    0    0 -0.86478187704E+01  0.30125431171E+02  0.58644677906E+01  0.59301978687E+02  0.50000063210E+02 0.  0.
         12    1    1    2    0    0  0.86478187704E+01 -0.30125431171E+02 -0.58644677906E+01  0.31886021313E+02  0.00000000000E+00 0. -1.
         11    1    3    3    0    0 -0.20670063623E+02  0.87921811741E+01  0.74263090083E+01  0.23658065131E+02  0.51100000000E-03 0. -1.
        -11    1    3    3    0    0 -0.15724055129E+01  0.19323705874E+01  0.92672745805E+01  0.95962958268E+01  0.51100000000E-03 0.  1.
        -12    1    3    3    0    0  0.13594650366E+02  0.19400879409E+02 -0.10829115798E+02  0.26047617729E+02  0.00000000000E+00 0.  1.
</event>
<event>
 7    1  0.1193961E-011  0.5930194E+02  0.7816164E-02  0.1266605E+00
        -11   -1    0    0    0    0  0.00000000000E+00  0.00000000000E+00  0.45593999997E+02  0.45594000000E+02  0.51100000000E-03 0.  1.
         11   -1    0    0    0    0 -0.00000000000E+00 -0.00000000000E+00 -0.45593999997E+02  0.45594000000E+02  0.51100000000E-03 0. -1.
    9900012    2    1    2    0    0  0.20447099896E+02 -0.24875891090E+01  0.24340272433E+02  0.59301939474E+02  0.49999991695E+02 0.  0.
         12    1    1    2    0    0 -0.20447099896E+02  0.24875891090E+01 -0.24340272433E+02  0.31886060526E+02  0.00000000000E+00 0. -1.
         11    1    3    3    0    0 -0.77623300028E+01 -0.48709134557E+01  0.39481314366E+01  0.99783418997E+01  0.51100000000E-03 0. -1.
        -11    1    3    3    0    0  0.30147444868E+01 -0.91827225031E+01  0.19293794308E+02  0.21579193126E+02  0.51100000000E-03 0.  1.
        -12    1    3    3    0    0  0.25194685412E+02  0.11566046850E+02  0.10983466883E+01  0.27744404448E+02  0.00000000000E+00 0.  1.
</event>
<event>
 7    1  0.1193961E-011  0.5930191E+02  0.7816164E-02  0.1266605E+00
        -11   -1    0    0    0    0  0.00000000000E+00  0.00000000000E+00  0.45593999997E+02  0.45594000000E+02  0.51100000000E-03 0. -1.
         11   -1    0    0    0    0 -0.00000000000E+00 -0.00000000000E+00 -0.45593999997E+02  0.45594000000E+02  0.51100000000E-03 0.  1.
    9900012    2    1    2    0    0  0.18060879141E+02 -0.26160298005E+02  0.24831365047E+01  0.59301913474E+02  0.49999944277E+02 0.  0.
         12    1    1    2    0    0 -0.18060879141E+02  0.26160298005E+02 -0.24831365047E+01  0.31886086526E+02  0.00000000000E+00 0. -1.
         11    1    3    3    0    0  0.10619034935E+01  0.93322456368E+01 -0.94385668106E+01  0.13315592039E+02  0.51100000000E-03 0. -1.
        -11    1    3    3    0    0  0.36224111648E+01 -0.15496101900E+01 -0.44966987740E+01  0.59785829854E+01  0.51100000000E-03 0.  1.
         12    1    3    3    0    0  0.13376564482E+02 -0.33942933452E+02  0.16418402089E+02  0.40007738449E+02  0.00000000000E+00 0. -1.
</event>
<event>
 7    1  0.1193961E-011  0.5930194E+02  0.7816164E-02  0.1266605E+00
        -11   -1    0    0    0    0  0.00000000000E+00  0.00000000000E+00  0.45593999997E+02  0.45594000000E+02  0.51100000000E-03 0.  1.
         11   -1    0    0    0    0 -0.00000000000E+00 -0.00000000000E+00 -0.45593999997E+02  0.45594000000E+02  0.51100000000E-03 0. -1.
    9900012    2    1    2    0    0  0.15581473162E+02 -0.26572084777E+00  0.27818484698E+02  0.59301937146E+02  0.49999987449E+02 0.  0.
         12    1    1    2    0    0 -0.15581473162E+02  0.26572084777E+00 -0.27818484698E+02  0.31886062854E+02  0.00000000000E+00 0. -1.
         11    1    3    3    0    0  0.10971553144E+01 -0.13909736438E+02  0.24869151176E+02  0.28515946381E+02  0.51100000000E-03 0. -1.
        -11    1    3    3    0    0 -0.61479501009E+01  0.13841096917E+01  0.25064676684E+01  0.67819931079E+01  0.51100000000E-03 0.  1.
         12    1    3    3    0    0  0.20632267948E+02  0.12259905899E+02  0.44286585418E+00  0.24003997656E+02  0.00000000000E+00 0. -1.
</event>
<event>
 7    1  0.1193961E-011  0.5930195E+02  0.7816164E-02  0.1266605E+00
        -11   -1    0    0    0    0  0.00000000000E+00  0.00000000000E+00  0.45593999997E+02  0.45594000000E+02  0.51100000000E-03 0.  1.
         11   -1    0    0    0    0 -0.00000000000E+00 -0.00000000000E+00 -0.45593999997E+02  0.45594000000E+02  0.51100000000E-03 0. -1.
    9900012    2    1    2    0    0 -0.28158579740E+02  0.14137552315E+02  0.48932867548E+01  0.59301948916E+02  0.50000008916E+02 0.  0.
         12    1    1    2    0    0  0.28158579740E+02 -0.14137552315E+02 -0.48932867548E+01  0.31886051084E+02  0.00000000000E+00 0. -1.
         11    1    3    3    0    0 -0.15219407088E+02  0.62426349317E+01  0.96404072462E+01  0.19066680234E+02  0.51100000000E-03 0. -1.
        -11    1    3    3    0    0 -0.15281801909E+02 -0.12089970177E+02  0.30770523223E+00  0.19488343471E+02  0.51100000000E-03 0.  1.
         12    1    3    3    0    0  0.23426292576E+01  0.19984887560E+02 -0.50548257236E+01  0.20746925212E+02  0.00000000000E+00 0. -1.
</event>
<event>
 7    1  0.1193961E-011  0.5930193E+02  0.7816164E-02  0.1266605E+00
        -11   -1    0    0    0    0  0.00000000000E+00  0.00000000000E+00  0.45593999997E+02  0.45594000000E+02  0.51100000000E-03 0. -1.
         11   -1    0    0    0    0 -0.00000000000E+00 -0.00000000000E+00 -0.45593999997E+02  0.45594000000E+02  0.51100000000E-03 0.  1.
    9900012    2    1    2    0    0 -0.57558241682E+01  0.27735979701E+02 -0.14639231109E+02  0.59301934559E+02  0.49999982731E+02 0.  0.
         12    1    1    2    0    0  0.57558241682E+01 -0.27735979701E+02  0.14639231109E+02  0.31886065441E+02  0.00000000000E+00 0. -1.
         11    1    3    3    0    0  0.38220530463E+01  0.85962748348E+01 -0.19401274198E+02  0.21561852223E+02  0.51100000000E-03 0.  1.
        -11    1    3    3    0    0 -0.16192752035E+02  0.37861174820E+00 -0.28393433075E+01  0.16444161152E+02  0.51100000000E-03 0. -1.
        -12    1    3    3    0    0  0.66148748206E+01  0.18761093118E+02  0.76013863971E+01  0.21295921183E+02  0.00000000000E+00 0.  1.
</event>
<event>
 7    1  0.1193961E-011  0.5930194E+02  0.7816164E-02  0.1266605E+00
        -11   -1    0    0    0    0  0.00000000000E+00  0.00000000000E+00  0.45593999997E+02  0.45594000000E+02  0.51100000000E-03 0. -1.
         11   -1    0    0    0    0 -0.00000000000E+00 -0.00000000000E+00 -0.45593999997E+02  0.45594000000E+02  0.51100000000E-03 0.  1.
    9900012    2    1    2    0    0 -0.22052832492E+01  0.17541010518E+02 -0.26536208047E+02  0.59301942518E+02  0.49999997247E+02 0.  0.
         12    1    1    2    0    0  0.22052832492E+01 -0.17541010518E+02  0.26536208047E+02  0.31886057482E+02  0.00000000000E+00 0. -1.
         11    1    3    3    0    0  0.55395086937E+01  0.85521745137E+01 -0.11824017874E+02  0.15608755377E+02  0.51100000000E-03 0.  1.
        -11    1    3    3    0    0  0.91197157471E+01  0.86637629874E+01 -0.21981200619E+02  0.25325938982E+02  0.51100000000E-03 0. -1.
         12    1    3    3    0    0 -0.16864507690E+02  0.32507301707E+00  0.72690104450E+01  0.18367248159E+02  0.00000000000E+00 0. -1.
</event>
<event>
 7    1  0.1193961E-011  0.5930164E+02  0.7816164E-02  0.1266606E+00
        -11   -1    0    0    0    0  0.00000000000E+00  0.00000000000E+00  0.45593999997E+02  0.45594000000E+02  0.51100000000E-03 0.  1.
         11   -1    0    0    0    0 -0.00000000000E+00 -0.00000000000E+00 -0.45593999997E+02  0.45594000000E+02  0.51100000000E-03 0. -1.
    9900012    2    1    2    0    0  0.11920781024E+02  0.44957792939E+01  0.29230513304E+02  0.59301639911E+02  0.49999445361E+02 0.  0.
         12    1    1    2    0    0 -0.11920781024E+02 -0.44957792939E+01 -0.29230513304E+02  0.31886360089E+02  0.00000000000E+00 0. -1.
         11    1    3    3    0    0 -0.73718284454E+01 -0.11172555567E+02  0.92104519709E+01  0.16248146919E+02  0.51100000000E-03 0. -1.
        -11    1    3    3    0    0  0.69987277488E+01  0.17741603860E+01 -0.71449858752E+01  0.10157788076E+02  0.51100000000E-03 0.  1.
        -12    1    3    3    0    0  0.12293881721E+02  0.13894174475E+02  0.27165047209E+02  0.32895704916E+02  0.00000000000E+00 0.  1.
</event>
<event>
 7    1  0.1193961E-011  0.5930196E+02  0.7816164E-02  0.1266605E+00
        -11   -1    0    0    0    0  0.00000000000E+00  0.00000000000E+00  0.45593999997E+02  0.45594000000E+02  0.51100000000E-03 0.  1.
         11   -1    0    0    0    0 -0.00000000000E+00 -0.00000000000E+00 -0.45593999997E+02  0.45594000000E+02  0.51100000000E-03 0. -1.
    9900012    2    1    2    0    0  0.22010097713E+02 -0.83067957185E+01  0.21523765024E+02  0.59301957329E+02  0.50000024258E+02 0.  0.
         12    1    1    2    0    0 -0.22010097713E+02  0.83067957185E+01 -0.21523765024E+02  0.31886042671E+02  0.00000000000E+00 0. -1.
         11    1    3    3    0    0  0.87910592021E+01  0.34107040917E+01 -0.12028493700E+02  0.15283987871E+02  0.51100000000E-03 0. -1.
        -11    1    3    3    0    0  0.23775709469E+01 -0.13088323627E+02  0.64260027519E+01  0.14773306015E+02  0.51100000000E-03 0.  1.
        -12    1    3    3    0    0  0.10841467564E+02  0.13708238169E+01  0.27126255971E+02  0.29244663443E+02  0.00000000000E+00 0.  1.
</event>
<event>
 7    1  0.1193961E-011  0.5930193E+02  0.7816164E-02  0.1266605E+00
        -11   -1    0    0    0    0  0.00000000000E+00  0.00000000000E+00  0.45593999997E+02  0.45594000000E+02  0.51100000000E-03 0.  1.
         11   -1    0    0    0    0 -0.00000000000E+00 -0.00000000000E+00 -0.45593999997E+02  0.45594000000E+02  0.51100000000E-03 0. -1.
    9900012    2    1    2    0    0  0.25425413608E+02  0.80068967523E+01  0.17497409476E+02  0.59301931081E+02  0.49999976388E+02 0.  0.
         12    1    1    2    0    0 -0.25425413608E+02 -0.80068967523E+01 -0.17497409476E+02  0.31886068919E+02  0.00000000000E+00 0. -1.
         11    1    3    3    0    0  0.18829375119E+02  0.92570099134E+01  0.21976448300E+02  0.30384237362E+02  0.51100000000E-03 0. -1.
        -11    1    3    3    0    0 -0.48313397246E+01  0.34894884933E+00  0.95768989476E+01  0.10732222629E+02  0.51100000000E-03 0.  1.
         12    1    3    3    0    0  0.11427378213E+02 -0.15990620104E+01 -0.14055937771E+02  0.18185471090E+02  0.00000000000E+00 0. -1.
</event>
<event>
 7    1  0.1193961E-011  0.5930193E+02  0.7816164E-02  0.1266605E+00
        -11   -1    0    0    0    0  0.00000000000E+00  0.00000000000E+00  0.45593999997E+02  0.45594000000E+02  0.51100000000E-03 0.  1.
         11   -1    0    0    0    0 -0.00000000000E+00 -0.00000000000E+00 -0.45593999997E+02  0.45594000000E+02  0.51100000000E-03 0. -1.
    9900012    2    1    2    0    0  0.44000109386E+01 -0.13397534355E+02  0.28598385896E+02  0.59301926254E+02  0.49999967586E+02 0.  0.
         12    1    1    2    0    0 -0.44000109386E+01  0.13397534355E+02 -0.28598385896E+02  0.31886073746E+02  0.00000000000E+00 0. -1.
         11    1    3    3    0    0  0.31669265945E+01  0.77894573495E+00 -0.31781424919E+01  0.45537644288E+01  0.51100000000E-03 0. -1.
        -11    1    3    3    0    0 -0.14098791175E+02  0.87465474123E+01  0.15613890652E+02  0.22783142579E+02  0.51100000000E-03 0.  1.
        -12    1    3    3    0    0  0.15331875519E+02 -0.22923027503E+02  0.16162637736E+02  0.31965019246E+02  0.00000000000E+00 0.  1.
</event>
<event>
 7    1  0.1193961E-011  0.5930195E+02  0.7816164E-02  0.1266605E+00
        -11   -1    0    0    0    0  0.00000000000E+00  0.00000000000E+00  0.45593999997E+02  0.45594000000E+02  0.51100000000E-03 0.  1.
         11   -1    0    0    0    0 -0.00000000000E+00 -0.00000000000E+00 -0.45593999997E+02  0.45594000000E+02  0.51100000000E-03 0. -1.
    9900012    2    1    2    0    0 -0.85772238544E+00 -0.31863014991E+02  0.85595937346E+00  0.59301951665E+02  0.50000013928E+02 0.  0.
         12    1    1    2    0    0  0.85772238544E+00  0.31863014991E+02 -0.85595937346E+00  0.31886048335E+02  0.00000000000E+00 0. -1.
         11    1    3    3    0    0 -0.11218368141E+02 -0.26962073494E+01  0.29861097175E+01  0.11917976730E+02  0.51100000000E-03 0. -1.
        -11    1    3    3    0    0 -0.56203904013E+01 -0.14669612395E+02  0.13522206905E+02  0.20727672226E+02  0.51100000000E-03 0.  1.
         12    1    3    3    0    0  0.15981036157E+02 -0.14497195247E+02 -0.15652357249E+02  0.26656302709E+02  0.00000000000E+00 0. -1.
</event>
<event>
 7    1  0.1193961E-011  0.5930192E+02  0.7816164E-02  0.1266605E+00
        -11   -1    0    0    0    0  0.00000000000E+00  0.00000000000E+00  0.45593999997E+02  0.45594000000E+02  0.51100000000E-03 0.  1.
         11   -1    0    0    0    0 -0.00000000000E+00 -0.00000000000E+00 -0.45593999997E+02  0.45594000000E+02  0.51100000000E-03 0. -1.
    9900012    2    1    2    0    0 -0.28685544354E+02  0.58931923494E+01  0.12614753003E+02  0.59301918957E+02  0.49999954277E+02 0.  0.
         12    1    1    2    0    0  0.28685544354E+02 -0.58931923494E+01 -0.12614753003E+02  0.31886081043E+02  0.00000000000E+00 0. -1.
         11    1    3    3    0    0 -0.14125420864E+02 -0.17712940243E+01 -0.12513307697E+01  0.14290935101E+02  0.51100000000E-03 0. -1.
        -11    1    3    3    0    0 -0.16598689003E+02  0.14839849797E+02 -0.66041923058E+01  0.23223974140E+02  0.51100000000E-03 0.  1.
        -12    1    3    3    0    0  0.20385655131E+01 -0.71753634231E+01  0.20470276079E+02  0.21787009715E+02  0.00000000000E+00 0.  1.
</event>
<event>
 7    1  0.1193961E-011  0.5930194E+02  0.7816164E-02  0.1266605E+00
        -11   -1    0    0    0    0  0.00000000000E+00  0.00000000000E+00  0.45593999997E+02  0.45594000000E+02  0.51100000000E-03 0.  1.
         11   -1    0    0    0    0 -0.00000000000E+00 -0.00000000000E+00 -0.45593999997E+02  0.45594000000E+02  0.51100000000E-03 0. -1.
    9900012    2    1    2    0    0  0.22788044873E+01 -0.31213955948E+02 -0.61005616289E+01  0.59301939597E+02  0.49999991919E+02 0.  0.
         12    1    1    2    0    0 -0.22788044873E+01  0.31213955948E+02  0.61005616289E+01  0.31886060403E+02  0.00000000000E+00 0. -1.
         11    1    3    3    0    0 -0.88705514113E+01 -0.15654699914E+01 -0.77007771362E+01  0.11850710839E+02  0.51100000000E-03 0. -1.
        -11    1    3    3    0    0 -0.52714172781E+01  0.37294269036E+01 -0.67349104094E+01  0.93303528140E+01  0.51100000000E-03 0.  1.
         12    1    3    3    0    0  0.16420773177E+02 -0.33377912861E+02  0.83351259167E+01  0.38120875944E+02  0.00000000000E+00 0. -1.
</event>
<event>
 7    1  0.1193961E-011  0.5930195E+02  0.7816164E-02  0.1266605E+00
        -11   -1    0    0    0    0  0.00000000000E+00  0.00000000000E+00  0.45593999997E+02  0.45594000000E+02  0.51100000000E-03 0.  1.
         11   -1    0    0    0    0 -0.00000000000E+00 -0.00000000000E+00 -0.45593999997E+02  0.45594000000E+02  0.51100000000E-03 0. -1.
    9900012    2    1    2    0    0 -0.23928729340E+02 -0.51603333481E+01 -0.20432986925E+02  0.59301951597E+02  0.50000013805E+02 0.  0.
         12    1    1    2    0    0  0.23928729340E+02  0.51603333481E+01  0.20432986925E+02  0.31886048403E+02  0.00000000000E+00 0. -1.
         11    1    3    3    0    0 -0.11644538618E+02  0.11593682842E+02 -0.13603684858E+02  0.21332346412E+02  0.51100000000E-03 0. -1.
        -11    1    3    3    0    0 -0.14046706157E+02  0.52821986996E+01 -0.67444770194E+00  0.15022198805E+02  0.51100000000E-03 0.  1.
         12    1    3    3    0    0  0.17625154352E+01 -0.22036214890E+02 -0.61548543652E+01  0.22947406380E+02  0.00000000000E+00 0. -1.
</event>
<event>
 7    1  0.1193961E-011  0.5930196E+02  0.7816164E-02  0.1266605E+00
        -11   -1    0    0    0    0  0.00000000000E+00  0.00000000000E+00  0.45593999997E+02  0.45594000000E+02  0.51100000000E-03 0. -1.
         11   -1    0    0    0    0 -0.00000000000E+00 -0.00000000000E+00 -0.45593999997E+02  0.45594000000E+02  0.51100000000E-03 0.  1.
    9900012    2    1    2    0    0  0.72844143065E+01 -0.16363262165E+02 -0.26379929245E+02  0.59301957482E+02  0.50000024537E+02 0.  0.
         12    1    1    2    0    0 -0.72844143065E+01  0.16363262165E+02  0.26379929245E+02  0.31886042518E+02  0.00000000000E+00 0. -1.
         11    1    3    3    0    0  0.93728212085E+00 -0.12326127413E+02  0.29869652417E+01  0.12717463442E+02  0.51100000000E-03 0.  1.
        -11    1    3    3    0    0  0.67338332110E+01 -0.53440045928E+01  0.64464582131E+01  0.10745218404E+02  0.51100000000E-03 0. -1.
        -12    1    3    3    0    0 -0.38670102534E+00  0.13068698410E+01 -0.35813352700E+02  0.35839275636E+02  0.00000000000E+00 0.  1.
</event>
<event>
 7    1  0.1193961E-011  0.5930194E+02  0.7816164E-02  0.1266605E+00
        -11   -1    0    0    0    0  0.00000000000E+00  0.00000000000E+00  0.45593999997E+02  0.45594000000E+02  0.51100000000E-03 0. -1.
         11   -1    0    0    0    0 -0.00000000000E+00 -0.00000000000E+00 -0.45593999997E+02  0.45594000000E+02  0.51100000000E-03 0.  1.
    9900012    2    1    2    0    0  0.23073807993E+02 -0.14951593061E+02 -0.16148379801E+02  0.59301938459E+02  0.49999989845E+02 0.  0.
         12    1    1    2    0    0 -0.23073807993E+02  0.14951593061E+02  0.16148379801E+02  0.31886061541E+02  0.00000000000E+00 0. -1.
         11    1    3    3    0    0 -0.19054863825E+01 -0.15578407111E+02  0.23084449650E+01  0.15863371800E+02  0.51100000000E-03 0. -1.
        -11    1    3    3    0    0  0.10004043608E+02  0.29155457451E+01  0.78740860037E+01  0.13060724565E+02  0.51100000000E-03 0.  1.
        -12    1    3    3    0    0  0.14975250768E+02 -0.22887316956E+01 -0.26330910770E+02  0.30377842094E+02  0.00000000000E+00 0.  1.
</event>
<event>
 7    1  0.1193961E-011  0.5930174E+02  0.7816164E-02  0.1266605E+00
        -11   -1    0    0    0    0  0.00000000000E+00  0.00000000000E+00  0.45593999997E+02  0.45594000000E+02  0.51100000000E-03 0.  1.
         11   -1    0    0    0    0 -0.00000000000E+00 -0.00000000000E+00 -0.45593999997E+02  0.45594000000E+02  0.51100000000E-03 0. -1.
    9900012    2    1    2    0    0  0.11298862719E+02 -0.29596405503E+02  0.36224038520E+01  0.59301743915E+02  0.49999635042E+02 0.  0.
         12    1    1    2    0    0 -0.11298862719E+02  0.29596405503E+02 -0.36224038520E+01  0.31886256085E+02  0.00000000000E+00 0. -1.
         11    1    3    3    0    0  0.80557374539E+01  0.73613836186E+01  0.11756443378E+00  0.10913234917E+02  0.51100000000E-03 0. -1.
        -11    1    3    3    0    0 -0.12554823124E+02 -0.10701070657E+02  0.62092794206E+01  0.17626447403E+02  0.51100000000E-03 0.  1.
        -12    1    3    3    0    0  0.15797948389E+02 -0.26256718464E+02 -0.27044400023E+01  0.30762061595E+02  0.00000000000E+00 0.  1.
</event>
<event>
 7    1  0.1193961E-011  0.5930198E+02  0.7816164E-02  0.1266605E+00
        -11   -1    0    0    0    0  0.00000000000E+00  0.00000000000E+00  0.45593999997E+02  0.45594000000E+02  0.51100000000E-03 0.  1.
         11   -1    0    0    0    0 -0.00000000000E+00 -0.00000000000E+00 -0.45593999997E+02  0.45594000000E+02  0.51100000000E-03 0. -1.
    9900012    2    1    2    0    0  0.51550331736E+01  0.58784610572E+01  0.30912581138E+02  0.59301978862E+02  0.50000063530E+02 0.  0.
         12    1    1    2    0    0 -0.51550331736E+01 -0.58784610572E+01 -0.30912581138E+02  0.31886021138E+02  0.00000000000E+00 0. -1.
         11    1    3    3    0    0  0.15599962935E+02  0.98819617589E+01  0.26003366053E+01  0.18648693319E+02  0.51100000000E-03 0. -1.
        -11    1    3    3    0    0  0.65487098583E+01  0.35530015214E+01  0.17785117237E+02  0.19282629904E+02  0.51100000000E-03 0.  1.
        -12    1    3    3    0    0 -0.16993639619E+02 -0.75565022232E+01  0.10527127295E+02  0.21370655639E+02  0.00000000000E+00 0.  1.
</event>
<event>
 7    1  0.1193961E-011  0.5930188E+02  0.7816164E-02  0.1266605E+00
        -11   -1    0    0    0    0  0.00000000000E+00  0.00000000000E+00  0.45593999997E+02  0.45594000000E+02  0.51100000000E-03 0. -1.
         11   -1    0    0    0    0 -0.00000000000E+00 -0.00000000000E+00 -0.45593999997E+02  0.45594000000E+02  0.51100000000E-03 0.  1.
    9900012    2    1    2    0    0  0.25104937039E+02 -0.19557379163E+02 -0.19938767034E+01  0.59301882523E+02  0.49999887829E+02 0.  0.
         12    1    1    2    0    0 -0.25104937039E+02  0.19557379163E+02  0.19938767034E+01  0.31886117477E+02  0.00000000000E+00 0. -1.
         11    1    3    3    0    0  0.26460403399E+02 -0.15135544954E+02  0.33229539147E+00  0.30485210998E+02  0.51100000000E-03 0. -1.
        -11    1    3    3    0    0  0.11869086543E+02  0.30655804227E+01 -0.52592940792E+01  0.13339159388E+02  0.51100000000E-03 0.  1.
         12    1    3    3    0    0 -0.13224552904E+02 -0.74874146318E+01  0.29331219843E+01  0.15477512137E+02  0.00000000000E+00 0. -1.
</event>
<event>
 7    1  0.1193961E-011  0.5930192E+02  0.7816164E-02  0.1266605E+00
        -11   -1    0    0    0    0  0.00000000000E+00  0.00000000000E+00  0.45593999997E+02  0.45594000000E+02  0.51100000000E-03 0.  1.
         11   -1    0    0    0    0 -0.00000000000E+00 -0.00000000000E+00 -0.45593999997E+02  0.45594000000E+02  0.51100000000E-03 0. -1.
    9900012    2    1    2    0    0  0.57234765786E+01 -0.26104284982E+02  0.17393390271E+02  0.59301923043E+02  0.49999961729E+02 0.  0.
         12    1    1    2    0    0 -0.57234765786E+01  0.26104284982E+02 -0.17393390271E+02  0.31886076957E+02  0.00000000000E+00 0. -1.
         11    1    3    3    0    0 -0.41504585224E+01 -0.18060014230E+02  0.34080542060E+01  0.18841583098E+02  0.51100000000E-03 0.  1.
        -11    1    3    3    0    0  0.57844524334E+01 -0.20923015752E+02  0.15768792696E+02  0.26830715635E+02  0.51100000000E-03 0. -1.
         12    1    3    3    0    0  0.40894826675E+01  0.12878745000E+02 -0.17834566308E+01  0.13629624309E+02  0.00000000000E+00 0. -1.
</event>
<event>
 7    1  0.1193961E-011  0.5930193E+02  0.7816164E-02  0.1266605E+00
        -11   -1    0    0    0    0  0.00000000000E+00  0.00000000000E+00  0.45593999997E+02  0.45594000000E+02  0.51100000000E-03 0. -1.
         11   -1    0    0    0    0 -0.00000000000E+00 -0.00000000000E+00 -0.45593999997E+02  0.45594000000E+02  0.51100000000E-03 0.  1.
    9900012    2    1    2    0    0 -0.23918712362E+02  0.19757078674E+02 -0.73671095108E+01  0.59301933115E+02  0.49999980099E+02 0.  0.
         12    1    1    2    0    0  0.23918712362E+02 -0.19757078674E+02  0.73671095108E+01  0.31886066885E+02  0.00000000000E+00 0. -1.
         11    1    3    3    0    0  0.46945564209E+01  0.30115404075E+01 -0.75775195609E+01  0.94088808353E+01  0.51100000000E-03 0. -1.
        -11    1    3    3    0    0 -0.33449332359E+01  0.25243627571E+00 -0.15510214410E+02  0.15868807571E+02  0.51100000000E-03 0.  1.
         12    1    3    3    0    0 -0.25268335547E+02  0.16493101991E+02  0.15720624460E+02  0.34024244709E+02  0.00000000000E+00 0. -1.
</event>
<event>
 7    1  0.1193961E-011  0.5930188E+02  0.7816164E-02  0.1266605E+00
        -11   -1    0    0    0    0  0.00000000000E+00  0.00000000000E+00  0.45593999997E+02  0.45594000000E+02  0.51100000000E-03 0. -1.
         11   -1    0    0    0    0 -0.00000000000E+00 -0.00000000000E+00 -0.45593999997E+02  0.45594000000E+02  0.51100000000E-03 0.  1.
    9900012    2    1    2    0    0 -0.59541643739E+01  0.20732260448E+02 -0.23482881963E+02  0.59301883241E+02  0.49999889140E+02 0.  0.
         12    1    1    2    0    0  0.59541643739E+01 -0.20732260448E+02  0.23482881963E+02  0.31886116759E+02  0.00000000000E+00 0. -1.
         11    1    3    3    0    0 -0.62163302734E+01  0.22867129454E+02 -0.17758014960E+02  0.29612420825E+02  0.51100000000E-03 0. -1.
        -11    1    3    3    0    0 -0.47714463420E+01 -0.82162465910E+01 -0.14846280011E+02  0.17626271264E+02  0.51100000000E-03 0.  1.
         12    1    3    3    0    0  0.50336122415E+01  0.60813775843E+01  0.91214130076E+01  0.12063191152E+02  0.00000000000E+00 0. -1.
</event>
<event>
 7    1  0.1193961E-011  0.5930195E+02  0.7816164E-02  0.1266605E+00
        -11   -1    0    0    0    0  0.00000000000E+00  0.00000000000E+00  0.45593999997E+02  0.45594000000E+02  0.51100000000E-03 0. -1.
         11   -1    0    0    0    0 -0.00000000000E+00 -0.00000000000E+00 -0.45593999997E+02  0.45594000000E+02  0.51100000000E-03 0.  1.
    9900012    2    1    2    0    0  0.22989432417E+02  0.19651325275E+02  0.10101065649E+02  0.59301951089E+02  0.50000012878E+02 0.  0.
         12    1    1    2    0    0 -0.22989432417E+02 -0.19651325275E+02 -0.10101065649E+02  0.31886048911E+02  0.00000000000E+00 0. -1.
         11    1    3    3    0    0  0.75905415657E+01  0.84845025517E+01  0.59133542821E+01  0.12828517605E+02  0.51100000000E-03 0. -1.
        -11    1    3    3    0    0  0.58386152645E+01  0.94618017277E+01 -0.18618604988E+02  0.21685653601E+02  0.51100000000E-03 0.  1.
         12    1    3    3    0    0  0.95602755869E+01  0.17050209951E+01  0.22806316355E+02  0.24787779884E+02  0.00000000000E+00 0. -1.
</event>
<event>
 7    1  0.1193961E-011  0.5930197E+02  0.7816164E-02  0.1266605E+00
        -11   -1    0    0    0    0  0.00000000000E+00  0.00000000000E+00  0.45593999997E+02  0.45594000000E+02  0.51100000000E-03 0.  1.
         11   -1    0    0    0    0 -0.00000000000E+00 -0.00000000000E+00 -0.45593999997E+02  0.45594000000E+02  0.51100000000E-03 0. -1.
    9900012    2    1    2    0    0  0.21616457932E+02 -0.21461770833E+02  0.94254879916E+01  0.59301973520E+02  0.50000053786E+02 0.  0.
         12    1    1    2    0    0 -0.21616457932E+02  0.21461770833E+02 -0.94254879916E+01  0.31886026480E+02  0.00000000000E+00 0. -1.
         11    1    3    3    0    0  0.64362877669E+01 -0.62115344557E+01  0.26038012127E+01  0.93160475272E+01  0.51100000000E-03 0. -1.
        -11    1    3    3    0    0  0.17938929034E+02 -0.21904574435E+02  0.20207806677E+02  0.34784637514E+02  0.51100000000E-03 0.  1.
         12    1    3    3    0    0 -0.27587588683E+01  0.66543380579E+01 -0.13386119898E+02  0.15201288478E+02  0.00000000000E+00 0. -1.
</event>
<event>
 7    1  0.1193961E-011  0.5930195E+02  0.7816164E-02  0.1266605E+00
        -11   -1    0    0    0    0  0.00000000000E+00  0.00000000000E+00  0.45593999997E+02  0.45594000000E+02  0.51100000000E-03 0.  1.
         11   -1    0    0    0    0 -0.00000000000E+00 -0.00000000000E+00 -0.45593999997E+02  0.45594000000E+02  0.51100000000E-03 0. -1.
    9900012    2    1    2    0    0  0.13854576991E+02  0.28216524684E+02  0.53477928238E+01  0.59301945729E+02  0.50000003103E+02 0.  0.
         12    1    1    2    0    0 -0.13854576991E+02 -0.28216524684E+02 -0.53477928238E+01  0.31886054271E+02  0.00000000000E+00 0. -1.
         11    1    3    3    0    0  0.24946632650E+02  0.32551941403E+00 -0.60837226768E+01  0.25679799947E+02  0.51100000000E-03 0. -1.
        -11    1    3    3    0    0 -0.13557314990E+01  0.13177946342E+02  0.84932104366E+01  0.15736292495E+02  0.51100000000E-03 0.  1.
        -12    1    3    3    0    0 -0.97363241599E+01  0.14713058928E+02  0.29383050640E+01  0.17885853287E+02  0.00000000000E+00 0.  1.
</event>
<event>
 7    1  0.1193961E-011  0.5930177E+02  0.7816164E-02  0.1266605E+00
        -11   -1    0    0    0    0  0.00000000000E+00  0.00000000000E+00  0.45593999997E+02  0.45594000000E+02  0.51100000000E-03 0.  1.
         11   -1    0    0    0    0 -0.00000000000E+00 -0.00000000000E+00 -0.45593999997E+02  0.45594000000E+02  0.51100000000E-03 0. -1.
    9900012    2    1    2    0    0  0.96957938960E+01  0.30356484355E+02  0.10986514830E+01  0.59301771048E+02  0.49999684526E+02 0.  0.
         12    1    1    2    0    0 -0.96957938960E+01 -0.30356484355E+02 -0.10986514830E+01  0.31886228952E+02  0.00000000000E+00 0. -1.
         11    1    3    3    0    0 -0.12318161823E+01 -0.65019903173E+01 -0.74084129952E+01  0.99336716557E+01  0.51100000000E-03 0. -1.
        -11    1    3    3    0    0  0.16813380389E+02  0.83211793759E+01 -0.80851194770E+00  0.18777259601E+02  0.51100000000E-03 0.  1.
        -12    1    3    3    0    0 -0.58857703103E+01  0.28537295297E+02  0.93155764259E+01  0.30590839791E+02  0.00000000000E+00 0.  1.
</event>
<event>
 7    1  0.1193961E-011  0.5930194E+02  0.7816164E-02  0.1266605E+00
        -11   -1    0    0    0    0  0.00000000000E+00  0.00000000000E+00  0.45593999997E+02  0.45594000000E+02  0.51100000000E-03 0. -1.
         11   -1    0    0    0    0 -0.00000000000E+00 -0.00000000000E+00 -0.45593999997E+02  0.45594000000E+02  0.51100000000E-03 0.  1.
    9900012    2    1    2    0    0 -0.17191720842E+02 -0.26547237020E+02 -0.40508769312E+01  0.59301942501E+02  0.49999997217E+02 0.  0.
         12    1    1    2    0    0  0.17191720842E+02  0.26547237020E+02  0.40508769312E+01  0.31886057499E+02  0.00000000000E+00 0. -1.
         11    1    3    3    0    0 -0.13050552739E+02 -0.96580017132E+01  0.14100618856E+02  0.21503985125E+02  0.51100000000E-03 0. -1.
        -11    1    3    3    0    0 -0.11016149671E+02  0.17413469334E+01 -0.39714757102E+00  0.11159998619E+02  0.51100000000E-03 0.  1.
        -12    1    3    3    0    0  0.68749815684E+01 -0.18630582240E+02 -0.17754348216E+02  0.26637958757E+02  0.00000000000E+00 0.  1.
</event>
<event>
 7    1  0.1193961E-011  0.5930197E+02  0.7816164E-02  0.1266605E+00
        -11   -1    0    0    0    0  0.00000000000E+00  0.00000000000E+00  0.45593999997E+02  0.45594000000E+02  0.51100000000E-03 0. -1.
         11   -1    0    0    0    0 -0.00000000000E+00 -0.00000000000E+00 -0.45593999997E+02  0.45594000000E+02  0.51100000000E-03 0.  1.
    9900012    2    1    2    0    0  0.21896369268E+02 -0.30169583502E+01  0.22981866615E+02  0.59301965159E+02  0.50000038538E+02 0.  0.
         12    1    1    2    0    0 -0.21896369268E+02  0.30169583502E+01 -0.22981866615E+02  0.31886034841E+02  0.00000000000E+00 0. -1.
         11    1    3    3    0    0 -0.58893110659E+00 -0.10310941446E+02  0.49628303623E+01  0.11458273815E+02  0.51100000000E-03 0.  1.
        -11    1    3    3    0    0  0.20119836487E+02  0.69642828014E+01 -0.72275701473E+01  0.22484368474E+02  0.51100000000E-03 0. -1.
         12    1    3    3    0    0  0.23654638875E+01  0.32970029437E+00  0.25246606400E+02  0.25359322870E+02  0.00000000000E+00 0. -1.
</event>
<event>
 7    1  0.1193961E-011  0.5930203E+02  0.7816164E-02  0.1266604E+00
        -11   -1    0    0    0    0  0.00000000000E+00  0.00000000000E+00  0.45593999997E+02  0.45594000000E+02  0.51100000000E-03 0.  1.
         11   -1    0    0    0    0 -0.00000000000E+00 -0.00000000000E+00 -0.45593999997E+02  0.45594000000E+02  0.51100000000E-03 0. -1.
    9900012    2    1    2    0    0  0.25549692836E+01 -0.19866674282E+02  0.24809325876E+02  0.59302027136E+02  0.50000151569E+02 0.  0.
         12    1    1    2    0    0 -0.25549692836E+01  0.19866674282E+02 -0.24809325876E+02  0.31885972864E+02  0.00000000000E+00 0. -1.
         11    1    3    3    0    0  0.24977280206E+01  0.43768365908E+01  0.25401038228E+02  0.25896101775E+02  0.51100000000E-03 0. -1.
        -11    1    3    3    0    0  0.93028957259E+01 -0.37951554605E+01 -0.37888678319E+01  0.10737904524E+02  0.51100000000E-03 0.  1.
        -12    1    3    3    0    0 -0.92456544629E+01 -0.20448355412E+02  0.31971554797E+01  0.22668020837E+02  0.00000000000E+00 0.  1.
</event>
<event>
 7    1  0.1193961E-011  0.5930210E+02  0.7816164E-02  0.1266604E+00
        -11   -1    0    0    0    0  0.00000000000E+00  0.00000000000E+00  0.45593999997E+02  0.45594000000E+02  0.51100000000E-03 0.  1.
         11   -1    0    0    0    0 -0.00000000000E+00 -0.00000000000E+00 -0.45593999997E+02  0.45594000000E+02  0.51100000000E-03 0. -1.
    9900012    2    1    2    0    0  0.16155400144E+02 -0.26705066130E+02  0.65232756765E+01  0.59302099724E+02  0.50000283953E+02 0.  0.
         12    1    1    2    0    0 -0.16155400144E+02  0.26705066130E+02 -0.65232756765E+01  0.31885900276E+02  0.00000000000E+00 0. -1.
         11    1    3    3    0    0 -0.11017333934E+02 -0.13719016553E+01  0.13263619910E+02  0.17297033692E+02  0.51100000000E-03 0. -1.
        -11    1    3    3    0    0 -0.22993541567E+00  0.17722738752E+01  0.17893061832E+01  0.25289210867E+01  0.51100000000E-03 0.  1.
        -12    1    3    3    0    0  0.27402669494E+02 -0.27105438350E+02 -0.85296504170E+01  0.39476144946E+02  0.00000000000E+00 0.  1.
</event>
<event>
 7    1  0.1193961E-011  0.5930201E+02  0.7816164E-02  0.1266605E+00
        -11   -1    0    0    0    0  0.00000000000E+00  0.00000000000E+00  0.45593999997E+02  0.45594000000E+02  0.51100000000E-03 0.  1.
         11   -1    0    0    0    0 -0.00000000000E+00 -0.00000000000E+00 -0.45593999997E+02  0.45594000000E+02  0.51100000000E-03 0. -1.
    9900012    2    1    2    0    0  0.30171493341E+02  0.10024404318E+02  0.24307284129E+01  0.59302013533E+02  0.50000126760E+02 0.  0.
         12    1    1    2    0    0 -0.30171493341E+02 -0.10024404318E+02 -0.24307284129E+01  0.31885986467E+02  0.00000000000E+00 0. -1.
         11    1    3    3    0    0  0.17310841051E+02  0.56224741977E+01 -0.20784808305E+02  0.27627625496E+02  0.51100000000E-03 0. -1.
        -11    1    3    3    0    0 -0.84807041861E+00 -0.15285493096E+01 -0.18188721647E+01  0.25226935286E+01  0.51100000000E-03 0.  1.
        -12    1    3    3    0    0  0.13708722709E+02  0.59304794301E+01  0.25034408883E+02  0.29151694508E+02  0.00000000000E+00 0.  1.
</event>
<event>
 7    1  0.1193961E-011  0.5930190E+02  0.7816164E-02  0.1266605E+00
        -11   -1    0    0    0    0  0.00000000000E+00  0.00000000000E+00  0.45593999997E+02  0.45594000000E+02  0.51100000000E-03 0. -1.
         11   -1    0    0    0    0 -0.00000000000E+00 -0.00000000000E+00 -0.45593999997E+02  0.45594000000E+02  0.51100000000E-03 0.  1.
    9900012    2    1    2    0    0 -0.26551256375E+02 -0.15258258703E+02 -0.88847838734E+01  0.59301904940E+02  0.49999928712E+02 0.  0.
         12    1    1    2    0    0  0.26551256375E+02  0.15258258703E+02  0.88847838734E+01  0.31886095060E+02  0.00000000000E+00 0. -1.
         11    1    3    3    0    0 -0.52743580948E+01  0.27405704967E+01  0.73851438619E+01  0.94799752152E+01  0.51100000000E-03 0. -1.
        -11    1    3    3    0    0 -0.22515996519E+02  0.30635442413E+00  0.35696626146E+01  0.22799264105E+02  0.51100000000E-03 0.  1.
        -12    1    3    3    0    0  0.12390982388E+01 -0.18305183624E+02 -0.19839590350E+02  0.27022665620E+02  0.00000000000E+00 0.  1.
</event>
<event>
 7    1  0.1193961E-011  0.5930194E+02  0.7816164E-02  0.1266605E+00
        -11   -1    0    0    0    0  0.00000000000E+00  0.00000000000E+00  0.45593999997E+02  0.45594000000E+02  0.51100000000E-03 0.  1.
         11   -1    0    0    0    0 -0.00000000000E+00 -0.00000000000E+00 -0.45593999997E+02  0.45594000000E+02  0.51100000000E-03 0. -1.
    9900012    2    1    2    0    0  0.20513224534E+02 -0.13335019128E+02  0.20447637677E+02  0.59301937175E+02  0.49999987502E+02 0.  0.
         12    1    1    2    0    0 -0.20513224534E+02  0.13335019128E+02 -0.20447637677E+02  0.31886062825E+02  0.00000000000E+00 0. -1.
         11    1    3    3    0    0 -0.15136587406E+01  0.12067671085E+02 -0.14112146496E+01  0.12243830089E+02  0.51100000000E-03 0. -1.
        -11    1    3    3    0    0  0.11029713251E+02  0.11227104137E+01  0.12831820743E+02  0.16957908978E+02  0.51100000000E-03 0.  1.
         12    1    3    3    0    0  0.10997170024E+02 -0.26525400627E+02  0.90270315830E+01  0.30100198108E+02  0.00000000000E+00 0. -1.
</event>
<event>
 7    1  0.1328643E-011  0.5930191E+02  0.7816164E-02  0.1266605E+00
        -11   -1    0    0    0    0  0.00000000000E+00  0.00000000000E+00  0.45593999997E+02  0.45594000000E+02  0.51100000000E-03 0.  1.
         11   -1    0    0    0    0 -0.00000000000E+00 -0.00000000000E+00 -0.45593999997E+02  0.45594000000E+02  0.51100000000E-03 0. -1.
    9900012    2    1    2    0    0  0.21880296452E+02  0.49824815016E+01 -0.22652815958E+02  0.59301912665E+02  0.49999942801E+02 0.  0.
         12    1    1    2    0    0 -0.21880296452E+02 -0.49824815016E+01  0.22652815958E+02  0.31886087335E+02  0.00000000000E+00 0. -1.
         11    1    3    3    0    0  0.44157845811E+00  0.12997003618E+02  0.28253419507E+01  0.13307879319E+02  0.51100000000E-03 0. -1.
        -11    1    3    3    0    0 -0.59591422005E+01  0.33411061279E+01  0.95848620454E-01  0.68325363623E+01  0.51100000000E-03 0.  1.
        -12    1    3    3    0    0  0.27397860194E+02 -0.11355628244E+02 -0.25574006529E+02  0.39161496983E+02  0.00000000000E+00 0.  1.
</event>
<event>
 7    1  0.1193961E-011  0.5930193E+02  0.7816164E-02  0.1266605E+00
        -11   -1    0    0    0    0  0.00000000000E+00  0.00000000000E+00  0.45593999997E+02  0.45594000000E+02  0.51100000000E-03 0.  1.
         11   -1    0    0    0    0 -0.00000000000E+00 -0.00000000000E+00 -0.45593999997E+02  0.45594000000E+02  0.51100000000E-03 0. -1.
    9900012    2    1    2    0    0 -0.79714902436E+01  0.18847373967E+02  0.24453082419E+02  0.59301930911E+02  0.49999976078E+02 0.  0.
         12    1    1    2    0    0  0.79714902436E+01 -0.18847373967E+02 -0.24453082419E+02  0.31886069089E+02  0.00000000000E+00 0. -1.
         11    1    3    3    0    0 -0.91868658680E+01  0.12753072557E+01  0.13238179838E+01  0.93689597815E+01  0.51100000000E-03 0. -1.
        -11    1    3    3    0    0 -0.18445676084E+02  0.15907834008E+02  0.10633734661E+02  0.26577781362E+02  0.51100000000E-03 0.  1.
        -12    1    3    3    0    0  0.19661051708E+02  0.16642327037E+01  0.12495529774E+02  0.23355189768E+02  0.00000000000E+00 0.  1.
</event>
<event>
 7    1  0.1193961E-011  0.5930196E+02  0.7816164E-02  0.1266605E+00
        -11   -1    0    0    0    0  0.00000000000E+00  0.00000000000E+00  0.45593999997E+02  0.45594000000E+02  0.51100000000E-03 0.  1.
         11   -1    0    0    0    0 -0.00000000000E+00 -0.00000000000E+00 -0.45593999997E+02  0.45594000000E+02  0.51100000000E-03 0. -1.
    9900012    2    1    2    0    0 -0.91344907974E+01 -0.13996975818E+02  0.27154474431E+02  0.59301957038E+02  0.50000023727E+02 0.  0.
         12    1    1    2    0    0  0.91344907974E+01  0.13996975818E+02 -0.27154474431E+02  0.31886042962E+02  0.00000000000E+00 0. -1.
         11    1    3    3    0    0 -0.35479966374E+01 -0.20685596382E+01 -0.13465179465E+01  0.43220747283E+01  0.51100000000E-03 0. -1.
        -11    1    3    3    0    0 -0.15981678155E+02  0.72059307780E+01  0.28196342475E+02  0.33202006028E+02  0.51100000000E-03 0.  1.
        -12    1    3    3    0    0  0.10395183995E+02 -0.19134346958E+02  0.30464990231E+00  0.21777876282E+02  0.00000000000E+00 0.  1.
</event>
<event>
 7    1  0.1193961E-011  0.5930206E+02  0.7816164E-02  0.1266604E+00
        -11   -1    0    0    0    0  0.00000000000E+00  0.00000000000E+00  0.45593999997E+02  0.45594000000E+02  0.51100000000E-03 0. -1.
         11   -1    0    0    0    0 -0.00000000000E+00 -0.00000000000E+00 -0.45593999997E+02  0.45594000000E+02  0.51100000000E-03 0.  1.
    9900012    2    1    2    0    0 -0.11413500668E+02 -0.22262542096E+02  0.19769286910E+02  0.59302055087E+02  0.50000202545E+02 0.  0.
         12    1    1    2    0    0  0.11413500668E+02  0.22262542096E+02 -0.19769286910E+02  0.31885944913E+02  0.00000000000E+00 0. -1.
         11    1    3    3    0    0  0.70709750798E+01 -0.56233038705E+01  0.37067939641E+01  0.97652729994E+01  0.51100000000E-03 0. -1.
        -11    1    3    3    0    0 -0.24705405917E+02 -0.17960169568E+02  0.24369948414E+02  0.39074533374E+02  0.51100000000E-03 0.  1.
         12    1    3    3    0    0  0.62209301690E+01  0.13209313428E+01 -0.83074554682E+01  0.10462248713E+02  0.00000000000E+00 0. -1.
</event>
<event>
 7    1  0.1193961E-011  0.5930196E+02  0.7816164E-02  0.1266605E+00
        -11   -1    0    0    0    0  0.00000000000E+00  0.00000000000E+00  0.45593999997E+02  0.45594000000E+02  0.51100000000E-03 0.  1.
         11   -1    0    0    0    0 -0.00000000000E+00 -0.00000000000E+00 -0.45593999997E+02  0.45594000000E+02  0.51100000000E-03 0. -1.
    9900012    2    1    2    0    0  0.26498005008E+02  0.56461620804E+01  0.16813575892E+02  0.59301956816E+02  0.50000023323E+02 0.  0.
         12    1    1    2    0    0 -0.26498005008E+02 -0.56461620804E+01 -0.16813575892E+02  0.31886043184E+02  0.00000000000E+00 0. -1.
         11    1    3    3    0    0 -0.22694125597E+01 -0.14698139410E+02 -0.41364835273E+00  0.14878059037E+02  0.51100000000E-03 0. -1.
        -11    1    3    3    0    0  0.17693120700E+02  0.10021588237E+02  0.20565512177E+02  0.28920910121E+02  0.51100000000E-03 0.  1.
        -12    1    3    3    0    0  0.11074296867E+02  0.10322713253E+02 -0.33382879315E+01  0.15502987658E+02  0.00000000000E+00 0.  1.
</event>
<event>
 7    1  0.1193961E-011  0.5930193E+02  0.7816164E-02  0.1266605E+00
        -11   -1    0    0    0    0  0.00000000000E+00  0.00000000000E+00  0.45593999997E+02  0.45594000000E+02  0.51100000000E-03 0. -1.
         11   -1    0    0    0    0 -0.00000000000E+00 -0.00000000000E+00 -0.45593999997E+02  0.45594000000E+02  0.51100000000E-03 0.  1.
    9900012    2    1    2    0    0 -0.16595148316E+02 -0.19203921946E+02 -0.19301078625E+02  0.59301934049E+02  0.49999981802E+02 0.  0.
         12    1    1    2    0    0  0.16595148316E+02  0.19203921946E+02  0.19301078625E+02  0.31886065951E+02  0.00000000000E+00 0. -1.
         11    1    3    3    0    0  0.15308438035E+01  0.11393017215E+02 -0.29343370729E+00  0.11499148995E+02  0.51100000000E-03 0. -1.
        -11    1    3    3    0    0  0.91363639163E+00  0.35885933367E+01  0.10259172497E+01  0.38425564481E+01  0.51100000000E-03 0.  1.
        -12    1    3    3    0    0 -0.19039628511E+02 -0.34185532498E+02 -0.20033562168E+02  0.43960228606E+02  0.00000000000E+00 0.  1.
</event>
<event>
 7    1  0.1193961E-011  0.5930190E+02  0.7816164E-02  0.1266605E+00
        -11   -1    0    0    0    0  0.00000000000E+00  0.00000000000E+00  0.45593999997E+02  0.45594000000E+02  0.51100000000E-03 0. -1.
         11   -1    0    0    0    0 -0.00000000000E+00 -0.00000000000E+00 -0.45593999997E+02  0.45594000000E+02  0.51100000000E-03 0.  1.
    9900012    2    1    2    0    0 -0.25193917214E+02  0.12182345303E+02 -0.15283327182E+02  0.59301904418E+02  0.49999927762E+02 0.  0.
         12    1    1    2    0    0  0.25193917214E+02 -0.12182345303E+02  0.15283327182E+02  0.31886095582E+02  0.00000000000E+00 0. -1.
         11    1    3    3    0    0 -0.40683578526E+00  0.68929727154E+00  0.71632365252E+01  0.72078154709E+01  0.51100000000E-03 0. -1.
        -11    1    3    3    0    0 -0.60793827009E+01 -0.13864508770E+02 -0.10358566007E+02  0.18343483515E+02  0.51100000000E-03 0.  1.
        -12    1    3    3    0    0 -0.18707698728E+02  0.25357556802E+02 -0.12087997701E+02  0.33750605433E+02  0.00000000000E+00 0.  1.
</event>
<event>
 7    1  0.1193961E-011  0.5930193E+02  0.7816164E-02  0.1266605E+00
        -11   -1    0    0    0    0  0.00000000000E+00  0.00000000000E+00  0.45593999997E+02  0.45594000000E+02  0.51100000000E-03 0.  1.
         11   -1    0    0    0    0 -0.00000000000E+00 -0.00000000000E+00 -0.45593999997E+02  0.45594000000E+02  0.51100000000E-03 0. -1.
    9900012    2    1    2    0    0 -0.14338944335E+02  0.21408664389E+02 -0.18782571549E+02  0.59301933614E+02  0.49999981008E+02 0.  0.
         12    1    1    2    0    0  0.14338944335E+02 -0.21408664389E+02  0.18782571549E+02  0.31886066386E+02  0.00000000000E+00 0. -1.
         11    1    3    3    0    0  0.52782993286E+01  0.74269430216E+01 -0.17838253766E+01  0.92845010466E+01  0.51100000000E-03 0. -1.
        -11    1    3    3    0    0  0.45695615973E+01  0.13811849820E+02  0.68231836239E+01  0.16068725017E+02  0.51100000000E-03 0.  1.
        -12    1    3    3    0    0 -0.24186805261E+02  0.16987154680E+00 -0.23821929797E+02  0.33948707550E+02  0.00000000000E+00 0.  1.
</event>
<event>
 7    1  0.1193961E-011  0.5930194E+02  0.7816164E-02  0.1266605E+00
        -11   -1    0    0    0    0  0.00000000000E+00  0.00000000000E+00  0.45593999997E+02  0.45594000000E+02  0.51100000000E-03 0.  1.
         11   -1    0    0    0    0 -0.00000000000E+00 -0.00000000000E+00 -0.45593999997E+02  0.45594000000E+02  0.51100000000E-03 0. -1.
    9900012    2    1    2    0    0 -0.32465997162E+01 -0.99090928361E+01  0.30132881573E+02  0.59301935921E+02  0.49999985215E+02 0.  0.
         12    1    1    2    0    0  0.32465997162E+01  0.99090928361E+01 -0.30132881573E+02  0.31886064079E+02  0.00000000000E+00 0. -1.
         11    1    3    3    0    0 -0.39048912201E+01  0.11872621293E+02  0.25639443275E+01  0.12758570554E+02  0.51100000000E-03 0. -1.
        -11    1    3    3    0    0 -0.12859888086E+01 -0.53472236445E+01  0.29384714376E+02  0.29894949526E+02  0.51100000000E-03 0.  1.
         12    1    3    3    0    0  0.19442803125E+01 -0.16434490485E+02 -0.18157771305E+01  0.16648415841E+02  0.00000000000E+00 0. -1.
</event>
<event>
 7    1  0.1193961E-011  0.5930183E+02  0.7816164E-02  0.1266605E+00
        -11   -1    0    0    0    0  0.00000000000E+00  0.00000000000E+00  0.45593999997E+02  0.45594000000E+02  0.51100000000E-03 0. -1.
         11   -1    0    0    0    0 -0.00000000000E+00 -0.00000000000E+00 -0.45593999997E+02  0.45594000000E+02  0.51100000000E-03 0.  1.
    9900012    2    1    2    0    0  0.12656848133E+02 -0.16307136017E+02 -0.24302453381E+02  0.59301831681E+02  0.49999795106E+02 0.  0.
         12    1    1    2    0    0 -0.12656848133E+02  0.16307136017E+02  0.24302453381E+02  0.31886168319E+02  0.00000000000E+00 0. -1.
         11    1    3    3    0    0  0.35918715208E+01 -0.24329153380E+02 -0.91700133102E+01  0.26246873901E+02  0.51100000000E-03 0. -1.
        -11    1    3    3    0    0 -0.22886360678E+01 -0.79820317713E+01 -0.46471689822E-01  0.83037850482E+01  0.51100000000E-03 0.  1.
        -12    1    3    3    0    0  0.11353612680E+02  0.16004049135E+02 -0.15085968381E+02  0.24751172731E+02  0.00000000000E+00 0.  1.
</event>
<event>
 7    1  0.1193961E-011  0.5930196E+02  0.7816164E-02  0.1266605E+00
        -11   -1    0    0    0    0  0.00000000000E+00  0.00000000000E+00  0.45593999997E+02  0.45594000000E+02  0.51100000000E-03 0.  1.
         11   -1    0    0    0    0 -0.00000000000E+00 -0.00000000000E+00 -0.45593999997E+02  0.45594000000E+02  0.51100000000E-03 0. -1.
    9900012    2    1    2    0    0  0.83175994905E+01 -0.28456875533E+02 -0.11736414253E+02  0.59301958448E+02  0.50000026298E+02 0.  0.
         12    1    1    2    0    0 -0.83175994905E+01  0.28456875533E+02  0.11736414253E+02  0.31886041552E+02  0.00000000000E+00 0. -1.
         11    1    3    3    0    0  0.49756110206E+01  0.25324547000E+00  0.50639779579E+00  0.50077217660E+01  0.51100000000E-03 0. -1.
        -11    1    3    3    0    0  0.13752682040E+02 -0.36505229943E+02 -0.47854071130E+01  0.39302267085E+02  0.51100000000E-03 0.  1.
         12    1    3    3    0    0 -0.10410693570E+02  0.77951089407E+01 -0.74574049353E+01  0.14991969597E+02  0.00000000000E+00 0. -1.
</event>
<event>
 7    1  0.1193961E-011  0.5930193E+02  0.7816164E-02  0.1266605E+00
        -11   -1    0    0    0    0  0.00000000000E+00  0.00000000000E+00  0.45593999997E+02  0.45594000000E+02  0.51100000000E-03 0.  1.
         11   -1    0    0    0    0 -0.00000000000E+00 -0.00000000000E+00 -0.45593999997E+02  0.45594000000E+02  0.51100000000E-03 0. -1.
    9900012    2    1    2    0    0 -0.25155375678E+02  0.15570770465E+02  0.11894525383E+02  0.59301928551E+02  0.49999971775E+02 0.  0.
         12    1    1    2    0    0  0.25155375678E+02 -0.15570770465E+02 -0.11894525383E+02  0.31886071449E+02  0.00000000000E+00 0. -1.
         11    1    3    3    0    0 -0.39391330604E+00  0.21705973708E+02  0.17535785459E+02  0.27907135902E+02  0.51100000000E-03 0. -1.
        -11    1    3    3    0    0 -0.10215880706E+02  0.35529284090E+01  0.38823004393E+01  0.11491726408E+02  0.51100000000E-03 0.  1.
         12    1    3    3    0    0 -0.14545581666E+02 -0.96881316525E+01 -0.95235605154E+01  0.19903066241E+02  0.00000000000E+00 0. -1.
</event>
<event>
 7    1  0.1193961E-011  0.5930196E+02  0.7816164E-02  0.1266605E+00
        -11   -1    0    0    0    0  0.00000000000E+00  0.00000000000E+00  0.45593999997E+02  0.45594000000E+02  0.51100000000E-03 0.  1.
         11   -1    0    0    0    0 -0.00000000000E+00 -0.00000000000E+00 -0.45593999997E+02  0.45594000000E+02  0.51100000000E-03 0. -1.
    9900012    2    1    2    0    0 -0.14788245580E+02  0.26736091243E+02  0.91218696645E+01  0.59301964052E+02  0.50000036519E+02 0.  0.
         12    1    1    2    0    0  0.14788245580E+02 -0.26736091243E+02 -0.91218696645E+01  0.31886035948E+02  0.00000000000E+00 0. -1.
         11    1    3    3    0    0  0.50527129042E+01 -0.85229536419E+01  0.40560853214E+01  0.10706188625E+02  0.51100000000E-03 0. -1.
        -11    1    3    3    0    0  0.56328580574E+01  0.16657635677E+01 -0.11351742524E+01  0.59826815896E+01  0.51100000000E-03 0.  1.
        -12    1    3    3    0    0 -0.25473816542E+02  0.33593281318E+02  0.62009585956E+01  0.42613093837E+02  0.00000000000E+00 0.  1.
</event>
<event>
 7    1  0.1193961E-011  0.5930194E+02  0.7816164E-02  0.1266605E+00
        -11   -1    0    0    0    0  0.00000000000E+00  0.00000000000E+00  0.45593999997E+02  0.45594000000E+02  0.51100000000E-03 0. -1.
         11   -1    0    0    0    0 -0.00000000000E+00 -0.00000000000E+00 -0.45593999997E+02  0.45594000000E+02  0.51100000000E-03 0.  1.
    9900012    2    1    2    0    0  0.21467257187E+02  0.23532919554E+02  0.14419370506E+01  0.59301943230E+02  0.49999998545E+02 0.  0.
         12    1    1    2    0    0 -0.21467257187E+02 -0.23532919554E+02 -0.14419370506E+01  0.31886056770E+02  0.00000000000E+00 0. -1.
         11    1    3    3    0    0  0.19604187952E+02  0.28729616169E+02  0.14327185726E+02  0.37616263525E+02  0.51100000000E-03 0. -1.
        -11    1    3    3    0    0  0.22438658219E+01  0.34679433584E+01  0.18982570915E+01  0.45458712267E+01  0.51100000000E-03 0.  1.
         12    1    3    3    0    0 -0.38079658744E+00 -0.86646399729E+01 -0.14783505767E+02  0.17139808478E+02  0.00000000000E+00 0. -1.
</event>
<event>
 7    1  0.1193961E-011  0.5930190E+02  0.7816164E-02  0.1266605E+00
        -11   -1    0    0    0    0  0.00000000000E+00  0.00000000000E+00  0.45593999997E+02  0.45594000000E+02  0.51100000000E-03 0.  1.
         11   -1    0    0    0    0 -0.00000000000E+00 -0.00000000000E+00 -0.45593999997E+02  0.45594000000E+02  0.51100000000E-03 0. -1.
    9900012    2    1    2    0    0 -0.72960079865E+01 -0.21561938473E+02  0.22328778585E+02  0.59301901519E+02  0.49999922474E+02 0.  0.
         12    1    1    2    0    0  0.72960079865E+01  0.21561938473E+02 -0.22328778585E+02  0.31886098481E+02  0.00000000000E+00 0. -1.
         11    1    3    3    0    0  0.90503258595E+01  0.50147867068E+01  0.12490432470E+02  0.16219352250E+02  0.51100000000E-03 0. -1.
        -11    1    3    3    0    0 -0.46907516631E+01 -0.36194073733E+01  0.15610279505E+02  0.16696828662E+02  0.51100000000E-03 0.  1.
        -12    1    3    3    0    0 -0.11655582183E+02 -0.22957317806E+02 -0.57719333891E+01  0.26385720606E+02  0.00000000000E+00 0.  1.
</event>
<event>
 7    1  0.1193961E-011  0.5930196E+02  0.7816164E-02  0.1266605E+00
        -11   -1    0    0    0    0  0.00000000000E+00  0.00000000000E+00  0.45593999997E+02  0.45594000000E+02  0.51100000000E-03 0.  1.
         11   -1    0    0    0    0 -0.00000000000E+00 -0.00000000000E+00 -0.45593999997E+02  0.45594000000E+02  0.51100000000E-03 0. -1.
    9900012    2    1    2    0    0  0.15111967838E+02 -0.96798922935E+00  0.28060839592E+02  0.59301963970E+02  0.50000036370E+02 0.  0.
         12    1    1    2    0    0 -0.15111967838E+02  0.96798922935E+00 -0.28060839592E+02  0.31886036030E+02  0.00000000000E+00 0. -1.
         11    1    3    3    0    0  0.50591394271E+01 -0.20184808503E+01  0.19299530836E+02  0.20053454751E+02  0.51100000000E-03 0. -1.
        -11    1    3    3    0    0  0.66884918388E+01  0.17952349940E+02  0.10637913171E+02  0.21913192108E+02  0.51100000000E-03 0.  1.
         12    1    3    3    0    0  0.33643365721E+01 -0.16901858319E+02 -0.18766044152E+01  0.17335317111E+02  0.00000000000E+00 0. -1.
</event>
<event>
 7    1  0.1193961E-011  0.5930194E+02  0.7816164E-02  0.1266605E+00
        -11   -1    0    0    0    0  0.00000000000E+00  0.00000000000E+00  0.45593999997E+02  0.45594000000E+02  0.51100000000E-03 0. -1.
         11   -1    0    0    0    0 -0.00000000000E+00 -0.00000000000E+00 -0.45593999997E+02  0.45594000000E+02  0.51100000000E-03 0.  1.
    9900012    2    1    2    0    0 -0.26030528659E+02 -0.34061074553E+01  0.18097805001E+02  0.59301944488E+02  0.50000000839E+02 0.  0.
         12    1    1    2    0    0  0.26030528659E+02  0.34061074553E+01 -0.18097805001E+02  0.31886055512E+02  0.00000000000E+00 0. -1.
         11    1    3    3    0    0 -0.97467158851E+01 -0.93068593187E+01  0.21327193800E+02  0.25228263843E+02  0.51100000000E-03 0. -1.
        -11    1    3    3    0    0  0.48179423554E+01 -0.17288266831E+01  0.75963403012E+01  0.91600107245E+01  0.51100000000E-03 0.  1.
        -12    1    3    3    0    0 -0.21101755129E+02  0.76295785465E+01 -0.10825729099E+02  0.24913669920E+02  0.00000000000E+00 0.  1.
</event>
<event>
 7    1  0.1193961E-011  0.5930193E+02  0.7816164E-02  0.1266605E+00
        -11   -1    0    0    0    0  0.00000000000E+00  0.00000000000E+00  0.45593999997E+02  0.45594000000E+02  0.51100000000E-03 0.  1.
         11   -1    0    0    0    0 -0.00000000000E+00 -0.00000000000E+00 -0.45593999997E+02  0.45594000000E+02  0.51100000000E-03 0. -1.
    9900012    2    1    2    0    0 -0.22229186581E+02 -0.11435811191E+02  0.19794111532E+02  0.59301931490E+02  0.49999977135E+02 0.  0.
         12    1    1    2    0    0  0.22229186581E+02  0.11435811191E+02 -0.19794111532E+02  0.31886068510E+02  0.00000000000E+00 0. -1.
         11    1    3    3    0    0 -0.92255809402E+01 -0.18028117685E+02  0.17679143922E+02  0.26882643118E+02  0.51100000000E-03 0. -1.
        -11    1    3    3    0    0  0.62870772989E+00 -0.89780158925E+01  0.67031685013E+01  0.11221965558E+02  0.51100000000E-03 0.  1.
         12    1    3    3    0    0 -0.13632313371E+02  0.15570322386E+02 -0.45882008914E+01  0.21197322814E+02  0.00000000000E+00 0. -1.
</event>
<event>
 7    1  0.1193961E-011  0.5930194E+02  0.7816164E-02  0.1266605E+00
        -11   -1    0    0    0    0  0.00000000000E+00  0.00000000000E+00  0.45593999997E+02  0.45594000000E+02  0.51100000000E-03 0. -1.
         11   -1    0    0    0    0 -0.00000000000E+00 -0.00000000000E+00 -0.45593999997E+02  0.45594000000E+02  0.51100000000E-03 0.  1.
    9900012    2    1    2    0    0 -0.34374360732E+00 -0.27664966825E+02 -0.15850943670E+02  0.59301937774E+02  0.49999988594E+02 0.  0.
         12    1    1    2    0    0  0.34374360732E+00  0.27664966825E+02  0.15850943670E+02  0.31886062226E+02  0.00000000000E+00 0. -1.
         11    1    3    3    0    0 -0.37199788319E+01 -0.38141192711E+01  0.53402166494E+01  0.75434516269E+01  0.51100000000E-03 0. -1.
        -11    1    3    3    0    0  0.67165057473E+01 -0.33305043633E+02 -0.75087863638E+01  0.34795391272E+02  0.51100000000E-03 0.  1.
         12    1    3    3    0    0 -0.33402705227E+01  0.94541960794E+01 -0.13682373956E+02  0.16963094875E+02  0.00000000000E+00 0. -1.
</event>
<event>
 7    1  0.1193961E-011  0.5930195E+02  0.7816164E-02  0.1266605E+00
        -11   -1    0    0    0    0  0.00000000000E+00  0.00000000000E+00  0.45593999997E+02  0.45594000000E+02  0.51100000000E-03 0. -1.
         11   -1    0    0    0    0 -0.00000000000E+00 -0.00000000000E+00 -0.45593999997E+02  0.45594000000E+02  0.51100000000E-03 0.  1.
    9900012    2    1    2    0    0  0.17488339168E+01  0.18521815145E+02 -0.25896026513E+02  0.59301949046E+02  0.50000009152E+02 0.  0.
         12    1    1    2    0    0 -0.17488339168E+01 -0.18521815145E+02  0.25896026513E+02  0.31886050954E+02  0.00000000000E+00 0. -1.
         11    1    3    3    0    0  0.12291653155E+01 -0.89624931618E+01  0.37121806281E+01  0.97784158392E+01  0.51100000000E-03 0. -1.
        -11    1    3    3    0    0  0.91014337282E+01  0.11633655500E+02 -0.27707641360E+02  0.31398908041E+02  0.51100000000E-03 0.  1.
         12    1    3    3    0    0 -0.85817651270E+01  0.15850652807E+02 -0.19005657809E+01  0.18124625165E+02  0.00000000000E+00 0. -1.
</event>
<event>
 7    1  0.1193961E-011  0.5930193E+02  0.7816164E-02  0.1266605E+00
        -11   -1    0    0    0    0  0.00000000000E+00  0.00000000000E+00  0.45593999997E+02  0.45594000000E+02  0.51100000000E-03 0. -1.
         11   -1    0    0    0    0 -0.00000000000E+00 -0.00000000000E+00 -0.45593999997E+02  0.45594000000E+02  0.51100000000E-03 0.  1.
    9900012    2    1    2    0    0  0.27884708277E+02 -0.13625210247E+02 -0.73156151659E+01  0.59301928821E+02  0.49999972267E+02 0.  0.
         12    1    1    2    0    0 -0.27884708277E+02  0.13625210247E+02  0.73156151659E+01  0.31886071179E+02  0.00000000000E+00 0. -1.
         11    1    3    3    0    0 -0.59157743476E+01  0.26320378315E+01  0.34727372866E+01  0.73473746196E+01  0.51100000000E-03 0. -1.
        -11    1    3    3    0    0  0.10708978616E+02 -0.90700444634E+01 -0.21362438844E+02  0.25559767668E+02  0.51100000000E-03 0.  1.
         12    1    3    3    0    0  0.23091504008E+02 -0.71872036155E+01  0.10574086392E+02  0.26394786534E+02  0.00000000000E+00 0. -1.
</event>
<event>
 7    1  0.1193961E-011  0.5930197E+02  0.7816164E-02  0.1266605E+00
        -11   -1    0    0    0    0  0.00000000000E+00  0.00000000000E+00  0.45593999997E+02  0.45594000000E+02  0.51100000000E-03 0.  1.
         11   -1    0    0    0    0 -0.00000000000E+00 -0.00000000000E+00 -0.45593999997E+02  0.45594000000E+02  0.51100000000E-03 0. -1.
    9900012    2    1    2    0    0  0.67251196060E+01 -0.26743213535E+02  0.16009135371E+02  0.59301966705E+02  0.50000041359E+02 0.  0.
         12    1    1    2    0    0 -0.67251196060E+01  0.26743213535E+02 -0.16009135371E+02  0.31886033295E+02  0.00000000000E+00 0. -1.
         11    1    3    3    0    0 -0.12873766761E+02 -0.10929977448E+02  0.11587054739E+01  0.16927518314E+02  0.51100000000E-03 0. -1.
        -11    1    3    3    0    0 -0.63412317675E+01  0.24225453061E+01  0.69106140731E+01  0.96869258910E+01  0.51100000000E-03 0.  1.
        -12    1    3    3    0    0  0.25940118135E+02 -0.18235781393E+02  0.79398158244E+01  0.32687522500E+02  0.00000000000E+00 0.  1.
</event>
<event>
 7    1  0.1193961E-011  0.5930194E+02  0.7816164E-02  0.1266605E+00
        -11   -1    0    0    0    0  0.00000000000E+00  0.00000000000E+00  0.45593999997E+02  0.45594000000E+02  0.51100000000E-03 0.  1.
         11   -1    0    0    0    0 -0.00000000000E+00 -0.00000000000E+00 -0.45593999997E+02  0.45594000000E+02  0.51100000000E-03 0. -1.
    9900012    2    1    2    0    0  0.11195749153E+01  0.25542949904E+00  0.31865374919E+02  0.59301940178E+02  0.49999992979E+02 0.  0.
         12    1    1    2    0    0 -0.11195749153E+01 -0.25542949904E+00 -0.31865374919E+02  0.31886059822E+02  0.00000000000E+00 0. -1.
         11    1    3    3    0    0  0.59982452231E+01  0.17226339817E+02  0.15527936221E+02  0.23955010599E+02  0.51100000000E-03 0. -1.
        -11    1    3    3    0    0 -0.49722126269E+01  0.46269960061E+01 -0.19284519167E+01  0.70605182178E+01  0.51100000000E-03 0.  1.
         12    1    3    3    0    0  0.93542319172E-01 -0.21597906324E+02  0.18265890615E+02  0.28286411362E+02  0.00000000000E+00 0. -1.
</event>
<event>
 7    1  0.1193961E-011  0.5930192E+02  0.7816164E-02  0.1266605E+00
        -11   -1    0    0    0    0  0.00000000000E+00  0.00000000000E+00  0.45593999997E+02  0.45594000000E+02  0.51100000000E-03 0.  1.
         11   -1    0    0    0    0 -0.00000000000E+00 -0.00000000000E+00 -0.45593999997E+02  0.45594000000E+02  0.51100000000E-03 0. -1.
    9900012    2    1    2    0    0  0.17850875840E+02 -0.30736480115E+01  0.26241592859E+02  0.59301917203E+02  0.49999951078E+02 0.  0.
         12    1    1    2    0    0 -0.17850875840E+02  0.30736480115E+01 -0.26241592859E+02  0.31886082797E+02  0.00000000000E+00 0. -1.
         11    1    3    3    0    0  0.11926556774E+02 -0.80991855886E+00  0.11490212632E+02  0.16580823597E+02  0.51100000000E-03 0. -1.
        -11    1    3    3    0    0  0.18176581180E+02 -0.10737881612E+02  0.17682298826E+02  0.27538226104E+02  0.51100000000E-03 0.  1.
         12    1    3    3    0    0 -0.12252262115E+02  0.84741521598E+01 -0.29309185992E+01  0.15182867502E+02  0.00000000000E+00 0. -1.
</event>
<event>
 7    1  0.1193961E-011  0.5930177E+02  0.7816164E-02  0.1266605E+00
        -11   -1    0    0    0    0  0.00000000000E+00  0.00000000000E+00  0.45593999997E+02  0.45594000000E+02  0.51100000000E-03 0.  1.
         11   -1    0    0    0    0 -0.00000000000E+00 -0.00000000000E+00 -0.45593999997E+02  0.45594000000E+02  0.51100000000E-03 0. -1.
    9900012    2    1    2    0    0  0.21784219576E+02  0.10712065338E+02  0.20674407735E+02  0.59301769405E+02  0.49999681529E+02 0.  0.
         12    1    1    2    0    0 -0.21784219576E+02 -0.10712065338E+02 -0.20674407735E+02  0.31886230595E+02  0.00000000000E+00 0. -1.
         11    1    3    3    0    0  0.19551568121E+02  0.73758132182E+01 -0.76856789439E+01  0.22265131881E+02  0.51100000000E-03 0. -1.
        -11    1    3    3    0    0  0.12292596953E+02 -0.14676570675E+01  0.17793759810E+02  0.21676712056E+02  0.51100000000E-03 0.  1.
         12    1    3    3    0    0 -0.10059945497E+02  0.48039091874E+01  0.10566326869E+02  0.15359925468E+02  0.00000000000E+00 0. -1.
</event>
<event>
 7    1  0.1193961E-011  0.5930196E+02  0.7816164E-02  0.1266605E+00
        -11   -1    0    0    0    0  0.00000000000E+00  0.00000000000E+00  0.45593999997E+02  0.45594000000E+02  0.51100000000E-03 0. -1.
         11   -1    0    0    0    0 -0.00000000000E+00 -0.00000000000E+00 -0.45593999997E+02  0.45594000000E+02  0.51100000000E-03 0.  1.
    9900012    2    1    2    0    0  0.11491676896E+02  0.19225710826E+02 -0.22694344011E+02  0.59301955330E+02  0.50000020612E+02 0.  0.
         12    1    1    2    0    0 -0.11491676896E+02 -0.19225710826E+02  0.22694344011E+02  0.31886044670E+02  0.00000000000E+00 0. -1.
         11    1    3    3    0    0  0.51060755918E+01  0.54797839982E+00 -0.26881854282E+02  0.27367980894E+02  0.51100000000E-03 0.  1.
        -11    1    3    3    0    0  0.12828549390E+02  0.13270040120E+02 -0.53502252840E+01  0.19216934071E+02  0.51100000000E-03 0. -1.
         12    1    3    3    0    0 -0.64429480860E+01  0.54076923059E+01  0.95377355556E+01  0.12717040365E+02  0.00000000000E+00 0. -1.
</event>
<event>
 7    1  0.1193961E-011  0.5930193E+02  0.7816164E-02  0.1266605E+00
        -11   -1    0    0    0    0  0.00000000000E+00  0.00000000000E+00  0.45593999997E+02  0.45594000000E+02  0.51100000000E-03 0.  1.
         11   -1    0    0    0    0 -0.00000000000E+00 -0.00000000000E+00 -0.45593999997E+02  0.45594000000E+02  0.51100000000E-03 0. -1.
    9900012    2    1    2    0    0  0.13187218510E+02  0.11233132322E+01  0.29009598243E+02  0.59301931649E+02  0.49999977424E+02 0.  0.
         12    1    1    2    0    0 -0.13187218510E+02 -0.11233132322E+01 -0.29009598243E+02  0.31886068351E+02  0.00000000000E+00 0. -1.
         11    1    3    3    0    0 -0.58863026306E+00  0.11483072127E+01  0.88972501668E+01  0.89903368031E+01  0.51100000000E-03 0. -1.
        -11    1    3    3    0    0  0.11386451306E+02 -0.40448661442E+01  0.33774639786E+02  0.35871137540E+02  0.51100000000E-03 0.  1.
         12    1    3    3    0    0  0.23893974668E+01  0.40198721638E+01 -0.13662291709E+02  0.14440457306E+02  0.00000000000E+00 0. -1.
</event>
<event>
 7    1  0.1193961E-011  0.5930196E+02  0.7816164E-02  0.1266605E+00
        -11   -1    0    0    0    0  0.00000000000E+00  0.00000000000E+00  0.45593999997E+02  0.45594000000E+02  0.51100000000E-03 0. -1.
         11   -1    0    0    0    0 -0.00000000000E+00 -0.00000000000E+00 -0.45593999997E+02  0.45594000000E+02  0.51100000000E-03 0.  1.
    9900012    2    1    2    0    0 -0.12137371113E+02  0.18328192180E+02 -0.23097209429E+02  0.59301960899E+02  0.50000030769E+02 0.  0.
         12    1    1    2    0    0  0.12137371113E+02 -0.18328192180E+02  0.23097209429E+02  0.31886039101E+02  0.00000000000E+00 0. -1.
         11    1    3    3    0    0 -0.21548494940E+02  0.14293561972E+02 -0.38571903198E+01  0.26144243448E+02  0.51100000000E-03 0. -1.
        -11    1    3    3    0    0  0.13100262459E+01  0.11792826683E+02 -0.18420187442E+02  0.21910961540E+02  0.51100000000E-03 0.  1.
         12    1    3    3    0    0  0.81010975810E+01 -0.77581964755E+01 -0.81983166761E+00  0.11246755911E+02  0.00000000000E+00 0. -1.
</event>
<event>
 7    1  0.1193961E-011  0.5930194E+02  0.7816164E-02  0.1266605E+00
        -11   -1    0    0    0    0  0.00000000000E+00  0.00000000000E+00  0.45593999997E+02  0.45594000000E+02  0.51100000000E-03 0.  1.
         11   -1    0    0    0    0 -0.00000000000E+00 -0.00000000000E+00 -0.45593999997E+02  0.45594000000E+02  0.51100000000E-03 0. -1.
    9900012    2    1    2    0    0 -0.22893098950E+02 -0.68894611740E+01  0.21098867157E+02  0.59301939564E+02  0.49999991860E+02 0.  0.
         12    1    1    2    0    0  0.22893098950E+02  0.68894611740E+01 -0.21098867157E+02  0.31886060436E+02  0.00000000000E+00 0. -1.
         11    1    3    3    0    0 -0.15900573168E+02  0.16362729654E+02 -0.10362965885E+01  0.22839462771E+02  0.51100000000E-03 0. -1.
        -11    1    3    3    0    0 -0.11353437227E+00  0.71669470375E+00  0.75276048288E+01  0.75624980047E+01  0.51100000000E-03 0.  1.
        -12    1    3    3    0    0 -0.68789914096E+01 -0.23968885532E+02  0.14607558917E+02  0.28899978788E+02  0.00000000000E+00 0.  1.
</event>
<event>
 7    1  0.1193961E-011  0.5930197E+02  0.7816164E-02  0.1266605E+00
        -11   -1    0    0    0    0  0.00000000000E+00  0.00000000000E+00  0.45593999997E+02  0.45594000000E+02  0.51100000000E-03 0.  1.
         11   -1    0    0    0    0 -0.00000000000E+00 -0.00000000000E+00 -0.45593999997E+02  0.45594000000E+02  0.51100000000E-03 0. -1.
    9900012    2    1    2    0    0 -0.11335213581E+02  0.15079760518E+02  0.25706667874E+02  0.59301968303E+02  0.50000044272E+02 0.  0.
         12    1    1    2    0    0  0.11335213581E+02 -0.15079760518E+02 -0.25706667874E+02  0.31886031697E+02  0.00000000000E+00 0. -1.
         11    1    3    3    0    0 -0.17834811857E+02  0.51226170449E+00  0.12975228151E+02  0.22061266325E+02  0.51100000000E-03 0. -1.
        -11    1    3    3    0    0  0.71040932878E+01 -0.88685328871E+01  0.23617803153E+01  0.11605904684E+02  0.51100000000E-03 0.  1.
        -12    1    3    3    0    0 -0.60449501194E+00  0.23436031701E+02  0.10369659408E+02  0.25634797294E+02  0.00000000000E+00 0.  1.
</event>
<event>
 7    1  0.1193961E-011  0.5930204E+02  0.7816164E-02  0.1266604E+00
        -11   -1    0    0    0    0  0.00000000000E+00  0.00000000000E+00  0.45593999997E+02  0.45594000000E+02  0.51100000000E-03 0.  1.
         11   -1    0    0    0    0 -0.00000000000E+00 -0.00000000000E+00 -0.45593999997E+02  0.45594000000E+02  0.51100000000E-03 0. -1.
    9900012    2    1    2    0    0 -0.31357804947E+02  0.53762084916E+01  0.21210448172E+01  0.59302041022E+02  0.50000176895E+02 0.  0.
         12    1    1    2    0    0  0.31357804947E+02 -0.53762084916E+01 -0.21210448172E+01  0.31885958978E+02  0.00000000000E+00 0. -1.
         11    1    3    3    0    0 -0.14409078720E+02  0.13123052610E+02 -0.16608016823E+02  0.25605903273E+02  0.51100000000E-03 0. -1.
        -11    1    3    3    0    0 -0.38483466061E+01  0.57120300700E+01 -0.38549498120E+00  0.68982364242E+01  0.51100000000E-03 0.  1.
        -12    1    3    3    0    0 -0.13100379621E+02 -0.13458874188E+02  0.19114556621E+02  0.26797901326E+02  0.00000000000E+00 0.  1.
</event>
<event>
 7    1  0.1193961E-011  0.5930193E+02  0.7816164E-02  0.1266605E+00
        -11   -1    0    0    0    0  0.00000000000E+00  0.00000000000E+00  0.45593999997E+02  0.45594000000E+02  0.51100000000E-03 0. -1.
         11   -1    0    0    0    0 -0.00000000000E+00 -0.00000000000E+00 -0.45593999997E+02  0.45594000000E+02  0.51100000000E-03 0.  1.
    9900012    2    1    2    0    0 -0.31337285346E+02 -0.22456434083E+01  0.54454681843E+01  0.59301929516E+02  0.49999973535E+02 0.  0.
         12    1    1    2    0    0  0.31337285346E+02  0.22456434083E+01 -0.54454681843E+01  0.31886070484E+02  0.00000000000E+00 0. -1.
         11    1    3    3    0    0  0.49675517065E+00  0.27842366356E+01 -0.58109401569E+00  0.28872841666E+01  0.51100000000E-03 0. -1.
        -11    1    3    3    0    0 -0.97983098097E+01  0.19263096090E+02  0.91479443339E+01  0.23468247312E+02  0.51100000000E-03 0.  1.
         12    1    3    3    0    0 -0.22035730707E+02 -0.24292976134E+02 -0.31213821339E+01  0.32946398038E+02  0.00000000000E+00 0. -1.
</event>
<event>
 7    1  0.1193961E-011  0.5930195E+02  0.7816164E-02  0.1266605E+00
        -11   -1    0    0    0    0  0.00000000000E+00  0.00000000000E+00  0.45593999997E+02  0.45594000000E+02  0.51100000000E-03 0. -1.
         11   -1    0    0    0    0 -0.00000000000E+00 -0.00000000000E+00 -0.45593999997E+02  0.45594000000E+02  0.51100000000E-03 0.  1.
    9900012    2    1    2    0    0 -0.17444828971E+02  0.23323754394E+01 -0.26588688182E+02  0.59301947058E+02  0.50000005526E+02 0.  0.
         12    1    1    2    0    0  0.17444828971E+02 -0.23323754394E+01  0.26588688182E+02  0.31886052942E+02  0.00000000000E+00 0. -1.
         11    1    3    3    0    0 -0.21927215582E+01 -0.12465695298E+02 -0.97386130473E+01  0.15970039807E+02  0.51100000000E-03 0. -1.
        -11    1    3    3    0    0  0.69112494063E+01  0.15690137821E+02 -0.36798860217E+01  0.17535317351E+02  0.51100000000E-03 0.  1.
         12    1    3    3    0    0 -0.22163356819E+02 -0.89206708382E+00 -0.13170189113E+02  0.25796589899E+02  0.00000000000E+00 0. -1.
</event>
<event>
 7    1  0.1193961E-011  0.5930195E+02  0.7816164E-02  0.1266605E+00
        -11   -1    0    0    0    0  0.00000000000E+00  0.00000000000E+00  0.45593999997E+02  0.45594000000E+02  0.51100000000E-03 0. -1.
         11   -1    0    0    0    0 -0.00000000000E+00 -0.00000000000E+00 -0.45593999997E+02  0.45594000000E+02  0.51100000000E-03 0.  1.
    9900012    2    1    2    0    0 -0.27333775708E+02  0.86777632725E+01 -0.13938477831E+02  0.59301952360E+02  0.50000015196E+02 0.  0.
         12    1    1    2    0    0  0.27333775708E+02 -0.86777632725E+01  0.13938477831E+02  0.31886047640E+02  0.00000000000E+00 0. -1.
         11    1    3    3    0    0 -0.77984666380E+01 -0.63262503593E+01 -0.11882167503E+01  0.10111843789E+02  0.51100000000E-03 0. -1.
        -11    1    3    3    0    0 -0.23316907768E+02 -0.76284380789E+01 -0.57196023055E+01  0.25190972712E+02  0.51100000000E-03 0.  1.
         12    1    3    3    0    0  0.37815986982E+01  0.22632451711E+02 -0.70306587751E+01  0.23999135859E+02  0.00000000000E+00 0. -1.
</event>
<event>
 7    1  0.1193961E-011  0.5930195E+02  0.7816164E-02  0.1266605E+00
        -11   -1    0    0    0    0  0.00000000000E+00  0.00000000000E+00  0.45593999997E+02  0.45594000000E+02  0.51100000000E-03 0.  1.
         11   -1    0    0    0    0 -0.00000000000E+00 -0.00000000000E+00 -0.45593999997E+02  0.45594000000E+02  0.51100000000E-03 0. -1.
    9900012    2    1    2    0    0 -0.12082185083E+02 -0.28431783088E+02 -0.78977507565E+01  0.59301953633E+02  0.50000017517E+02 0.  0.
         12    1    1    2    0    0  0.12082185083E+02  0.28431783088E+02  0.78977507565E+01  0.31886046367E+02  0.00000000000E+00 0. -1.
         11    1    3    3    0    0 -0.66112036637E+01 -0.84360601317E+01 -0.12119249125E+02  0.16178730607E+02  0.51100000000E-03 0. -1.
        -11    1    3    3    0    0 -0.17646166280E+02 -0.23342177578E+02 -0.14143911062E+01  0.29295817806E+02  0.51100000000E-03 0.  1.
         12    1    3    3    0    0  0.12175184861E+02  0.33464546215E+01  0.56358894751E+01  0.13827405220E+02  0.00000000000E+00 0. -1.
</event>
<event>
 7    1  0.1193961E-011  0.5930198E+02  0.7816164E-02  0.1266605E+00
        -11   -1    0    0    0    0  0.00000000000E+00  0.00000000000E+00  0.45593999997E+02  0.45594000000E+02  0.51100000000E-03 0. -1.
         11   -1    0    0    0    0 -0.00000000000E+00 -0.00000000000E+00 -0.45593999997E+02  0.45594000000E+02  0.51100000000E-03 0.  1.
    9900012    2    1    2    0    0  0.45518030406E+01  0.30867043895E+02 -0.65745604769E+01  0.59301981823E+02  0.50000068929E+02 0.  0.
         12    1    1    2    0    0 -0.45518030406E+01 -0.30867043895E+02  0.65745604769E+01  0.31886018177E+02  0.00000000000E+00 0. -1.
         11    1    3    3    0    0  0.14951207175E+02  0.56166589150E+01 -0.57398925335E+00  0.15981705706E+02  0.51100000000E-03 0. -1.
        -11    1    3    3    0    0 -0.13372008806E+02 -0.31618741425E+01 -0.53500100124E+01  0.14745530678E+02  0.51100000000E-03 0.  1.
         12    1    3    3    0    0  0.29726046714E+01  0.28412259123E+02 -0.65056121121E+00  0.28574745438E+02  0.00000000000E+00 0. -1.
</event>
<event>
 7    1  0.1193961E-011  0.5930194E+02  0.7816164E-02  0.1266605E+00
        -11   -1    0    0    0    0  0.00000000000E+00  0.00000000000E+00  0.45593999997E+02  0.45594000000E+02  0.51100000000E-03 0. -1.
         11   -1    0    0    0    0 -0.00000000000E+00 -0.00000000000E+00 -0.45593999997E+02  0.45594000000E+02  0.51100000000E-03 0.  1.
    9900012    2    1    2    0    0  0.39845380372E+01 -0.31378132793E+02  0.40319756835E+01  0.59301943661E+02  0.49999999331E+02 0.  0.
         12    1    1    2    0    0 -0.39845380372E+01  0.31378132793E+02 -0.40319756835E+01  0.31886056339E+02  0.00000000000E+00 0. -1.
         11    1    3    3    0    0  0.97840578394E+01 -0.11630566034E+02 -0.11496721054E+02  0.19057083967E+02  0.51100000000E-03 0. -1.
        -11    1    3    3    0    0 -0.52249225949E+01  0.47720682526E+01 -0.46644957833E+01  0.84752564978E+01  0.51100000000E-03 0.  1.
         12    1    3    3    0    0 -0.57459720727E+00 -0.24519635011E+02  0.20193192521E+02  0.31769603196E+02  0.00000000000E+00 0. -1.
</event>
<event>
 7    1  0.1193961E-011  0.5930196E+02  0.7816164E-02  0.1266605E+00
        -11   -1    0    0    0    0  0.00000000000E+00  0.00000000000E+00  0.45593999997E+02  0.45594000000E+02  0.51100000000E-03 0. -1.
         11   -1    0    0    0    0 -0.00000000000E+00 -0.00000000000E+00 -0.45593999997E+02  0.45594000000E+02  0.51100000000E-03 0.  1.
    9900012    2    1    2    0    0  0.11047700416E+01  0.28073844156E+02 -0.15078415663E+02  0.59301955067E+02  0.50000020133E+02 0.  0.
         12    1    1    2    0    0 -0.11047700416E+01 -0.28073844156E+02  0.15078415663E+02  0.31886044933E+02  0.00000000000E+00 0. -1.
         11    1    3    3    0    0 -0.47889657092E+00  0.61280336408E+01  0.37234494544E+01  0.71865300618E+01  0.51100000000E-03 0. -1.
        -11    1    3    3    0    0  0.21023680583E+02  0.87968432529E+01 -0.12782432157E+01  0.22825720196E+02  0.51100000000E-03 0.  1.
         12    1    3    3    0    0 -0.19440013971E+02  0.13148967263E+02 -0.17523621902E+02  0.29289704809E+02  0.00000000000E+00 0. -1.
</event>
<event>
 7    1  0.1193961E-011  0.5930193E+02  0.7816164E-02  0.1266605E+00
        -11   -1    0    0    0    0  0.00000000000E+00  0.00000000000E+00  0.45593999997E+02  0.45594000000E+02  0.51100000000E-03 0.  1.
         11   -1    0    0    0    0 -0.00000000000E+00 -0.00000000000E+00 -0.45593999997E+02  0.45594000000E+02  0.51100000000E-03 0. -1.
    9900012    2    1    2    0    0  0.12454051668E+02 -0.26148201272E+02  0.13337528797E+02  0.59301929262E+02  0.49999973071E+02 0.  0.
         12    1    1    2    0    0 -0.12454051668E+02  0.26148201272E+02 -0.13337528797E+02  0.31886070738E+02  0.00000000000E+00 0. -1.
         11    1    3    3    0    0  0.27493316115E+01 -0.11625638026E+02 -0.10857829792E+02  0.16143319110E+02  0.51100000000E-03 0. -1.
        -11    1    3    3    0    0  0.63372817134E+01 -0.10946824487E+01 -0.67100388697E+01  0.92943042274E+01  0.51100000000E-03 0.  1.
        -12    1    3    3    0    0  0.33674383434E+01 -0.13427880797E+02  0.30905397458E+02  0.33864305925E+02  0.00000000000E+00 0.  1.
</event>
<event>
 7    1  0.1193961E-011  0.5930195E+02  0.7816164E-02  0.1266605E+00
        -11   -1    0    0    0    0  0.00000000000E+00  0.00000000000E+00  0.45593999997E+02  0.45594000000E+02  0.51100000000E-03 0.  1.
         11   -1    0    0    0    0 -0.00000000000E+00 -0.00000000000E+00 -0.45593999997E+02  0.45594000000E+02  0.51100000000E-03 0. -1.
    9900012    2    1    2    0    0 -0.31507410958E+02  0.17956751773E+01  0.45583702454E+01  0.59301950795E+02  0.50000012342E+02 0.  0.
         12    1    1    2    0    0  0.31507410958E+02 -0.17956751773E+01 -0.45583702454E+01  0.31886049205E+02  0.00000000000E+00 0. -1.
         11    1    3    3    0    0 -0.23773957854E+02  0.15214540430E+02 -0.25143812253E-01  0.28225590251E+02  0.51100000000E-03 0. -1.
        -11    1    3    3    0    0 -0.11340003182E+02 -0.19961783552E+02  0.15413522464E+01  0.23009655403E+02  0.51100000000E-03 0.  1.
         12    1    3    3    0    0  0.36065500784E+01  0.65429182993E+01  0.30421618113E+01  0.80667051406E+01  0.00000000000E+00 0. -1.
</event>
<event>
 7    1  0.1193961E-011  0.5930195E+02  0.7816164E-02  0.1266605E+00
        -11   -1    0    0    0    0  0.00000000000E+00  0.00000000000E+00  0.45593999997E+02  0.45594000000E+02  0.51100000000E-03 0.  1.
         11   -1    0    0    0    0 -0.00000000000E+00 -0.00000000000E+00 -0.45593999997E+02  0.45594000000E+02  0.51100000000E-03 0. -1.
    9900012    2    1    2    0    0  0.11696769935E+02  0.11243213956E+02  0.27449874281E+02  0.59301954697E+02  0.50000019459E+02 0.  0.
         12    1    1    2    0    0 -0.11696769935E+02 -0.11243213956E+02 -0.27449874281E+02  0.31886045303E+02  0.00000000000E+00 0. -1.
         11    1    3    3    0    0 -0.82229307476E+01  0.48452985416E+01  0.54144496264E+00  0.95596375949E+01  0.51100000000E-03 0. -1.
        -11    1    3    3    0    0  0.48912391222E+01 -0.13751820099E+02  0.17769803267E+02  0.22995710135E+02  0.51100000000E-03 0.  1.
         12    1    3    3    0    0  0.15028461561E+02  0.20149735514E+02  0.91386260515E+01  0.26746606967E+02  0.00000000000E+00 0. -1.
</event>
<event>
 7    1  0.1193961E-011  0.5930196E+02  0.7816164E-02  0.1266605E+00
        -11   -1    0    0    0    0  0.00000000000E+00  0.00000000000E+00  0.45593999997E+02  0.45594000000E+02  0.51100000000E-03 0. -1.
         11   -1    0    0    0    0 -0.00000000000E+00 -0.00000000000E+00 -0.45593999997E+02  0.45594000000E+02  0.51100000000E-03 0.  1.
    9900012    2    1    2    0    0 -0.20376114629E+02 -0.23225445078E+02 -0.78811327773E+01  0.59301959162E+02  0.50000027602E+02 0.  0.
         12    1    1    2    0    0  0.20376114629E+02  0.23225445078E+02  0.78811327773E+01  0.31886040838E+02  0.00000000000E+00 0. -1.
         11    1    3    3    0    0 -0.81010902240E+00 -0.39018839295E+01 -0.21424866190E+01  0.45245136757E+01  0.51100000000E-03 0. -1.
        -11    1    3    3    0    0 -0.97798333097E+00 -0.31654216097E+02 -0.70075265051E+01  0.32435339926E+02  0.51100000000E-03 0.  1.
         12    1    3    3    0    0 -0.18588022275E+02  0.12330654948E+02  0.12688803468E+01  0.22342105561E+02  0.00000000000E+00 0. -1.
</event>
<event>
 7    1  0.1193961E-011  0.5930188E+02  0.7816164E-02  0.1266605E+00
        -11   -1    0    0    0    0  0.00000000000E+00  0.00000000000E+00  0.45593999997E+02  0.45594000000E+02  0.51100000000E-03 0.  1.
         11   -1    0    0    0    0 -0.00000000000E+00 -0.00000000000E+00 -0.45593999997E+02  0.45594000000E+02  0.51100000000E-03 0. -1.
    9900012    2    1    2    0    0 -0.29752348064E+02 -0.78911516728E+01  0.83217806321E+01  0.59301881971E+02  0.49999886824E+02 0.  0.
         12    1    1    2    0    0  0.29752348064E+02  0.78911516728E+01 -0.83217806321E+01  0.31886118029E+02  0.00000000000E+00 0. -1.
         11    1    3    3    0    0 -0.73062084051E+01  0.50515465307E+01 -0.91386577809E+01  0.12744170036E+02  0.51100000000E-03 0. -1.
        -11    1    3    3    0    0 -0.25921596825E+02  0.25475032294E+01  0.53492815470E+01  0.26590106581E+02  0.51100000000E-03 0.  1.
         12    1    3    3    0    0  0.34754571660E+01 -0.15490201433E+02  0.12111156866E+02  0.19967605354E+02  0.00000000000E+00 0. -1.
</event>
<event>
 7    1  0.1387675E-011  0.5930191E+02  0.7816164E-02  0.1266605E+00
        -11   -1    0    0    0    0  0.00000000000E+00  0.00000000000E+00  0.45593999997E+02  0.45594000000E+02  0.51100000000E-03 0. -1.
         11   -1    0    0    0    0 -0.00000000000E+00 -0.00000000000E+00 -0.45593999997E+02  0.45594000000E+02  0.51100000000E-03 0.  1.
    9900012    2    1    2    0    0 -0.12951650902E+02  0.16949336360E+01 -0.29087874013E+02  0.59301914074E+02  0.49999945371E+02 0.  0.
         12    1    1    2    0    0  0.12951650902E+02 -0.16949336360E+01  0.29087874013E+02  0.31886085926E+02  0.00000000000E+00 0. -1.
         11    1    3    3    0    0 -0.98830755994E+01 -0.80805101702E+01 -0.77917960040E+01  0.14955999236E+02  0.51100000000E-03 0. -1.
        -11    1    3    3    0    0 -0.27736354627E+01  0.72625049775E+01 -0.32213930535E+02  0.33138713811E+02  0.51100000000E-03 0.  1.
         12    1    3    3    0    0 -0.29493984004E+00  0.25129388287E+01  0.10917852527E+02  0.11207201027E+02  0.00000000000E+00 0. -1.
</event>
<event>
 7    1  0.1193961E-011  0.5930194E+02  0.7816164E-02  0.1266605E+00
        -11   -1    0    0    0    0  0.00000000000E+00  0.00000000000E+00  0.45593999997E+02  0.45594000000E+02  0.51100000000E-03 0.  1.
         11   -1    0    0    0    0 -0.00000000000E+00 -0.00000000000E+00 -0.45593999997E+02  0.45594000000E+02  0.51100000000E-03 0. -1.
    9900012    2    1    2    0    0 -0.11311425092E+02  0.29148198548E+02  0.62574050272E+01  0.59301938251E+02  0.49999989464E+02 0.  0.
         12    1    1    2    0    0  0.11311425092E+02 -0.29148198548E+02 -0.62574050272E+01  0.31886061749E+02  0.00000000000E+00 0. -1.
         11    1    3    3    0    0  0.70524476306E+01  0.25992668811E+01  0.75522573335E+01  0.10655036227E+02  0.51100000000E-03 0. -1.
        -11    1    3    3    0    0 -0.98756413152E+01  0.32540878027E+02  0.77421516423E+01  0.34876610306E+02  0.51100000000E-03 0.  1.
         12    1    3    3    0    0 -0.84882314078E+01 -0.59919463601E+01 -0.90370039486E+01  0.13770291717E+02  0.00000000000E+00 0. -1.
</event>
<event>
 7    1  0.1193961E-011  0.5930193E+02  0.7816164E-02  0.1266605E+00
        -11   -1    0    0    0    0  0.00000000000E+00  0.00000000000E+00  0.45593999997E+02  0.45594000000E+02  0.51100000000E-03 0.  1.
         11   -1    0    0    0    0 -0.00000000000E+00 -0.00000000000E+00 -0.45593999997E+02  0.45594000000E+02  0.51100000000E-03 0. -1.
    9900012    2    1    2    0    0 -0.31798042566E+02  0.52691625092E+00 -0.23082842020E+01  0.59301932075E+02  0.49999978201E+02 0.  0.
         12    1    1    2    0    0  0.31798042566E+02 -0.52691625092E+00  0.23082842020E+01  0.31886067925E+02  0.00000000000E+00 0. -1.
         11    1    3    3    0    0  0.17770159625E+01  0.11654064900E+02  0.38434558734E+01  0.12399482559E+02  0.51100000000E-03 0. -1.
        -11    1    3    3    0    0 -0.18851870381E+02  0.92966845363E+01 -0.15250962776E+00  0.21020100373E+02  0.51100000000E-03 0.  1.
         12    1    3    3    0    0 -0.14723188147E+02 -0.20423833185E+02 -0.59992304477E+01  0.25882349143E+02  0.00000000000E+00 0. -1.
</event>
<event>
 7    1  0.1193961E-011  0.5930192E+02  0.7816164E-02  0.1266605E+00
        -11   -1    0    0    0    0  0.00000000000E+00  0.00000000000E+00  0.45593999997E+02  0.45594000000E+02  0.51100000000E-03 0. -1.
         11   -1    0    0    0    0 -0.00000000000E+00 -0.00000000000E+00 -0.45593999997E+02  0.45594000000E+02  0.51100000000E-03 0.  1.
    9900012    2    1    2    0    0  0.16614129570E+02  0.24564210968E+02  0.11717170747E+02  0.59301923852E+02  0.49999963203E+02 0.  0.
         12    1    1    2    0    0 -0.16614129570E+02 -0.24564210968E+02 -0.11717170747E+02  0.31886076148E+02  0.00000000000E+00 0. -1.
         11    1    3    3    0    0  0.24764286990E+02  0.21591208838E+02  0.74050844368E+01  0.33679155052E+02  0.51100000000E-03 0. -1.
        -11    1    3    3    0    0  0.56727545971E+01 -0.63653105426E+01  0.22193060358E+01  0.88103713068E+01  0.51100000000E-03 0.  1.
        -12    1    3    3    0    0 -0.13822912017E+02  0.93383126718E+01  0.20927802745E+01  0.16812397493E+02  0.00000000000E+00 0.  1.
</event>
<event>
 7    1  0.1193961E-011  0.5930188E+02  0.7816164E-02  0.1266605E+00
        -11   -1    0    0    0    0  0.00000000000E+00  0.00000000000E+00  0.45593999997E+02  0.45594000000E+02  0.51100000000E-03 0.  1.
         11   -1    0    0    0    0 -0.00000000000E+00 -0.00000000000E+00 -0.45593999997E+02  0.45594000000E+02  0.51100000000E-03 0. -1.
    9900012    2    1    2    0    0  0.72647968572E+01 -0.25103150880E+02  0.18269627351E+02  0.59301878551E+02  0.49999880587E+02 0.  0.
         12    1    1    2    0    0 -0.72647968572E+01  0.25103150880E+02 -0.18269627351E+02  0.31886121449E+02  0.00000000000E+00 0. -1.
         11    1    3    3    0    0  0.13192053798E+02 -0.20676478659E+02  0.56029112811E+01  0.25158292236E+02  0.51100000000E-03 0. -1.
        -11    1    3    3    0    0  0.79010725156E+01  0.83709277539E+01  0.97348445331E+01  0.15075363236E+02  0.51100000000E-03 0.  1.
        -12    1    3    3    0    0 -0.13828329457E+02 -0.12797599975E+02  0.29318715368E+01  0.19068223079E+02  0.00000000000E+00 0.  1.
</event>
<event>
 7    1  0.1193961E-011  0.5930198E+02  0.7816164E-02  0.1266605E+00
        -11   -1    0    0    0    0  0.00000000000E+00  0.00000000000E+00  0.45593999997E+02  0.45594000000E+02  0.51100000000E-03 0.  1.
         11   -1    0    0    0    0 -0.00000000000E+00 -0.00000000000E+00 -0.45593999997E+02  0.45594000000E+02  0.51100000000E-03 0. -1.
    9900012    2    1    2    0    0  0.26215281951E+02 -0.14486671628E+02  0.10936805586E+02  0.59301978312E+02  0.50000062527E+02 0.  0.
         12    1    1    2    0    0 -0.26215281951E+02  0.14486671628E+02 -0.10936805586E+02  0.31886021688E+02  0.00000000000E+00 0. -1.
         11    1    3    3    0    0  0.58444003207E+01 -0.13988752599E+02  0.37052241385E+01  0.15606758170E+02  0.51100000000E-03 0. -1.
        -11    1    3    3    0    0 -0.89404940202E+00 -0.15685940391E+02  0.78345300027E+01  0.17556420789E+02  0.51100000000E-03 0.  1.
         12    1    3    3    0    0  0.21264931033E+02  0.15188021362E+02 -0.60294855565E+00  0.26138799354E+02  0.00000000000E+00 0. -1.
</event>
<event>
 7    1  0.1193961E-011  0.5930192E+02  0.7816164E-02  0.1266605E+00
        -11   -1    0    0    0    0  0.00000000000E+00  0.00000000000E+00  0.45593999997E+02  0.45594000000E+02  0.51100000000E-03 0.  1.
         11   -1    0    0    0    0 -0.00000000000E+00 -0.00000000000E+00 -0.45593999997E+02  0.45594000000E+02  0.51100000000E-03 0. -1.
    9900012    2    1    2    0    0 -0.24697521278E+02  0.11422534471E+02  0.16621683709E+02  0.59301918078E+02  0.49999952674E+02 0.  0.
         12    1    1    2    0    0  0.24697521278E+02 -0.11422534471E+02 -0.16621683709E+02  0.31886081922E+02  0.00000000000E+00 0. -1.
         11    1    3    3    0    0 -0.13225424212E+00 -0.83475355062E+01 -0.73690506101E+01  0.11135607184E+02  0.51100000000E-03 0.  1.
        -11    1    3    3    0    0  0.28544735596E+01 -0.35615108798E+01 -0.54678777692E+00  0.45968854873E+01  0.51100000000E-03 0. -1.
        -12    1    3    3    0    0 -0.27419740595E+02  0.23331580857E+02  0.24537522096E+02  0.43569425406E+02  0.00000000000E+00 0.  1.
</event>
<event>
 7    1  0.1193961E-011  0.5930194E+02  0.7816164E-02  0.1266605E+00
        -11   -1    0    0    0    0  0.00000000000E+00  0.00000000000E+00  0.45593999997E+02  0.45594000000E+02  0.51100000000E-03 0. -1.
         11   -1    0    0    0    0 -0.00000000000E+00 -0.00000000000E+00 -0.45593999997E+02  0.45594000000E+02  0.51100000000E-03 0.  1.
    9900012    2    1    2    0    0 -0.78375924316E+01  0.28921292635E+02 -0.10901906007E+02  0.59301943841E+02  0.49999999659E+02 0.  0.
         12    1    1    2    0    0  0.78375924316E+01 -0.28921292635E+02  0.10901906007E+02  0.31886056159E+02  0.00000000000E+00 0. -1.
         11    1    3    3    0    0 -0.24672676267E+01 -0.37210431114E+01  0.90044547025E+01  0.10050560986E+02  0.51100000000E-03 0. -1.
        -11    1    3    3    0    0  0.99584778450E+01  0.31460855774E+01  0.11836569255E+00  0.10444287728E+02  0.51100000000E-03 0.  1.
        -12    1    3    3    0    0 -0.15328802650E+02  0.29496250169E+02 -0.20024726402E+02  0.38807095127E+02  0.00000000000E+00 0.  1.
</event>
<event>
 7    1  0.1193961E-011  0.5930195E+02  0.7816164E-02  0.1266605E+00
        -11   -1    0    0    0    0  0.00000000000E+00  0.00000000000E+00  0.45593999997E+02  0.45594000000E+02  0.51100000000E-03 0.  1.
         11   -1    0    0    0    0 -0.00000000000E+00 -0.00000000000E+00 -0.45593999997E+02  0.45594000000E+02  0.51100000000E-03 0. -1.
    9900012    2    1    2    0    0 -0.28580110361E+02 -0.82103354933E+01  0.11510326020E+02  0.59301954114E+02  0.50000018396E+02 0.  0.
         12    1    1    2    0    0  0.28580110361E+02  0.82103354933E+01 -0.11510326020E+02  0.31886045886E+02  0.00000000000E+00 0. -1.
         11    1    3    3    0    0 -0.21610216216E+02 -0.14603693230E+02 -0.11723073181E+00  0.26082236180E+02  0.51100000000E-03 0. -1.
        -11    1    3    3    0    0 -0.15343095998E+02 -0.38281824124E+01  0.12232685465E+02  0.19992602865E+02  0.51100000000E-03 0.  1.
         12    1    3    3    0    0  0.83732018531E+01  0.10221540149E+02 -0.60512871344E+00  0.13227115069E+02  0.00000000000E+00 0. -1.
</event>
<event>
 7    1  0.1193961E-011  0.5930195E+02  0.7816164E-02  0.1266605E+00
        -11   -1    0    0    0    0  0.00000000000E+00  0.00000000000E+00  0.45593999997E+02  0.45594000000E+02  0.51100000000E-03 0. -1.
         11   -1    0    0    0    0 -0.00000000000E+00 -0.00000000000E+00 -0.45593999997E+02  0.45594000000E+02  0.51100000000E-03 0.  1.
    9900012    2    1    2    0    0 -0.17634542618E+02  0.25980833070E+02 -0.55443346900E+01  0.59301946191E+02  0.50000003945E+02 0.  0.
         12    1    1    2    0    0  0.17634542618E+02 -0.25980833070E+02  0.55443346900E+01  0.31886053809E+02  0.00000000000E+00 0. -1.
         11    1    3    3    0    0 -0.18077003890E+02 -0.58855576488E+01 -0.65212924730E-01  0.19011104951E+02  0.51100000000E-03 0. -1.
        -11    1    3    3    0    0 -0.56107250438E+01  0.65622838451E+01 -0.10705316598E+02  0.13753094506E+02  0.51100000000E-03 0.  1.
         12    1    3    3    0    0  0.60531863158E+01  0.25304106874E+02  0.52261948326E+01  0.26537746733E+02  0.00000000000E+00 0. -1.
</event>
<event>
 7    1  0.1193961E-011  0.5930192E+02  0.7816164E-02  0.1266605E+00
        -11   -1    0    0    0    0  0.00000000000E+00  0.00000000000E+00  0.45593999997E+02  0.45594000000E+02  0.51100000000E-03 0.  1.
         11   -1    0    0    0    0 -0.00000000000E+00 -0.00000000000E+00 -0.45593999997E+02  0.45594000000E+02  0.51100000000E-03 0. -1.
    9900012    2    1    2    0    0  0.30259860796E+02 -0.99194074215E+01 -0.16335218992E+01  0.59301918196E+02  0.49999952890E+02 0.  0.
         12    1    1    2    0    0 -0.30259860796E+02  0.99194074215E+01  0.16335218992E+01  0.31886081804E+02  0.00000000000E+00 0. -1.
         11    1    3    3    0    0  0.66382058368E+01 -0.53074146267E+01 -0.22304273830E+02  0.23868704575E+02  0.51100000000E-03 0. -1.
        -11    1    3    3    0    0  0.16757616314E+01 -0.44666130093E+01  0.98930357638E+01  0.10983212905E+02  0.51100000000E-03 0.  1.
        -12    1    3    3    0    0  0.21945893328E+02 -0.14537978540E+00  0.10777716167E+02  0.24450000716E+02  0.00000000000E+00 0.  1.
</event>
<event>
 7    1  0.1193961E-011  0.5930194E+02  0.7816164E-02  0.1266605E+00
        -11   -1    0    0    0    0  0.00000000000E+00  0.00000000000E+00  0.45593999997E+02  0.45594000000E+02  0.51100000000E-03 0. -1.
         11   -1    0    0    0    0 -0.00000000000E+00 -0.00000000000E+00 -0.45593999997E+02  0.45594000000E+02  0.51100000000E-03 0.  1.
    9900012    2    1    2    0    0  0.14998970098E+02 -0.26088139713E+02 -0.10543282678E+02  0.59301938040E+02  0.49999989079E+02 0.  0.
         12    1    1    2    0    0 -0.14998970098E+02  0.26088139713E+02  0.10543282678E+02  0.31886061960E+02  0.00000000000E+00 0. -1.
         11    1    3    3    0    0  0.77633258619E+01 -0.87684667537E+00  0.27293002987E+01  0.82756974879E+01  0.51100000000E-03 0. -1.
        -11    1    3    3    0    0  0.19083627482E+02 -0.21131861435E+02 -0.21807444589E+02  0.35865095083E+02  0.51100000000E-03 0.  1.
         12    1    3    3    0    0 -0.11847983245E+02 -0.40794316031E+01  0.85348616119E+01  0.15161145469E+02  0.00000000000E+00 0. -1.
</event>
<event>
 7    1  0.1193961E-011  0.5930197E+02  0.7816164E-02  0.1266605E+00
        -11   -1    0    0    0    0  0.00000000000E+00  0.00000000000E+00  0.45593999997E+02  0.45594000000E+02  0.51100000000E-03 0.  1.
         11   -1    0    0    0    0 -0.00000000000E+00 -0.00000000000E+00 -0.45593999997E+02  0.45594000000E+02  0.51100000000E-03 0. -1.
    9900012    2    1    2    0    0  0.73674049052E+01  0.26423308897E+02  0.16255735949E+02  0.59301970781E+02  0.50000048791E+02 0.  0.
         12    1    1    2    0    0 -0.73674049052E+01 -0.26423308897E+02 -0.16255735949E+02  0.31886029219E+02  0.00000000000E+00 0. -1.
         11    1    3    3    0    0  0.18894846860E+02  0.13303300516E+02  0.24089817112E+01  0.23233515353E+02  0.51100000000E-03 0.  1.
        -11    1    3    3    0    0  0.21953582051E+01  0.15974632987E+02 -0.33586232978E+00  0.16128276427E+02  0.51100000000E-03 0. -1.
         12    1    3    3    0    0 -0.13722800160E+02 -0.28546246064E+01  0.14182616568E+02  0.19940179001E+02  0.00000000000E+00 0. -1.
</event>
<event>
 7    1  0.1193961E-011  0.5930199E+02  0.7816164E-02  0.1266605E+00
        -11   -1    0    0    0    0  0.00000000000E+00  0.00000000000E+00  0.45593999997E+02  0.45594000000E+02  0.51100000000E-03 0.  1.
         11   -1    0    0    0    0 -0.00000000000E+00 -0.00000000000E+00 -0.45593999997E+02  0.45594000000E+02  0.51100000000E-03 0. -1.
    9900012    2    1    2    0    0  0.27308018521E+02  0.15958079210E+02  0.40410128185E+01  0.59301985006E+02  0.50000074734E+02 0.  0.
         12    1    1    2    0    0 -0.27308018521E+02 -0.15958079210E+02 -0.40410128185E+01  0.31886014994E+02  0.00000000000E+00 0. -1.
         11    1    3    3    0    0  0.98568028830E+01 -0.40810878755E+01  0.22056210127E+01  0.10893879274E+02  0.51100000000E-03 0. -1.
        -11    1    3    3    0    0  0.77768829082E+01  0.13746212328E+02  0.20855252690E+02  0.26160654161E+02  0.51100000000E-03 0.  1.
        -12    1    3    3    0    0  0.96743327293E+01  0.62929547583E+01 -0.19019860884E+02  0.22247451571E+02  0.00000000000E+00 0.  1.
</event>
<event>
 7    1  0.1193961E-011  0.5930199E+02  0.7816164E-02  0.1266605E+00
        -11   -1    0    0    0    0  0.00000000000E+00  0.00000000000E+00  0.45593999997E+02  0.45594000000E+02  0.51100000000E-03 0.  1.
         11   -1    0    0    0    0 -0.00000000000E+00 -0.00000000000E+00 -0.45593999997E+02  0.45594000000E+02  0.51100000000E-03 0. -1.
    9900012    2    1    2    0    0 -0.91926299366E+01  0.29555730625E+02  0.76597765413E+01  0.59301986851E+02  0.50000078099E+02 0.  0.
         12    1    1    2    0    0  0.91926299366E+01 -0.29555730625E+02 -0.76597765413E+01  0.31886013149E+02  0.00000000000E+00 0. -1.
         11    1    3    3    0    0 -0.16327818028E+02  0.14356818876E+02  0.93079376088E+01  0.23650657339E+02  0.51100000000E-03 0. -1.
        -11    1    3    3    0    0  0.67633753821E+01  0.16924520608E+02  0.12044009077E+02  0.21845841693E+02  0.51100000000E-03 0.  1.
        -12    1    3    3    0    0  0.37181270903E+00 -0.17256088598E+01 -0.13692170145E+02  0.13805487818E+02  0.00000000000E+00 0.  1.
</event>
<event>
 7    1  0.1193961E-011  0.5930194E+02  0.7816164E-02  0.1266605E+00
        -11   -1    0    0    0    0  0.00000000000E+00  0.00000000000E+00  0.45593999997E+02  0.45594000000E+02  0.51100000000E-03 0.  1.
         11   -1    0    0    0    0 -0.00000000000E+00 -0.00000000000E+00 -0.45593999997E+02  0.45594000000E+02  0.51100000000E-03 0. -1.
    9900012    2    1    2    0    0  0.30686437570E+02 -0.78231543625E+01 -0.37231485254E+01  0.59301936745E+02  0.49999986719E+02 0.  0.
         12    1    1    2    0    0 -0.30686437570E+02  0.78231543625E+01  0.37231485254E+01  0.31886063255E+02  0.00000000000E+00 0. -1.
         11    1    3    3    0    0  0.96191662751E+01  0.25669975721E+01 -0.98966657305E+00  0.10004862645E+02  0.51100000000E-03 0. -1.
        -11    1    3    3    0    0  0.34575398924E+02 -0.69190698200E+01 -0.14409173695E+01  0.35290338353E+02  0.51100000000E-03 0.  1.
         12    1    3    3    0    0 -0.13508127629E+02 -0.34710821146E+01 -0.12925645828E+01  0.14006735747E+02  0.00000000000E+00 0. -1.
</event>
<event>
 7    1  0.1193961E-011  0.5930194E+02  0.7816164E-02  0.1266605E+00
        -11   -1    0    0    0    0  0.00000000000E+00  0.00000000000E+00  0.45593999997E+02  0.45594000000E+02  0.51100000000E-03 0.  1.
         11   -1    0    0    0    0 -0.00000000000E+00 -0.00000000000E+00 -0.45593999997E+02  0.45594000000E+02  0.51100000000E-03 0. -1.
    9900012    2    1    2    0    0  0.47969976578E+01 -0.19861686032E+02  0.24479029500E+02  0.59301942799E+02  0.49999997759E+02 0.  0.
         12    1    1    2    0    0 -0.47969976578E+01  0.19861686032E+02 -0.24479029500E+02  0.31886057201E+02  0.00000000000E+00 0. -1.
         11    1    3    3    0    0  0.39800172552E+01  0.69673875406E+01 -0.20906411798E+01  0.82919121617E+01  0.51100000000E-03 0. -1.
        -11    1    3    3    0    0  0.12123977186E+02 -0.11635281521E+02 -0.17993011794E+01  0.16899943309E+02  0.51100000000E-03 0.  1.
        -12    1    3    3    0    0 -0.11306996783E+02 -0.15193792052E+02  0.28368971859E+02  0.34110087328E+02  0.00000000000E+00 0.  1.
</event>
<event>
 7    1  0.1193961E-011  0.5930194E+02  0.7816164E-02  0.1266605E+00
        -11   -1    0    0    0    0  0.00000000000E+00  0.00000000000E+00  0.45593999997E+02  0.45594000000E+02  0.51100000000E-03 0. -1.
         11   -1    0    0    0    0 -0.00000000000E+00 -0.00000000000E+00 -0.45593999997E+02  0.45594000000E+02  0.51100000000E-03 0.  1.
    9900012    2    1    2    0    0 -0.10118628278E+02  0.22987696693E+02  0.19644337354E+02  0.59301939919E+02  0.49999992506E+02 0.  0.
         12    1    1    2    0    0  0.10118628278E+02 -0.22987696693E+02 -0.19644337354E+02  0.31886060081E+02  0.00000000000E+00 0. -1.
         11    1    3    3    0    0  0.18241957384E+01 -0.14512389432E+00 -0.89114008523E+01  0.90973521669E+01  0.51100000000E-03 0. -1.
        -11    1    3    3    0    0 -0.18157863960E+02  0.12846432121E+01  0.16083940890E+02  0.24290975414E+02  0.51100000000E-03 0.  1.
         12    1    3    3    0    0  0.62150399433E+01  0.21848177375E+02  0.12471797316E+02  0.25913612338E+02  0.00000000000E+00 0. -1.
</event>
<event>
 7    1  0.1193961E-011  0.5930199E+02  0.7816164E-02  0.1266605E+00
        -11   -1    0    0    0    0  0.00000000000E+00  0.00000000000E+00  0.45593999997E+02  0.45594000000E+02  0.51100000000E-03 0. -1.
         11   -1    0    0    0    0 -0.00000000000E+00 -0.00000000000E+00 -0.45593999997E+02  0.45594000000E+02  0.51100000000E-03 0.  1.
    9900012    2    1    2    0    0 -0.10450301777E+02 -0.12183338247E+01 -0.30100238764E+02  0.59301991812E+02  0.50000087146E+02 0.  0.
         12    1    1    2    0    0  0.10450301777E+02  0.12183338247E+01  0.30100238764E+02  0.31886008188E+02  0.00000000000E+00 0. -1.
         11    1    3    3    0    0 -0.13404371927E+02 -0.14968707741E+02 -0.13227140372E+02  0.24056114418E+02  0.51100000000E-03 0. -1.
        -11    1    3    3    0    0 -0.36007657202E+01 -0.18808647508E+01 -0.17812519886E+02  0.18269894114E+02  0.51100000000E-03 0.  1.
         12    1    3    3    0    0  0.65548358702E+01  0.15631238668E+02  0.93942149418E+00  0.16975983280E+02  0.00000000000E+00 0. -1.
</event>
<event>
 7    1  0.1193961E-011  0.5930193E+02  0.7816164E-02  0.1266605E+00
        -11   -1    0    0    0    0  0.00000000000E+00  0.00000000000E+00  0.45593999997E+02  0.45594000000E+02  0.51100000000E-03 0.  1.
         11   -1    0    0    0    0 -0.00000000000E+00 -0.00000000000E+00 -0.45593999997E+02  0.45594000000E+02  0.51100000000E-03 0. -1.
    9900012    2    1    2    0    0 -0.72414487206E+01 -0.13153250984E+02  0.28129612496E+02  0.59301926392E+02  0.49999967836E+02 0.  0.
         12    1    1    2    0    0  0.72414487206E+01  0.13153250984E+02 -0.28129612496E+02  0.31886073608E+02  0.00000000000E+00 0. -1.
         11    1    3    3    0    0 -0.27800148194E+01  0.31538023573E+01  0.23311129473E+01  0.48071862393E+01  0.51100000000E-03 0. -1.
        -11    1    3    3    0    0  0.19593443098E+02 -0.59155128198E+01  0.50746957330E+01  0.21086698210E+02  0.51100000000E-03 0.  1.
         12    1    3    3    0    0 -0.24054876999E+02 -0.10391540521E+02  0.20723803815E+02  0.33408041942E+02  0.00000000000E+00 0. -1.
</event>
<event>
 7    1  0.1193961E-011  0.5930196E+02  0.7816164E-02  0.1266605E+00
        -11   -1    0    0    0    0  0.00000000000E+00  0.00000000000E+00  0.45593999997E+02  0.45594000000E+02  0.51100000000E-03 0.  1.
         11   -1    0    0    0    0 -0.00000000000E+00 -0.00000000000E+00 -0.45593999997E+02  0.45594000000E+02  0.51100000000E-03 0. -1.
    9900012    2    1    2    0    0  0.26878740841E+02  0.36453455804E+01  0.16761987588E+02  0.59301961025E+02  0.50000031000E+02 0.  0.
         12    1    1    2    0    0 -0.26878740841E+02 -0.36453455804E+01 -0.16761987588E+02  0.31886038975E+02  0.00000000000E+00 0. -1.
         11    1    3    3    0    0  0.77809604989E+01  0.12100908345E+02 -0.21340647650E+01  0.14544055890E+02  0.51100000000E-03 0. -1.
        -11    1    3    3    0    0  0.24392182382E+02  0.25115811019E+01  0.29567934799E+01  0.24698769786E+02  0.51100000000E-03 0.  1.
        -12    1    3    3    0    0 -0.52944020399E+01 -0.10967143867E+02  0.15939258873E+02  0.20059135349E+02  0.00000000000E+00 0.  1.
</event>
<event>
 7    1  0.1193961E-011  0.5930196E+02  0.7816164E-02  0.1266605E+00
        -11   -1    0    0    0    0  0.00000000000E+00  0.00000000000E+00  0.45593999997E+02  0.45594000000E+02  0.51100000000E-03 0. -1.
         11   -1    0    0    0    0 -0.00000000000E+00 -0.00000000000E+00 -0.45593999997E+02  0.45594000000E+02  0.51100000000E-03 0.  1.
    9900012    2    1    2    0    0 -0.29300313509E+02  0.93972949381E+01  0.83607573952E+01  0.59301956218E+02  0.50000022232E+02 0.  0.
         12    1    1    2    0    0  0.29300313509E+02 -0.93972949381E+01 -0.83607573952E+01  0.31886043782E+02  0.00000000000E+00 0. -1.
         11    1    3    3    0    0 -0.10911625876E+02  0.12615472420E+02  0.16181540918E+02  0.23239104767E+02  0.51100000000E-03 0. -1.
        -11    1    3    3    0    0 -0.22750586907E+02 -0.64875996611E+01  0.30974664105E+01  0.23859431100E+02  0.51100000000E-03 0.  1.
        -12    1    3    3    0    0  0.43618992749E+01  0.32694221790E+01 -0.10918249933E+02  0.12203420351E+02  0.00000000000E+00 0.  1.
</event>
<event>
 7    1  0.1193961E-011  0.5930195E+02  0.7816164E-02  0.1266605E+00
        -11   -1    0    0    0    0  0.00000000000E+00  0.00000000000E+00  0.45593999997E+02  0.45594000000E+02  0.51100000000E-03 0.  1.
         11   -1    0    0    0    0 -0.00000000000E+00 -0.00000000000E+00 -0.45593999997E+02  0.45594000000E+02  0.51100000000E-03 0. -1.
    9900012    2    1    2    0    0  0.12869248737E+02  0.17485227180E+02  0.23353144875E+02  0.59301951199E+02  0.50000013078E+02 0.  0.
         12    1    1    2    0    0 -0.12869248737E+02 -0.17485227180E+02 -0.23353144875E+02  0.31886048801E+02  0.00000000000E+00 0. -1.
         11    1    3    3    0    0  0.12445471743E+01  0.21002743873E+01  0.46303540963E+00  0.24848445067E+01  0.51100000000E-03 0. -1.
        -11    1    3    3    0    0 -0.13175376109E+02  0.22420839974E+02  0.14092541849E+02  0.29578443786E+02  0.51100000000E-03 0.  1.
         12    1    3    3    0    0  0.24800077672E+02 -0.70358871813E+01  0.87975676161E+01  0.27238662906E+02  0.00000000000E+00 0. -1.
</event>
<event>
 7    1  0.1193961E-011  0.5930202E+02  0.7816164E-02  0.1266604E+00
        -11   -1    0    0    0    0  0.00000000000E+00  0.00000000000E+00  0.45593999997E+02  0.45594000000E+02  0.51100000000E-03 0.  1.
         11   -1    0    0    0    0 -0.00000000000E+00 -0.00000000000E+00 -0.45593999997E+02  0.45594000000E+02  0.51100000000E-03 0. -1.
    9900012    2    1    2    0    0  0.22394370304E+02  0.44317602706E+01  0.22261340753E+02  0.59302021694E+02  0.50000141645E+02 0.  0.
         12    1    1    2    0    0 -0.22394370304E+02 -0.44317602706E+01 -0.22261340753E+02  0.31885978306E+02  0.00000000000E+00 0. -1.
         11    1    3    3    0    0  0.21722816242E+02 -0.31396186558E+01  0.12481356369E+02  0.25249202123E+02  0.51100000000E-03 0.  1.
        -11    1    3    3    0    0 -0.25534395030E+01 -0.10169803405E+02 -0.41399090293E+01  0.11273145152E+02  0.51100000000E-03 0. -1.
         12    1    3    3    0    0  0.32249935645E+01  0.17741182331E+02  0.13919893414E+02  0.22779674419E+02  0.00000000000E+00 0. -1.
</event>
<event>
 7    1  0.1193961E-011  0.5930195E+02  0.7816164E-02  0.1266605E+00
        -11   -1    0    0    0    0  0.00000000000E+00  0.00000000000E+00  0.45593999997E+02  0.45594000000E+02  0.51100000000E-03 0. -1.
         11   -1    0    0    0    0 -0.00000000000E+00 -0.00000000000E+00 -0.45593999997E+02  0.45594000000E+02  0.51100000000E-03 0.  1.
    9900012    2    1    2    0    0 -0.24995709498E+02 -0.89054079057E+01 -0.17681300775E+02  0.59301950066E+02  0.50000011012E+02 0.  0.
         12    1    1    2    0    0  0.24995709498E+02  0.89054079057E+01  0.17681300775E+02  0.31886049934E+02  0.00000000000E+00 0. -1.
         11    1    3    3    0    0  0.96897361378E+01 -0.93889240685E+01 -0.54641570210E+01  0.14556781711E+02  0.51100000000E-03 0. -1.
        -11    1    3    3    0    0  0.59783792915E+00  0.71155297635E+01 -0.22312680495E+01  0.74810915898E+01  0.51100000000E-03 0.  1.
        -12    1    3    3    0    0 -0.35283283565E+02 -0.66320136007E+01 -0.99858757049E+01  0.37264076765E+02  0.00000000000E+00 0.  1.
</event>
<event>
 7    1  0.1193961E-011  0.5930196E+02  0.7816164E-02  0.1266605E+00
        -11   -1    0    0    0    0  0.00000000000E+00  0.00000000000E+00  0.45593999997E+02  0.45594000000E+02  0.51100000000E-03 0.  1.
         11   -1    0    0    0    0 -0.00000000000E+00 -0.00000000000E+00 -0.45593999997E+02  0.45594000000E+02  0.51100000000E-03 0. -1.
    9900012    2    1    2    0    0 -0.11407461924E+02  0.11679880218E+02  0.27389231237E+02  0.59301956388E+02  0.50000022542E+02 0.  0.
         12    1    1    2    0    0  0.11407461924E+02 -0.11679880218E+02 -0.27389231237E+02  0.31886043612E+02  0.00000000000E+00 0. -1.
         11    1    3    3    0    0  0.88312095144E+01  0.89530977042E+01  0.28338115906E+01  0.12891032091E+02  0.51100000000E-03 0. -1.
        -11    1    3    3    0    0  0.84745314732E+01 -0.47187226911E+01  0.66992122785E+01  0.11788276928E+02  0.51100000000E-03 0.  1.
         12    1    3    3    0    0 -0.28713202912E+02  0.74455052053E+01  0.17856207368E+02  0.34622647368E+02  0.00000000000E+00 0. -1.
</event>
<event>
 7    1  0.1193961E-011  0.5930196E+02  0.7816164E-02  0.1266605E+00
        -11   -1    0    0    0    0  0.00000000000E+00  0.00000000000E+00  0.45593999997E+02  0.45594000000E+02  0.51100000000E-03 0.  1.
         11   -1    0    0    0    0 -0.00000000000E+00 -0.00000000000E+00 -0.45593999997E+02  0.45594000000E+02  0.51100000000E-03 0. -1.
    9900012    2    1    2    0    0 -0.19323084808E+02  0.21558192945E+02  0.13363466116E+02  0.59301960481E+02  0.50000030007E+02 0.  0.
         12    1    1    2    0    0  0.19323084808E+02 -0.21558192945E+02 -0.13363466116E+02  0.31886039519E+02  0.00000000000E+00 0. -1.
         11    1    3    3    0    0 -0.16892223336E+02 -0.82545601564E+01  0.14522169532E+01  0.18857197749E+02  0.51100000000E-03 0. -1.
        -11    1    3    3    0    0 -0.11876478322E+02  0.14137750639E+02  0.12219096521E+02  0.22141207070E+02  0.51100000000E-03 0.  1.
         12    1    3    3    0    0  0.94456168503E+01  0.15675002463E+02 -0.30784735747E+00  0.18303555662E+02  0.00000000000E+00 0. -1.
</event>
<event>
 7    1  0.1193961E-011  0.5930197E+02  0.7816164E-02  0.1266605E+00
        -11   -1    0    0    0    0  0.00000000000E+00  0.00000000000E+00  0.45593999997E+02  0.45594000000E+02  0.51100000000E-03 0.  1.
         11   -1    0    0    0    0 -0.00000000000E+00 -0.00000000000E+00 -0.45593999997E+02  0.45594000000E+02  0.51100000000E-03 0. -1.
    9900012    2    1    2    0    0 -0.67022861428E+01  0.28385953523E+02  0.12885482775E+02  0.59301973856E+02  0.50000054399E+02 0.  0.
         12    1    1    2    0    0  0.67022861428E+01 -0.28385953523E+02 -0.12885482775E+02  0.31886026144E+02  0.00000000000E+00 0. -1.
         11    1    3    3    0    0 -0.10372887479E+02  0.27945888862E+02  0.74102527199E+01  0.30716141433E+02  0.51100000000E-03 0. -1.
        -11    1    3    3    0    0  0.13232924746E+02  0.80470839848E+01  0.52876391802E+01  0.16365359341E+02  0.51100000000E-03 0.  1.
         12    1    3    3    0    0 -0.95623234105E+01 -0.76070193235E+01  0.18759087455E+00  0.12220473081E+02  0.00000000000E+00 0. -1.
</event>
<event>
 7    1  0.1193961E-011  0.5930194E+02  0.7816164E-02  0.1266605E+00
        -11   -1    0    0    0    0  0.00000000000E+00  0.00000000000E+00  0.45593999997E+02  0.45594000000E+02  0.51100000000E-03 0.  1.
         11   -1    0    0    0    0 -0.00000000000E+00 -0.00000000000E+00 -0.45593999997E+02  0.45594000000E+02  0.51100000000E-03 0. -1.
    9900012    2    1    2    0    0 -0.31531835030E+02 -0.31062637052E+00 -0.47294288413E+01  0.59301943388E+02  0.49999998833E+02 0.  0.
         12    1    1    2    0    0  0.31531835030E+02  0.31062637052E+00  0.47294288413E+01  0.31886056612E+02  0.00000000000E+00 0. -1.
         11    1    3    3    0    0 -0.19774159965E+02 -0.54142693559E+00 -0.18954706803E+01  0.19872175392E+02  0.51100000000E-03 0. -1.
        -11    1    3    3    0    0 -0.15640443667E+02 -0.13781165249E+02  0.68704438066E+01  0.21948735546E+02  0.51100000000E-03 0.  1.
        -12    1    3    3    0    0  0.38827686012E+01  0.14011965814E+02 -0.97044019677E+01  0.17481032450E+02  0.00000000000E+00 0.  1.
</event>
<event>
 7    1  0.1193961E-011  0.5930214E+02  0.7816164E-02  0.1266604E+00
        -11   -1    0    0    0    0  0.00000000000E+00  0.00000000000E+00  0.45593999997E+02  0.45594000000E+02  0.51100000000E-03 0. -1.
         11   -1    0    0    0    0 -0.00000000000E+00 -0.00000000000E+00 -0.45593999997E+02  0.45594000000E+02  0.51100000000E-03 0.  1.
    9900012    2    1    2    0    0 -0.30809775946E+02 -0.58661441594E+01 -0.57492908148E+01  0.59302136581E+02  0.50000351169E+02 0.  0.
         12    1    1    2    0    0  0.30809775946E+02  0.58661441594E+01  0.57492908148E+01  0.31885863419E+02  0.00000000000E+00 0. -1.
         11    1    3    3    0    0 -0.12343074065E+02 -0.45832295224E+01  0.38197720289E+01  0.13709417524E+02  0.51100000000E-03 0. -1.
        -11    1    3    3    0    0 -0.97592601935E+01  0.14386817764E+02  0.91742347851E+01  0.19656812281E+02  0.51100000000E-03 0.  1.
         12    1    3    3    0    0 -0.87074416872E+01 -0.15669732402E+02 -0.18743297629E+02  0.25935906776E+02  0.00000000000E+00 0. -1.
</event>
<event>
 7    1  0.1193961E-011  0.5930199E+02  0.7816164E-02  0.1266605E+00
        -11   -1    0    0    0    0  0.00000000000E+00  0.00000000000E+00  0.45593999997E+02  0.45594000000E+02  0.51100000000E-03 0.  1.
         11   -1    0    0    0    0 -0.00000000000E+00 -0.00000000000E+00 -0.45593999997E+02  0.45594000000E+02  0.51100000000E-03 0. -1.
    9900012    2    1    2    0    0 -0.12570258105E+02  0.20049225264E+02  0.21371361587E+02  0.59301985533E+02  0.50000075696E+02 0.  0.
         12    1    1    2    0    0  0.12570258105E+02 -0.20049225264E+02 -0.21371361587E+02  0.31886014467E+02  0.00000000000E+00 0. -1.
         11    1    3    3    0    0 -0.62378641057E+01 -0.78107825692E+01  0.47627120675E+00  0.10007302707E+02  0.51100000000E-03 0. -1.
        -11    1    3    3    0    0 -0.23222822559E+01 -0.51035248839E+01 -0.47417556437E+01  0.73432423331E+01  0.51100000000E-03 0.  1.
        -12    1    3    3    0    0 -0.40101117436E+01  0.32963532717E+02  0.25636846024E+02  0.41951440493E+02  0.00000000000E+00 0.  1.
</event>
<event>
 7    1  0.1193961E-011  0.5930196E+02  0.7816164E-02  0.1266605E+00
        -11   -1    0    0    0    0  0.00000000000E+00  0.00000000000E+00  0.45593999997E+02  0.45594000000E+02  0.51100000000E-03 0.  1.
         11   -1    0    0    0    0 -0.00000000000E+00 -0.00000000000E+00 -0.45593999997E+02  0.45594000000E+02  0.51100000000E-03 0. -1.
    9900012    2    1    2    0    0 -0.13933573610E+02 -0.19983307966E+02  0.20572857239E+02  0.59301960331E+02  0.50000029734E+02 0.  0.
         12    1    1    2    0    0  0.13933573610E+02  0.19983307966E+02 -0.20572857239E+02  0.31886039669E+02  0.00000000000E+00 0. -1.
         11    1    3    3    0    0  0.12934132010E+01  0.64767555501E+00  0.22229266064E+01  0.26521320276E+01  0.51100000000E-03 0. -1.
        -11    1    3    3    0    0 -0.26469584827E+01  0.15095479416E+02  0.22361841280E+01  0.15488073080E+02  0.51100000000E-03 0.  1.
        -12    1    3    3    0    0 -0.12580028328E+02 -0.35726462937E+02  0.16113746504E+02  0.41161755224E+02  0.00000000000E+00 0.  1.
</event>
<event>
 7    1  0.1193961E-011  0.5930195E+02  0.7816164E-02  0.1266605E+00
        -11   -1    0    0    0    0  0.00000000000E+00  0.00000000000E+00  0.45593999997E+02  0.45594000000E+02  0.51100000000E-03 0. -1.
         11   -1    0    0    0    0 -0.00000000000E+00 -0.00000000000E+00 -0.45593999997E+02  0.45594000000E+02  0.51100000000E-03 0.  1.
    9900012    2    1    2    0    0  0.23605496872E+02  0.11619788863E+02 -0.18013358778E+02  0.59301951793E+02  0.50000014162E+02 0.  0.
         12    1    1    2    0    0 -0.23605496872E+02 -0.11619788863E+02  0.18013358778E+02  0.31886048207E+02  0.00000000000E+00 0. -1.
         11    1    3    3    0    0  0.14628029499E+02  0.32800685873E+01  0.15726358940E+01  0.15073529145E+02  0.51100000000E-03 0. -1.
        -11    1    3    3    0    0  0.23643830737E+02  0.63624231049E+01 -0.15090317122E+02  0.28761586027E+02  0.51100000000E-03 0.  1.
         12    1    3    3    0    0 -0.14666363364E+02  0.19772971712E+01 -0.44956775498E+01  0.15466836621E+02  0.00000000000E+00 0. -1.
</event>
<event>
 7    1  0.1193961E-011  0.5930195E+02  0.7816164E-02  0.1266605E+00
        -11   -1    0    0    0    0  0.00000000000E+00  0.00000000000E+00  0.45593999997E+02  0.45594000000E+02  0.51100000000E-03 0. -1.
         11   -1    0    0    0    0 -0.00000000000E+00 -0.00000000000E+00 -0.45593999997E+02  0.45594000000E+02  0.51100000000E-03 0.  1.
    9900012    2    1    2    0    0  0.43498567685E+01 -0.30948917880E+02  0.63216410943E+01  0.59301954181E+02  0.50000018517E+02 0.  0.
         12    1    1    2    0    0 -0.43498567685E+01  0.30948917880E+02 -0.63216410943E+01  0.31886045819E+02  0.00000000000E+00 0. -1.
         11    1    3    3    0    0 -0.12640644226E+00 -0.18437675552E+02  0.21313511571E+02  0.28182080017E+02  0.51100000000E-03 0. -1.
        -11    1    3    3    0    0 -0.64040952975E+01  0.27894528121E+01  0.17016726089E+00  0.69873056845E+01  0.51100000000E-03 0.  1.
         12    1    3    3    0    0  0.10880358508E+02 -0.15300695140E+02 -0.15162037738E+02  0.24132568479E+02  0.00000000000E+00 0. -1.
</event>
<event>
 7    1  0.1193961E-011  0.5930194E+02  0.7816164E-02  0.1266605E+00
        -11   -1    0    0    0    0  0.00000000000E+00  0.00000000000E+00  0.45593999997E+02  0.45594000000E+02  0.51100000000E-03 0.  1.
         11   -1    0    0    0    0 -0.00000000000E+00 -0.00000000000E+00 -0.45593999997E+02  0.45594000000E+02  0.51100000000E-03 0. -1.
    9900012    2    1    2    0    0  0.23390269583E+02 -0.11002367599E+02  0.18669873232E+02  0.59301937677E+02  0.49999988418E+02 0.  0.
         12    1    1    2    0    0 -0.23390269583E+02  0.11002367599E+02 -0.18669873232E+02  0.31886062323E+02  0.00000000000E+00 0. -1.
         11    1    3    3    0    0 -0.17855582629E+01  0.11092454923E+02 -0.71193630835E+00  0.11257780780E+02  0.51100000000E-03 0. -1.
        -11    1    3    3    0    0  0.59768295062E+01 -0.39587059051E+01 -0.74889255316E+01  0.10367152418E+02  0.51100000000E-03 0.  1.
        -12    1    3    3    0    0  0.19198998339E+02 -0.18136116617E+02  0.26870735072E+02  0.37677004479E+02  0.00000000000E+00 0.  1.
</event>
<event>
 7    1  0.1193961E-011  0.5930196E+02  0.7816164E-02  0.1266605E+00
        -11   -1    0    0    0    0  0.00000000000E+00  0.00000000000E+00  0.45593999997E+02  0.45594000000E+02  0.51100000000E-03 0. -1.
         11   -1    0    0    0    0 -0.00000000000E+00 -0.00000000000E+00 -0.45593999997E+02  0.45594000000E+02  0.51100000000E-03 0.  1.
    9900012    2    1    2    0    0 -0.19555461792E+02  0.50198393832E+01 -0.24680051107E+02  0.59301956094E+02  0.50000022007E+02 0.  0.
         12    1    1    2    0    0  0.19555461792E+02 -0.50198393832E+01  0.24680051107E+02  0.31886043906E+02  0.00000000000E+00 0. -1.
         11    1    3    3    0    0 -0.13741843754E+02 -0.51905880838E+01  0.87101417643E+01  0.17077676781E+02  0.51100000000E-03 0. -1.
        -11    1    3    3    0    0 -0.36035939001E+01 -0.16692144742E+01  0.22686614247E+01  0.45737283346E+01  0.51100000000E-03 0.  1.
        -12    1    3    3    0    0 -0.22100241377E+01  0.11879641941E+02 -0.35658854296E+02  0.37650550979E+02  0.00000000000E+00 0.  1.
</event>
<event>
 7    1  0.1193961E-011  0.5930202E+02  0.7816164E-02  0.1266604E+00
        -11   -1    0    0    0    0  0.00000000000E+00  0.00000000000E+00  0.45593999997E+02  0.45594000000E+02  0.51100000000E-03 0. -1.
         11   -1    0    0    0    0 -0.00000000000E+00 -0.00000000000E+00 -0.45593999997E+02  0.45594000000E+02  0.51100000000E-03 0.  1.
    9900012    2    1    2    0    0 -0.15073495205E+02 -0.19134283821E+02 -0.20576307247E+02  0.59302023538E+02  0.50000145007E+02 0.  0.
         12    1    1    2    0    0  0.15073495205E+02  0.19134283821E+02  0.20576307247E+02  0.31885976462E+02  0.00000000000E+00 0. -1.
         11    1    3    3    0    0  0.38260629182E+01 -0.13990573000E+02 -0.11355963094E+02  0.18420987714E+02  0.51100000000E-03 0. -1.
        -11    1    3    3    0    0 -0.30915704274E+01  0.11574285180E+02 -0.12872384353E+02  0.17584657072E+02  0.51100000000E-03 0.  1.
         12    1    3    3    0    0 -0.15807987696E+02 -0.16717996002E+02  0.36520402002E+01  0.23296378751E+02  0.00000000000E+00 0. -1.
</event>
<event>
 7    1  0.1193961E-011  0.5930231E+02  0.7816164E-02  0.1266603E+00
        -11   -1    0    0    0    0  0.00000000000E+00  0.00000000000E+00  0.45593999997E+02  0.45594000000E+02  0.51100000000E-03 0. -1.
         11   -1    0    0    0    0 -0.00000000000E+00 -0.00000000000E+00 -0.45593999997E+02  0.45594000000E+02  0.51100000000E-03 0.  1.
    9900012    2    1    2    0    0  0.19660935003E+02  0.11617560733E+02 -0.22252578624E+02  0.59302308256E+02  0.50000664260E+02 0.  0.
         12    1    1    2    0    0 -0.19660935003E+02 -0.11617560733E+02  0.22252578624E+02  0.31885691744E+02  0.00000000000E+00 0. -1.
         11    1    3    3    0    0 -0.25875856565E+01 -0.83708673760E+01  0.82516102596E+01  0.12035617653E+02  0.51100000000E-03 0. -1.
        -11    1    3    3    0    0  0.47617516706E+01 -0.35024832006E+01 -0.96451956148E+01  0.11312447403E+02  0.51100000000E-03 0.  1.
         12    1    3    3    0    0  0.17486768989E+02  0.23490911310E+02 -0.20858993269E+02  0.35954243199E+02  0.00000000000E+00 0. -1.
</event>
<event>
 7    1  0.1193961E-011  0.5930194E+02  0.7816164E-02  0.1266605E+00
        -11   -1    0    0    0    0  0.00000000000E+00  0.00000000000E+00  0.45593999997E+02  0.45594000000E+02  0.51100000000E-03 0.  1.
         11   -1    0    0    0    0 -0.00000000000E+00 -0.00000000000E+00 -0.45593999997E+02  0.45594000000E+02  0.51100000000E-03 0. -1.
    9900012    2    1    2    0    0 -0.27507146393E+02 -0.12261437441E+02  0.10475431197E+02  0.59301943336E+02  0.49999998739E+02 0.  0.
         12    1    1    2    0    0  0.27507146393E+02  0.12261437441E+02 -0.10475431197E+02  0.31886056664E+02  0.00000000000E+00 0. -1.
         11    1    3    3    0    0  0.48860541098E+01 -0.19818912147E+02  0.21483695536E+01  0.20525065054E+02  0.51100000000E-03 0. -1.
        -11    1    3    3    0    0 -0.39098784661E+00 -0.26666795425E+01 -0.22970861767E+01  0.35412789276E+01  0.51100000000E-03 0.  1.
        -12    1    3    3    0    0 -0.32002212656E+02  0.10224154249E+02  0.10624147820E+02  0.35235599355E+02  0.00000000000E+00 0.  1.
</event>
<event>
 7    1  0.1193961E-011  0.5930195E+02  0.7816164E-02  0.1266605E+00
        -11   -1    0    0    0    0  0.00000000000E+00  0.00000000000E+00  0.45593999997E+02  0.45594000000E+02  0.51100000000E-03 0. -1.
         11   -1    0    0    0    0 -0.00000000000E+00 -0.00000000000E+00 -0.45593999997E+02  0.45594000000E+02  0.51100000000E-03 0.  1.
    9900012    2    1    2    0    0  0.27968662049E+02 -0.10854032588E+02  0.10801126724E+02  0.59301946329E+02  0.50000004197E+02 0.  0.
         12    1    1    2    0    0 -0.27968662049E+02  0.10854032588E+02 -0.10801126724E+02  0.31886053671E+02  0.00000000000E+00 0. -1.
         11    1    3    3    0    0  0.24785552875E+02 -0.11425211131E+02 -0.33989379425E+01  0.27502942753E+02  0.51100000000E-03 0.  1.
        -11    1    3    3    0    0  0.13729652324E+02 -0.65966125393E+01  0.10571076341E+02  0.18540935931E+02  0.51100000000E-03 0. -1.
         12    1    3    3    0    0 -0.10546543150E+02  0.71677910819E+01  0.36289883247E+01  0.13258067644E+02  0.00000000000E+00 0. -1.
</event>
<event>
 7    1  0.1193961E-011  0.5930195E+02  0.7816164E-02  0.1266605E+00
        -11   -1    0    0    0    0  0.00000000000E+00  0.00000000000E+00  0.45593999997E+02  0.45594000000E+02  0.51100000000E-03 0.  1.
         11   -1    0    0    0    0 -0.00000000000E+00 -0.00000000000E+00 -0.45593999997E+02  0.45594000000E+02  0.51100000000E-03 0. -1.
    9900012    2    1    2    0    0 -0.13860755132E+02  0.21901640016E+02  0.18571966785E+02  0.59301947901E+02  0.50000007063E+02 0.  0.
         12    1    1    2    0    0  0.13860755132E+02 -0.21901640016E+02 -0.18571966785E+02  0.31886052099E+02  0.00000000000E+00 0. -1.
         11    1    3    3    0    0 -0.26455310325E+02  0.12135834397E+02  0.17882027122E+02  0.34160339799E+02  0.51100000000E-03 0. -1.
        -11    1    3    3    0    0 -0.28619165706E+01  0.59211239569E+01  0.54248853314E+01  0.85252364477E+01  0.51100000000E-03 0.  1.
         12    1    3    3    0    0  0.15456471764E+02  0.38446816618E+01 -0.47349456685E+01  0.16616371654E+02  0.00000000000E+00 0. -1.
</event>
<event>
 7    1  0.1193961E-011  0.5930190E+02  0.7816164E-02  0.1266605E+00
        -11   -1    0    0    0    0  0.00000000000E+00  0.00000000000E+00  0.45593999997E+02  0.45594000000E+02  0.51100000000E-03 0.  1.
         11   -1    0    0    0    0 -0.00000000000E+00 -0.00000000000E+00 -0.45593999997E+02  0.45594000000E+02  0.51100000000E-03 0. -1.
    9900012    2    1    2    0    0 -0.82822139639E+01 -0.11167005791E+02  0.28695409502E+02  0.59301896240E+02  0.49999912847E+02 0.  0.
         12    1    1    2    0    0  0.82822139639E+01  0.11167005791E+02 -0.28695409502E+02  0.31886103760E+02  0.00000000000E+00 0. -1.
         11    1    3    3    0    0  0.11173054177E+02  0.79470864507E+01 -0.14961433394E+01  0.13792453294E+02  0.51100000000E-03 0. -1.
        -11    1    3    3    0    0 -0.18215805288E+02 -0.63394770190E+01  0.10378182630E+02  0.21902310520E+02  0.51100000000E-03 0.  1.
        -12    1    3    3    0    0 -0.12394628535E+01 -0.12774615222E+02  0.19813370212E+02  0.23607132427E+02  0.00000000000E+00 0.  1.
</event>
<event>
 7    1  0.1193961E-011  0.5930194E+02  0.7816164E-02  0.1266605E+00
        -11   -1    0    0    0    0  0.00000000000E+00  0.00000000000E+00  0.45593999997E+02  0.45594000000E+02  0.51100000000E-03 0.  1.
         11   -1    0    0    0    0 -0.00000000000E+00 -0.00000000000E+00 -0.45593999997E+02  0.45594000000E+02  0.51100000000E-03 0. -1.
    9900012    2    1    2    0    0 -0.13306767689E+02  0.21359506827E+02  0.19581171976E+02  0.59301938873E+02  0.49999990600E+02 0.  0.
         12    1    1    2    0    0  0.13306767689E+02 -0.21359506827E+02 -0.19581171976E+02  0.31886061127E+02  0.00000000000E+00 0. -1.
         11    1    3    3    0    0 -0.67606389705E+01  0.11890659153E+02 -0.15228496949E+02  0.20469517189E+02  0.51100000000E-03 0. -1.
        -11    1    3    3    0    0  0.20822687613E+01 -0.19600088753E+01  0.67189110700E+01  0.73021397011E+01  0.51100000000E-03 0.  1.
        -12    1    3    3    0    0 -0.86283974801E+01  0.11428856549E+02  0.28090757855E+02  0.31530281983E+02  0.00000000000E+00 0.  1.
</event>
<event>
 7    1  0.1193961E-011  0.5930194E+02  0.7816164E-02  0.1266605E+00
        -11   -1    0    0    0    0  0.00000000000E+00  0.00000000000E+00  0.45593999997E+02  0.45594000000E+02  0.51100000000E-03 0.  1.
         11   -1    0    0    0    0 -0.00000000000E+00 -0.00000000000E+00 -0.45593999997E+02  0.45594000000E+02  0.51100000000E-03 0. -1.
    9900012    2    1    2    0    0 -0.21654253293E+02 -0.16346119876E+02  0.16751668091E+02  0.59301941847E+02  0.49999996024E+02 0.  0.
         12    1    1    2    0    0  0.21654253293E+02  0.16346119876E+02 -0.16751668091E+02  0.31886058153E+02  0.00000000000E+00 0. -1.
         11    1    3    3    0    0 -0.92422316114E+01 -0.87206810046E+01  0.27974425578E+02  0.30725195020E+02  0.51100000000E-03 0. -1.
        -11    1    3    3    0    0 -0.11634703590E+01 -0.28337842357E+01  0.64189016736E+01  0.71124043282E+01  0.51100000000E-03 0.  1.
         12    1    3    3    0    0 -0.11248551322E+02 -0.47916546361E+01 -0.17641659160E+02  0.21464342499E+02  0.00000000000E+00 0. -1.
</event>
<event>
 7    1  0.1193961E-011  0.5930195E+02  0.7816164E-02  0.1266605E+00
        -11   -1    0    0    0    0  0.00000000000E+00  0.00000000000E+00  0.45593999997E+02  0.45594000000E+02  0.51100000000E-03 0.  1.
         11   -1    0    0    0    0 -0.00000000000E+00 -0.00000000000E+00 -0.45593999997E+02  0.45594000000E+02  0.51100000000E-03 0. -1.
    9900012    2    1    2    0    0 -0.83434896181E+01  0.21536423511E+02  0.21983825976E+02  0.59301953503E+02  0.50000017281E+02 0.  0.
         12    1    1    2    0    0  0.83434896181E+01 -0.21536423511E+02 -0.21983825976E+02  0.31886046497E+02  0.00000000000E+00 0. -1.
         11    1    3    3    0    0 -0.12187253182E+02  0.11032816949E+01 -0.32524652853E+01  0.12661946979E+02  0.51100000000E-03 0. -1.
        -11    1    3    3    0    0 -0.14356766438E+02  0.92165857612E+01  0.66485311451E+01  0.18310247467E+02  0.51100000000E-03 0.  1.
        -12    1    3    3    0    0  0.18200530002E+02  0.11216556055E+02  0.18587760116E+02  0.28329759057E+02  0.00000000000E+00 0.  1.
</event>
<event>
 7    1  0.1193961E-011  0.5930195E+02  0.7816164E-02  0.1266605E+00
        -11   -1    0    0    0    0  0.00000000000E+00  0.00000000000E+00  0.45593999997E+02  0.45594000000E+02  0.51100000000E-03 0.  1.
         11   -1    0    0    0    0 -0.00000000000E+00 -0.00000000000E+00 -0.45593999997E+02  0.45594000000E+02  0.51100000000E-03 0. -1.
    9900012    2    1    2    0    0  0.62861665408E+01 -0.13567664275E+02  0.28162439364E+02  0.59301946707E+02  0.50000004887E+02 0.  0.
         12    1    1    2    0    0 -0.62861665408E+01  0.13567664275E+02 -0.28162439364E+02  0.31886053293E+02  0.00000000000E+00 0. -1.
         11    1    3    3    0    0  0.28012860370E+01 -0.11379025858E+02  0.13397842758E+02  0.17799764711E+02  0.51100000000E-03 0. -1.
        -11    1    3    3    0    0  0.83922054566E+01 -0.85977825412E+00  0.26981521654E+02  0.28269609868E+02  0.51100000000E-03 0.  1.
         12    1    3    3    0    0 -0.49073249528E+01 -0.13288601625E+01 -0.12216925047E+02  0.13232572129E+02  0.00000000000E+00 0. -1.
</event>
<event>
 7    1  0.1193961E-011  0.5930198E+02  0.7816164E-02  0.1266605E+00
        -11   -1    0    0    0    0  0.00000000000E+00  0.00000000000E+00  0.45593999997E+02  0.45594000000E+02  0.51100000000E-03 0.  1.
         11   -1    0    0    0    0 -0.00000000000E+00 -0.00000000000E+00 -0.45593999997E+02  0.45594000000E+02  0.51100000000E-03 0. -1.
    9900012    2    1    2    0    0  0.79746901254E+01  0.57883544379E+01  0.30325200741E+02  0.59301975951E+02  0.50000058220E+02 0.  0.
         12    1    1    2    0    0 -0.79746901254E+01 -0.57883544379E+01 -0.30325200741E+02  0.31886024049E+02  0.00000000000E+00 0. -1.
         11    1    3    3    0    0 -0.65434908586E+01 -0.62107019890E+01 -0.75066897841E+00  0.90528225426E+01  0.51100000000E-03 0.  1.
        -11    1    3    3    0    0 -0.28489861747E+01 -0.38815051372E+01 -0.51501866458E+01  0.70503352475E+01  0.51100000000E-03 0. -1.
        -12    1    3    3    0    0  0.17367167159E+02  0.15880561564E+02  0.36226056365E+02  0.43198818161E+02  0.00000000000E+00 0.  1.
</event>
<event>
 7    1  0.1193961E-011  0.5930191E+02  0.7816164E-02  0.1266605E+00
        -11   -1    0    0    0    0  0.00000000000E+00  0.00000000000E+00  0.45593999997E+02  0.45594000000E+02  0.51100000000E-03 0.  1.
         11   -1    0    0    0    0 -0.00000000000E+00 -0.00000000000E+00 -0.45593999997E+02  0.45594000000E+02  0.51100000000E-03 0. -1.
    9900012    2    1    2    0    0  0.24807624823E+02 -0.16765037987E+02  0.10965301690E+02  0.59301912293E+02  0.49999942124E+02 0.  0.
         12    1    1    2    0    0 -0.24807624823E+02  0.16765037987E+02 -0.10965301690E+02  0.31886087707E+02  0.00000000000E+00 0. -1.
         11    1    3    3    0    0  0.15558340367E+02 -0.13788666417E+01 -0.18745167711E+01  0.15731403039E+02  0.51100000000E-03 0. -1.
        -11    1    3    3    0    0  0.22486073026E+02 -0.16855467044E+02  0.10756785603E+02  0.30090508240E+02  0.51100000000E-03 0.  1.
         12    1    3    3    0    0 -0.13236788569E+02  0.14692956980E+01  0.20830328588E+01  0.13480001015E+02  0.00000000000E+00 0. -1.
</event>
<event>
 7    1  0.1193961E-011  0.5930194E+02  0.7816164E-02  0.1266605E+00
        -11   -1    0    0    0    0  0.00000000000E+00  0.00000000000E+00  0.45593999997E+02  0.45594000000E+02  0.51100000000E-03 0. -1.
         11   -1    0    0    0    0 -0.00000000000E+00 -0.00000000000E+00 -0.45593999997E+02  0.45594000000E+02  0.51100000000E-03 0.  1.
    9900012    2    1    2    0    0 -0.25335511458E+02 -0.17408502750E+02  0.84721035797E+01  0.59301942735E+02  0.49999997642E+02 0.  0.
         12    1    1    2    0    0  0.25335511458E+02  0.17408502750E+02 -0.84721035797E+01  0.31886057265E+02  0.00000000000E+00 0. -1.
         11    1    3    3    0    0 -0.19849864565E+02 -0.25401091583E+01  0.39591205477E+01  0.20399605721E+02  0.51100000000E-03 0. -1.
        -11    1    3    3    0    0  0.71307961067E+01  0.16915149318E+01 -0.10804871487E+02  0.13055831034E+02  0.51100000000E-03 0.  1.
         12    1    3    3    0    0 -0.12616443000E+02 -0.16559908523E+02  0.15317854519E+02  0.25846505979E+02  0.00000000000E+00 0. -1.
</event>
<event>
 7    1  0.1193961E-011  0.5930195E+02  0.7816164E-02  0.1266605E+00
        -11   -1    0    0    0    0  0.00000000000E+00  0.00000000000E+00  0.45593999997E+02  0.45594000000E+02  0.51100000000E-03 0.  1.
         11   -1    0    0    0    0 -0.00000000000E+00 -0.00000000000E+00 -0.45593999997E+02  0.45594000000E+02  0.51100000000E-03 0. -1.
    9900012    2    1    2    0    0 -0.53823492668E+01  0.27123730645E+02 -0.15876199076E+02  0.59301950624E+02  0.50000012030E+02 0.  0.
         12    1    1    2    0    0  0.53823492668E+01 -0.27123730645E+02  0.15876199076E+02  0.31886049376E+02  0.00000000000E+00 0. -1.
         11    1    3    3    0    0 -0.72067014077E+01  0.13826039225E+02 -0.24818410163E+01  0.15787825718E+02  0.51100000000E-03 0.  1.
        -11    1    3    3    0    0  0.54054032207E+01 -0.97091845049E+01 -0.16635556274E+02  0.20005708699E+02  0.51100000000E-03 0. -1.
         12    1    3    3    0    0 -0.35810510798E+01  0.23006875925E+02  0.32411982147E+01  0.23508416206E+02  0.00000000000E+00 0. -1.
</event>
<event>
 7    1  0.1193961E-011  0.5930194E+02  0.7816164E-02  0.1266605E+00
        -11   -1    0    0    0    0  0.00000000000E+00  0.00000000000E+00  0.45593999997E+02  0.45594000000E+02  0.51100000000E-03 0. -1.
         11   -1    0    0    0    0 -0.00000000000E+00 -0.00000000000E+00 -0.45593999997E+02  0.45594000000E+02  0.51100000000E-03 0.  1.
    9900012    2    1    2    0    0 -0.78114489553E+01  0.16287823080E+02 -0.26275632128E+02  0.59301940990E+02  0.49999994460E+02 0.  0.
         12    1    1    2    0    0  0.78114489553E+01 -0.16287823080E+02  0.26275632128E+02  0.31886059010E+02  0.00000000000E+00 0. -1.
         11    1    3    3    0    0 -0.18490658703E+02 -0.63381979391E+00 -0.77230757456E+00  0.18517630682E+02  0.51100000000E-03 0. -1.
        -11    1    3    3    0    0 -0.74998678653E+01  0.60193521256E+01 -0.35065529166E+01  0.10236040818E+02  0.51100000000E-03 0.  1.
        -12    1    3    3    0    0  0.18179077613E+02  0.10902290748E+02 -0.21996771637E+02  0.30548269490E+02  0.00000000000E+00 0.  1.
</event>
<event>
 7    1  0.1193961E-011  0.5930192E+02  0.7816164E-02  0.1266605E+00
        -11   -1    0    0    0    0  0.00000000000E+00  0.00000000000E+00  0.45593999997E+02  0.45594000000E+02  0.51100000000E-03 0.  1.
         11   -1    0    0    0    0 -0.00000000000E+00 -0.00000000000E+00 -0.45593999997E+02  0.45594000000E+02  0.51100000000E-03 0. -1.
    9900012    2    1    2    0    0 -0.22578967001E+02 -0.34602692517E+01 -0.22247222401E+02  0.59301919672E+02  0.49999955581E+02 0.  0.
         12    1    1    2    0    0  0.22578967001E+02  0.34602692517E+01  0.22247222401E+02  0.31886080328E+02  0.00000000000E+00 0. -1.
         11    1    3    3    0    0 -0.16585770203E+02  0.96251869712E+01 -0.82117698385E+01  0.20860612685E+02  0.51100000000E-03 0. -1.
        -11    1    3    3    0    0  0.61814282935E+01  0.87828470002E+01 -0.47841182268E+01  0.11757391065E+02  0.51100000000E-03 0.  1.
         12    1    3    3    0    0 -0.12174625091E+02 -0.21868303223E+02 -0.92513343358E+01  0.26683915922E+02  0.00000000000E+00 0. -1.
</event>
<event>
 7    1  0.1193961E-011  0.5930194E+02  0.7816164E-02  0.1266605E+00
        -11   -1    0    0    0    0  0.00000000000E+00  0.00000000000E+00  0.45593999997E+02  0.45594000000E+02  0.51100000000E-03 0. -1.
         11   -1    0    0    0    0 -0.00000000000E+00 -0.00000000000E+00 -0.45593999997E+02  0.45594000000E+02  0.51100000000E-03 0.  1.
    9900012    2    1    2    0    0  0.43043101931E+01 -0.24345669396E+02 -0.20136588928E+02  0.59301938496E+02  0.49999989911E+02 0.  0.
         12    1    1    2    0    0 -0.43043101931E+01  0.24345669396E+02  0.20136588928E+02  0.31886061504E+02  0.00000000000E+00 0. -1.
         11    1    3    3    0    0  0.10684452557E+02 -0.64642462437E+00  0.29725134048E+01  0.11109060601E+02  0.51100000000E-03 0. -1.
        -11    1    3    3    0    0  0.10166298993E+02 -0.10751818764E+02  0.25650856521E+01  0.15017819635E+02  0.51100000000E-03 0.  1.
        -12    1    3    3    0    0 -0.16546441357E+02 -0.12947426008E+02 -0.25674187985E+02  0.33175058259E+02  0.00000000000E+00 0.  1.
</event>
<event>
 7    1  0.1193961E-011  0.5930194E+02  0.7816164E-02  0.1266605E+00
        -11   -1    0    0    0    0  0.00000000000E+00  0.00000000000E+00  0.45593999997E+02  0.45594000000E+02  0.51100000000E-03 0. -1.
         11   -1    0    0    0    0 -0.00000000000E+00 -0.00000000000E+00 -0.45593999997E+02  0.45594000000E+02  0.51100000000E-03 0.  1.
    9900012    2    1    2    0    0  0.22472318775E+02 -0.22432448793E+02  0.29156936108E+01  0.59301935031E+02  0.49999983593E+02 0.  0.
         12    1    1    2    0    0 -0.22472318775E+02  0.22432448793E+02 -0.29156936108E+01  0.31886064969E+02  0.00000000000E+00 0. -1.
         11    1    3    3    0    0  0.24795425574E+01 -0.70700363901E+01  0.44646508423E+01  0.87216198757E+01  0.51100000000E-03 0. -1.
        -11    1    3    3    0    0 -0.25069138170E+00 -0.19549724292E+02  0.14556423978E+02  0.24375070161E+02  0.51100000000E-03 0.  1.
         12    1    3    3    0    0  0.20243467599E+02  0.41873118898E+01 -0.16105381210E+02  0.26205244994E+02  0.00000000000E+00 0. -1.
</event>
<event>
 7    1  0.1193961E-011  0.5930198E+02  0.7816164E-02  0.1266605E+00
        -11   -1    0    0    0    0  0.00000000000E+00  0.00000000000E+00  0.45593999997E+02  0.45594000000E+02  0.51100000000E-03 0. -1.
         11   -1    0    0    0    0 -0.00000000000E+00 -0.00000000000E+00 -0.45593999997E+02  0.45594000000E+02  0.51100000000E-03 0.  1.
    9900012    2    1    2    0    0  0.68832231113E+01  0.15802626204E+02 -0.26825674452E+02  0.59301975395E+02  0.50000057206E+02 0.  0.
         12    1    1    2    0    0 -0.68832231113E+01 -0.15802626204E+02  0.26825674452E+02  0.31886024605E+02  0.00000000000E+00 0. -1.
         11    1    3    3    0    0 -0.48301145764E+01  0.40359762140E+01 -0.14291981427E+01  0.64545889423E+01  0.51100000000E-03 0. -1.
        -11    1    3    3    0    0 -0.29630570370E+01 -0.13222378584E+02  0.10805499958E+01  0.13593328915E+02  0.51100000000E-03 0.  1.
        -12    1    3    3    0    0  0.14676394725E+02  0.24989028574E+02 -0.26477026305E+02  0.39254057537E+02  0.00000000000E+00 0.  1.
</event>
<event>
 7    1  0.1193961E-011  0.5930194E+02  0.7816164E-02  0.1266605E+00
        -11   -1    0    0    0    0  0.00000000000E+00  0.00000000000E+00  0.45593999997E+02  0.45594000000E+02  0.51100000000E-03 0.  1.
         11   -1    0    0    0    0 -0.00000000000E+00 -0.00000000000E+00 -0.45593999997E+02  0.45594000000E+02  0.51100000000E-03 0. -1.
    9900012    2    1    2    0    0  0.10023535985E+02 -0.23801573999E+02  0.18701188124E+02  0.59301942926E+02  0.49999997991E+02 0.  0.
         12    1    1    2    0    0 -0.10023535985E+02  0.23801573999E+02 -0.18701188124E+02  0.31886057074E+02  0.00000000000E+00 0. -1.
         11    1    3    3    0    0  0.15923876854E+02 -0.18452890977E+01  0.69876706584E+01  0.17487209251E+02  0.51100000000E-03 0. -1.
        -11    1    3    3    0    0  0.91751330945E+01  0.37345717192E+01  0.28497009443E+00  0.99101615246E+01  0.51100000000E-03 0.  1.
         12    1    3    3    0    0 -0.15075473963E+02 -0.25690856620E+02  0.11428547371E+02  0.31904572150E+02  0.00000000000E+00 0. -1.
</event>
<event>
 7    1  0.1193961E-011  0.5930194E+02  0.7816164E-02  0.1266605E+00
        -11   -1    0    0    0    0  0.00000000000E+00  0.00000000000E+00  0.45593999997E+02  0.45594000000E+02  0.51100000000E-03 0. -1.
         11   -1    0    0    0    0 -0.00000000000E+00 -0.00000000000E+00 -0.45593999997E+02  0.45594000000E+02  0.51100000000E-03 0.  1.
    9900012    2    1    2    0    0 -0.81665154947E+01 -0.23587731298E+02 -0.19840560523E+02  0.59301939018E+02  0.49999990863E+02 0.  0.
         12    1    1    2    0    0  0.81665154947E+01  0.23587731298E+02  0.19840560523E+02  0.31886060982E+02  0.00000000000E+00 0. -1.
         11    1    3    3    0    0 -0.99359689478E+01  0.62562944010E+01 -0.48461328256E+01  0.12702350262E+02  0.51100000000E-03 0. -1.
        -11    1    3    3    0    0  0.63073874559E+01  0.54357392956E+01 -0.10453592709E+01  0.83918516715E+01  0.51100000000E-03 0.  1.
        -12    1    3    3    0    0 -0.45379340029E+01 -0.35279764995E+02 -0.13949068426E+02  0.38207737084E+02  0.00000000000E+00 0.  1.
</event>
<event>
 7    1  0.1193961E-011  0.5930195E+02  0.7816164E-02  0.1266605E+00
        -11   -1    0    0    0    0  0.00000000000E+00  0.00000000000E+00  0.45593999997E+02  0.45594000000E+02  0.51100000000E-03 0. -1.
         11   -1    0    0    0    0 -0.00000000000E+00 -0.00000000000E+00 -0.45593999997E+02  0.45594000000E+02  0.51100000000E-03 0.  1.
    9900012    2    1    2    0    0 -0.57388333251E+01 -0.22844505149E+02 -0.21492201300E+02  0.59301947561E+02  0.50000006444E+02 0.  0.
         12    1    1    2    0    0  0.57388333251E+01  0.22844505149E+02  0.21492201300E+02  0.31886052439E+02  0.00000000000E+00 0. -1.
         11    1    3    3    0    0  0.16172508754E+02 -0.53762666309E+01 -0.70510685379E+01  0.18443748266E+02  0.51100000000E-03 0. -1.
        -11    1    3    3    0    0 -0.18997310678E+01  0.61959813053E+01  0.40727942626E+00  0.64934612694E+01  0.51100000000E-03 0.  1.
        -12    1    3    3    0    0 -0.20011611012E+02 -0.23664219823E+02 -0.14848412188E+02  0.34364738026E+02  0.00000000000E+00 0.  1.
</event>
<event>
 7    1  0.1193961E-011  0.5930200E+02  0.7816164E-02  0.1266605E+00
        -11   -1    0    0    0    0  0.00000000000E+00  0.00000000000E+00  0.45593999997E+02  0.45594000000E+02  0.51100000000E-03 0.  1.
         11   -1    0    0    0    0 -0.00000000000E+00 -0.00000000000E+00 -0.45593999997E+02  0.45594000000E+02  0.51100000000E-03 0. -1.
    9900012    2    1    2    0    0  0.23093593445E+02  0.19841485382E+02  0.94719856638E+01  0.59301998169E+02  0.50000098740E+02 0.  0.
         12    1    1    2    0    0 -0.23093593445E+02 -0.19841485382E+02 -0.94719856638E+01  0.31886001831E+02  0.00000000000E+00 0. -1.
         11    1    3    3    0    0 -0.61485399775E+01  0.17582590389E+02  0.10429393127E+02  0.21347699406E+02  0.51100000000E-03 0. -1.
        -11    1    3    3    0    0  0.40558491528E+01 -0.21819741984E+00  0.96832002339E+01  0.10500566151E+02  0.51100000000E-03 0.  1.
         12    1    3    3    0    0  0.25186284270E+02  0.24770924124E+01 -0.10640607697E+02  0.27453732612E+02  0.00000000000E+00 0. -1.
</event>
<event>
 7    1  0.1193961E-011  0.5930194E+02  0.7816164E-02  0.1266605E+00
        -11   -1    0    0    0    0  0.00000000000E+00  0.00000000000E+00  0.45593999997E+02  0.45594000000E+02  0.51100000000E-03 0.  1.
         11   -1    0    0    0    0 -0.00000000000E+00 -0.00000000000E+00 -0.45593999997E+02  0.45594000000E+02  0.51100000000E-03 0. -1.
    9900012    2    1    2    0    0 -0.64171748537E+01  0.30479751957E+02  0.68209749237E+01  0.59301935467E+02  0.49999984388E+02 0.  0.
         12    1    1    2    0    0  0.64171748537E+01 -0.30479751957E+02 -0.68209749237E+01  0.31886064533E+02  0.00000000000E+00 0. -1.
         11    1    3    3    0    0  0.12109864576E+01  0.62383522177E+01  0.12631106676E+02  0.14139603343E+02  0.51100000000E-03 0. -1.
        -11    1    3    3    0    0  0.95958144945E+01  0.12178063328E+02 -0.15575798433E+02  0.21977042097E+02  0.51100000000E-03 0.  1.
         12    1    3    3    0    0 -0.17223975806E+02  0.12063336411E+02  0.97656666807E+01  0.23185290027E+02  0.00000000000E+00 0. -1.
</event>
<event>
 7    1  0.1193961E-011  0.5930192E+02  0.7816164E-02  0.1266605E+00
        -11   -1    0    0    0    0  0.00000000000E+00  0.00000000000E+00  0.45593999997E+02  0.45594000000E+02  0.51100000000E-03 0.  1.
         11   -1    0    0    0    0 -0.00000000000E+00 -0.00000000000E+00 -0.45593999997E+02  0.45594000000E+02  0.51100000000E-03 0. -1.
    9900012    2    1    2    0    0 -0.61437371714E+01 -0.28473348555E+02 -0.12970941152E+02  0.59301915281E+02  0.49999947573E+02 0.  0.
         12    1    1    2    0    0  0.61437371714E+01  0.28473348555E+02  0.12970941152E+02  0.31886084719E+02  0.00000000000E+00 0. -1.
         11    1    3    3    0    0 -0.14413990911E+02 -0.37405631133E+01 -0.51178410585E+01  0.15746340646E+02  0.51100000000E-03 0. -1.
        -11    1    3    3    0    0  0.32711217627E+01 -0.21994431890E+02  0.10316437372E+02  0.24512938462E+02  0.51100000000E-03 0.  1.
         12    1    3    3    0    0  0.49991319766E+01 -0.27383535512E+01 -0.18169537465E+02  0.19042636173E+02  0.00000000000E+00 0. -1.
</event>
<event>
 7    1  0.1193961E-011  0.5930195E+02  0.7816164E-02  0.1266605E+00
        -11   -1    0    0    0    0  0.00000000000E+00  0.00000000000E+00  0.45593999997E+02  0.45594000000E+02  0.51100000000E-03 0.  1.
         11   -1    0    0    0    0 -0.00000000000E+00 -0.00000000000E+00 -0.45593999997E+02  0.45594000000E+02  0.51100000000E-03 0. -1.
    9900012    2    1    2    0    0 -0.72177634230E+01  0.22671443246E+02  0.21228045352E+02  0.59301947295E+02  0.50000005958E+02 0.  0.
         12    1    1    2    0    0  0.72177634230E+01 -0.22671443246E+02 -0.21228045352E+02  0.31886052705E+02  0.00000000000E+00 0. -1.
         11    1    3    3    0    0  0.10366475843E+02  0.21414349050E+02  0.24116268251E+01  0.23913471325E+02  0.51100000000E-03 0. -1.
        -11    1    3    3    0    0 -0.19763974013E+01  0.98607476814E+01  0.86722417624E+00  0.10094184938E+02  0.51100000000E-03 0.  1.
        -12    1    3    3    0    0 -0.15607841864E+02 -0.86036534855E+01  0.17949194351E+02  0.25294291032E+02  0.00000000000E+00 0.  1.
</event>
<event>
 7    1  0.1193961E-011  0.5930195E+02  0.7816164E-02  0.1266605E+00
        -11   -1    0    0    0    0  0.00000000000E+00  0.00000000000E+00  0.45593999997E+02  0.45594000000E+02  0.51100000000E-03 0. -1.
         11   -1    0    0    0    0 -0.00000000000E+00 -0.00000000000E+00 -0.45593999997E+02  0.45594000000E+02  0.51100000000E-03 0.  1.
    9900012    2    1    2    0    0  0.78038422110E+00  0.51210727728E+01 -0.31462455265E+02  0.59301945413E+02  0.50000002526E+02 0.  0.
         12    1    1    2    0    0 -0.78038422110E+00 -0.51210727728E+01  0.31462455265E+02  0.31886054587E+02  0.00000000000E+00 0. -1.
         11    1    3    3    0    0 -0.17827522227E+02 -0.39208872937E+00  0.25170547598E+01  0.18008604812E+02  0.51100000000E-03 0. -1.
        -11    1    3    3    0    0  0.73054424470E+01  0.57562559125E+01 -0.58764990324E+01  0.11001691352E+02  0.51100000000E-03 0.  1.
        -12    1    3    3    0    0  0.11302464001E+02 -0.24309441034E+00 -0.28103010992E+02  0.30291649249E+02  0.00000000000E+00 0.  1.
</event>
<event>
 7    1  0.1193961E-011  0.5930182E+02  0.7816164E-02  0.1266605E+00
        -11   -1    0    0    0    0  0.00000000000E+00  0.00000000000E+00  0.45593999997E+02  0.45594000000E+02  0.51100000000E-03 0.  1.
         11   -1    0    0    0    0 -0.00000000000E+00 -0.00000000000E+00 -0.45593999997E+02  0.45594000000E+02  0.51100000000E-03 0. -1.
    9900012    2    1    2    0    0 -0.19843770095E+02  0.67202461895E+01  0.24037291599E+02  0.59301822621E+02  0.49999778582E+02 0.  0.
         12    1    1    2    0    0  0.19843770095E+02 -0.67202461895E+01 -0.24037291599E+02  0.31886177379E+02  0.00000000000E+00 0. -1.
         11    1    3    3    0    0 -0.11630828382E+02  0.16393059552E+02 -0.54084211128E+01  0.20814888650E+02  0.51100000000E-03 0. -1.
        -11    1    3    3    0    0  0.28563856608E+01  0.50766470461E+01  0.10748884987E+02  0.12225784760E+02  0.51100000000E-03 0.  1.
         12    1    3    3    0    0 -0.11069327374E+02 -0.14749460409E+02  0.18696827725E+02  0.26261149211E+02  0.00000000000E+00 0. -1.
</event>
<event>
 7    1  0.1193961E-011  0.5930192E+02  0.7816164E-02  0.1266605E+00
        -11   -1    0    0    0    0  0.00000000000E+00  0.00000000000E+00  0.45593999997E+02  0.45594000000E+02  0.51100000000E-03 0.  1.
         11   -1    0    0    0    0 -0.00000000000E+00 -0.00000000000E+00 -0.45593999997E+02  0.45594000000E+02  0.51100000000E-03 0. -1.
    9900012    2    1    2    0    0 -0.27188895807E+02  0.90641621797E+00  0.16633227191E+02  0.59301923221E+02  0.49999962054E+02 0.  0.
         12    1    1    2    0    0  0.27188895807E+02 -0.90641621797E+00 -0.16633227191E+02  0.31886076779E+02  0.00000000000E+00 0. -1.
         11    1    3    3    0    0  0.67186184860E+01  0.11829692295E+01  0.38598552770E+01  0.78382226033E+01  0.51100000000E-03 0. -1.
        -11    1    3    3    0    0 -0.30032349376E+02  0.14885759202E+02  0.46772318892E+01  0.33843822693E+02  0.51100000000E-03 0.  1.
         12    1    3    3    0    0 -0.38751649166E+01 -0.15162312214E+02  0.80961400247E+01  0.17619877925E+02  0.00000000000E+00 0. -1.
</event>
<event>
 7    1  0.1193961E-011  0.5930185E+02  0.7816164E-02  0.1266605E+00
        -11   -1    0    0    0    0  0.00000000000E+00  0.00000000000E+00  0.45593999997E+02  0.45594000000E+02  0.51100000000E-03 0.  1.
         11   -1    0    0    0    0 -0.00000000000E+00 -0.00000000000E+00 -0.45593999997E+02  0.45594000000E+02  0.51100000000E-03 0. -1.
    9900012    2    1    2    0    0  0.30590628079E+02  0.89685073792E+01  0.71110902479E+00  0.59301853684E+02  0.49999835234E+02 0.  0.
         12    1    1    2    0    0 -0.30590628079E+02 -0.89685073792E+01 -0.71110902479E+00  0.31886146316E+02  0.00000000000E+00 0. -1.
         11    1    3    3    0    0 -0.16364974395E+01 -0.22530407043E+01  0.40659853816E+01  0.49281389661E+01  0.51100000000E-03 0. -1.
        -11    1    3    3    0    0  0.80687354561E+00  0.67113142501E+01  0.15879623654E+02  0.17258482886E+02  0.51100000000E-03 0.  1.
         12    1    3    3    0    0  0.31420251972E+02  0.45102338334E+01 -0.19234500011E+02  0.37115231832E+02  0.00000000000E+00 0. -1.
</event>
<event>
 7    1  0.1193961E-011  0.5930196E+02  0.7816164E-02  0.1266605E+00
        -11   -1    0    0    0    0  0.00000000000E+00  0.00000000000E+00  0.45593999997E+02  0.45594000000E+02  0.51100000000E-03 0. -1.
         11   -1    0    0    0    0 -0.00000000000E+00 -0.00000000000E+00 -0.45593999997E+02  0.45594000000E+02  0.51100000000E-03 0.  1.
    9900012    2    1    2    0    0  0.16645253703E+02  0.27165000510E+02  0.13106847902E+01  0.59301958882E+02  0.50000027091E+02 0.  0.
         12    1    1    2    0    0 -0.16645253703E+02 -0.27165000510E+02 -0.13106847902E+01  0.31886041118E+02  0.00000000000E+00 0. -1.
         11    1    3    3    0    0 -0.11170227149E+02  0.10837708075E+01 -0.60378471265E+00  0.11238909643E+02  0.51100000000E-03 0. -1.
        -11    1    3    3    0    0 -0.24082148067E+01 -0.10834698506E+01 -0.60963034131E+01  0.66436677399E+01  0.51100000000E-03 0.  1.
        -12    1    3    3    0    0  0.30223695658E+02  0.27164699553E+02  0.80107729160E+01  0.41419381499E+02  0.00000000000E+00 0.  1.
</event>
<event>
 7    1  0.1193961E-011  0.5930195E+02  0.7816164E-02  0.1266605E+00
        -11   -1    0    0    0    0  0.00000000000E+00  0.00000000000E+00  0.45593999997E+02  0.45594000000E+02  0.51100000000E-03 0. -1.
         11   -1    0    0    0    0 -0.00000000000E+00 -0.00000000000E+00 -0.45593999997E+02  0.45594000000E+02  0.51100000000E-03 0.  1.
    9900012    2    1    2    0    0 -0.29680714297E+02 -0.11546640273E+02  0.15653040021E+01  0.59301954785E+02  0.50000019620E+02 0.  0.
         12    1    1    2    0    0  0.29680714297E+02  0.11546640273E+02 -0.15653040021E+01  0.31886045215E+02  0.00000000000E+00 0. -1.
         11    1    3    3    0    0  0.33502461839E+01  0.32804704615E+01  0.26690793060E+01  0.53953332191E+01  0.51100000000E-03 0. -1.
        -11    1    3    3    0    0 -0.50789681506E+01  0.38910123207E+01  0.15223446505E+02  0.16513304276E+02  0.51100000000E-03 0.  1.
        -12    1    3    3    0    0 -0.27951992331E+02 -0.18718123055E+02 -0.16327221809E+02  0.37393317290E+02  0.00000000000E+00 0.  1.
</event>
<event>
 7    1  0.1193961E-011  0.5930191E+02  0.7816164E-02  0.1266605E+00
        -11   -1    0    0    0    0  0.00000000000E+00  0.00000000000E+00  0.45593999997E+02  0.45594000000E+02  0.51100000000E-03 0.  1.
         11   -1    0    0    0    0 -0.00000000000E+00 -0.00000000000E+00 -0.45593999997E+02  0.45594000000E+02  0.51100000000E-03 0. -1.
    9900012    2    1    2    0    0 -0.25590648587E+02  0.13145812545E+02  0.13748784983E+02  0.59301909442E+02  0.49999936924E+02 0.  0.
         12    1    1    2    0    0  0.25590648587E+02 -0.13145812545E+02 -0.13748784983E+02  0.31886090558E+02  0.00000000000E+00 0. -1.
         11    1    3    3    0    0  0.48978377203E+01  0.16001935114E+02  0.78699780951E+00  0.16753211858E+02  0.51100000000E-03 0. -1.
        -11    1    3    3    0    0  0.38633646874E+01 -0.34225355470E+01  0.51993918100E+01  0.73261867116E+01  0.51100000000E-03 0.  1.
        -12    1    3    3    0    0 -0.34351850994E+02  0.56641297813E+00  0.77623953637E+01  0.35222510873E+02  0.00000000000E+00 0.  1.
</event>
<event>
 7    1  0.1193961E-011  0.5930195E+02  0.7816164E-02  0.1266605E+00
        -11   -1    0    0    0    0  0.00000000000E+00  0.00000000000E+00  0.45593999997E+02  0.45594000000E+02  0.51100000000E-03 0. -1.
         11   -1    0    0    0    0 -0.00000000000E+00 -0.00000000000E+00 -0.45593999997E+02  0.45594000000E+02  0.51100000000E-03 0.  1.
    9900012    2    1    2    0    0 -0.19094596959E+02  0.25428284764E+02  0.23491925680E+01  0.59301952820E+02  0.50000016035E+02 0.  0.
         12    1    1    2    0    0  0.19094596959E+02 -0.25428284764E+02 -0.23491925680E+01  0.31886047180E+02  0.00000000000E+00 0. -1.
         11    1    3    3    0    0 -0.27629733056E+01  0.12366262716E+02  0.22982621253E+00  0.12673251177E+02  0.51100000000E-03 0.  1.
        -11    1    3    3    0    0  0.69618434764E+01  0.84161127272E+01  0.15807974258E+02  0.19214324563E+02  0.51100000000E-03 0. -1.
        -12    1    3    3    0    0 -0.23293467130E+02  0.46459093202E+01 -0.13688607902E+02  0.27414377079E+02  0.00000000000E+00 0.  1.
</event>
<event>
 7    1  0.1193961E-011  0.5930190E+02  0.7816164E-02  0.1266605E+00
        -11   -1    0    0    0    0  0.00000000000E+00  0.00000000000E+00  0.45593999997E+02  0.45594000000E+02  0.51100000000E-03 0. -1.
         11   -1    0    0    0    0 -0.00000000000E+00 -0.00000000000E+00 -0.45593999997E+02  0.45594000000E+02  0.51100000000E-03 0.  1.
    9900012    2    1    2    0    0  0.71849507979E+01  0.14288472551E+02 -0.27585130860E+02  0.59301899417E+02  0.49999918641E+02 0.  0.
         12    1    1    2    0    0 -0.71849507979E+01 -0.14288472551E+02  0.27585130860E+02  0.31886100583E+02  0.00000000000E+00 0. -1.
         11    1    3    3    0    0  0.12048146266E+02 -0.80633713806E-01 -0.13729642623E+01  0.12126391111E+02  0.51100000000E-03 0. -1.
        -11    1    3    3    0    0 -0.60951031196E+00  0.26427864198E+02 -0.17493640229E+02  0.31699068719E+02  0.51100000000E-03 0.  1.
         12    1    3    3    0    0 -0.42536851563E+01 -0.12058757933E+02 -0.87185263680E+01  0.15476439588E+02  0.00000000000E+00 0. -1.
</event>
<event>
 7    1  0.1193961E-011  0.5930200E+02  0.7816164E-02  0.1266605E+00
        -11   -1    0    0    0    0  0.00000000000E+00  0.00000000000E+00  0.45593999997E+02  0.45594000000E+02  0.51100000000E-03 0. -1.
         11   -1    0    0    0    0 -0.00000000000E+00 -0.00000000000E+00 -0.45593999997E+02  0.45594000000E+02  0.51100000000E-03 0.  1.
    9900012    2    1    2    0    0 -0.10938448474E+01  0.22571262208E+02 -0.22495752509E+02  0.59301995937E+02  0.50000094669E+02 0.  0.
         12    1    1    2    0    0  0.10938448474E+01 -0.22571262208E+02  0.22495752509E+02  0.31886004063E+02  0.00000000000E+00 0. -1.
         11    1    3    3    0    0 -0.47580347035E+01  0.58651764010E+01  0.31048615111E+01  0.81657426924E+01  0.51100000000E-03 0. -1.
        -11    1    3    3    0    0  0.10472293044E+02  0.26748541756E+02 -0.26350036240E+02  0.38980479958E+02  0.51100000000E-03 0.  1.
         12    1    3    3    0    0 -0.68081031883E+01 -0.10042455949E+02  0.74942222003E+00  0.12155773286E+02  0.00000000000E+00 0. -1.
</event>
<event>
 7    1  0.1193961E-011  0.5930194E+02  0.7816164E-02  0.1266605E+00
        -11   -1    0    0    0    0  0.00000000000E+00  0.00000000000E+00  0.45593999997E+02  0.45594000000E+02  0.51100000000E-03 0.  1.
         11   -1    0    0    0    0 -0.00000000000E+00 -0.00000000000E+00 -0.45593999997E+02  0.45594000000E+02  0.51100000000E-03 0. -1.
    9900012    2    1    2    0    0 -0.85995375749E+01 -0.22975491030E+02  0.20368978730E+02  0.59301944598E+02  0.50000001041E+02 0.  0.
         12    1    1    2    0    0  0.85995375749E+01  0.22975491030E+02 -0.20368978730E+02  0.31886055402E+02  0.00000000000E+00 0. -1.
         11    1    3    3    0    0 -0.13337378949E+01 -0.57162128652E+01 -0.44174985016E+01  0.73463078866E+01  0.51100000000E-03 0.  1.
        -11    1    3    3    0    0 -0.23726861271E+02 -0.86988133412E+01  0.21357747238E+02  0.33087560603E+02  0.51100000000E-03 0. -1.
         12    1    3    3    0    0  0.16461061591E+02 -0.85604648234E+01  0.34287299933E+01  0.18868076109E+02  0.00000000000E+00 0. -1.
</event>
<event>
 7    1  0.1193961E-011  0.5930172E+02  0.7816164E-02  0.1266606E+00
        -11   -1    0    0    0    0  0.00000000000E+00  0.00000000000E+00  0.45593999997E+02  0.45594000000E+02  0.51100000000E-03 0.  1.
         11   -1    0    0    0    0 -0.00000000000E+00 -0.00000000000E+00 -0.45593999997E+02  0.45594000000E+02  0.51100000000E-03 0. -1.
    9900012    2    1    2    0    0 -0.83082259602E+01 -0.13424135734E+02  0.27703810446E+02  0.59301715299E+02  0.49999582852E+02 0.  0.
         12    1    1    2    0    0  0.83082259602E+01  0.13424135734E+02 -0.27703810446E+02  0.31886284701E+02  0.00000000000E+00 0. -1.
         11    1    3    3    0    0 -0.23754385809E+02 -0.49709428352E+01  0.18494228679E+01  0.24339299148E+02  0.51100000000E-03 0. -1.
        -11    1    3    3    0    0 -0.18095769958E+01  0.99206604336E+00 -0.45366708257E+00  0.21129548081E+01  0.51100000000E-03 0.  1.
        -12    1    3    3    0    0  0.17255736844E+02 -0.94452589418E+01  0.26308054660E+02  0.32849461343E+02  0.00000000000E+00 0.  1.
</event>
<event>
 7    1  0.1193961E-011  0.5930188E+02  0.7816164E-02  0.1266605E+00
        -11   -1    0    0    0    0  0.00000000000E+00  0.00000000000E+00  0.45593999997E+02  0.45594000000E+02  0.51100000000E-03 0.  1.
         11   -1    0    0    0    0 -0.00000000000E+00 -0.00000000000E+00 -0.45593999997E+02  0.45594000000E+02  0.51100000000E-03 0. -1.
    9900012    2    1    2    0    0 -0.92619154218E+00  0.10239897768E+02  0.30182961639E+02  0.59301882168E+02  0.49999887183E+02 0.  0.
         12    1    1    2    0    0  0.92619154218E+00 -0.10239897768E+02 -0.30182961639E+02  0.31886117832E+02  0.00000000000E+00 0. -1.
         11    1    3    3    0    0 -0.21937106335E+02  0.39448589050E+01  0.29473724677E+02  0.36952658804E+02  0.51100000000E-03 0.  1.
        -11    1    3    3    0    0  0.95069891235E+01  0.50241949618E+01 -0.10954920868E-01  0.10752929716E+02  0.51100000000E-03 0. -1.
        -12    1    3    3    0    0  0.11503925669E+02  0.12708439012E+01  0.72019188281E+00  0.11596293648E+02  0.00000000000E+00 0.  1.
</event>
<event>
 7    1  0.1193961E-011  0.5930194E+02  0.7816164E-02  0.1266605E+00
        -11   -1    0    0    0    0  0.00000000000E+00  0.00000000000E+00  0.45593999997E+02  0.45594000000E+02  0.51100000000E-03 0.  1.
         11   -1    0    0    0    0 -0.00000000000E+00 -0.00000000000E+00 -0.45593999997E+02  0.45594000000E+02  0.51100000000E-03 0. -1.
    9900012    2    1    2    0    0  0.43440271483E+00  0.18873181989E+02  0.25696992616E+02  0.59301935118E+02  0.49999983752E+02 0.  0.
         12    1    1    2    0    0 -0.43440271483E+00 -0.18873181989E+02 -0.25696992616E+02  0.31886064882E+02  0.00000000000E+00 0. -1.
         11    1    3    3    0    0 -0.82536804238E+01 -0.10106412204E+01  0.78224274549E+01  0.11416435861E+02  0.51100000000E-03 0. -1.
        -11    1    3    3    0    0 -0.13477562229E+02  0.15694206452E+02  0.30958535691E+01  0.20917387728E+02  0.51100000000E-03 0.  1.
        -12    1    3    3    0    0  0.22165645368E+02  0.41896167582E+01  0.14778711592E+02  0.26968111529E+02  0.00000000000E+00 0.  1.
</event>
<event>
 7    1  0.1193961E-011  0.5930197E+02  0.7816164E-02  0.1266605E+00
        -11   -1    0    0    0    0  0.00000000000E+00  0.00000000000E+00  0.45593999997E+02  0.45594000000E+02  0.51100000000E-03 0.  1.
         11   -1    0    0    0    0 -0.00000000000E+00 -0.00000000000E+00 -0.45593999997E+02  0.45594000000E+02  0.51100000000E-03 0. -1.
    9900012    2    1    2    0    0 -0.57687686877E+01  0.35703039959E+01  0.31155945233E+02  0.59301973497E+02  0.50000053745E+02 0.  0.
         12    1    1    2    0    0  0.57687686877E+01 -0.35703039959E+01 -0.31155945233E+02  0.31886026503E+02  0.00000000000E+00 0. -1.
         11    1    3    3    0    0  0.87595392710E+01 -0.40646756438E+01  0.11315571700E+02  0.14875929534E+02  0.51100000000E-03 0. -1.
        -11    1    3    3    0    0 -0.27163939799E+01  0.20763985672E+02  0.54328382358E+01  0.21634177331E+02  0.51100000000E-03 0.  1.
         12    1    3    3    0    0 -0.11811913979E+02 -0.13129006032E+02  0.14407535297E+02  0.22791866632E+02  0.00000000000E+00 0. -1.
</event>
<event>
 7    1  0.1193961E-011  0.5930195E+02  0.7816164E-02  0.1266605E+00
        -11   -1    0    0    0    0  0.00000000000E+00  0.00000000000E+00  0.45593999997E+02  0.45594000000E+02  0.51100000000E-03 0. -1.
         11   -1    0    0    0    0 -0.00000000000E+00 -0.00000000000E+00 -0.45593999997E+02  0.45594000000E+02  0.51100000000E-03 0.  1.
    9900012    2    1    2    0    0  0.63182003105E+00  0.29183016256E+02 -0.12832491737E+02  0.59301945391E+02  0.50000002486E+02 0.  0.
         12    1    1    2    0    0 -0.63182003105E+00 -0.29183016256E+02  0.12832491737E+02  0.31886054609E+02  0.00000000000E+00 0. -1.
         11    1    3    3    0    0 -0.89916056016E+01  0.16114160521E+02  0.74818275554E+01  0.19912129078E+02  0.51100000000E-03 0. -1.
        -11    1    3    3    0    0 -0.70932198594E+01  0.26619659384E+01  0.36196418066E+01  0.83965253350E+01  0.51100000000E-03 0.  1.
        -12    1    3    3    0    0  0.16716645492E+02  0.10406889797E+02 -0.23933961100E+02  0.30993290978E+02  0.00000000000E+00 0.  1.
</event>
<event>
 7    1  0.1193961E-011  0.5930209E+02  0.7816164E-02  0.1266604E+00
        -11   -1    0    0    0    0  0.00000000000E+00  0.00000000000E+00  0.45593999997E+02  0.45594000000E+02  0.51100000000E-03 0.  1.
         11   -1    0    0    0    0 -0.00000000000E+00 -0.00000000000E+00 -0.45593999997E+02  0.45594000000E+02  0.51100000000E-03 0. -1.
    9900012    2    1    2    0    0 -0.13130680678E+02 -0.27765022126E+02  0.85673957720E+01  0.59302086197E+02  0.50000259282E+02 0.  0.
         12    1    1    2    0    0  0.13130680678E+02  0.27765022126E+02 -0.85673957720E+01  0.31885913803E+02  0.00000000000E+00 0. -1.
         11    1    3    3    0    0 -0.11104679355E+02 -0.16272819688E+02  0.22594849275E+01  0.19829872329E+02  0.51100000000E-03 0. -1.
        -11    1    3    3    0    0  0.25597987918E+01 -0.59978944178E+01  0.21613623992E+02  0.22576006060E+02  0.51100000000E-03 0.  1.
         12    1    3    3    0    0 -0.45858001150E+01 -0.54943080201E+01 -0.15305713148E+02  0.16896207807E+02  0.00000000000E+00 0. -1.
</event>
<event>
 7    1  0.1193961E-011  0.5930182E+02  0.7816164E-02  0.1266605E+00
        -11   -1    0    0    0    0  0.00000000000E+00  0.00000000000E+00  0.45593999997E+02  0.45594000000E+02  0.51100000000E-03 0. -1.
         11   -1    0    0    0    0 -0.00000000000E+00 -0.00000000000E+00 -0.45593999997E+02  0.45594000000E+02  0.51100000000E-03 0.  1.
    9900012    2    1    2    0    0  0.11741891966E+02  0.29599983068E+02 -0.16423067566E+01  0.59301824374E+02  0.49999781779E+02 0.  0.
         12    1    1    2    0    0 -0.11741891966E+02 -0.29599983068E+02  0.16423067566E+01  0.31886175626E+02  0.00000000000E+00 0. -1.
         11    1    3    3    0    0 -0.94045518247E+01  0.21187727407E+01  0.67670967283E+00  0.96639913696E+01  0.51100000000E-03 0.  1.
        -11    1    3    3    0    0  0.23007852605E+02  0.33750021101E+02  0.33497498201E+01  0.40983484844E+02  0.51100000000E-03 0. -1.
         12    1    3    3    0    0 -0.18614088139E+01 -0.62688107736E+01 -0.56687662495E+01  0.86543481603E+01  0.00000000000E+00 0. -1.
</event>
<event>
 7    1  0.1193961E-011  0.5930192E+02  0.7816164E-02  0.1266605E+00
        -11   -1    0    0    0    0  0.00000000000E+00  0.00000000000E+00  0.45593999997E+02  0.45594000000E+02  0.51100000000E-03 0. -1.
         11   -1    0    0    0    0 -0.00000000000E+00 -0.00000000000E+00 -0.45593999997E+02  0.45594000000E+02  0.51100000000E-03 0.  1.
    9900012    2    1    2    0    0  0.22902621191E+02 -0.21687935351E+02  0.46717614311E+01  0.59301922285E+02  0.49999960346E+02 0.  0.
         12    1    1    2    0    0 -0.22902621191E+02  0.21687935351E+02 -0.46717614311E+01  0.31886077715E+02  0.00000000000E+00 0. -1.
         11    1    3    3    0    0  0.61109154314E+00 -0.10001951946E+02  0.12517679845E+01  0.10098484983E+02  0.51100000000E-03 0. -1.
        -11    1    3    3    0    0  0.37942727362E+01 -0.21649446318E+02  0.13610737747E+02  0.25852412146E+02  0.51100000000E-03 0.  1.
         12    1    3    3    0    0  0.18497256911E+02  0.99634629132E+01 -0.10190744300E+02  0.23351025156E+02  0.00000000000E+00 0. -1.
</event>
<event>
 7    1  0.1193961E-011  0.5930189E+02  0.7816164E-02  0.1266605E+00
        -11   -1    0    0    0    0  0.00000000000E+00  0.00000000000E+00  0.45593999997E+02  0.45594000000E+02  0.51100000000E-03 0.  1.
         11   -1    0    0    0    0 -0.00000000000E+00 -0.00000000000E+00 -0.45593999997E+02  0.45594000000E+02  0.51100000000E-03 0. -1.
    9900012    2    1    2    0    0  0.16154013507E+02 -0.25649443871E+02  0.98933108665E+01  0.59301894512E+02  0.49999909695E+02 0.  0.
         12    1    1    2    0    0 -0.16154013507E+02  0.25649443871E+02 -0.98933108665E+01  0.31886105488E+02  0.00000000000E+00 0. -1.
         11    1    3    3    0    0 -0.83627922608E+01 -0.14061107894E+02  0.47920025039E+01  0.17047414404E+02  0.51100000000E-03 0. -1.
        -11    1    3    3    0    0  0.16650108734E+02 -0.15003044472E+02  0.16613965736E+02  0.27898769185E+02  0.51100000000E-03 0.  1.
        -12    1    3    3    0    0  0.78666970334E+01  0.34147084945E+01 -0.11512657374E+02  0.14355710923E+02  0.00000000000E+00 0.  1.
</event>
<event>
 7    1  0.1193961E-011  0.5930194E+02  0.7816164E-02  0.1266605E+00
        -11   -1    0    0    0    0  0.00000000000E+00  0.00000000000E+00  0.45593999997E+02  0.45594000000E+02  0.51100000000E-03 0. -1.
         11   -1    0    0    0    0 -0.00000000000E+00 -0.00000000000E+00 -0.45593999997E+02  0.45594000000E+02  0.51100000000E-03 0.  1.
    9900012    2    1    2    0    0 -0.22614067130E+02 -0.22448914935E+02  0.11708549456E+01  0.59301941680E+02  0.49999995718E+02 0.  0.
         12    1    1    2    0    0  0.22614067130E+02  0.22448914935E+02 -0.11708549456E+01  0.31886058320E+02  0.00000000000E+00 0. -1.
         11    1    3    3    0    0  0.15245381149E+01 -0.61073697910E+01  0.91591397044E+01  0.11113686275E+02  0.51100000000E-03 0. -1.
        -11    1    3    3    0    0 -0.33629011352E+01 -0.24149613714E+02 -0.89488887116E+01  0.25972977419E+02  0.51100000000E-03 0.  1.
        -12    1    3    3    0    0 -0.20775704110E+02  0.78080685704E+01  0.96060395279E+00  0.22215277986E+02  0.00000000000E+00 0.  1.
</event>
<event>
 7    1  0.1193961E-011  0.5930196E+02  0.7816164E-02  0.1266605E+00
        -11   -1    0    0    0    0  0.00000000000E+00  0.00000000000E+00  0.45593999997E+02  0.45594000000E+02  0.51100000000E-03 0. -1.
         11   -1    0    0    0    0 -0.00000000000E+00 -0.00000000000E+00 -0.45593999997E+02  0.45594000000E+02  0.51100000000E-03 0.  1.
    9900012    2    1    2    0    0 -0.23732059236E+02 -0.13146237424E+01 -0.21255127973E+02  0.59301963302E+02  0.50000035152E+02 0.  0.
         12    1    1    2    0    0  0.23732059236E+02  0.13146237424E+01  0.21255127973E+02  0.31886036698E+02  0.00000000000E+00 0. -1.
         11    1    3    3    0    0 -0.12086621052E+02 -0.60624257466E+01  0.75309882706E+01  0.15477570836E+02  0.51100000000E-03 0. -1.
        -11    1    3    3    0    0  0.41302335747E+00  0.10789613325E+02  0.12786007919E+01  0.10872955636E+02  0.51100000000E-03 0.  1.
        -12    1    3    3    0    0 -0.12058461541E+02 -0.60418113213E+01 -0.30064717036E+02  0.32951436831E+02  0.00000000000E+00 0.  1.
</event>
<event>
 7    1  0.1193961E-011  0.5930192E+02  0.7816164E-02  0.1266605E+00
        -11   -1    0    0    0    0  0.00000000000E+00  0.00000000000E+00  0.45593999997E+02  0.45594000000E+02  0.51100000000E-03 0.  1.
         11   -1    0    0    0    0 -0.00000000000E+00 -0.00000000000E+00 -0.45593999997E+02  0.45594000000E+02  0.51100000000E-03 0. -1.
    9900012    2    1    2    0    0  0.28072687256E+01  0.19067768172E+02  0.25401995104E+02  0.59301923164E+02  0.49999961949E+02 0.  0.
         12    1    1    2    0    0 -0.28072687256E+01 -0.19067768172E+02 -0.25401995104E+02  0.31886076836E+02  0.00000000000E+00 0. -1.
         11    1    3    3    0    0 -0.32816869672E+01  0.78841853339E+01 -0.81891434231E+01  0.11831818034E+02  0.51100000000E-03 0. -1.
        -11    1    3    3    0    0 -0.13855225816E+01  0.11143645570E+02 -0.17342642857E+01  0.11362578153E+02  0.51100000000E-03 0.  1.
         12    1    3    3    0    0  0.74744782744E+01  0.39937268254E-01  0.35325402812E+02  0.36107526976E+02  0.00000000000E+00 0. -1.
</event>
<event>
 7    1  0.1193961E-011  0.5930194E+02  0.7816164E-02  0.1266605E+00
        -11   -1    0    0    0    0  0.00000000000E+00  0.00000000000E+00  0.45593999997E+02  0.45594000000E+02  0.51100000000E-03 0.  1.
         11   -1    0    0    0    0 -0.00000000000E+00 -0.00000000000E+00 -0.45593999997E+02  0.45594000000E+02  0.51100000000E-03 0. -1.
    9900012    2    1    2    0    0  0.13779243662E+02 -0.70019858373E+01  0.27889521576E+02  0.59301940737E+02  0.49999993999E+02 0.  0.
         12    1    1    2    0    0 -0.13779243662E+02  0.70019858373E+01 -0.27889521576E+02  0.31886059263E+02  0.00000000000E+00 0. -1.
         11    1    3    3    0    0 -0.61930844922E+01  0.43374324680E+01 -0.45856538837E+01  0.88428410448E+01  0.51100000000E-03 0. -1.
        -11    1    3    3    0    0  0.80549649931E+01 -0.81087623842E+01 -0.38753870856E+01  0.12068683183E+02  0.51100000000E-03 0.  1.
         12    1    3    3    0    0  0.11917363161E+02 -0.32306559210E+01  0.36350562546E+02  0.38390416509E+02  0.00000000000E+00 0. -1.
</event>
<event>
 7    1  0.1296427E-011  0.5930195E+02  0.7816164E-02  0.1266605E+00
        -11   -1    0    0    0    0  0.00000000000E+00  0.00000000000E+00  0.45593999997E+02  0.45594000000E+02  0.51100000000E-03 0. -1.
         11   -1    0    0    0    0 -0.00000000000E+00 -0.00000000000E+00 -0.45593999997E+02  0.45594000000E+02  0.51100000000E-03 0.  1.
    9900012    2    1    2    0    0  0.19400960254E+02  0.14137578022E+02 -0.20986939723E+02  0.59301952737E+02  0.50000015884E+02 0.  0.
         12    1    1    2    0    0 -0.19400960254E+02 -0.14137578022E+02  0.20986939723E+02  0.31886047263E+02  0.00000000000E+00 0. -1.
         11    1    3    3    0    0 -0.10005838927E+01  0.95640708820E+01  0.71827859571E+01  0.12002709458E+02  0.51100000000E-03 0. -1.
        -11    1    3    3    0    0  0.20683363164E+02  0.15196642130E+02 -0.12980561064E+02  0.28761683010E+02  0.51100000000E-03 0.  1.
        -12    1    3    3    0    0 -0.28181901687E+00 -0.10623134991E+02 -0.15189164617E+02  0.18537560269E+02  0.00000000000E+00 0.  1.
</event>
<event>
 7    1  0.1193961E-011  0.5930192E+02  0.7816164E-02  0.1266605E+00
        -11   -1    0    0    0    0  0.00000000000E+00  0.00000000000E+00  0.45593999997E+02  0.45594000000E+02  0.51100000000E-03 0.  1.
         11   -1    0    0    0    0 -0.00000000000E+00 -0.00000000000E+00 -0.45593999997E+02  0.45594000000E+02  0.51100000000E-03 0. -1.
    9900012    2    1    2    0    0 -0.28711413827E+02 -0.55715525529E+01 -0.12701762717E+02  0.59301917489E+02  0.49999951600E+02 0.  0.
         12    1    1    2    0    0  0.28711413827E+02  0.55715525529E+01  0.12701762717E+02  0.31886082511E+02  0.00000000000E+00 0. -1.
         11    1    3    3    0    0 -0.38600414008E+01 -0.55335318444E+01 -0.56978229474E+01  0.88309161976E+01  0.51100000000E-03 0. -1.
        -11    1    3    3    0    0 -0.16962973039E+02 -0.21342811786E+02 -0.40220291542E+01  0.27557844401E+02  0.51100000000E-03 0.  1.
        -12    1    3    3    0    0 -0.78883993870E+01  0.21304791078E+02 -0.29819106157E+01  0.22913156890E+02  0.00000000000E+00 0.  1.
</event>
<event>
 7    1  0.1193961E-011  0.5930194E+02  0.7816164E-02  0.1266605E+00
        -11   -1    0    0    0    0  0.00000000000E+00  0.00000000000E+00  0.45593999997E+02  0.45594000000E+02  0.51100000000E-03 0.  1.
         11   -1    0    0    0    0 -0.00000000000E+00 -0.00000000000E+00 -0.45593999997E+02  0.45594000000E+02  0.51100000000E-03 0. -1.
    9900012    2    1    2    0    0  0.46085702284E+01 -0.31171459849E+02  0.48807988101E+01  0.59301936811E+02  0.49999986838E+02 0.  0.
         12    1    1    2    0    0 -0.46085702284E+01  0.31171459849E+02 -0.48807988101E+01  0.31886063189E+02  0.00000000000E+00 0. -1.
         11    1    3    3    0    0 -0.13303588547E+02 -0.26715890262E+02  0.25544132595E+01  0.29954119718E+02  0.51100000000E-03 0. -1.
        -11    1    3    3    0    0  0.53959398820E+01 -0.11043124321E+02  0.73703424237E+01  0.14331388966E+02  0.51100000000E-03 0.  1.
         12    1    3    3    0    0  0.12516218893E+02  0.65875547336E+01 -0.50439568731E+01  0.15016428127E+02  0.00000000000E+00 0. -1.
</event>
<event>
 7    1  0.1193961E-011  0.5930186E+02  0.7816164E-02  0.1266605E+00
        -11   -1    0    0    0    0  0.00000000000E+00  0.00000000000E+00  0.45593999997E+02  0.45594000000E+02  0.51100000000E-03 0. -1.
         11   -1    0    0    0    0 -0.00000000000E+00 -0.00000000000E+00 -0.45593999997E+02  0.45594000000E+02  0.51100000000E-03 0.  1.
    9900012    2    1    2    0    0 -0.21947687731E+02 -0.18694659728E+02 -0.13621106727E+02  0.59301861200E+02  0.49999848942E+02 0.  0.
         12    1    1    2    0    0  0.21947687731E+02  0.18694659728E+02  0.13621106727E+02  0.31886138800E+02  0.00000000000E+00 0. -1.
         11    1    3    3    0    0 -0.12557806344E+02 -0.43157415769E+00  0.12347067545E+02  0.17616322932E+02  0.51100000000E-03 0. -1.
        -11    1    3    3    0    0 -0.36678410415E+01  0.58062859554E+01 -0.17999405321E+01  0.70997042672E+01  0.51100000000E-03 0.  1.
        -12    1    3    3    0    0 -0.57220403454E+01 -0.24069371526E+02 -0.24168233740E+02  0.34585834001E+02  0.00000000000E+00 0.  1.
</event>
<event>
 7    1  0.1193961E-011  0.5930196E+02  0.7816164E-02  0.1266605E+00
        -11   -1    0    0    0    0  0.00000000000E+00  0.00000000000E+00  0.45593999997E+02  0.45594000000E+02  0.51100000000E-03 0.  1.
         11   -1    0    0    0    0 -0.00000000000E+00 -0.00000000000E+00 -0.45593999997E+02  0.45594000000E+02  0.51100000000E-03 0. -1.
    9900012    2    1    2    0    0  0.40528900821E+01 -0.31447875553E+02  0.33652258337E+01  0.59301960112E+02  0.50000029334E+02 0.  0.
         12    1    1    2    0    0 -0.40528900821E+01  0.31447875553E+02 -0.33652258337E+01  0.31886039888E+02  0.00000000000E+00 0. -1.
         11    1    3    3    0    0 -0.10939520888E+02 -0.29873037354E+01 -0.11191089527E+01  0.11395152740E+02  0.51100000000E-03 0. -1.
        -11    1    3    3    0    0 -0.17739187862E+00 -0.21348845209E+02  0.16755515274E+02  0.27139490637E+02  0.51100000000E-03 0.  1.
         12    1    3    3    0    0  0.15169802849E+02 -0.71117266083E+01 -0.12271180488E+02  0.20767316735E+02  0.00000000000E+00 0. -1.
</event>
<event>
 7    1  0.1193961E-011  0.5930194E+02  0.7816164E-02  0.1266605E+00
        -11   -1    0    0    0    0  0.00000000000E+00  0.00000000000E+00  0.45593999997E+02  0.45594000000E+02  0.51100000000E-03 0.  1.
         11   -1    0    0    0    0 -0.00000000000E+00 -0.00000000000E+00 -0.45593999997E+02  0.45594000000E+02  0.51100000000E-03 0. -1.
    9900012    2    1    2    0    0 -0.29358258323E+01 -0.21548182967E+02  0.23319032185E+02  0.59301944670E+02  0.50000001171E+02 0.  0.
         12    1    1    2    0    0  0.29358258323E+01  0.21548182967E+02 -0.23319032185E+02  0.31886055330E+02  0.00000000000E+00 0. -1.
         11    1    3    3    0    0  0.18018068635E+01  0.11001673909E+01 -0.87267324057E+01  0.89784595006E+01  0.51100000000E-03 0. -1.
        -11    1    3    3    0    0  0.42184460131E+01 -0.69474263149E+01 -0.46882560535E+01  0.93830572976E+01  0.51100000000E-03 0.  1.
        -12    1    3    3    0    0 -0.89560787089E+01 -0.15700924043E+02  0.36734020644E+02  0.40940427872E+02  0.00000000000E+00 0.  1.
</event>
<event>
 7    1  0.1193961E-011  0.5930195E+02  0.7816164E-02  0.1266605E+00
        -11   -1    0    0    0    0  0.00000000000E+00  0.00000000000E+00  0.45593999997E+02  0.45594000000E+02  0.51100000000E-03 0.  1.
         11   -1    0    0    0    0 -0.00000000000E+00 -0.00000000000E+00 -0.45593999997E+02  0.45594000000E+02  0.51100000000E-03 0. -1.
    9900012    2    1    2    0    0 -0.44694710195E+00  0.47435290355E+01  0.31528067756E+02  0.59301954684E+02  0.50000019435E+02 0.  0.
         12    1    1    2    0    0  0.44694710195E+00 -0.47435290355E+01 -0.31528067756E+02  0.31886045316E+02  0.00000000000E+00 0. -1.
         11    1    3    3    0    0 -0.65605497965E+01 -0.46106289694E+01 -0.11039291679E+01  0.80942802642E+01  0.51100000000E-03 0. -1.
        -11    1    3    3    0    0 -0.45672263119E+01  0.15744275246E+02  0.11901881231E+00  0.16393777018E+02  0.51100000000E-03 0.  1.
        -12    1    3    3    0    0  0.10680829006E+02 -0.63901172406E+01  0.32512978112E+02  0.34813897402E+02  0.00000000000E+00 0.  1.
</event>
<event>
 7    1  0.1193961E-011  0.5930213E+02  0.7816164E-02  0.1266604E+00
        -11   -1    0    0    0    0  0.00000000000E+00  0.00000000000E+00  0.45593999997E+02  0.45594000000E+02  0.51100000000E-03 0. -1.
         11   -1    0    0    0    0 -0.00000000000E+00 -0.00000000000E+00 -0.45593999997E+02  0.45594000000E+02  0.51100000000E-03 0.  1.
    9900012    2    1    2    0    0 -0.20379545909E+02 -0.10664429302E+02  0.22082857637E+02  0.59302132516E+02  0.50000343755E+02 0.  0.
         12    1    1    2    0    0  0.20379545909E+02  0.10664429302E+02 -0.22082857637E+02  0.31885867484E+02  0.00000000000E+00 0. -1.
         11    1    3    3    0    0 -0.10600870732E+02 -0.14338572101E+02  0.16677325648E+02  0.24415288268E+02  0.51100000000E-03 0. -1.
        -11    1    3    3    0    0  0.14251494965E+01 -0.13532356178E+02 -0.17875613711E+00  0.13608367604E+02  0.51100000000E-03 0.  1.
         12    1    3    3    0    0 -0.11203824673E+02  0.17206498978E+02  0.55842881262E+01  0.21278476643E+02  0.00000000000E+00 0. -1.
</event>
<event>
 7    1  0.1193961E-011  0.5930198E+02  0.7816164E-02  0.1266605E+00
        -11   -1    0    0    0    0  0.00000000000E+00  0.00000000000E+00  0.45593999997E+02  0.45594000000E+02  0.51100000000E-03 0.  1.
         11   -1    0    0    0    0 -0.00000000000E+00 -0.00000000000E+00 -0.45593999997E+02  0.45594000000E+02  0.51100000000E-03 0. -1.
    9900012    2    1    2    0    0 -0.25338108258E+02 -0.63200395653E+01  0.18296332203E+02  0.59301977948E+02  0.50000061862E+02 0.  0.
         12    1    1    2    0    0  0.25338108258E+02  0.63200395653E+01 -0.18296332203E+02  0.31886022052E+02  0.00000000000E+00 0. -1.
         11    1    3    3    0    0 -0.41627147762E+01 -0.58565579722E+01  0.14163258258E+02  0.15881604149E+02  0.51100000000E-03 0.  1.
        -11    1    3    3    0    0  0.63213417376E+01 -0.25277136288E+01 -0.10261992314E+02  0.12314917136E+02  0.51100000000E-03 0. -1.
         12    1    3    3    0    0 -0.27496735220E+02  0.20642320357E+01  0.14395066258E+02  0.31105456663E+02  0.00000000000E+00 0. -1.
</event>
<event>
 7    1  0.1193961E-011  0.5930194E+02  0.7816164E-02  0.1266605E+00
        -11   -1    0    0    0    0  0.00000000000E+00  0.00000000000E+00  0.45593999997E+02  0.45594000000E+02  0.51100000000E-03 0. -1.
         11   -1    0    0    0    0 -0.00000000000E+00 -0.00000000000E+00 -0.45593999997E+02  0.45594000000E+02  0.51100000000E-03 0.  1.
    9900012    2    1    2    0    0  0.85441000515E+01 -0.20289961621E+01 -0.30652931433E+02  0.59301942286E+02  0.49999996823E+02 0.  0.
         12    1    1    2    0    0 -0.85441000515E+01  0.20289961621E+01  0.30652931433E+02  0.31886057714E+02  0.00000000000E+00 0. -1.
         11    1    3    3    0    0  0.14038556862E+02  0.15827303505E+02 -0.13373241781E+02  0.25028547920E+02  0.51100000000E-03 0. -1.
        -11    1    3    3    0    0  0.44799817906E+01 -0.89948664570E+01 -0.18315507007E+02  0.20891042497E+02  0.51100000000E-03 0.  1.
        -12    1    3    3    0    0 -0.99744386014E+01 -0.88614332099E+01  0.10358173543E+01  0.13382351869E+02  0.00000000000E+00 0.  1.
</event>
<event>
 7    1  0.1193961E-011  0.5930194E+02  0.7816164E-02  0.1266605E+00
        -11   -1    0    0    0    0  0.00000000000E+00  0.00000000000E+00  0.45593999997E+02  0.45594000000E+02  0.51100000000E-03 0. -1.
         11   -1    0    0    0    0 -0.00000000000E+00 -0.00000000000E+00 -0.45593999997E+02  0.45594000000E+02  0.51100000000E-03 0.  1.
    9900012    2    1    2    0    0  0.31489228400E+02 -0.48111430096E+01 -0.14149568003E+01  0.59301941840E+02  0.49999996009E+02 0.  0.
         12    1    1    2    0    0 -0.31489228400E+02  0.48111430096E+01  0.14149568003E+01  0.31886058160E+02  0.00000000000E+00 0. -1.
         11    1    3    3    0    0  0.39896081732E+01 -0.19679413645E+01  0.42421065782E+01  0.61469695844E+01  0.51100000000E-03 0. -1.
        -11    1    3    3    0    0  0.96356005062E+01 -0.99075175237E+01  0.17991687961E+02  0.22687100664E+02  0.51100000000E-03 0.  1.
        -12    1    3    3    0    0  0.17864019720E+02  0.70643158786E+01 -0.23648751339E+02  0.30467871591E+02  0.00000000000E+00 0.  1.
</event>
<event>
 7    1  0.1193961E-011  0.5930195E+02  0.7816164E-02  0.1266605E+00
        -11   -1    0    0    0    0  0.00000000000E+00  0.00000000000E+00  0.45593999997E+02  0.45594000000E+02  0.51100000000E-03 0. -1.
         11   -1    0    0    0    0 -0.00000000000E+00 -0.00000000000E+00 -0.45593999997E+02  0.45594000000E+02  0.51100000000E-03 0.  1.
    9900012    2    1    2    0    0  0.18830442234E+02 -0.22580929496E+02 -0.12338395249E+02  0.59301954009E+02  0.50000018203E+02 0.  0.
         12    1    1    2    0    0 -0.18830442234E+02  0.22580929496E+02  0.12338395249E+02  0.31886045991E+02  0.00000000000E+00 0. -1.
         11    1    3    3    0    0  0.11339272039E+02 -0.75035028642E+00 -0.13112393799E+01  0.11439469607E+02  0.51100000000E-03 0. -1.
        -11    1    3    3    0    0  0.18093300802E+02  0.55337578987E+00 -0.14044966315E+02  0.22911456473E+02  0.51100000000E-03 0.  1.
        -12    1    3    3    0    0 -0.10602130607E+02 -0.22383954999E+02  0.30178104455E+01  0.24951027929E+02  0.00000000000E+00 0.  1.
</event>
<event>
 7    1  0.1193961E-011  0.5930194E+02  0.7816164E-02  0.1266605E+00
        -11   -1    0    0    0    0  0.00000000000E+00  0.00000000000E+00  0.45593999997E+02  0.45594000000E+02  0.51100000000E-03 0. -1.
         11   -1    0    0    0    0 -0.00000000000E+00 -0.00000000000E+00 -0.45593999997E+02  0.45594000000E+02  0.51100000000E-03 0.  1.
    9900012    2    1    2    0    0 -0.30392459009E+02 -0.85849325526E+01 -0.43952439100E+01  0.59301940341E+02  0.49999993277E+02 0.  0.
         12    1    1    2    0    0  0.30392459009E+02  0.85849325526E+01  0.43952439100E+01  0.31886059659E+02  0.00000000000E+00 0. -1.
         11    1    3    3    0    0  0.71917567605E+01 -0.51540700756E+01 -0.70942696897E+01  0.11340831819E+02  0.51100000000E-03 0. -1.
        -11    1    3    3    0    0 -0.14122246411E+02 -0.89645531343E+01 -0.11204569199E+02  0.20133142521E+02  0.51100000000E-03 0.  1.
         12    1    3    3    0    0 -0.23461969358E+02  0.55336906573E+01  0.13903594978E+02  0.27827966002E+02  0.00000000000E+00 0. -1.
</event>
<event>
 7    1  0.1193961E-011  0.5930229E+02  0.7816164E-02  0.1266604E+00
        -11   -1    0    0    0    0  0.00000000000E+00  0.00000000000E+00  0.45593999997E+02  0.45594000000E+02  0.51100000000E-03 0. -1.
         11   -1    0    0    0    0 -0.00000000000E+00 -0.00000000000E+00 -0.45593999997E+02  0.45594000000E+02  0.51100000000E-03 0.  1.
    9900012    2    1    2    0    0 -0.27026299749E+02 -0.13517839258E+02  0.10175737568E+02  0.59302290170E+02  0.50000631277E+02 0.  0.
         12    1    1    2    0    0  0.27026299749E+02  0.13517839258E+02 -0.10175737568E+02  0.31885709830E+02  0.00000000000E+00 0. -1.
         11    1    3    3    0    0 -0.99290612024E+01  0.25811170896E+01 -0.40558666041E+01  0.11031703221E+02  0.51100000000E-03 0. -1.
        -11    1    3    3    0    0 -0.12469640552E+02 -0.68489210425E+01 -0.12918646716E+02  0.19216947941E+02  0.51100000000E-03 0.  1.
        -12    1    3    3    0    0 -0.46275979940E+01 -0.92500353047E+01  0.27150250887E+02  0.29053639008E+02  0.00000000000E+00 0.  1.
</event>
<event>
 7    1  0.1193961E-011  0.5930193E+02  0.7816164E-02  0.1266605E+00
        -11   -1    0    0    0    0  0.00000000000E+00  0.00000000000E+00  0.45593999997E+02  0.45594000000E+02  0.51100000000E-03 0.  1.
         11   -1    0    0    0    0 -0.00000000000E+00 -0.00000000000E+00 -0.45593999997E+02  0.45594000000E+02  0.51100000000E-03 0. -1.
    9900012    2    1    2    0    0 -0.72901616505E+01  0.18509943063E+02  0.24919005641E+02  0.59301932647E+02  0.49999979245E+02 0.  0.
         12    1    1    2    0    0  0.72901616505E+01 -0.18509943063E+02 -0.24919005641E+02  0.31886067353E+02  0.00000000000E+00 0. -1.
         11    1    3    3    0    0  0.40117535205E+01  0.49839668638E+01  0.13820051393E+02  0.15229179649E+02  0.51100000000E-03 0. -1.
        -11    1    3    3    0    0  0.12349800135E+02  0.88133279517E+01  0.12864035274E+02  0.19891599150E+02  0.51100000000E-03 0.  1.
         12    1    3    3    0    0 -0.23651715306E+02  0.47126482479E+01 -0.17650810265E+01  0.24181153848E+02  0.00000000000E+00 0. -1.
</event>
<event>
 7    1  0.1193961E-011  0.5930194E+02  0.7816164E-02  0.1266605E+00
        -11   -1    0    0    0    0  0.00000000000E+00  0.00000000000E+00  0.45593999997E+02  0.45594000000E+02  0.51100000000E-03 0.  1.
         11   -1    0    0    0    0 -0.00000000000E+00 -0.00000000000E+00 -0.45593999997E+02  0.45594000000E+02  0.51100000000E-03 0. -1.
    9900012    2    1    2    0    0  0.25982521921E+02 -0.16439752028E+02  0.84477140400E+01  0.59301940905E+02  0.49999994305E+02 0.  0.
         12    1    1    2    0    0 -0.25982521921E+02  0.16439752028E+02 -0.84477140400E+01  0.31886059095E+02  0.00000000000E+00 0. -1.
         11    1    3    3    0    0  0.32373530384E+02 -0.18805099859E+02  0.39771195304E+01  0.37649631210E+02  0.51100000000E-03 0. -1.
        -11    1    3    3    0    0  0.34769701442E+01  0.12131958958E+01 -0.61128085546E+01  0.71363572186E+01  0.51100000000E-03 0.  1.
        -12    1    3    3    0    0 -0.98679786074E+01  0.11521519357E+01  0.10583403064E+02  0.14515952476E+02  0.00000000000E+00 0.  1.
</event>
<event>
 7    1  0.1193961E-011  0.5930195E+02  0.7816164E-02  0.1266605E+00
        -11   -1    0    0    0    0  0.00000000000E+00  0.00000000000E+00  0.45593999997E+02  0.45594000000E+02  0.51100000000E-03 0. -1.
         11   -1    0    0    0    0 -0.00000000000E+00 -0.00000000000E+00 -0.45593999997E+02  0.45594000000E+02  0.51100000000E-03 0.  1.
    9900012    2    1    2    0    0 -0.44217913540E+01 -0.29865824809E+02 -0.10256740624E+02  0.59301945705E+02  0.50000003059E+02 0.  0.
         12    1    1    2    0    0  0.44217913540E+01  0.29865824809E+02  0.10256740624E+02  0.31886054295E+02  0.00000000000E+00 0. -1.
         11    1    3    3    0    0 -0.13709942087E+02 -0.85112959857E+01 -0.16655808077E+02  0.23190959755E+02  0.51100000000E-03 0. -1.
        -11    1    3    3    0    0  0.24648727304E-01  0.63378799388E+01  0.10461522021E+01  0.64236877546E+01  0.51100000000E-03 0.  1.
         12    1    3    3    0    0  0.92635020062E+01 -0.27692408762E+02  0.53529152512E+01  0.29687298195E+02  0.00000000000E+00 0. -1.
</event>
<event>
 7    1  0.1193961E-011  0.5930189E+02  0.7816164E-02  0.1266605E+00
        -11   -1    0    0    0    0  0.00000000000E+00  0.00000000000E+00  0.45593999997E+02  0.45594000000E+02  0.51100000000E-03 0.  1.
         11   -1    0    0    0    0 -0.00000000000E+00 -0.00000000000E+00 -0.45593999997E+02  0.45594000000E+02  0.51100000000E-03 0. -1.
    9900012    2    1    2    0    0  0.13591385225E+02  0.20827818581E+01  0.28769082126E+02  0.59301893010E+02  0.49999906956E+02 0.  0.
         12    1    1    2    0    0 -0.13591385225E+02 -0.20827818581E+01 -0.28769082126E+02  0.31886106990E+02  0.00000000000E+00 0. -1.
         11    1    3    3    0    0 -0.21601489253E+01 -0.33911482639E+00 -0.81118769106E+01  0.84014159235E+01  0.51100000000E-03 0. -1.
        -11    1    3    3    0    0  0.76535420591E+01  0.15923497171E+02  0.11657483607E+02  0.21166752054E+02  0.51100000000E-03 0.  1.
        -12    1    3    3    0    0  0.80979920907E+01 -0.13501600486E+02  0.25223475429E+02  0.29733725033E+02  0.00000000000E+00 0.  1.
</event>
<event>
 7    1  0.1193961E-011  0.5930194E+02  0.7816164E-02  0.1266605E+00
        -11   -1    0    0    0    0  0.00000000000E+00  0.00000000000E+00  0.45593999997E+02  0.45594000000E+02  0.51100000000E-03 0. -1.
         11   -1    0    0    0    0 -0.00000000000E+00 -0.00000000000E+00 -0.45593999997E+02  0.45594000000E+02  0.51100000000E-03 0.  1.
    9900012    2    1    2    0    0  0.41916480810E+01 -0.18783695763E+02 -0.25422895238E+02  0.59301941253E+02  0.49999994939E+02 0.  0.
         12    1    1    2    0    0 -0.41916480810E+01  0.18783695763E+02  0.25422895238E+02  0.31886058747E+02  0.00000000000E+00 0. -1.
         11    1    3    3    0    0  0.70177498559E+01  0.79177508264E+01 -0.16215040513E+02  0.19361485746E+02  0.51100000000E-03 0. -1.
        -11    1    3    3    0    0  0.89894446187E+01  0.11912835204E+00 -0.51282192238E+01  0.10350021197E+02  0.51100000000E-03 0.  1.
        -12    1    3    3    0    0 -0.11815546394E+02 -0.26820574942E+02 -0.40796355013E+01  0.29590434309E+02  0.00000000000E+00 0.  1.
</event>
<event>
 7    1  0.1193961E-011  0.5930205E+02  0.7816164E-02  0.1266604E+00
        -11   -1    0    0    0    0  0.00000000000E+00  0.00000000000E+00  0.45593999997E+02  0.45594000000E+02  0.51100000000E-03 0.  1.
         11   -1    0    0    0    0 -0.00000000000E+00 -0.00000000000E+00 -0.45593999997E+02  0.45594000000E+02  0.51100000000E-03 0. -1.
    9900012    2    1    2    0    0  0.14266906178E+02 -0.61057142276E+00  0.28509581803E+02  0.59302052249E+02  0.50000197370E+02 0.  0.
         12    1    1    2    0    0 -0.14266906178E+02  0.61057142276E+00 -0.28509581803E+02  0.31885947751E+02  0.00000000000E+00 0. -1.
         11    1    3    3    0    0 -0.14655391584E+02  0.67988947223E+01  0.14322818818E+02  0.21590475008E+02  0.51100000000E-03 0. -1.
        -11    1    3    3    0    0 -0.12229078775E+01  0.28400282996E+01  0.15052539528E+01  0.34390484357E+01  0.51100000000E-03 0.  1.
        -12    1    3    3    0    0  0.30145205639E+02 -0.10249494445E+02  0.12681509033E+02  0.34272528806E+02  0.00000000000E+00 0.  1.
</event>
<event>
 7    1  0.1193961E-011  0.5930199E+02  0.7816164E-02  0.1266605E+00
        -11   -1    0    0    0    0  0.00000000000E+00  0.00000000000E+00  0.45593999997E+02  0.45594000000E+02  0.51100000000E-03 0.  1.
         11   -1    0    0    0    0 -0.00000000000E+00 -0.00000000000E+00 -0.45593999997E+02  0.45594000000E+02  0.51100000000E-03 0. -1.
    9900012    2    1    2    0    0 -0.10093697500E+02 -0.15964654638E+02  0.25689779526E+02  0.59301988976E+02  0.50000081974E+02 0.  0.
         12    1    1    2    0    0  0.10093697500E+02  0.15964654638E+02 -0.25689779526E+02  0.31886011024E+02  0.00000000000E+00 0. -1.
         11    1    3    3    0    0 -0.73002661004E+01 -0.30204647521E+01  0.15968311517E+01  0.80602085856E+01  0.51100000000E-03 0. -1.
        -11    1    3    3    0    0 -0.86189524423E+01  0.14533408558E+02  0.65315731824E+01  0.18115401018E+02  0.51100000000E-03 0.  1.
         12    1    3    3    0    0  0.58255210424E+01 -0.27477598444E+02  0.17561375192E+02  0.33126379372E+02  0.00000000000E+00 0. -1.
</event>
<event>
 7    1  0.1193961E-011  0.5930193E+02  0.7816164E-02  0.1266605E+00
        -11   -1    0    0    0    0  0.00000000000E+00  0.00000000000E+00  0.45593999997E+02  0.45594000000E+02  0.51100000000E-03 0.  1.
         11   -1    0    0    0    0 -0.00000000000E+00 -0.00000000000E+00 -0.45593999997E+02  0.45594000000E+02  0.51100000000E-03 0. -1.
    9900012    2    1    2    0    0 -0.27223492795E+02 -0.15260376530E+02 -0.65363464211E+01  0.59301929744E+02  0.49999973950E+02 0.  0.
         12    1    1    2    0    0  0.27223492795E+02  0.15260376530E+02  0.65363464211E+01  0.31886070256E+02  0.00000000000E+00 0. -1.
         11    1    3    3    0    0 -0.41827771862E+01 -0.19158482822E+01 -0.42048221140E+00  0.46198382202E+01  0.51100000000E-03 0. -1.
        -11    1    3    3    0    0 -0.13664591419E+02 -0.98343851182E+01  0.20335083811E+02  0.26399845135E+02  0.51100000000E-03 0.  1.
         12    1    3    3    0    0 -0.93761241906E+01 -0.35101431296E+01 -0.26450948021E+02  0.28282246389E+02  0.00000000000E+00 0. -1.
</event>
<event>
 7    1  0.1193961E-011  0.5930194E+02  0.7816164E-02  0.1266605E+00
        -11   -1    0    0    0    0  0.00000000000E+00  0.00000000000E+00  0.45593999997E+02  0.45594000000E+02  0.51100000000E-03 0. -1.
         11   -1    0    0    0    0 -0.00000000000E+00 -0.00000000000E+00 -0.45593999997E+02  0.45594000000E+02  0.51100000000E-03 0.  1.
    9900012    2    1    2    0    0  0.31182879643E+02 -0.43563381970E+01 -0.50369863308E+01  0.59301938835E+02  0.49999990529E+02 0.  0.
         12    1    1    2    0    0 -0.31182879643E+02  0.43563381970E+01  0.50369863308E+01  0.31886061165E+02  0.00000000000E+00 0. -1.
         11    1    3    3    0    0  0.11851343898E+01  0.13054464803E+02  0.62896435932E+01  0.14539023750E+02  0.51100000000E-03 0.  1.
        -11    1    3    3    0    0  0.44585032736E+00  0.57332474495E+01 -0.19645296368E+01  0.60768647991E+01  0.51100000000E-03 0. -1.
        -12    1    3    3    0    0  0.29551894926E+02 -0.23144050449E+02 -0.93621002873E+01  0.38686050286E+02  0.00000000000E+00 0.  1.
</event>
<event>
 7    1  0.1193961E-011  0.5930196E+02  0.7816164E-02  0.1266605E+00
        -11   -1    0    0    0    0  0.00000000000E+00  0.00000000000E+00  0.45593999997E+02  0.45594000000E+02  0.51100000000E-03 0.  1.
         11   -1    0    0    0    0 -0.00000000000E+00 -0.00000000000E+00 -0.45593999997E+02  0.45594000000E+02  0.51100000000E-03 0. -1.
    9900012    2    1    2    0    0 -0.11330904354E+02 -0.13873921990E+02  0.26378859424E+02  0.59301963410E+02  0.50000035349E+02 0.  0.
         12    1    1    2    0    0  0.11330904354E+02  0.13873921990E+02 -0.26378859424E+02  0.31886036590E+02  0.00000000000E+00 0. -1.
         11    1    3    3    0    0 -0.90997501691E+01 -0.19979183909E+02  0.14322882762E+02  0.26212939813E+02  0.51100000000E-03 0. -1.
        -11    1    3    3    0    0 -0.15159980959E+02  0.51207685223E+00  0.11421669224E+02  0.18987937579E+02  0.51100000000E-03 0.  1.
         12    1    3    3    0    0  0.12928826774E+02  0.55931850662E+01  0.63430743864E+00  0.14101086018E+02  0.00000000000E+00 0. -1.
</event>
<event>
 7    1  0.1193961E-011  0.5930191E+02  0.7816164E-02  0.1266605E+00
        -11   -1    0    0    0    0  0.00000000000E+00  0.00000000000E+00  0.45593999997E+02  0.45594000000E+02  0.51100000000E-03 0. -1.
         11   -1    0    0    0    0 -0.00000000000E+00 -0.00000000000E+00 -0.45593999997E+02  0.45594000000E+02  0.51100000000E-03 0.  1.
    9900012    2    1    2    0    0  0.26351868160E+02 -0.17572779637E+02 -0.36741506964E+01  0.59301907059E+02  0.49999932578E+02 0.  0.
         12    1    1    2    0    0 -0.26351868160E+02  0.17572779637E+02  0.36741506964E+01  0.31886092941E+02  0.00000000000E+00 0. -1.
         11    1    3    3    0    0  0.39784294835E+01  0.78225845857E+01  0.13851041855E+01  0.88847760029E+01  0.51100000000E-03 0. -1.
        -11    1    3    3    0    0 -0.73007618237E+01 -0.92951217484E+01 -0.10990214064E+02  0.16139554422E+02  0.51100000000E-03 0.  1.
         12    1    3    3    0    0  0.29674200500E+02 -0.16100242475E+02  0.59309591818E+01  0.34277576634E+02  0.00000000000E+00 0. -1.
</event>
<event>
 7    1  0.1193961E-011  0.5930195E+02  0.7816164E-02  0.1266605E+00
        -11   -1    0    0    0    0  0.00000000000E+00  0.00000000000E+00  0.45593999997E+02  0.45594000000E+02  0.51100000000E-03 0.  1.
         11   -1    0    0    0    0 -0.00000000000E+00 -0.00000000000E+00 -0.45593999997E+02  0.45594000000E+02  0.51100000000E-03 0. -1.
    9900012    2    1    2    0    0  0.16912629396E+02  0.19787647400E+02  0.18415543445E+02  0.59301948769E+02  0.50000008647E+02 0.  0.
         12    1    1    2    0    0 -0.16912629396E+02 -0.19787647400E+02 -0.18415543445E+02  0.31886051231E+02  0.00000000000E+00 0. -1.
         11    1    3    3    0    0 -0.90680046774E+01  0.27985780558E+01  0.45943659955E+01  0.10543668580E+02  0.51100000000E-03 0. -1.
        -11    1    3    3    0    0  0.10312853613E+02  0.26444241815E+02  0.97430192309E+01  0.30009653427E+02  0.51100000000E-03 0.  1.
        -12    1    3    3    0    0  0.15667780460E+02 -0.94551724704E+01  0.40781582190E+01  0.18748626762E+02  0.00000000000E+00 0.  1.
</event>
<event>
 7    1  0.1193961E-011  0.5930194E+02  0.7816164E-02  0.1266605E+00
        -11   -1    0    0    0    0  0.00000000000E+00  0.00000000000E+00  0.45593999997E+02  0.45594000000E+02  0.51100000000E-03 0. -1.
         11   -1    0    0    0    0 -0.00000000000E+00 -0.00000000000E+00 -0.45593999997E+02  0.45594000000E+02  0.51100000000E-03 0.  1.
    9900012    2    1    2    0    0 -0.25510962074E+02  0.35947287984E+01  0.18788008893E+02  0.59301944439E+02  0.50000000750E+02 0.  0.
         12    1    1    2    0    0  0.25510962074E+02 -0.35947287984E+01 -0.18788008893E+02  0.31886055561E+02  0.00000000000E+00 0. -1.
         11    1    3    3    0    0 -0.31754465724E+02  0.25928613285E+01 -0.29267361301E+01  0.31994293365E+02  0.51100000000E-03 0. -1.
        -11    1    3    3    0    0 -0.20287170406E+01 -0.25607354919E+01 -0.52908606112E+00  0.33095303914E+01  0.51100000000E-03 0.  1.
         12    1    3    3    0    0  0.82722206903E+01  0.35626029618E+01  0.22243831084E+02  0.23998120683E+02  0.00000000000E+00 0. -1.
</event>
<event>
 7    1  0.1193961E-011  0.5930194E+02  0.7816164E-02  0.1266605E+00
        -11   -1    0    0    0    0  0.00000000000E+00  0.00000000000E+00  0.45593999997E+02  0.45594000000E+02  0.51100000000E-03 0. -1.
         11   -1    0    0    0    0 -0.00000000000E+00 -0.00000000000E+00 -0.45593999997E+02  0.45594000000E+02  0.51100000000E-03 0.  1.
    9900012    2    1    2    0    0  0.83152703494E+01  0.48193286387E+01 -0.30403144213E+02  0.59301939918E+02  0.49999992504E+02 0.  0.
         12    1    1    2    0    0 -0.83152703494E+01 -0.48193286387E+01  0.30403144213E+02  0.31886060082E+02  0.00000000000E+00 0. -1.
         11    1    3    3    0    0  0.58050287647E+00 -0.59324027702E+01 -0.48036600859E+01  0.76554253115E+01  0.51100000000E-03 0. -1.
        -11    1    3    3    0    0 -0.64689038573E+01 -0.12702159578E+02 -0.18440974296E+02  0.23307962337E+02  0.51100000000E-03 0.  1.
         12    1    3    3    0    0  0.14203671330E+02  0.23453890987E+02 -0.71585098312E+01  0.28338552269E+02  0.00000000000E+00 0. -1.
</event>
<event>
 7    1  0.1193961E-011  0.5930195E+02  0.7816164E-02  0.1266605E+00
        -11   -1    0    0    0    0  0.00000000000E+00  0.00000000000E+00  0.45593999997E+02  0.45594000000E+02  0.51100000000E-03 0.  1.
         11   -1    0    0    0    0 -0.00000000000E+00 -0.00000000000E+00 -0.45593999997E+02  0.45594000000E+02  0.51100000000E-03 0. -1.
    9900012    2    1    2    0    0  0.65091301513E+01 -0.42046593891E+01  0.30930123414E+02  0.59301945520E+02  0.50000002722E+02 0.  0.
         12    1    1    2    0    0 -0.65091301513E+01  0.42046593891E+01 -0.30930123414E+02  0.31886054480E+02  0.00000000000E+00 0. -1.
         11    1    3    3    0    0 -0.13624635893E+01 -0.18359505968E+02  0.21843944756E+00  0.18411286823E+02  0.51100000000E-03 0. -1.
        -11    1    3    3    0    0 -0.67811637016E+01  0.35718147567E+01  0.15400876313E+02  0.17202587982E+02  0.51100000000E-03 0.  1.
        -12    1    3    3    0    0  0.14652757442E+02  0.10583031822E+02  0.15310807653E+02  0.23688070715E+02  0.00000000000E+00 0.  1.
</event>
<event>
 7    1  0.1193961E-011  0.5930197E+02  0.7816164E-02  0.1266605E+00
        -11   -1    0    0    0    0  0.00000000000E+00  0.00000000000E+00  0.45593999997E+02  0.45594000000E+02  0.51100000000E-03 0. -1.
         11   -1    0    0    0    0 -0.00000000000E+00 -0.00000000000E+00 -0.45593999997E+02  0.45594000000E+02  0.51100000000E-03 0.  1.
    9900012    2    1    2    0    0  0.19683369383E+02  0.67467438112E+01 -0.24161230933E+02  0.59301973868E+02  0.50000054421E+02 0.  0.
         12    1    1    2    0    0 -0.19683369383E+02 -0.67467438112E+01  0.24161230933E+02  0.31886026132E+02  0.00000000000E+00 0. -1.
         11    1    3    3    0    0 -0.12369724378E+02  0.56910205170E+00 -0.21411284477E+01  0.12566558385E+02  0.51100000000E-03 0. -1.
        -11    1    3    3    0    0  0.23578022635E+01  0.74466488045E+01  0.25030272042E+01  0.82022530671E+01  0.51100000000E-03 0.  1.
        -12    1    3    3    0    0  0.29695291498E+02 -0.12690070450E+01 -0.24523129689E+02  0.38533162416E+02  0.00000000000E+00 0.  1.
</event>
<event>
 7    1  0.1193961E-011  0.5930195E+02  0.7816164E-02  0.1266605E+00
        -11   -1    0    0    0    0  0.00000000000E+00  0.00000000000E+00  0.45593999997E+02  0.45594000000E+02  0.51100000000E-03 0.  1.
         11   -1    0    0    0    0 -0.00000000000E+00 -0.00000000000E+00 -0.45593999997E+02  0.45594000000E+02  0.51100000000E-03 0. -1.
    9900012    2    1    2    0    0  0.15381874201E+02  0.12451723413E+02  0.25001456782E+02  0.59301948016E+02  0.50000007274E+02 0.  0.
         12    1    1    2    0    0 -0.15381874201E+02 -0.12451723413E+02 -0.25001456782E+02  0.31886051984E+02  0.00000000000E+00 0. -1.
         11    1    3    3    0    0  0.14833913954E+01  0.47524035110E+01 -0.16043356312E+01  0.52306483577E+01  0.51100000000E-03 0. -1.
        -11    1    3    3    0    0 -0.87271140644E+01  0.93434444335E+01 -0.61814939295E+01  0.14201173939E+02  0.51100000000E-03 0.  1.
        -12    1    3    3    0    0  0.22625596870E+02 -0.16441245312E+01  0.32787286343E+02  0.39870125720E+02  0.00000000000E+00 0.  1.
</event>
<event>
 7    1  0.1193961E-011  0.5930192E+02  0.7816164E-02  0.1266605E+00
        -11   -1    0    0    0    0  0.00000000000E+00  0.00000000000E+00  0.45593999997E+02  0.45594000000E+02  0.51100000000E-03 0.  1.
         11   -1    0    0    0    0 -0.00000000000E+00 -0.00000000000E+00 -0.45593999997E+02  0.45594000000E+02  0.51100000000E-03 0. -1.
    9900012    2    1    2    0    0 -0.45579308136E+01 -0.25065123181E+02  0.19175157652E+02  0.59301924601E+02  0.49999964571E+02 0.  0.
         12    1    1    2    0    0  0.45579308136E+01  0.25065123181E+02 -0.19175157652E+02  0.31886075399E+02  0.00000000000E+00 0. -1.
         11    1    3    3    0    0  0.66665666089E+01  0.44123186686E+01  0.12091445752E+02  0.14495334664E+02  0.51100000000E-03 0. -1.
        -11    1    3    3    0    0  0.83225721816E+01 -0.20443695219E+02  0.73710467260E+01  0.23271059538E+02  0.51100000000E-03 0.  1.
         12    1    3    3    0    0 -0.19547069604E+02 -0.90337466302E+01 -0.28733482627E+00  0.21535530400E+02  0.00000000000E+00 0. -1.
</event>
<event>
 7    1  0.1193961E-011  0.5930198E+02  0.7816164E-02  0.1266605E+00
        -11   -1    0    0    0    0  0.00000000000E+00  0.00000000000E+00  0.45593999997E+02  0.45594000000E+02  0.51100000000E-03 0. -1.
         11   -1    0    0    0    0 -0.00000000000E+00 -0.00000000000E+00 -0.45593999997E+02  0.45594000000E+02  0.51100000000E-03 0.  1.
    9900012    2    1    2    0    0  0.15547731158E+02  0.17906305769E+02  0.21315504258E+02  0.59301977165E+02  0.50000060435E+02 0.  0.
         12    1    1    2    0    0 -0.15547731158E+02 -0.17906305769E+02 -0.21315504258E+02  0.31886022835E+02  0.00000000000E+00 0. -1.
         11    1    3    3    0    0  0.15986915059E+02  0.98470094741E+01  0.26878242490E+02  0.32786963390E+02  0.51100000000E-03 0. -1.
        -11    1    3    3    0    0  0.41636224835E+01 -0.32043993642E+00  0.85230278344E+01  0.94910714708E+01  0.51100000000E-03 0.  1.
        -12    1    3    3    0    0 -0.46028063838E+01  0.83797362311E+01 -0.14085766067E+02  0.17023942305E+02  0.00000000000E+00 0.  1.
</event>
<event>
 7    1  0.1193961E-011  0.5930196E+02  0.7816164E-02  0.1266605E+00
        -11   -1    0    0    0    0  0.00000000000E+00  0.00000000000E+00  0.45593999997E+02  0.45594000000E+02  0.51100000000E-03 0.  1.
         11   -1    0    0    0    0 -0.00000000000E+00 -0.00000000000E+00 -0.45593999997E+02  0.45594000000E+02  0.51100000000E-03 0. -1.
    9900012    2    1    2    0    0 -0.26572104537E+01 -0.22619235062E+02  0.22316568830E+02  0.59301955929E+02  0.50000021704E+02 0.  0.
         12    1    1    2    0    0  0.26572104537E+01  0.22619235062E+02 -0.22316568830E+02  0.31886044071E+02  0.00000000000E+00 0. -1.
         11    1    3    3    0    0  0.23292449228E+01  0.67120511826E+01 -0.35137158874E-02  0.71047185444E+01  0.51100000000E-03 0. -1.
        -11    1    3    3    0    0  0.20197629910E+01 -0.42660985555E+00  0.22360444460E+02  0.22455531951E+02  0.51100000000E-03 0.  1.
         12    1    3    3    0    0 -0.70062183675E+01 -0.28904676389E+02 -0.40361914392E-01  0.29741705433E+02  0.00000000000E+00 0. -1.
</event>
<event>
 7    1  0.1193961E-011  0.5930199E+02  0.7816164E-02  0.1266605E+00
        -11   -1    0    0    0    0  0.00000000000E+00  0.00000000000E+00  0.45593999997E+02  0.45594000000E+02  0.51100000000E-03 0. -1.
         11   -1    0    0    0    0 -0.00000000000E+00 -0.00000000000E+00 -0.45593999997E+02  0.45594000000E+02  0.51100000000E-03 0.  1.
    9900012    2    1    2    0    0  0.30710300121E+02 -0.54352028977E+01  0.66373029490E+01  0.59301988106E+02  0.50000080388E+02 0.  0.
         12    1    1    2    0    0 -0.30710300121E+02  0.54352028977E+01 -0.66373029490E+01  0.31886011894E+02  0.00000000000E+00 0. -1.
         11    1    3    3    0    0  0.57000981239E+01 -0.80262086894E+01  0.77288827381E+01  0.12515860865E+02  0.51100000000E-03 0. -1.
        -11    1    3    3    0    0 -0.51726003157E+01 -0.66503859153E+01 -0.10858522348E+02  0.13743759846E+02  0.51100000000E-03 0.  1.
         12    1    3    3    0    0  0.30182802313E+02  0.92413917070E+01  0.97669425589E+01  0.33042367396E+02  0.00000000000E+00 0. -1.
</event>
<event>
 7    1  0.1193961E-011  0.5930195E+02  0.7816164E-02  0.1266605E+00
        -11   -1    0    0    0    0  0.00000000000E+00  0.00000000000E+00  0.45593999997E+02  0.45594000000E+02  0.51100000000E-03 0. -1.
         11   -1    0    0    0    0 -0.00000000000E+00 -0.00000000000E+00 -0.45593999997E+02  0.45594000000E+02  0.51100000000E-03 0.  1.
    9900012    2    1    2    0    0 -0.21011035929E+02 -0.20981295083E+02 -0.11620757194E+02  0.59301947063E+02  0.50000005536E+02 0.  0.
         12    1    1    2    0    0  0.21011035929E+02  0.20981295083E+02  0.11620757194E+02  0.31886052937E+02  0.00000000000E+00 0. -1.
         11    1    3    3    0    0 -0.21706389793E+01 -0.93349447186E+01 -0.11007816382E+02  0.14595372152E+02  0.51100000000E-03 0. -1.
        -11    1    3    3    0    0 -0.27837729128E+02 -0.11695399523E+02 -0.98995810800E+01  0.31776142605E+02  0.51100000000E-03 0.  1.
         12    1    3    3    0    0  0.89973321790E+01  0.49049158222E-01  0.92866402686E+01  0.12930432307E+02  0.00000000000E+00 0. -1.
</event>
<event>
 7    1  0.1193961E-011  0.5930201E+02  0.7816164E-02  0.1266605E+00
        -11   -1    0    0    0    0  0.00000000000E+00  0.00000000000E+00  0.45593999997E+02  0.45594000000E+02  0.51100000000E-03 0. -1.
         11   -1    0    0    0    0 -0.00000000000E+00 -0.00000000000E+00 -0.45593999997E+02  0.45594000000E+02  0.51100000000E-03 0.  1.
    9900012    2    1    2    0    0  0.18328187513E+02 -0.23327405892E+02 -0.11688713445E+02  0.59302010206E+02  0.50000120693E+02 0.  0.
         12    1    1    2    0    0 -0.18328187513E+02  0.23327405892E+02  0.11688713445E+02  0.31885989794E+02  0.00000000000E+00 0. -1.
         11    1    3    3    0    0 -0.14999499217E+01  0.16963569995E+01 -0.21724370544E+01  0.31379865924E+01  0.51100000000E-03 0. -1.
        -11    1    3    3    0    0 -0.12838249272E+02 -0.14888589661E+01  0.42640961757E+01  0.13609550391E+02  0.51100000000E-03 0.  1.
        -12    1    3    3    0    0  0.32666386706E+02 -0.23534903925E+02 -0.13780372566E+02  0.42554473223E+02  0.00000000000E+00 0.  1.
</event>
<event>
 7    1  0.1193961E-011  0.5930195E+02  0.7816164E-02  0.1266605E+00
        -11   -1    0    0    0    0  0.00000000000E+00  0.00000000000E+00  0.45593999997E+02  0.45594000000E+02  0.51100000000E-03 0. -1.
         11   -1    0    0    0    0 -0.00000000000E+00 -0.00000000000E+00 -0.45593999997E+02  0.45594000000E+02  0.51100000000E-03 0.  1.
    9900012    2    1    2    0    0  0.22970319214E+02  0.21286814476E+02 -0.59963357398E+01  0.59301951678E+02  0.50000013952E+02 0.  0.
         12    1    1    2    0    0 -0.22970319214E+02 -0.21286814476E+02  0.59963357398E+01  0.31886048322E+02  0.00000000000E+00 0. -1.
         11    1    3    3    0    0  0.15746668892E+02  0.10831721483E+02  0.51507644264E+01  0.19794295793E+02  0.51100000000E-03 0. -1.
        -11    1    3    3    0    0  0.15694682958E+02  0.14746391443E+02 -0.17778095564E+02  0.27925612184E+02  0.51100000000E-03 0.  1.
         12    1    3    3    0    0 -0.84710326369E+01 -0.42912984504E+01  0.66309953975E+01  0.11582043701E+02  0.00000000000E+00 0. -1.
</event>
<event>
 7    1  0.1193961E-011  0.5930194E+02  0.7816164E-02  0.1266605E+00
        -11   -1    0    0    0    0  0.00000000000E+00  0.00000000000E+00  0.45593999997E+02  0.45594000000E+02  0.51100000000E-03 0.  1.
         11   -1    0    0    0    0 -0.00000000000E+00 -0.00000000000E+00 -0.45593999997E+02  0.45594000000E+02  0.51100000000E-03 0. -1.
    9900012    2    1    2    0    0 -0.22987085823E+02 -0.23262148673E+01  0.21975063037E+02  0.59301940574E+02  0.49999993700E+02 0.  0.
         12    1    1    2    0    0  0.22987085823E+02  0.23262148673E+01 -0.21975063037E+02  0.31886059426E+02  0.00000000000E+00 0. -1.
         11    1    3    3    0    0 -0.16288149049E+02 -0.82255406450E+00  0.31805430884E+01  0.16616144235E+02  0.51100000000E-03 0. -1.
        -11    1    3    3    0    0  0.32803752654E+00 -0.67002412341E+01 -0.10308383564E+02  0.12298927318E+02  0.51100000000E-03 0.  1.
        -12    1    3    3    0    0 -0.70269743008E+01  0.51965804313E+01  0.29102903513E+02  0.30386869021E+02  0.00000000000E+00 0.  1.
</event>
<event>
 7    1  0.1193961E-011  0.5930195E+02  0.7816164E-02  0.1266605E+00
        -11   -1    0    0    0    0  0.00000000000E+00  0.00000000000E+00  0.45593999997E+02  0.45594000000E+02  0.51100000000E-03 0.  1.
         11   -1    0    0    0    0 -0.00000000000E+00 -0.00000000000E+00 -0.45593999997E+02  0.45594000000E+02  0.51100000000E-03 0. -1.
    9900012    2    1    2    0    0  0.30469829444E+02  0.91988218533E+01  0.19213243793E+01  0.59301947921E+02  0.50000007100E+02 0.  0.
         12    1    1    2    0    0 -0.30469829444E+02 -0.91988218533E+01 -0.19213243793E+01  0.31886052079E+02  0.00000000000E+00 0. -1.
         11    1    3    3    0    0  0.12517313623E+02  0.17658560413E+01 -0.17939572980E+02  0.21946062673E+02  0.51100000000E-03 0. -1.
        -11    1    3    3    0    0 -0.18273701071E+01  0.11330511310E+02  0.73825421240E+01  0.13646307065E+02  0.51100000000E-03 0.  1.
        -12    1    3    3    0    0  0.19779885928E+02 -0.38975454978E+01  0.12478355235E+02  0.23709578182E+02  0.00000000000E+00 0.  1.
</event>
<event>
 7    1  0.1193961E-011  0.5930193E+02  0.7816164E-02  0.1266605E+00
        -11   -1    0    0    0    0  0.00000000000E+00  0.00000000000E+00  0.45593999997E+02  0.45594000000E+02  0.51100000000E-03 0. -1.
         11   -1    0    0    0    0 -0.00000000000E+00 -0.00000000000E+00 -0.45593999997E+02  0.45594000000E+02  0.51100000000E-03 0.  1.
    9900012    2    1    2    0    0 -0.22916037502E+02 -0.20501839697E+02 -0.84410626866E+01  0.59301925531E+02  0.49999966267E+02 0.  0.
         12    1    1    2    0    0  0.22916037502E+02  0.20501839697E+02  0.84410626866E+01  0.31886074469E+02  0.00000000000E+00 0. -1.
         11    1    3    3    0    0  0.11121267419E+02  0.18106940134E+00 -0.14954448838E+02  0.18637352694E+02  0.51100000000E-03 0.  1.
        -11    1    3    3    0    0 -0.74647135890E+01 -0.22453210025E+01  0.11125971650E+01  0.78740896669E+01  0.51100000000E-03 0. -1.
        -12    1    3    3    0    0 -0.26572591332E+02 -0.18437588096E+02  0.54007889859E+01  0.32790483171E+02  0.00000000000E+00 0.  1.
</event>
<event>
 7    1  0.1193961E-011  0.5930196E+02  0.7816164E-02  0.1266605E+00
        -11   -1    0    0    0    0  0.00000000000E+00  0.00000000000E+00  0.45593999997E+02  0.45594000000E+02  0.51100000000E-03 0. -1.
         11   -1    0    0    0    0 -0.00000000000E+00 -0.00000000000E+00 -0.45593999997E+02  0.45594000000E+02  0.51100000000E-03 0.  1.
    9900012    2    1    2    0    0  0.26637449840E+02 -0.60646637838E+01 -0.16443412550E+02  0.59301957645E+02  0.50000024834E+02 0.  0.
         12    1    1    2    0    0 -0.26637449840E+02  0.60646637838E+01  0.16443412550E+02  0.31886042355E+02  0.00000000000E+00 0. -1.
         11    1    3    3    0    0  0.23632130158E+02  0.17724015185E+01 -0.10004472119E+02  0.25723694245E+02  0.51100000000E-03 0. -1.
        -11    1    3    3    0    0  0.10097283734E+02 -0.13624357902E+02  0.61276888975E+01  0.18031273902E+02  0.51100000000E-03 0.  1.
         12    1    3    3    0    0 -0.70919640523E+01  0.57872925998E+01 -0.12566629329E+02  0.15546989498E+02  0.00000000000E+00 0. -1.
</event>
<event>
 7    1  0.1193961E-011  0.5930193E+02  0.7816164E-02  0.1266605E+00
        -11   -1    0    0    0    0  0.00000000000E+00  0.00000000000E+00  0.45593999997E+02  0.45594000000E+02  0.51100000000E-03 0. -1.
         11   -1    0    0    0    0 -0.00000000000E+00 -0.00000000000E+00 -0.45593999997E+02  0.45594000000E+02  0.51100000000E-03 0.  1.
    9900012    2    1    2    0    0 -0.97352755959E+01 -0.27881375679E+02 -0.12023923092E+02  0.59301930515E+02  0.49999975357E+02 0.  0.
         12    1    1    2    0    0  0.97352755959E+01  0.27881375679E+02  0.12023923092E+02  0.31886069485E+02  0.00000000000E+00 0. -1.
         11    1    3    3    0    0  0.66678382991E+01  0.23745343743E+01 -0.71940196470E+00  0.71144936943E+01  0.51100000000E-03 0. -1.
        -11    1    3    3    0    0  0.10387568339E+02 -0.17414540285E+02 -0.95846793999E+01  0.22428416547E+02  0.51100000000E-03 0.  1.
        -12    1    3    3    0    0 -0.26790682234E+02 -0.12841369767E+02 -0.17198417276E+01  0.29759020274E+02  0.00000000000E+00 0.  1.
</event>
<event>
 7    1  0.1193961E-011  0.5930195E+02  0.7816164E-02  0.1266605E+00
        -11   -1    0    0    0    0  0.00000000000E+00  0.00000000000E+00  0.45593999997E+02  0.45594000000E+02  0.51100000000E-03 0. -1.
         11   -1    0    0    0    0 -0.00000000000E+00 -0.00000000000E+00 -0.45593999997E+02  0.45594000000E+02  0.51100000000E-03 0.  1.
    9900012    2    1    2    0    0 -0.12233595881E+02  0.21585929746E+02 -0.20027648917E+02  0.59301953642E+02  0.50000017535E+02 0.  0.
         12    1    1    2    0    0  0.12233595881E+02 -0.21585929746E+02  0.20027648917E+02  0.31886046358E+02  0.00000000000E+00 0. -1.
         11    1    3    3    0    0  0.39099501935E+01  0.20711268474E+02 -0.95758464718E+01  0.23150403630E+02  0.51100000000E-03 0. -1.
        -11    1    3    3    0    0 -0.81468162605E+01 -0.38603240891E+01 -0.20542319562E+02  0.22433448476E+02  0.51100000000E-03 0.  1.
         12    1    3    3    0    0 -0.79967298143E+01  0.47349853612E+01  0.10090517117E+02  0.13718101537E+02  0.00000000000E+00 0. -1.
</event>
<event>
 7    1  0.1193961E-011  0.5930194E+02  0.7816164E-02  0.1266605E+00
        -11   -1    0    0    0    0  0.00000000000E+00  0.00000000000E+00  0.45593999997E+02  0.45594000000E+02  0.51100000000E-03 0. -1.
         11   -1    0    0    0    0 -0.00000000000E+00 -0.00000000000E+00 -0.45593999997E+02  0.45594000000E+02  0.51100000000E-03 0.  1.
    9900012    2    1    2    0    0  0.30822218236E+02 -0.49482355793E+01 -0.64981955828E+01  0.59301941633E+02  0.49999995632E+02 0.  0.
         12    1    1    2    0    0 -0.30822218236E+02  0.49482355793E+01  0.64981955828E+01  0.31886058367E+02  0.00000000000E+00 0. -1.
         11    1    3    3    0    0  0.44320464425E+01 -0.67418964889E+01 -0.21123712726E+02  0.22612108339E+02  0.51100000000E-03 0.  1.
        -11    1    3    3    0    0  0.28244420674E+01  0.24703766003E+01  0.12462753703E+02  0.13015393335E+02  0.51100000000E-03 0. -1.
         12    1    3    3    0    0  0.23565729726E+02 -0.67671569071E+00  0.21627634399E+01  0.23674439959E+02  0.00000000000E+00 0. -1.
</event>
<event>
 7    1  0.1193961E-011  0.5930194E+02  0.7816164E-02  0.1266605E+00
        -11   -1    0    0    0    0  0.00000000000E+00  0.00000000000E+00  0.45593999997E+02  0.45594000000E+02  0.51100000000E-03 0.  1.
         11   -1    0    0    0    0 -0.00000000000E+00 -0.00000000000E+00 -0.45593999997E+02  0.45594000000E+02  0.51100000000E-03 0. -1.
    9900012    2    1    2    0    0 -0.28512985730E+01 -0.36680146705E+01  0.31545786999E+02  0.59301938585E+02  0.49999990074E+02 0.  0.
         12    1    1    2    0    0  0.28512985730E+01  0.36680146705E+01 -0.31545786999E+02  0.31886061415E+02  0.00000000000E+00 0. -1.
         11    1    3    3    0    0  0.12229952218E+00  0.55605966454E+01  0.16765902450E+01  0.58091434254E+01  0.51100000000E-03 0. -1.
        -11    1    3    3    0    0 -0.19508383048E+02  0.40663911071E+01  0.45157124436E+01  0.20432919638E+02  0.51100000000E-03 0.  1.
         12    1    3    3    0    0  0.16534784953E+02 -0.13295002423E+02  0.25353484310E+02  0.33059875522E+02  0.00000000000E+00 0. -1.
</event>
<event>
 7    1  0.1193961E-011  0.5930186E+02  0.7816164E-02  0.1266605E+00
        -11   -1    0    0    0    0  0.00000000000E+00  0.00000000000E+00  0.45593999997E+02  0.45594000000E+02  0.51100000000E-03 0. -1.
         11   -1    0    0    0    0 -0.00000000000E+00 -0.00000000000E+00 -0.45593999997E+02  0.45594000000E+02  0.51100000000E-03 0.  1.
    9900012    2    1    2    0    0 -0.15320109027E+02  0.81391492016E+01 -0.26753957017E+02  0.59301863414E+02  0.49999852980E+02 0.  0.
         12    1    1    2    0    0  0.15320109027E+02 -0.81391492016E+01  0.26753957017E+02  0.31886136586E+02  0.00000000000E+00 0. -1.
         11    1    3    3    0    0  0.71556243066E+01  0.27603231483E+01 -0.35663884759E+01  0.84582190869E+01  0.51100000000E-03 0.  1.
        -11    1    3    3    0    0 -0.11688570678E+02 -0.72752629575E+01  0.76926864449E+01  0.15771162310E+02  0.51100000000E-03 0. -1.
         12    1    3    3    0    0 -0.10787162655E+02  0.12654089011E+02 -0.30880254986E+02  0.35072482017E+02  0.00000000000E+00 0. -1.
</event>
<event>
 7    1  0.1193961E-011  0.5930188E+02  0.7816164E-02  0.1266605E+00
        -11   -1    0    0    0    0  0.00000000000E+00  0.00000000000E+00  0.45593999997E+02  0.45594000000E+02  0.51100000000E-03 0.  1.
         11   -1    0    0    0    0 -0.00000000000E+00 -0.00000000000E+00 -0.45593999997E+02  0.45594000000E+02  0.51100000000E-03 0. -1.
    9900012    2    1    2    0    0  0.20478225810E+02  0.21260773648E+02  0.12055972117E+02  0.59301879319E+02  0.49999881986E+02 0.  0.
         12    1    1    2    0    0 -0.20478225810E+02 -0.21260773648E+02 -0.12055972117E+02  0.31886120681E+02  0.00000000000E+00 0. -1.
         11    1    3    3    0    0 -0.96233805245E+01  0.11858114483E+02  0.14485104644E+02  0.21048576879E+02  0.51100000000E-03 0. -1.
        -11    1    3    3    0    0  0.61246104174E+01 -0.58075188178E+01  0.36823557014E+01  0.92085759679E+01  0.51100000000E-03 0.  1.
        -12    1    3    3    0    0  0.23976995917E+02  0.15210177982E+02 -0.61114882287E+01  0.29044726472E+02  0.00000000000E+00 0.  1.
</event>
<event>
 7    1  0.1193961E-011  0.5930195E+02  0.7816164E-02  0.1266605E+00
        -11   -1    0    0    0    0  0.00000000000E+00  0.00000000000E+00  0.45593999997E+02  0.45594000000E+02  0.51100000000E-03 0.  1.
         11   -1    0    0    0    0 -0.00000000000E+00 -0.00000000000E+00 -0.45593999997E+02  0.45594000000E+02  0.51100000000E-03 0. -1.
    9900012    2    1    2    0    0  0.22128084224E+02  0.22867476892E+02  0.20362806870E+01  0.59301952113E+02  0.50000014745E+02 0.  0.
         12    1    1    2    0    0 -0.22128084224E+02 -0.22867476892E+02 -0.20362806870E+01  0.31886047887E+02  0.00000000000E+00 0. -1.
         11    1    3    3    0    0  0.45029816022E+01 -0.26075685060E+00 -0.70864020890E+01  0.84001150155E+01  0.51100000000E-03 0. -1.
        -11    1    3    3    0    0  0.28164729645E+02  0.85544342584E+01  0.13512171175E+02  0.32388410143E+02  0.51100000000E-03 0.  1.
         12    1    3    3    0    0 -0.10539627023E+02  0.14573799484E+02 -0.43894883986E+01  0.18513426955E+02  0.00000000000E+00 0. -1.
</event>
<event>
 7    1  0.1193961E-011  0.5930194E+02  0.7816164E-02  0.1266605E+00
        -11   -1    0    0    0    0  0.00000000000E+00  0.00000000000E+00  0.45593999997E+02  0.45594000000E+02  0.51100000000E-03 0. -1.
         11   -1    0    0    0    0 -0.00000000000E+00 -0.00000000000E+00 -0.45593999997E+02  0.45594000000E+02  0.51100000000E-03 0.  1.
    9900012    2    1    2    0    0  0.26613618890E+02 -0.17301714134E+02  0.30144087977E+01  0.59301942188E+02  0.49999996645E+02 0.  0.
         12    1    1    2    0    0 -0.26613618890E+02  0.17301714134E+02 -0.30144087977E+01  0.31886057812E+02  0.00000000000E+00 0. -1.
         11    1    3    3    0    0 -0.31408951858E+01 -0.83614351753E+01  0.13266287048E+02  0.15992910713E+02  0.51100000000E-03 0. -1.
        -11    1    3    3    0    0  0.52593224408E+01  0.38321123859E+01  0.79143205363E+01  0.10246073769E+02  0.51100000000E-03 0.  1.
        -12    1    3    3    0    0  0.24495191635E+02 -0.12772391345E+02 -0.18166198787E+02  0.33062957706E+02  0.00000000000E+00 0.  1.
</event>
<event>
 7    1  0.1193961E-011  0.5930195E+02  0.7816164E-02  0.1266605E+00
        -11   -1    0    0    0    0  0.00000000000E+00  0.00000000000E+00  0.45593999997E+02  0.45594000000E+02  0.51100000000E-03 0.  1.
         11   -1    0    0    0    0 -0.00000000000E+00 -0.00000000000E+00 -0.45593999997E+02  0.45594000000E+02  0.51100000000E-03 0. -1.
    9900012    2    1    2    0    0  0.53470269427E+01  0.10099026779E+02  0.29768087429E+02  0.59301951826E+02  0.50000014222E+02 0.  0.
         12    1    1    2    0    0 -0.53470269427E+01 -0.10099026779E+02 -0.29768087429E+02  0.31886048174E+02  0.00000000000E+00 0. -1.
         11    1    3    3    0    0  0.20804256136E+02  0.97759612332E+01  0.46901071448E+01  0.23460255683E+02  0.51100000000E-03 0. -1.
        -11    1    3    3    0    0 -0.62800710900E+01  0.86569802263E+01  0.40588389279E+01  0.11439264541E+02  0.51100000000E-03 0.  1.
        -12    1    3    3    0    0 -0.91771581034E+01 -0.83339146804E+01  0.21019141356E+02  0.24402431602E+02  0.00000000000E+00 0.  1.
</event>
<event>
 7    1  0.1193961E-011  0.5930199E+02  0.7816164E-02  0.1266605E+00
        -11   -1    0    0    0    0  0.00000000000E+00  0.00000000000E+00  0.45593999997E+02  0.45594000000E+02  0.51100000000E-03 0.  1.
         11   -1    0    0    0    0 -0.00000000000E+00 -0.00000000000E+00 -0.45593999997E+02  0.45594000000E+02  0.51100000000E-03 0. -1.
    9900012    2    1    2    0    0  0.22823409576E+02 -0.20052695817E+02  0.96798190031E+01  0.59301991624E+02  0.50000086805E+02 0.  0.
         12    1    1    2    0    0 -0.22823409576E+02  0.20052695817E+02 -0.96798190031E+01  0.31886008376E+02  0.00000000000E+00 0. -1.
         11    1    3    3    0    0  0.26381343723E+02 -0.90591062633E+01 -0.37652056274E+01  0.28146393670E+02  0.51100000000E-03 0. -1.
        -11    1    3    3    0    0  0.31600190135E+01  0.68462849273E+01  0.86964097761E+01  0.11510207675E+02  0.51100000000E-03 0.  1.
        -12    1    3    3    0    0 -0.67179531613E+01 -0.17839874481E+02  0.47486148544E+01  0.19645390279E+02  0.00000000000E+00 0.  1.
</event>
<event>
 7    1  0.1193961E-011  0.5930195E+02  0.7816164E-02  0.1266605E+00
        -11   -1    0    0    0    0  0.00000000000E+00  0.00000000000E+00  0.45593999997E+02  0.45594000000E+02  0.51100000000E-03 0.  1.
         11   -1    0    0    0    0 -0.00000000000E+00 -0.00000000000E+00 -0.45593999997E+02  0.45594000000E+02  0.51100000000E-03 0. -1.
    9900012    2    1    2    0    0 -0.66776434506E+01  0.19324884467E+02  0.24467899144E+02  0.59301950225E+02  0.50000011303E+02 0.  0.
         12    1    1    2    0    0  0.66776434506E+01 -0.19324884467E+02 -0.24467899144E+02  0.31886049775E+02  0.00000000000E+00 0. -1.
         11    1    3    3    0    0 -0.76088727378E+01  0.24130238728E+02  0.15681226629E+02  0.29766831109E+02  0.51100000000E-03 0. -1.
        -11    1    3    3    0    0  0.10411195738E+02  0.35939327257E+01 -0.38269420026E+01  0.11659967173E+02  0.51100000000E-03 0.  1.
        -12    1    3    3    0    0 -0.94799664505E+01 -0.83992869868E+01  0.12613614517E+02  0.17875151943E+02  0.00000000000E+00 0.  1.
</event>
<event>
 7    1  0.1193961E-011  0.5930194E+02  0.7816164E-02  0.1266605E+00
        -11   -1    0    0    0    0  0.00000000000E+00  0.00000000000E+00  0.45593999997E+02  0.45594000000E+02  0.51100000000E-03 0.  1.
         11   -1    0    0    0    0 -0.00000000000E+00 -0.00000000000E+00 -0.45593999997E+02  0.45594000000E+02  0.51100000000E-03 0. -1.
    9900012    2    1    2    0    0  0.14168637777E+01  0.31213984199E+02  0.63561541067E+01  0.59301937096E+02  0.49999987358E+02 0.  0.
         12    1    1    2    0    0 -0.14168637777E+01 -0.31213984199E+02 -0.63561541067E+01  0.31886062904E+02  0.00000000000E+00 0. -1.
         11    1    3    3    0    0  0.11244104529E+02  0.12470770115E+01  0.11403360866E+02  0.16063054723E+02  0.51100000000E-03 0. -1.
        -11    1    3    3    0    0  0.13177904318E+01 -0.10285740293E+01  0.77303555489E+01  0.79090412396E+01  0.51100000000E-03 0.  1.
        -12    1    3    3    0    0 -0.11145031184E+02  0.30995481216E+02 -0.12777562308E+02  0.35329841133E+02  0.00000000000E+00 0.  1.
</event>
<event>
 7    1  0.1193961E-011  0.5930194E+02  0.7816164E-02  0.1266605E+00
        -11   -1    0    0    0    0  0.00000000000E+00  0.00000000000E+00  0.45593999997E+02  0.45594000000E+02  0.51100000000E-03 0.  1.
         11   -1    0    0    0    0 -0.00000000000E+00 -0.00000000000E+00 -0.45593999997E+02  0.45594000000E+02  0.51100000000E-03 0. -1.
    9900012    2    1    2    0    0  0.13521789852E+02  0.22201735181E+01  0.28791546218E+02  0.59301935569E+02  0.49999984574E+02 0.  0.
         12    1    1    2    0    0 -0.13521789852E+02 -0.22201735181E+01 -0.28791546218E+02  0.31886064431E+02  0.00000000000E+00 0. -1.
         11    1    3    3    0    0  0.59002364183E+01  0.33068475801E+00 -0.39985651341E+00  0.59230083313E+01  0.51100000000E-03 0. -1.
        -11    1    3    3    0    0  0.23391682624E+02  0.36863330107E+01  0.46198597080E+01  0.24126810212E+02  0.51100000000E-03 0.  1.
        -12    1    3    3    0    0 -0.15770129190E+02 -0.17968442506E+01  0.24571543024E+02  0.29252117026E+02  0.00000000000E+00 0.  1.
</event>
<event>
 7    1  0.1193961E-011  0.5930194E+02  0.7816164E-02  0.1266605E+00
        -11   -1    0    0    0    0  0.00000000000E+00  0.00000000000E+00  0.45593999997E+02  0.45594000000E+02  0.51100000000E-03 0.  1.
         11   -1    0    0    0    0 -0.00000000000E+00 -0.00000000000E+00 -0.45593999997E+02  0.45594000000E+02  0.51100000000E-03 0. -1.
    9900012    2    1    2    0    0  0.26697764955E+01 -0.21938792081E+02  0.22984397469E+02  0.59301939856E+02  0.49999992392E+02 0.  0.
         12    1    1    2    0    0 -0.26697764955E+01  0.21938792081E+02 -0.22984397469E+02  0.31886060144E+02  0.00000000000E+00 0. -1.
         11    1    3    3    0    0 -0.28993789691E+01  0.36722852631E+00  0.17437469469E+02  0.17680684289E+02  0.51100000000E-03 0. -1.
        -11    1    3    3    0    0  0.94751091460E+00 -0.23178848636E+02  0.17315297529E+02  0.28947820812E+02  0.51100000000E-03 0.  1.
         12    1    3    3    0    0  0.46216445500E+01  0.87282802879E+00 -0.11768369529E+02  0.12673434754E+02  0.00000000000E+00 0. -1.
</event>
<event>
 7    1  0.1193961E-011  0.5930193E+02  0.7816164E-02  0.1266605E+00
        -11   -1    0    0    0    0  0.00000000000E+00  0.00000000000E+00  0.45593999997E+02  0.45594000000E+02  0.51100000000E-03 0. -1.
         11   -1    0    0    0    0 -0.00000000000E+00 -0.00000000000E+00 -0.45593999997E+02  0.45594000000E+02  0.51100000000E-03 0.  1.
    9900012    2    1    2    0    0 -0.25508836988E+02 -0.95176981508E+00 -0.19107975411E+02  0.59301931654E+02  0.49999977434E+02 0.  0.
         12    1    1    2    0    0  0.25508836988E+02  0.95176981508E+00  0.19107975411E+02  0.31886068346E+02  0.00000000000E+00 0. -1.
         11    1    3    3    0    0  0.36189672170E+01 -0.42735305789E+01  0.27669726464E+01  0.62462889153E+01  0.51100000000E-03 0. -1.
        -11    1    3    3    0    0  0.64468960002E+01 -0.25861521552E+01  0.45890578521E+01  0.83252689590E+01  0.51100000000E-03 0.  1.
        -12    1    3    3    0    0 -0.35574700205E+02  0.59079129190E+01 -0.26464005909E+02  0.44730373780E+02  0.00000000000E+00 0.  1.
</event>
<event>
 7    1  0.1193961E-011  0.5930197E+02  0.7816164E-02  0.1266605E+00
        -11   -1    0    0    0    0  0.00000000000E+00  0.00000000000E+00  0.45593999997E+02  0.45594000000E+02  0.51100000000E-03 0. -1.
         11   -1    0    0    0    0 -0.00000000000E+00 -0.00000000000E+00 -0.45593999997E+02  0.45594000000E+02  0.51100000000E-03 0.  1.
    9900012    2    1    2    0    0  0.30368935274E+02  0.84834276542E+01 -0.47411401029E+01  0.59301965691E+02  0.50000039509E+02 0.  0.
         12    1    1    2    0    0 -0.30368935274E+02 -0.84834276542E+01  0.47411401029E+01  0.31886034309E+02  0.00000000000E+00 0. -1.
         11    1    3    3    0    0  0.56065642402E+01  0.15533140560E+02 -0.15647072922E+02  0.22749569436E+02  0.51100000000E-03 0. -1.
        -11    1    3    3    0    0  0.55928647813E+01  0.43115707974E+01 -0.54419620639E+01  0.89154209417E+01  0.51100000000E-03 0.  1.
         12    1    3    3    0    0  0.19169506253E+02 -0.11361283703E+02  0.16347894883E+02  0.27636975313E+02  0.00000000000E+00 0. -1.
</event>
<event>
 7    1  0.1193961E-011  0.5930195E+02  0.7816164E-02  0.1266605E+00
        -11   -1    0    0    0    0  0.00000000000E+00  0.00000000000E+00  0.45593999997E+02  0.45594000000E+02  0.51100000000E-03 0.  1.
         11   -1    0    0    0    0 -0.00000000000E+00 -0.00000000000E+00 -0.45593999997E+02  0.45594000000E+02  0.51100000000E-03 0. -1.
    9900012    2    1    2    0    0 -0.22696639831E+02 -0.13562671044E+02  0.17822368207E+02  0.59301947972E+02  0.50000007193E+02 0.  0.
         12    1    1    2    0    0  0.22696639831E+02  0.13562671044E+02 -0.17822368207E+02  0.31886052028E+02  0.00000000000E+00 0. -1.
         11    1    3    3    0    0 -0.30990021739E+01 -0.13774104120E+02  0.11656075350E+02  0.18308300074E+02  0.51100000000E-03 0. -1.
        -11    1    3    3    0    0 -0.94917265875E+01 -0.16839712019E+02  0.83418684574E+01  0.21053634938E+02  0.51100000000E-03 0.  1.
         12    1    3    3    0    0 -0.10105911069E+02  0.17051145096E+02 -0.21755756000E+01  0.19940012959E+02  0.00000000000E+00 0. -1.
</event>
<event>
 7    1  0.1193961E-011  0.5930195E+02  0.7816164E-02  0.1266605E+00
        -11   -1    0    0    0    0  0.00000000000E+00  0.00000000000E+00  0.45593999997E+02  0.45594000000E+02  0.51100000000E-03 0.  1.
         11   -1    0    0    0    0 -0.00000000000E+00 -0.00000000000E+00 -0.45593999997E+02  0.45594000000E+02  0.51100000000E-03 0. -1.
    9900012    2    1    2    0    0 -0.84359114926E+01 -0.29043331825E+02  0.10101497267E+02  0.59301953314E+02  0.50000016936E+02 0.  0.
         12    1    1    2    0    0  0.84359114926E+01  0.29043331825E+02 -0.10101497267E+02  0.31886046686E+02  0.00000000000E+00 0. -1.
         11    1    3    3    0    0  0.78482692100E+01 -0.25021690016E+01  0.15399240489E+02  0.17464042694E+02  0.51100000000E-03 0. -1.
        -11    1    3    3    0    0 -0.10516790028E+02 -0.20928243210E+02  0.92741562767E+01  0.25191351914E+02  0.51100000000E-03 0.  1.
         12    1    3    3    0    0 -0.57673906743E+01 -0.56129196138E+01 -0.14571899499E+02  0.16646558707E+02  0.00000000000E+00 0. -1.
</event>
<event>
 7    1  0.1193961E-011  0.5930195E+02  0.7816164E-02  0.1266605E+00
        -11   -1    0    0    0    0  0.00000000000E+00  0.00000000000E+00  0.45593999997E+02  0.45594000000E+02  0.51100000000E-03 0. -1.
         11   -1    0    0    0    0 -0.00000000000E+00 -0.00000000000E+00 -0.45593999997E+02  0.45594000000E+02  0.51100000000E-03 0.  1.
    9900012    2    1    2    0    0  0.28338012911E+02 -0.14617349517E+02 -0.10029541641E+00  0.59301953807E+02  0.50000017835E+02 0.  0.
         12    1    1    2    0    0 -0.28338012911E+02  0.14617349517E+02  0.10029541641E+00  0.31886046193E+02  0.00000000000E+00 0. -1.
         11    1    3    3    0    0  0.75805617458E+01 -0.71346158559E+01 -0.57126704658E+01  0.11874437414E+02  0.51100000000E-03 0. -1.
        -11    1    3    3    0    0  0.73291977543E+01 -0.50269750316E+01 -0.18044566866E+02  0.20114522399E+02  0.51100000000E-03 0.  1.
         12    1    3    3    0    0  0.13428253411E+02 -0.24557586298E+01  0.23656941915E+02  0.27312993994E+02  0.00000000000E+00 0. -1.
</event>
<event>
 7    1  0.1193961E-011  0.5930194E+02  0.7816164E-02  0.1266605E+00
        -11   -1    0    0    0    0  0.00000000000E+00  0.00000000000E+00  0.45593999997E+02  0.45594000000E+02  0.51100000000E-03 0.  1.
         11   -1    0    0    0    0 -0.00000000000E+00 -0.00000000000E+00 -0.45593999997E+02  0.45594000000E+02  0.51100000000E-03 0. -1.
    9900012    2    1    2    0    0 -0.26577089305E+02 -0.16165872847E+02  0.70030981595E+01  0.59301944981E+02  0.50000001739E+02 0.  0.
         12    1    1    2    0    0  0.26577089305E+02  0.16165872847E+02 -0.70030981595E+01  0.31886055019E+02  0.00000000000E+00 0. -1.
         11    1    3    3    0    0 -0.36545006070E+01 -0.94100607873E+01  0.80449054443E+00  0.10126787447E+02  0.51100000000E-03 0. -1.
        -11    1    3    3    0    0 -0.11228880191E+00 -0.45339538588E+01  0.21268175970E+02  0.21746371093E+02  0.51100000000E-03 0.  1.
        -12    1    3    3    0    0 -0.22810299896E+02 -0.22218582005E+01 -0.15069568355E+02  0.27428786441E+02  0.00000000000E+00 0.  1.
</event>
<event>
 7    1  0.1193961E-011  0.5930194E+02  0.7816164E-02  0.1266605E+00
        -11   -1    0    0    0    0  0.00000000000E+00  0.00000000000E+00  0.45593999997E+02  0.45594000000E+02  0.51100000000E-03 0. -1.
         11   -1    0    0    0    0 -0.00000000000E+00 -0.00000000000E+00 -0.45593999997E+02  0.45594000000E+02  0.51100000000E-03 0.  1.
    9900012    2    1    2    0    0 -0.23928224730E+02  0.20700431098E+02  0.39564018817E+01  0.59301938748E+02  0.49999990370E+02 0.  0.
         12    1    1    2    0    0  0.23928224730E+02 -0.20700431098E+02 -0.39564018817E+01  0.31886061252E+02  0.00000000000E+00 0. -1.
         11    1    3    3    0    0  0.10295125159E+02  0.12022386285E+02  0.11369570503E+01  0.15868838824E+02  0.51100000000E-03 0. -1.
        -11    1    3    3    0    0 -0.26069193095E+02  0.12562484481E+02 -0.73245566665E+01  0.29850761725E+02  0.51100000000E-03 0.  1.
         12    1    3    3    0    0 -0.81541567933E+01 -0.38844396687E+01  0.10144001498E+02  0.13582338198E+02  0.00000000000E+00 0. -1.
</event>
<event>
 7    1  0.1193961E-011  0.5930194E+02  0.7816164E-02  0.1266605E+00
        -11   -1    0    0    0    0  0.00000000000E+00  0.00000000000E+00  0.45593999997E+02  0.45594000000E+02  0.51100000000E-03 0.  1.
         11   -1    0    0    0    0 -0.00000000000E+00 -0.00000000000E+00 -0.45593999997E+02  0.45594000000E+02  0.51100000000E-03 0. -1.
    9900012    2    1    2    0    0  0.29682297790E+02  0.53345505882E+01  0.10354935435E+02  0.59301938470E+02  0.49999989863E+02 0.  0.
         12    1    1    2    0    0 -0.29682297790E+02 -0.53345505882E+01 -0.10354935435E+02  0.31886061530E+02  0.00000000000E+00 0. -1.
         11    1    3    3    0    0  0.29084512545E+02  0.61825858354E+01  0.11696885279E+02  0.31952313893E+02  0.51100000000E-03 0. -1.
        -11    1    3    3    0    0  0.79970016129E+01 -0.10353104137E+02  0.46656375024E+01  0.13889095494E+02  0.51100000000E-03 0.  1.
         12    1    3    3    0    0 -0.73992163681E+01  0.95050688901E+01 -0.60075873466E+01  0.13460529083E+02  0.00000000000E+00 0. -1.
</event>
<event>
 7    1  0.1193961E-011  0.5930195E+02  0.7816164E-02  0.1266605E+00
        -11   -1    0    0    0    0  0.00000000000E+00  0.00000000000E+00  0.45593999997E+02  0.45594000000E+02  0.51100000000E-03 0.  1.
         11   -1    0    0    0    0 -0.00000000000E+00 -0.00000000000E+00 -0.45593999997E+02  0.45594000000E+02  0.51100000000E-03 0. -1.
    9900012    2    1    2    0    0 -0.14458242556E+02 -0.28168190565E+02  0.37725915845E+01  0.59301949997E+02  0.50000010887E+02 0.  0.
         12    1    1    2    0    0  0.14458242556E+02  0.28168190565E+02 -0.37725915845E+01  0.31886050003E+02  0.00000000000E+00 0. -1.
         11    1    3    3    0    0 -0.25366432189E+02 -0.84769453726E+01  0.99250156783E+01  0.28527537947E+02  0.51100000000E-03 0. -1.
        -11    1    3    3    0    0  0.67340519757E+01  0.22001400692E+01  0.14430445070E+01  0.72298305682E+01  0.51100000000E-03 0.  1.
         12    1    3    3    0    0  0.41741376579E+01 -0.21891385262E+02 -0.75954686009E+01  0.23544581482E+02  0.00000000000E+00 0. -1.
</event>
<event>
 7    1  0.1193961E-011  0.5930195E+02  0.7816164E-02  0.1266605E+00
        -11   -1    0    0    0    0  0.00000000000E+00  0.00000000000E+00  0.45593999997E+02  0.45594000000E+02  0.51100000000E-03 0.  1.
         11   -1    0    0    0    0 -0.00000000000E+00 -0.00000000000E+00 -0.45593999997E+02  0.45594000000E+02  0.51100000000E-03 0. -1.
    9900012    2    1    2    0    0  0.73168380366E+01 -0.27871285850E+02  0.13651938653E+02  0.59301950970E+02  0.50000012660E+02 0.  0.
         12    1    1    2    0    0 -0.73168380366E+01  0.27871285850E+02 -0.13651938653E+02  0.31886049030E+02  0.00000000000E+00 0. -1.
         11    1    3    3    0    0  0.13669969043E+02 -0.79272130358E+01 -0.46608974122E+01  0.16475215479E+02  0.51100000000E-03 0.  1.
        -11    1    3    3    0    0 -0.19721804363E+01  0.27420232808E+01 -0.74746657183E+01  0.82023664395E+01  0.51100000000E-03 0. -1.
        -12    1    3    3    0    0 -0.43809505700E+01 -0.22686096095E+02  0.25787501784E+02  0.34624369051E+02  0.00000000000E+00 0.  1.
</event>
<event>
 7    1  0.1193961E-011  0.5930197E+02  0.7816164E-02  0.1266605E+00
        -11   -1    0    0    0    0  0.00000000000E+00  0.00000000000E+00  0.45593999997E+02  0.45594000000E+02  0.51100000000E-03 0.  1.
         11   -1    0    0    0    0 -0.00000000000E+00 -0.00000000000E+00 -0.45593999997E+02  0.45594000000E+02  0.51100000000E-03 0. -1.
    9900012    2    1    2    0    0  0.24967101083E+02  0.17153047561E+02  0.99566998053E+01  0.59301967820E+02  0.50000043392E+02 0.  0.
         12    1    1    2    0    0 -0.24967101083E+02 -0.17153047561E+02 -0.99566998053E+01  0.31886032180E+02  0.00000000000E+00 0. -1.
         11    1    3    3    0    0 -0.34077965264E+01  0.10090396307E+02 -0.11529485177E+02  0.15695802098E+02  0.51100000000E-03 0. -1.
        -11    1    3    3    0    0  0.86281845054E+01  0.14068435385E+02  0.60345021167E+01  0.17572184216E+02  0.51100000000E-03 0.  1.
        -12    1    3    3    0    0  0.19746713104E+02 -0.70057841316E+01  0.15451682865E+02  0.26033981507E+02  0.00000000000E+00 0.  1.
</event>
<event>
 7    1  0.1193961E-011  0.5930195E+02  0.7816164E-02  0.1266605E+00
        -11   -1    0    0    0    0  0.00000000000E+00  0.00000000000E+00  0.45593999997E+02  0.45594000000E+02  0.51100000000E-03 0.  1.
         11   -1    0    0    0    0 -0.00000000000E+00 -0.00000000000E+00 -0.45593999997E+02  0.45594000000E+02  0.51100000000E-03 0. -1.
    9900012    2    1    2    0    0 -0.24249031352E+02 -0.15353136083E+02 -0.13891937542E+02  0.59301949166E+02  0.50000009371E+02 0.  0.
         12    1    1    2    0    0  0.24249031352E+02  0.15353136083E+02  0.13891937542E+02  0.31886050834E+02  0.00000000000E+00 0. -1.
         11    1    3    3    0    0 -0.87958580842E+01 -0.12663754104E+02 -0.57383320421E+01  0.16451937343E+02  0.51100000000E-03 0. -1.
        -11    1    3    3    0    0 -0.23606683414E+02  0.16784732224E+01 -0.17703359289E+02  0.29555062249E+02  0.51100000000E-03 0.  1.
        -12    1    3    3    0    0  0.81535101457E+01 -0.43678552015E+01  0.95497537890E+01  0.13294949575E+02  0.00000000000E+00 0.  1.
</event>
<event>
 7    1  0.1193961E-011  0.5930191E+02  0.7816164E-02  0.1266605E+00
        -11   -1    0    0    0    0  0.00000000000E+00  0.00000000000E+00  0.45593999997E+02  0.45594000000E+02  0.51100000000E-03 0. -1.
         11   -1    0    0    0    0 -0.00000000000E+00 -0.00000000000E+00 -0.45593999997E+02  0.45594000000E+02  0.51100000000E-03 0.  1.
    9900012    2    1    2    0    0 -0.25098364912E+02 -0.17935102357E+02 -0.80701243764E+01  0.59301910161E+02  0.49999938235E+02 0.  0.
         12    1    1    2    0    0  0.25098364912E+02  0.17935102357E+02  0.80701243764E+01  0.31886089839E+02  0.00000000000E+00 0. -1.
         11    1    3    3    0    0 -0.21688956487E+01 -0.16025615631E+02  0.62677350943E+01  0.17343845253E+02  0.51100000000E-03 0. -1.
        -11    1    3    3    0    0 -0.99335136778E+01 -0.16480865178E+02 -0.10953381788E+02  0.22142045611E+02  0.51100000000E-03 0.  1.
         12    1    3    3    0    0 -0.12995955585E+02  0.14571378453E+02 -0.33844776829E+01  0.19816019297E+02  0.00000000000E+00 0. -1.
</event>
<event>
 7    1  0.1193961E-011  0.5930190E+02  0.7816164E-02  0.1266605E+00
        -11   -1    0    0    0    0  0.00000000000E+00  0.00000000000E+00  0.45593999997E+02  0.45594000000E+02  0.51100000000E-03 0.  1.
         11   -1    0    0    0    0 -0.00000000000E+00 -0.00000000000E+00 -0.45593999997E+02  0.45594000000E+02  0.51100000000E-03 0. -1.
    9900012    2    1    2    0    0 -0.24312860311E+02  0.12982270622E+02  0.16033370278E+02  0.59301898177E+02  0.49999916379E+02 0.  0.
         12    1    1    2    0    0  0.24312860311E+02 -0.12982270622E+02 -0.16033370278E+02  0.31886101823E+02  0.00000000000E+00 0. -1.
         11    1    3    3    0    0 -0.68236844656E+01 -0.99644539195E+01 -0.20658394733E+01  0.12252375467E+02  0.51100000000E-03 0. -1.
        -11    1    3    3    0    0  0.29281049106E+01  0.12044990923E+02  0.20315014433E+02  0.23798222967E+02  0.51100000000E-03 0.  1.
         12    1    3    3    0    0 -0.20417280756E+02  0.10901733619E+02 -0.22158046813E+01  0.23251299743E+02  0.00000000000E+00 0. -1.
</event>
<event>
 7    1  0.1193961E-011  0.5930196E+02  0.7816164E-02  0.1266605E+00
        -11   -1    0    0    0    0  0.00000000000E+00  0.00000000000E+00  0.45593999997E+02  0.45594000000E+02  0.51100000000E-03 0. -1.
         11   -1    0    0    0    0 -0.00000000000E+00 -0.00000000000E+00 -0.45593999997E+02  0.45594000000E+02  0.51100000000E-03 0.  1.
    9900012    2    1    2    0    0  0.49599364428E+01 -0.27060784849E+02 -0.16119315292E+02  0.59301962748E+02  0.50000034141E+02 0.  0.
         12    1    1    2    0    0 -0.49599364428E+01  0.27060784849E+02  0.16119315292E+02  0.31886037252E+02  0.00000000000E+00 0. -1.
         11    1    3    3    0    0  0.23991258348E+01 -0.60957893291E+01 -0.17684009943E+02  0.18858384348E+02  0.51100000000E-03 0. -1.
        -11    1    3    3    0    0 -0.68862656175E+01 -0.24974925012E+02 -0.72637275498E+01  0.26905933764E+02  0.51100000000E-03 0.  1.
         12    1    3    3    0    0  0.94470762255E+01  0.40099294919E+01  0.88284222001E+01  0.13537644636E+02  0.00000000000E+00 0. -1.
</event>
<event>
 7    1  0.1193961E-011  0.5930194E+02  0.7816164E-02  0.1266605E+00
        -11   -1    0    0    0    0  0.00000000000E+00  0.00000000000E+00  0.45593999997E+02  0.45594000000E+02  0.51100000000E-03 0.  1.
         11   -1    0    0    0    0 -0.00000000000E+00 -0.00000000000E+00 -0.45593999997E+02  0.45594000000E+02  0.51100000000E-03 0. -1.
    9900012    2    1    2    0    0 -0.38318638370E+01 -0.68018416426E+01  0.30915571466E+02  0.59301940518E+02  0.49999993600E+02 0.  0.
         12    1    1    2    0    0  0.38318638370E+01  0.68018416426E+01 -0.30915571466E+02  0.31886059482E+02  0.00000000000E+00 0. -1.
         11    1    3    3    0    0 -0.63610664756E+01 -0.45562076107E+01  0.41047119539E+02  0.41786220423E+02  0.51100000000E-03 0. -1.
        -11    1    3    3    0    0 -0.31575728543E+01 -0.34458921139E+00  0.21589414982E+01  0.38405776529E+01  0.51100000000E-03 0.  1.
         12    1    3    3    0    0  0.56867754929E+01 -0.19010448205E+01 -0.12290489571E+02  0.13675142442E+02  0.00000000000E+00 0. -1.
</event>
<event>
 7    1  0.1193961E-011  0.5930194E+02  0.7816164E-02  0.1266605E+00
        -11   -1    0    0    0    0  0.00000000000E+00  0.00000000000E+00  0.45593999997E+02  0.45594000000E+02  0.51100000000E-03 0.  1.
         11   -1    0    0    0    0 -0.00000000000E+00 -0.00000000000E+00 -0.45593999997E+02  0.45594000000E+02  0.51100000000E-03 0. -1.
    9900012    2    1    2    0    0  0.18112504574E+02  0.21388493427E+02  0.15204935272E+02  0.59301944589E+02  0.50000001024E+02 0.  0.
         12    1    1    2    0    0 -0.18112504574E+02 -0.21388493427E+02 -0.15204935272E+02  0.31886055411E+02  0.00000000000E+00 0. -1.
         11    1    3    3    0    0 -0.30199847063E+01 -0.19593870664E+01  0.50309131858E+01  0.61862422395E+01  0.51100000000E-03 0. -1.
        -11    1    3    3    0    0  0.57617967700E+01 -0.29525606404E+01  0.20068093167E+02  0.21086590051E+02  0.51100000000E-03 0.  1.
        -12    1    3    3    0    0  0.15370692510E+02  0.26300441134E+02 -0.98940710806E+01  0.32029112299E+02  0.00000000000E+00 0.  1.
</event>
<event>
 7    1  0.1193961E-011  0.5930162E+02  0.7816164E-02  0.1266606E+00
        -11   -1    0    0    0    0  0.00000000000E+00  0.00000000000E+00  0.45593999997E+02  0.45594000000E+02  0.51100000000E-03 0. -1.
         11   -1    0    0    0    0 -0.00000000000E+00 -0.00000000000E+00 -0.45593999997E+02  0.45594000000E+02  0.51100000000E-03 0.  1.
    9900012    2    1    2    0    0  0.15971139214E+02  0.25743463971E+02 -0.99467699938E+01  0.59301616412E+02  0.49999402504E+02 0.  0.
         12    1    1    2    0    0 -0.15971139214E+02 -0.25743463971E+02  0.99467699938E+01  0.31886383588E+02  0.00000000000E+00 0. -1.
         11    1    3    3    0    0 -0.13208893588E+01  0.12448690691E+02  0.82942947341E+01  0.15016989512E+02  0.51100000000E-03 0. -1.
        -11    1    3    3    0    0 -0.44908460253E+01  0.17550676833E+02 -0.71892014618E+01  0.19490473910E+02  0.51100000000E-03 0.  1.
        -12    1    3    3    0    0  0.21782874598E+02 -0.42559035536E+01 -0.11051863266E+02  0.24794152989E+02  0.00000000000E+00 0.  1.
</event>
<event>
 7    1  0.1193961E-011  0.5930195E+02  0.7816164E-02  0.1266605E+00
        -11   -1    0    0    0    0  0.00000000000E+00  0.00000000000E+00  0.45593999997E+02  0.45594000000E+02  0.51100000000E-03 0.  1.
         11   -1    0    0    0    0 -0.00000000000E+00 -0.00000000000E+00 -0.45593999997E+02  0.45594000000E+02  0.51100000000E-03 0. -1.
    9900012    2    1    2    0    0 -0.27946389023E+02 -0.34197625937E+01  0.14967447915E+02  0.59301953950E+02  0.50000018095E+02 0.  0.
         12    1    1    2    0    0  0.27946389023E+02  0.34197625937E+01 -0.14967447915E+02  0.31886046050E+02  0.00000000000E+00 0. -1.
         11    1    3    3    0    0 -0.55739787989E+01  0.10696278944E+01  0.12347838026E+02  0.13589792038E+02  0.51100000000E-03 0. -1.
        -11    1    3    3    0    0 -0.24776307824E+02 -0.16285161296E+02  0.10352140644E+02  0.31404437966E+02  0.51100000000E-03 0.  1.
         12    1    3    3    0    0  0.24038975992E+01  0.11795770808E+02 -0.77325307545E+01  0.14307723945E+02  0.00000000000E+00 0. -1.
</event>
<event>
 7    1  0.1193961E-011  0.5930197E+02  0.7816164E-02  0.1266605E+00
        -11   -1    0    0    0    0  0.00000000000E+00  0.00000000000E+00  0.45593999997E+02  0.45594000000E+02  0.51100000000E-03 0.  1.
         11   -1    0    0    0    0 -0.00000000000E+00 -0.00000000000E+00 -0.45593999997E+02  0.45594000000E+02  0.51100000000E-03 0. -1.
    9900012    2    1    2    0    0 -0.90787427534E+01  0.20289466095E+02  0.22861164781E+02  0.59301970778E+02  0.50000048787E+02 0.  0.
         12    1    1    2    0    0  0.90787427534E+01 -0.20289466095E+02 -0.22861164781E+02  0.31886029222E+02  0.00000000000E+00 0. -1.
         11    1    3    3    0    0  0.79443013861E+00 -0.62029078432E+01  0.11691767930E+01  0.63619304925E+01  0.51100000000E-03 0. -1.
        -11    1    3    3    0    0 -0.10099701335E+02  0.20837354698E+01 -0.90259667049E+01  0.13704524646E+02  0.51100000000E-03 0.  1.
        -12    1    3    3    0    0  0.22652844255E+00  0.24408638468E+02  0.30717954693E+02  0.39235515640E+02  0.00000000000E+00 0.  1.
</event>
<event>
 7    1  0.1193961E-011  0.5930210E+02  0.7816164E-02  0.1266604E+00
        -11   -1    0    0    0    0  0.00000000000E+00  0.00000000000E+00  0.45593999997E+02  0.45594000000E+02  0.51100000000E-03 0.  1.
         11   -1    0    0    0    0 -0.00000000000E+00 -0.00000000000E+00 -0.45593999997E+02  0.45594000000E+02  0.51100000000E-03 0. -1.
    9900012    2    1    2    0    0 -0.30711777575E+02 -0.50554006748E+01  0.69238904331E+01  0.59302100036E+02  0.50000284521E+02 0.  0.
         12    1    1    2    0    0  0.30711777575E+02  0.50554006748E+01 -0.69238904331E+01  0.31885899964E+02  0.00000000000E+00 0. -1.
         11    1    3    3    0    0 -0.16357135925E+02  0.10619608593E+02 -0.55923254188E+01  0.20288077440E+02  0.51100000000E-03 0. -1.
        -11    1    3    3    0    0 -0.16054300783E+02 -0.16689097881E+02 -0.30188632895E+01  0.23353374436E+02  0.51100000000E-03 0.  1.
        -12    1    3    3    0    0  0.16996591338E+01  0.10140886129E+01  0.15535079141E+02  0.15660648161E+02  0.00000000000E+00 0.  1.
</event>
<event>
 7    1  0.1193961E-011  0.5930193E+02  0.7816164E-02  0.1266605E+00
        -11   -1    0    0    0    0  0.00000000000E+00  0.00000000000E+00  0.45593999997E+02  0.45594000000E+02  0.51100000000E-03 0.  1.
         11   -1    0    0    0    0 -0.00000000000E+00 -0.00000000000E+00 -0.45593999997E+02  0.45594000000E+02  0.51100000000E-03 0. -1.
    9900012    2    1    2    0    0 -0.22916543203E+02 -0.20359371441E+02  0.87777941353E+01  0.59301927370E+02  0.49999969621E+02 0.  0.
         12    1    1    2    0    0  0.22916543203E+02  0.20359371441E+02 -0.87777941353E+01  0.31886072630E+02  0.00000000000E+00 0. -1.
         11    1    3    3    0    0 -0.14308678519E+02 -0.26273543634E+02 -0.44396639000E+01  0.30244801072E+02  0.51100000000E-03 0. -1.
        -11    1    3    3    0    0 -0.88650900378E+01 -0.17839091303E+00 -0.47669249391E+01  0.10067036224E+02  0.51100000000E-03 0.  1.
        -12    1    3    3    0    0  0.25722535331E+00  0.60925631062E+01  0.17984382974E+02  0.18990090075E+02  0.00000000000E+00 0.  1.
</event>
<event>
 7    1  0.1193961E-011  0.5930191E+02  0.7816164E-02  0.1266605E+00
        -11   -1    0    0    0    0  0.00000000000E+00  0.00000000000E+00  0.45593999997E+02  0.45594000000E+02  0.51100000000E-03 0.  1.
         11   -1    0    0    0    0 -0.00000000000E+00 -0.00000000000E+00 -0.45593999997E+02  0.45594000000E+02  0.51100000000E-03 0. -1.
    9900012    2    1    2    0    0  0.23141446905E+02 -0.21442964550E+02  0.46254886588E+01  0.59301914651E+02  0.49999946424E+02 0.  0.
         12    1    1    2    0    0 -0.23141446905E+02  0.21442964550E+02 -0.46254886588E+01  0.31886085349E+02  0.00000000000E+00 0. -1.
         11    1    3    3    0    0 -0.99792909711E+01  0.41184806447E+00 -0.31557260851E+01  0.10474467743E+02  0.51100000000E-03 0. -1.
        -11    1    3    3    0    0 -0.25501062611E+01 -0.40990376469E+01 -0.50310572783E+01  0.69725668999E+01  0.51100000000E-03 0.  1.
        -12    1    3    3    0    0  0.35670844137E+02 -0.17755774967E+02  0.12812272022E+02  0.41854880008E+02  0.00000000000E+00 0.  1.
</event>
<event>
 7    1  0.1193961E-011  0.5930190E+02  0.7816164E-02  0.1266605E+00
        -11   -1    0    0    0    0  0.00000000000E+00  0.00000000000E+00  0.45593999997E+02  0.45594000000E+02  0.51100000000E-03 0. -1.
         11   -1    0    0    0    0 -0.00000000000E+00 -0.00000000000E+00 -0.45593999997E+02  0.45594000000E+02  0.51100000000E-03 0.  1.
    9900012    2    1    2    0    0  0.31290766955E+01  0.14559598603E+02 -0.28194859852E+02  0.59301903429E+02  0.49999925959E+02 0.  0.
         12    1    1    2    0    0 -0.31290766955E+01 -0.14559598603E+02  0.28194859852E+02  0.31886096571E+02  0.00000000000E+00 0. -1.
         11    1    3    3    0    0 -0.67913449059E+01 -0.29048729734E+01  0.12692918966E+01  0.74947818382E+01  0.51100000000E-03 0. -1.
        -11    1    3    3    0    0 -0.56361800868E+01 -0.86833696459E+01 -0.14582100742E+01  0.10454368047E+02  0.51100000000E-03 0.  1.
        -12    1    3    3    0    0  0.15556601688E+02  0.26147841222E+02 -0.28005941674E+02  0.41352753544E+02  0.00000000000E+00 0.  1.
</event>
<event>
 7    1  0.1193961E-011  0.5930193E+02  0.7816164E-02  0.1266605E+00
        -11   -1    0    0    0    0  0.00000000000E+00  0.00000000000E+00  0.45593999997E+02  0.45594000000E+02  0.51100000000E-03 0. -1.
         11   -1    0    0    0    0 -0.00000000000E+00 -0.00000000000E+00 -0.45593999997E+02  0.45594000000E+02  0.51100000000E-03 0.  1.
    9900012    2    1    2    0    0  0.67079930991E+01 -0.27724030685E+01 -0.31048959844E+02  0.59301932547E+02  0.49999979062E+02 0.  0.
         12    1    1    2    0    0 -0.67079930991E+01  0.27724030685E+01  0.31048959844E+02  0.31886067453E+02  0.00000000000E+00 0. -1.
         11    1    3    3    0    0 -0.26468403583E+01  0.30413564995E+01  0.42204753558E+01  0.58367821383E+01  0.51100000000E-03 0. -1.
        -11    1    3    3    0    0 -0.86439444193E+01  0.10040504101E+02 -0.22952514341E+02  0.26501837909E+02  0.51100000000E-03 0.  1.
         12    1    3    3    0    0  0.17998777877E+02 -0.15854263669E+02 -0.12316920859E+02  0.26963312500E+02  0.00000000000E+00 0. -1.
</event>
<event>
 7    1  0.1193961E-011  0.5930195E+02  0.7816164E-02  0.1266605E+00
        -11   -1    0    0    0    0  0.00000000000E+00  0.00000000000E+00  0.45593999997E+02  0.45594000000E+02  0.51100000000E-03 0.  1.
         11   -1    0    0    0    0 -0.00000000000E+00 -0.00000000000E+00 -0.45593999997E+02  0.45594000000E+02  0.51100000000E-03 0. -1.
    9900012    2    1    2    0    0 -0.15989196746E+02 -0.14876340681E+02  0.23232742875E+02  0.59301948721E+02  0.50000008560E+02 0.  0.
         12    1    1    2    0    0  0.15989196746E+02  0.14876340681E+02 -0.23232742875E+02  0.31886051279E+02  0.00000000000E+00 0. -1.
         11    1    3    3    0    0 -0.25598471110E+02  0.45850160963E+01  0.13507453368E+02  0.29304528533E+02  0.51100000000E-03 0. -1.
        -11    1    3    3    0    0  0.56920046300E+01  0.17028716314E+00  0.81155718973E+01  0.99141526066E+01  0.51100000000E-03 0.  1.
         12    1    3    3    0    0  0.39172697343E+01 -0.19631643941E+02  0.16097176099E+01  0.20083267582E+02  0.00000000000E+00 0. -1.
</event>
<event>
 7    1  0.1193961E-011  0.5930193E+02  0.7816164E-02  0.1266605E+00
        -11   -1    0    0    0    0  0.00000000000E+00  0.00000000000E+00  0.45593999997E+02  0.45594000000E+02  0.51100000000E-03 0.  1.
         11   -1    0    0    0    0 -0.00000000000E+00 -0.00000000000E+00 -0.45593999997E+02  0.45594000000E+02  0.51100000000E-03 0. -1.
    9900012    2    1    2    0    0  0.25694993886E+02  0.11183891148E+02  0.15212143615E+02  0.59301930230E+02  0.49999974836E+02 0.  0.
         12    1    1    2    0    0 -0.25694993886E+02 -0.11183891148E+02 -0.15212143615E+02  0.31886069770E+02  0.00000000000E+00 0. -1.
         11    1    3    3    0    0  0.20595892357E+02 -0.98049540741E+01  0.66468590008E+01  0.23759390590E+02  0.51100000000E-03 0. -1.
        -11    1    3    3    0    0  0.13767116333E+02  0.48799872746E+01  0.91581348488E+01  0.17240046464E+02  0.51100000000E-03 0.  1.
         12    1    3    3    0    0 -0.86680148045E+01  0.16108857948E+02 -0.59285023445E+00  0.18302493175E+02  0.00000000000E+00 0. -1.
</event>
<event>
 7    1  0.1193961E-011  0.5930194E+02  0.7816164E-02  0.1266605E+00
        -11   -1    0    0    0    0  0.00000000000E+00  0.00000000000E+00  0.45593999997E+02  0.45594000000E+02  0.51100000000E-03 0.  1.
         11   -1    0    0    0    0 -0.00000000000E+00 -0.00000000000E+00 -0.45593999997E+02  0.45594000000E+02  0.51100000000E-03 0. -1.
    9900012    2    1    2    0    0 -0.13672533649E+02 -0.24083823977E+02  0.15803546257E+02  0.59301939911E+02  0.49999992492E+02 0.  0.
         12    1    1    2    0    0  0.13672533649E+02  0.24083823977E+02 -0.15803546257E+02  0.31886060089E+02  0.00000000000E+00 0. -1.
         11    1    3    3    0    0 -0.13719372388E+02 -0.14213254334E+02  0.13503955683E+02  0.23928948929E+02  0.51100000000E-03 0. -1.
        -11    1    3    3    0    0 -0.13027891878E+02  0.54912664222E+01 -0.31346572252E+01  0.14481230952E+02  0.51100000000E-03 0.  1.
         12    1    3    3    0    0  0.13074730617E+02 -0.15361836064E+02  0.54342477987E+01  0.20891760029E+02  0.00000000000E+00 0. -1.
</event>
<event>
 7    1  0.1193961E-011  0.5930195E+02  0.7816164E-02  0.1266605E+00
        -11   -1    0    0    0    0  0.00000000000E+00  0.00000000000E+00  0.45593999997E+02  0.45594000000E+02  0.51100000000E-03 0. -1.
         11   -1    0    0    0    0 -0.00000000000E+00 -0.00000000000E+00 -0.45593999997E+02  0.45594000000E+02  0.51100000000E-03 0.  1.
    9900012    2    1    2    0    0  0.85736271678E+01 -0.14626141223E+02 -0.27005357665E+02  0.59301946113E+02  0.50000003802E+02 0.  0.
         12    1    1    2    0    0 -0.85736271678E+01  0.14626141223E+02  0.27005357665E+02  0.31886053887E+02  0.00000000000E+00 0. -1.
         11    1    3    3    0    0  0.80972070821E+00  0.60663967077E+01 -0.18582669275E+02  0.19564570384E+02  0.51100000000E-03 0. -1.
        -11    1    3    3    0    0  0.12142935813E+02 -0.73907629542E+01 -0.17877601684E+02  0.22840378925E+02  0.51100000000E-03 0.  1.
        -12    1    3    3    0    0 -0.43790293532E+01 -0.13301774976E+02  0.94549132942E+01  0.16896996804E+02  0.00000000000E+00 0.  1.
</event>
<event>
 7    1  0.1193961E-011  0.5930196E+02  0.7816164E-02  0.1266605E+00
        -11   -1    0    0    0    0  0.00000000000E+00  0.00000000000E+00  0.45593999997E+02  0.45594000000E+02  0.51100000000E-03 0.  1.
         11   -1    0    0    0    0 -0.00000000000E+00 -0.00000000000E+00 -0.45593999997E+02  0.45594000000E+02  0.51100000000E-03 0. -1.
    9900012    2    1    2    0    0  0.32970242737E+01 -0.31024140714E+02 -0.65842201739E+01  0.59301958674E+02  0.50000026712E+02 0.  0.
         12    1    1    2    0    0 -0.32970242737E+01  0.31024140714E+02  0.65842201739E+01  0.31886041326E+02  0.00000000000E+00 0. -1.
         11    1    3    3    0    0 -0.14456119078E+01  0.95447307061E+01 -0.24568623265E+01  0.99613177237E+01  0.51100000000E-03 0. -1.
        -11    1    3    3    0    0  0.40849155831E+01 -0.12749726577E+02 -0.14414763067E+02  0.19673013436E+02  0.51100000000E-03 0.  1.
        -12    1    3    3    0    0  0.65772059840E+00 -0.27819144843E+02  0.10287405220E+02  0.29667627515E+02  0.00000000000E+00 0.  1.
</event>
<event>
 7    1  0.1193961E-011  0.5930186E+02  0.7816164E-02  0.1266605E+00
        -11   -1    0    0    0    0  0.00000000000E+00  0.00000000000E+00  0.45593999997E+02  0.45594000000E+02  0.51100000000E-03 0.  1.
         11   -1    0    0    0    0 -0.00000000000E+00 -0.00000000000E+00 -0.45593999997E+02  0.45594000000E+02  0.51100000000E-03 0. -1.
    9900012    2    1    2    0    0  0.27235355006E+02  0.77505231550E+01  0.14659158229E+02  0.59301857375E+02  0.49999841967E+02 0.  0.
         12    1    1    2    0    0 -0.27235355006E+02 -0.77505231550E+01 -0.14659158229E+02  0.31886142625E+02  0.00000000000E+00 0. -1.
         11    1    3    3    0    0  0.89572216540E+00  0.31628730425E+01  0.41510503819E+00  0.33133663447E+01  0.51100000000E-03 0. -1.
        -11    1    3    3    0    0  0.89907398364E+01  0.20628454160E+02  0.21650424309E+02  0.31226709671E+02  0.51100000000E-03 0.  1.
         12    1    3    3    0    0  0.17348893004E+02 -0.16040804048E+02 -0.74063711179E+01  0.24761781360E+02  0.00000000000E+00 0. -1.
</event>
<event>
 7    1  0.1193961E-011  0.5930195E+02  0.7816164E-02  0.1266605E+00
        -11   -1    0    0    0    0  0.00000000000E+00  0.00000000000E+00  0.45593999997E+02  0.45594000000E+02  0.51100000000E-03 0.  1.
         11   -1    0    0    0    0 -0.00000000000E+00 -0.00000000000E+00 -0.45593999997E+02  0.45594000000E+02  0.51100000000E-03 0. -1.
    9900012    2    1    2    0    0 -0.36930658191E-02 -0.27692349538E+02 -0.15806767096E+02  0.59301950973E+02  0.50000012666E+02 0.  0.
         12    1    1    2    0    0  0.36930658191E-02  0.27692349538E+02  0.15806767096E+02  0.31886049027E+02  0.00000000000E+00 0. -1.
         11    1    3    3    0    0  0.19499285542E+02 -0.69887264906E+01 -0.58682399664E+01  0.21529065822E+02  0.51100000000E-03 0. -1.
        -11    1    3    3    0    0 -0.58573172222E+01 -0.19034537057E+02  0.13835350188E+01  0.19963364832E+02  0.51100000000E-03 0.  1.
        -12    1    3    3    0    0 -0.13645661385E+02 -0.16690859902E+01 -0.11322062148E+02  0.17809520318E+02  0.00000000000E+00 0.  1.
</event>
<event>
 7    1  0.1193961E-011  0.5930188E+02  0.7816164E-02  0.1266605E+00
        -11   -1    0    0    0    0  0.00000000000E+00  0.00000000000E+00  0.45593999997E+02  0.45594000000E+02  0.51100000000E-03 0.  1.
         11   -1    0    0    0    0 -0.00000000000E+00 -0.00000000000E+00 -0.45593999997E+02  0.45594000000E+02  0.51100000000E-03 0. -1.
    9900012    2    1    2    0    0 -0.13414611050E+02 -0.11695781912E+02  0.26457158336E+02  0.59301884975E+02  0.49999892303E+02 0.  0.
         12    1    1    2    0    0  0.13414611050E+02  0.11695781912E+02 -0.26457158336E+02  0.31886115025E+02  0.00000000000E+00 0. -1.
         11    1    3    3    0    0 -0.57115114780E+01 -0.45069717754E+01 -0.10004480518E+02  0.12370278438E+02  0.51100000000E-03 0. -1.
        -11    1    3    3    0    0  0.84667465243E+01 -0.99222004808E+01  0.18139205626E+02  0.22342037510E+02  0.51100000000E-03 0.  1.
        -12    1    3    3    0    0 -0.16169846097E+02  0.27333903441E+01  0.18322433227E+02  0.24589569027E+02  0.00000000000E+00 0.  1.
</event>
<event>
 7    1  0.1193961E-011  0.5930194E+02  0.7816164E-02  0.1266605E+00
        -11   -1    0    0    0    0  0.00000000000E+00  0.00000000000E+00  0.45593999997E+02  0.45594000000E+02  0.51100000000E-03 0.  1.
         11   -1    0    0    0    0 -0.00000000000E+00 -0.00000000000E+00 -0.45593999997E+02  0.45594000000E+02  0.51100000000E-03 0. -1.
    9900012    2    1    2    0    0  0.28340064434E+02 -0.50458302719E+01  0.13715002474E+02  0.59301938028E+02  0.49999989057E+02 0.  0.
         12    1    1    2    0    0 -0.28340064434E+02  0.50458302719E+01 -0.13715002474E+02  0.31886061972E+02  0.00000000000E+00 0. -1.
         11    1    3    3    0    0  0.11109969101E+02 -0.36255274819E+01 -0.14793043270E+02  0.18852320610E+02  0.51100000000E-03 0. -1.
        -11    1    3    3    0    0  0.85386221908E+01 -0.10292939631E+02  0.58215943959E+01  0.14585734015E+02  0.51100000000E-03 0.  1.
         12    1    3    3    0    0  0.86914731423E+01  0.88726368413E+01  0.22686451348E+02  0.25863883403E+02  0.00000000000E+00 0. -1.
</event>
<event>
 7    1  0.1193961E-011  0.5930195E+02  0.7816164E-02  0.1266605E+00
        -11   -1    0    0    0    0  0.00000000000E+00  0.00000000000E+00  0.45593999997E+02  0.45594000000E+02  0.51100000000E-03 0.  1.
         11   -1    0    0    0    0 -0.00000000000E+00 -0.00000000000E+00 -0.45593999997E+02  0.45594000000E+02  0.51100000000E-03 0. -1.
    9900012    2    1    2    0    0 -0.31816706386E+02  0.19972798545E+01 -0.65419109826E+00  0.59301954493E+02  0.50000019086E+02 0.  0.
         12    1    1    2    0    0  0.31816706386E+02 -0.19972798545E+01  0.65419109826E+00  0.31886045507E+02  0.00000000000E+00 0. -1.
         11    1    3    3    0    0 -0.12741551206E+02 -0.16188208769E+01 -0.19239046426E+02  0.23132414829E+02  0.51100000000E-03 0. -1.
        -11    1    3    3    0    0 -0.14381180747E+02 -0.80659083463E+01  0.41249013752E+01  0.16996824666E+02  0.51100000000E-03 0.  1.
        -12    1    3    3    0    0 -0.46939744333E+01  0.11682009078E+02  0.14459953952E+02  0.19172714998E+02  0.00000000000E+00 0.  1.
</event>
<event>
 7    1  0.1193961E-011  0.5930196E+02  0.7816164E-02  0.1266605E+00
        -11   -1    0    0    0    0  0.00000000000E+00  0.00000000000E+00  0.45593999997E+02  0.45594000000E+02  0.51100000000E-03 0. -1.
         11   -1    0    0    0    0 -0.00000000000E+00 -0.00000000000E+00 -0.45593999997E+02  0.45594000000E+02  0.51100000000E-03 0.  1.
    9900012    2    1    2    0    0  0.24986480103E+01 -0.49255468213E+01 -0.31404065531E+02  0.59301959398E+02  0.50000028032E+02 0.  0.
         12    1    1    2    0    0 -0.24986480103E+01  0.49255468213E+01  0.31404065531E+02  0.31886040602E+02  0.00000000000E+00 0. -1.
         11    1    3    3    0    0 -0.47997316812E+01  0.49762779805E+01 -0.23841279997E+02  0.24823525110E+02  0.51100000000E-03 0.  1.
        -11    1    3    3    0    0 -0.10449867548E+02  0.20916305952E+01  0.22901013025E+01  0.10900422678E+02  0.51100000000E-03 0. -1.
        -12    1    3    3    0    0  0.17748247240E+02 -0.11993455397E+02 -0.98528868369E+01  0.23578011610E+02  0.00000000000E+00 0.  1.
</event>
<event>
 7    1  0.1193961E-011  0.5930188E+02  0.7816164E-02  0.1266605E+00
        -11   -1    0    0    0    0  0.00000000000E+00  0.00000000000E+00  0.45593999997E+02  0.45594000000E+02  0.51100000000E-03 0.  1.
         11   -1    0    0    0    0 -0.00000000000E+00 -0.00000000000E+00 -0.45593999997E+02  0.45594000000E+02  0.51100000000E-03 0. -1.
    9900012    2    1    2    0    0 -0.18720641217E+02 -0.13878830236E+02  0.21763272272E+02  0.59301884585E+02  0.49999891590E+02 0.  0.
         12    1    1    2    0    0  0.18720641217E+02  0.13878830236E+02 -0.21763272272E+02  0.31886115415E+02  0.00000000000E+00 0. -1.
         11    1    3    3    0    0  0.96735802507E+01 -0.80455669436E+01 -0.15527695146E+01  0.12677554801E+02  0.51100000000E-03 0. -1.
        -11    1    3    3    0    0  0.49138601477E+01 -0.46179441506E+01  0.18965061091E+01  0.70048672659E+01  0.51100000000E-03 0.  1.
        -12    1    3    3    0    0 -0.33308081616E+02 -0.12153191417E+01  0.21419535678E+02  0.39619462517E+02  0.00000000000E+00 0.  1.
</event>
<event>
 7    1  0.1193961E-011  0.5930194E+02  0.7816164E-02  0.1266605E+00
        -11   -1    0    0    0    0  0.00000000000E+00  0.00000000000E+00  0.45593999997E+02  0.45594000000E+02  0.51100000000E-03 0.  1.
         11   -1    0    0    0    0 -0.00000000000E+00 -0.00000000000E+00 -0.45593999997E+02  0.45594000000E+02  0.51100000000E-03 0. -1.
    9900012    2    1    2    0    0 -0.17180985895E+02  0.26782975000E+02  0.20509769538E+01  0.59301944543E+02  0.50000000939E+02 0.  0.
         12    1    1    2    0    0  0.17180985895E+02 -0.26782975000E+02 -0.20509769538E+01  0.31886055457E+02  0.00000000000E+00 0. -1.
         11    1    3    3    0    0 -0.51909829357E+01 -0.31556029496E+01 -0.68167592439E+01  0.91308455613E+01  0.51100000000E-03 0. -1.
        -11    1    3    3    0    0  0.10829198300E+02  0.28233694603E+01  0.95695139160E+01  0.14724759685E+02  0.51100000000E-03 0.  1.
        -12    1    3    3    0    0 -0.22819201259E+02  0.27115208489E+02 -0.70177771835E+00  0.35446339296E+02  0.00000000000E+00 0.  1.
</event>
<event>
 7    1  0.1193961E-011  0.5930194E+02  0.7816164E-02  0.1266605E+00
        -11   -1    0    0    0    0  0.00000000000E+00  0.00000000000E+00  0.45593999997E+02  0.45594000000E+02  0.51100000000E-03 0. -1.
         11   -1    0    0    0    0 -0.00000000000E+00 -0.00000000000E+00 -0.45593999997E+02  0.45594000000E+02  0.51100000000E-03 0.  1.
    9900012    2    1    2    0    0 -0.25869756461E+02  0.17074227755E+02 -0.74797735262E+01  0.59301944039E+02  0.50000000020E+02 0.  0.
         12    1    1    2    0    0  0.25869756461E+02 -0.17074227755E+02  0.74797735262E+01  0.31886055961E+02  0.00000000000E+00 0. -1.
         11    1    3    3    0    0  0.39162681195E+01  0.22148689243E+02 -0.11308586410E+02  0.25175101152E+02  0.51100000000E-03 0. -1.
        -11    1    3    3    0    0 -0.95728092216E+01  0.28685709584E+01 -0.43777451271E+01  0.10910180035E+02  0.51100000000E-03 0.  1.
        -12    1    3    3    0    0 -0.20213215359E+02 -0.79430324468E+01  0.82065580105E+01  0.23216662852E+02  0.00000000000E+00 0.  1.
</event>
<event>
 7    1  0.1193961E-011  0.5930196E+02  0.7816164E-02  0.1266605E+00
        -11   -1    0    0    0    0  0.00000000000E+00  0.00000000000E+00  0.45593999997E+02  0.45594000000E+02  0.51100000000E-03 0.  1.
         11   -1    0    0    0    0 -0.00000000000E+00 -0.00000000000E+00 -0.45593999997E+02  0.45594000000E+02  0.51100000000E-03 0. -1.
    9900012    2    1    2    0    0  0.17928459434E+01  0.20644496750E+02  0.24234481438E+02  0.59301958646E+02  0.50000026661E+02 0.  0.
         12    1    1    2    0    0 -0.17928459434E+01 -0.20644496750E+02 -0.24234481438E+02  0.31886041354E+02  0.00000000000E+00 0. -1.
         11    1    3    3    0    0 -0.44991173449E+01 -0.91246427003E+01 -0.24122191161E+00  0.10176411429E+02  0.51100000000E-03 0. -1.
        -11    1    3    3    0    0  0.14174426277E+02  0.51061373437E+01  0.27261205790E+01  0.15310739124E+02  0.51100000000E-03 0.  1.
        -12    1    3    3    0    0 -0.78824629890E+01  0.24663002107E+02  0.21749582770E+02  0.33814808093E+02  0.00000000000E+00 0.  1.
</event>
<event>
 7    1  0.1193961E-011  0.5930195E+02  0.7816164E-02  0.1266605E+00
        -11   -1    0    0    0    0  0.00000000000E+00  0.00000000000E+00  0.45593999997E+02  0.45594000000E+02  0.51100000000E-03 0.  1.
         11   -1    0    0    0    0 -0.00000000000E+00 -0.00000000000E+00 -0.45593999997E+02  0.45594000000E+02  0.51100000000E-03 0. -1.
    9900012    2    1    2    0    0  0.25725049518E+02  0.83282307219E+01  0.16899189211E+02  0.59301949827E+02  0.50000010576E+02 0.  0.
         12    1    1    2    0    0 -0.25725049518E+02 -0.83282307219E+01 -0.16899189211E+02  0.31886050173E+02  0.00000000000E+00 0. -1.
         11    1    3    3    0    0  0.30420542562E+02  0.80089545515E+01  0.29414191042E+02  0.43066778352E+02  0.51100000000E-03 0.  1.
        -11    1    3    3    0    0 -0.57076183394E+01  0.19185790575E+01 -0.33781057993E+01  0.69043067546E+01  0.51100000000E-03 0. -1.
        -12    1    3    3    0    0  0.10121252953E+01 -0.15993028871E+01 -0.91368960310E+01  0.93308647198E+01  0.00000000000E+00 0.  1.
</event>
<event>
 7    1  0.1193961E-011  0.5930197E+02  0.7816164E-02  0.1266605E+00
        -11   -1    0    0    0    0  0.00000000000E+00  0.00000000000E+00  0.45593999997E+02  0.45594000000E+02  0.51100000000E-03 0. -1.
         11   -1    0    0    0    0 -0.00000000000E+00 -0.00000000000E+00 -0.45593999997E+02  0.45594000000E+02  0.51100000000E-03 0.  1.
    9900012    2    1    2    0    0  0.29143948908E+02 -0.10033707069E+02  0.81654235832E+01  0.59301965787E+02  0.50000039684E+02 0.  0.
         12    1    1    2    0    0 -0.29143948908E+02  0.10033707069E+02 -0.81654235832E+01  0.31886034213E+02  0.00000000000E+00 0. -1.
         11    1    3    3    0    0 -0.98897629397E+01 -0.35798165432E+01 -0.10419517358E+01  0.10569208162E+02  0.51100000000E-03 0. -1.
        -11    1    3    3    0    0  0.50253291738E+01 -0.11149906066E+02  0.75267294283E+01  0.14360570836E+02  0.51100000000E-03 0.  1.
         12    1    3    3    0    0  0.34008382674E+02  0.46960155404E+01  0.16806458907E+01  0.34372186789E+02  0.00000000000E+00 0. -1.
</event>
<event>
 7    1  0.1193961E-011  0.5930197E+02  0.7816164E-02  0.1266605E+00
        -11   -1    0    0    0    0  0.00000000000E+00  0.00000000000E+00  0.45593999997E+02  0.45594000000E+02  0.51100000000E-03 0.  1.
         11   -1    0    0    0    0 -0.00000000000E+00 -0.00000000000E+00 -0.45593999997E+02  0.45594000000E+02  0.51100000000E-03 0. -1.
    9900012    2    1    2    0    0  0.26981798600E+02  0.51550549491E-01  0.16991145253E+02  0.59301966534E+02  0.50000041047E+02 0.  0.
         12    1    1    2    0    0 -0.26981798600E+02 -0.51550549491E-01 -0.16991145253E+02  0.31886033466E+02  0.00000000000E+00 0. -1.
         11    1    3    3    0    0  0.36187057111E+01 -0.11935148357E+02  0.18098877369E+01  0.12602320866E+02  0.51100000000E-03 0. -1.
        -11    1    3    3    0    0 -0.61527563445E+01  0.12930998373E+02  0.75960805506E+01  0.16210107019E+02  0.51100000000E-03 0.  1.
        -12    1    3    3    0    0  0.29515849234E+02 -0.94429946685E+00  0.75851769654E+01  0.30489538650E+02  0.00000000000E+00 0.  1.
</event>
<event>
 7    1  0.1193961E-011  0.5930195E+02  0.7816164E-02  0.1266605E+00
        -11   -1    0    0    0    0  0.00000000000E+00  0.00000000000E+00  0.45593999997E+02  0.45594000000E+02  0.51100000000E-03 0.  1.
         11   -1    0    0    0    0 -0.00000000000E+00 -0.00000000000E+00 -0.45593999997E+02  0.45594000000E+02  0.51100000000E-03 0. -1.
    9900012    2    1    2    0    0  0.30429877000E+02 -0.69942490340E+01  0.64671020554E+01  0.59301947520E+02  0.50000006368E+02 0.  0.
         12    1    1    2    0    0 -0.30429877000E+02  0.69942490340E+01 -0.64671020554E+01  0.31886052480E+02  0.00000000000E+00 0. -1.
         11    1    3    3    0    0  0.55445226045E+01  0.10550204236E+02  0.90478475559E+01  0.14963692258E+02  0.51100000000E-03 0. -1.
        -11    1    3    3    0    0 -0.17039746128E+01  0.43818094381E+01 -0.81680543717E+01  0.94244838540E+01  0.51100000000E-03 0.  1.
        -12    1    3    3    0    0  0.26589329008E+02 -0.21926262708E+02  0.55873088713E+01  0.34913771408E+02  0.00000000000E+00 0.  1.
</event>
<event>
 7    1  0.1193961E-011  0.5930195E+02  0.7816164E-02  0.1266605E+00
        -11   -1    0    0    0    0  0.00000000000E+00  0.00000000000E+00  0.45593999997E+02  0.45594000000E+02  0.51100000000E-03 0. -1.
         11   -1    0    0    0    0 -0.00000000000E+00 -0.00000000000E+00 -0.45593999997E+02  0.45594000000E+02  0.51100000000E-03 0.  1.
    9900012    2    1    2    0    0 -0.13490558911E+01 -0.13033384778E+02 -0.29069418033E+02  0.59301950772E+02  0.50000012300E+02 0.  0.
         12    1    1    2    0    0  0.13490558911E+01  0.13033384778E+02  0.29069418033E+02  0.31886049228E+02  0.00000000000E+00 0. -1.
         11    1    3    3    0    0  0.24283091033E+01  0.76477041303E+01  0.43518648130E+01  0.91281318559E+01  0.51100000000E-03 0. -1.
        -11    1    3    3    0    0 -0.54298041951E+00 -0.19113038866E+02 -0.27792446218E+01  0.19321679103E+02  0.51100000000E-03 0.  1.
        -12    1    3    3    0    0 -0.32343845749E+01 -0.15680500428E+01 -0.30642038225E+02  0.30852139813E+02  0.00000000000E+00 0.  1.
</event>
<event>
 7    1  0.1193961E-011  0.5930194E+02  0.7816164E-02  0.1266605E+00
        -11   -1    0    0    0    0  0.00000000000E+00  0.00000000000E+00  0.45593999997E+02  0.45594000000E+02  0.51100000000E-03 0.  1.
         11   -1    0    0    0    0 -0.00000000000E+00 -0.00000000000E+00 -0.45593999997E+02  0.45594000000E+02  0.51100000000E-03 0. -1.
    9900012    2    1    2    0    0 -0.19729721496E+02 -0.11935097634E+02  0.22022998206E+02  0.59301938534E+02  0.49999989980E+02 0.  0.
         12    1    1    2    0    0  0.19729721496E+02  0.11935097634E+02 -0.22022998206E+02  0.31886061466E+02  0.00000000000E+00 0. -1.
         11    1    3    3    0    0 -0.15899269631E+02  0.14813900624E+02  0.88687117046E+01  0.23471098697E+02  0.51100000000E-03 0. -1.
        -11    1    3    3    0    0 -0.81810587984E+01 -0.37129225470E+01  0.72280239760E-01  0.89844722492E+01  0.51100000000E-03 0.  1.
        -12    1    3    3    0    0  0.43506069328E+01 -0.23036075710E+02  0.13082006261E+02  0.26846367588E+02  0.00000000000E+00 0.  1.
</event>
<event>
 7    1  0.1193961E-011  0.5930200E+02  0.7816164E-02  0.1266605E+00
        -11   -1    0    0    0    0  0.00000000000E+00  0.00000000000E+00  0.45593999997E+02  0.45594000000E+02  0.51100000000E-03 0.  1.
         11   -1    0    0    0    0 -0.00000000000E+00 -0.00000000000E+00 -0.45593999997E+02  0.45594000000E+02  0.51100000000E-03 0. -1.
    9900012    2    1    2    0    0 -0.13452060375E+02 -0.13999977725E+02  0.25293471175E+02  0.59302000114E+02  0.50000102288E+02 0.  0.
         12    1    1    2    0    0  0.13452060375E+02  0.13999977725E+02 -0.25293471175E+02  0.31885999886E+02  0.00000000000E+00 0. -1.
         11    1    3    3    0    0 -0.26433413836E+02 -0.86261103046E+01  0.79527115301E+01  0.28920248390E+02  0.51100000000E-03 0. -1.
        -11    1    3    3    0    0  0.75617819568E+01 -0.49292692540E+01  0.21641687299E+02  0.23448685915E+02  0.51100000000E-03 0.  1.
        -12    1    3    3    0    0  0.54195715046E+01 -0.44459816654E+00 -0.43009276537E+01  0.69330658085E+01  0.00000000000E+00 0.  1.
</event>
<event>
 7    1  0.1193961E-011  0.5930215E+02  0.7816164E-02  0.1266604E+00
        -11   -1    0    0    0    0  0.00000000000E+00  0.00000000000E+00  0.45593999997E+02  0.45594000000E+02  0.51100000000E-03 0. -1.
         11   -1    0    0    0    0 -0.00000000000E+00 -0.00000000000E+00 -0.45593999997E+02  0.45594000000E+02  0.51100000000E-03 0.  1.
    9900012    2    1    2    0    0  0.30719068326E+02 -0.77953375485E+01 -0.35041048490E+01  0.59302153656E+02  0.50000382310E+02 0.  0.
         12    1    1    2    0    0 -0.30719068326E+02  0.77953375485E+01  0.35041048490E+01  0.31885846344E+02  0.00000000000E+00 0. -1.
         11    1    3    3    0    0  0.65162213693E+01 -0.83972135763E+01 -0.25899493238E+01  0.10939934851E+02  0.51100000000E-03 0. -1.
        -11    1    3    3    0    0  0.30007675330E+02 -0.13547324591E+02  0.10637579302E+01  0.32941192502E+02  0.51100000000E-03 0.  1.
         12    1    3    3    0    0 -0.58048283738E+01  0.14149200618E+02 -0.19779134554E+01  0.15421026303E+02  0.00000000000E+00 0. -1.
</event>
<event>
 7    1  0.1193961E-011  0.5930195E+02  0.7816164E-02  0.1266605E+00
        -11   -1    0    0    0    0  0.00000000000E+00  0.00000000000E+00  0.45593999997E+02  0.45594000000E+02  0.51100000000E-03 0.  1.
         11   -1    0    0    0    0 -0.00000000000E+00 -0.00000000000E+00 -0.45593999997E+02  0.45594000000E+02  0.51100000000E-03 0. -1.
    9900012    2    1    2    0    0 -0.95592742798E+01  0.25052787794E+02  0.17253940520E+02  0.59301947179E+02  0.50000005748E+02 0.  0.
         12    1    1    2    0    0  0.95592742798E+01 -0.25052787794E+02 -0.17253940520E+02  0.31886052821E+02  0.00000000000E+00 0. -1.
         11    1    3    3    0    0 -0.22503043716E+01 -0.77754042834E+01 -0.31617977795E+01  0.86900947633E+01  0.51100000000E-03 0. -1.
        -11    1    3    3    0    0  0.53532343982E+01  0.29980183093E+01  0.16943297860E+02  0.18020004854E+02  0.51100000000E-03 0.  1.
        -12    1    3    3    0    0 -0.12662204306E+02  0.29830173768E+02  0.34724404399E+01  0.32591847562E+02  0.00000000000E+00 0.  1.
</event>
<event>
 7    1  0.1193961E-011  0.5930195E+02  0.7816164E-02  0.1266605E+00
        -11   -1    0    0    0    0  0.00000000000E+00  0.00000000000E+00  0.45593999997E+02  0.45594000000E+02  0.51100000000E-03 0. -1.
         11   -1    0    0    0    0 -0.00000000000E+00 -0.00000000000E+00 -0.45593999997E+02  0.45594000000E+02  0.51100000000E-03 0.  1.
    9900012    2    1    2    0    0 -0.90620061471E+01 -0.21195594342E+02 -0.22030597828E+02  0.59301946378E+02  0.50000004286E+02 0.  0.
         12    1    1    2    0    0  0.90620061471E+01  0.21195594342E+02  0.22030597828E+02  0.31886053622E+02  0.00000000000E+00 0. -1.
         11    1    3    3    0    0  0.12356275592E+02 -0.31945226525E+01 -0.69510404295E+01  0.14532703974E+02  0.51100000000E-03 0. -1.
        -11    1    3    3    0    0 -0.38756486445E+01 -0.14646015162E+02 -0.21051851518E+02  0.25936593167E+02  0.51100000000E-03 0.  1.
        -12    1    3    3    0    0 -0.17542633095E+02 -0.33550565276E+01  0.59722941192E+01  0.18832649236E+02  0.00000000000E+00 0.  1.
</event>
<event>
 7    1  0.1193961E-011  0.5930195E+02  0.7816164E-02  0.1266605E+00
        -11   -1    0    0    0    0  0.00000000000E+00  0.00000000000E+00  0.45593999997E+02  0.45594000000E+02  0.51100000000E-03 0.  1.
         11   -1    0    0    0    0 -0.00000000000E+00 -0.00000000000E+00 -0.45593999997E+02  0.45594000000E+02  0.51100000000E-03 0. -1.
    9900012    2    1    2    0    0  0.24263698105E+02  0.13427346325E+02  0.15738475287E+02  0.59301948514E+02  0.50000008181E+02 0.  0.
         12    1    1    2    0    0 -0.24263698105E+02 -0.13427346325E+02 -0.15738475287E+02  0.31886051486E+02  0.00000000000E+00 0. -1.
         11    1    3    3    0    0  0.55057040419E+01 -0.95714400690E+01  0.11259668177E+02  0.15770395357E+02  0.51100000000E-03 0. -1.
        -11    1    3    3    0    0 -0.85653215760E+01  0.95108561085E+01  0.20677922254E+01  0.12965218184E+02  0.51100000000E-03 0.  1.
         12    1    3    3    0    0  0.27323315639E+02  0.13487930285E+02  0.24110148845E+01  0.30566334972E+02  0.00000000000E+00 0. -1.
</event>
<event>
 7    1  0.1193961E-011  0.5930197E+02  0.7816164E-02  0.1266605E+00
        -11   -1    0    0    0    0  0.00000000000E+00  0.00000000000E+00  0.45593999997E+02  0.45594000000E+02  0.51100000000E-03 0.  1.
         11   -1    0    0    0    0 -0.00000000000E+00 -0.00000000000E+00 -0.45593999997E+02  0.45594000000E+02  0.51100000000E-03 0. -1.
    9900012    2    1    2    0    0  0.27126929762E+01  0.21485275822E+02  0.23403910856E+02  0.59301971341E+02  0.50000049813E+02 0.  0.
         12    1    1    2    0    0 -0.27126929762E+01 -0.21485275822E+02 -0.23403910856E+02  0.31886028659E+02  0.00000000000E+00 0. -1.
         11    1    3    3    0    0  0.27474999297E+01  0.12428086088E+02 -0.63825518482E+01  0.14238786747E+02  0.51100000000E-03 0. -1.
        -11    1    3    3    0    0 -0.19514056922E+01  0.86208061985E+01 -0.50443033255E+01  0.10176997592E+02  0.51100000000E-03 0.  1.
        -12    1    3    3    0    0  0.19165987387E+01  0.43638353466E+00  0.34830766029E+02  0.34886187001E+02  0.00000000000E+00 0.  1.
</event>
<event>
 7    1  0.1193961E-011  0.5930195E+02  0.7816164E-02  0.1266605E+00
        -11   -1    0    0    0    0  0.00000000000E+00  0.00000000000E+00  0.45593999997E+02  0.45594000000E+02  0.51100000000E-03 0.  1.
         11   -1    0    0    0    0 -0.00000000000E+00 -0.00000000000E+00 -0.45593999997E+02  0.45594000000E+02  0.51100000000E-03 0. -1.
    9900012    2    1    2    0    0 -0.18555678134E+02  0.11042249093E+02  0.23462224224E+02  0.59301946284E+02  0.50000004114E+02 0.  0.
         12    1    1    2    0    0  0.18555678134E+02 -0.11042249093E+02 -0.23462224224E+02  0.31886053716E+02  0.00000000000E+00 0. -1.
         11    1    3    3    0    0 -0.11660453686E+02 -0.15606294447E+02  0.10093465997E+02  0.21940844620E+02  0.51100000000E-03 0. -1.
        -11    1    3    3    0    0 -0.42475216607E+01 -0.28748660433E+01  0.91803250965E+00  0.52104778068E+01  0.51100000000E-03 0.  1.
        -12    1    3    3    0    0 -0.26477027870E+01  0.29523409584E+02  0.12450725717E+02  0.32150623857E+02  0.00000000000E+00 0.  1.
</event>
<event>
 7    1  0.1193961E-011  0.5930195E+02  0.7816164E-02  0.1266605E+00
        -11   -1    0    0    0    0  0.00000000000E+00  0.00000000000E+00  0.45593999997E+02  0.45594000000E+02  0.51100000000E-03 0. -1.
         11   -1    0    0    0    0 -0.00000000000E+00 -0.00000000000E+00 -0.45593999997E+02  0.45594000000E+02  0.51100000000E-03 0.  1.
    9900012    2    1    2    0    0 -0.31605452576E+02 -0.22377587748E+01 -0.35788053715E+01  0.59301952193E+02  0.50000014892E+02 0.  0.
         12    1    1    2    0    0  0.31605452576E+02  0.22377587748E+01  0.35788053715E+01  0.31886047807E+02  0.00000000000E+00 0. -1.
         11    1    3    3    0    0 -0.14573761916E+02 -0.52000683838E+00 -0.20660641470E+02  0.25288872053E+02  0.51100000000E-03 0. -1.
        -11    1    3    3    0    0 -0.37288274116E+01  0.23224882370E+01 -0.57774871436E+01  0.72579241820E+01  0.51100000000E-03 0.  1.
         12    1    3    3    0    0 -0.13302863248E+02 -0.40402401734E+01  0.22859323242E+02  0.26755155958E+02  0.00000000000E+00 0. -1.
</event>
<event>
 7    1  0.1193961E-011  0.5930193E+02  0.7816164E-02  0.1266605E+00
        -11   -1    0    0    0    0  0.00000000000E+00  0.00000000000E+00  0.45593999997E+02  0.45594000000E+02  0.51100000000E-03 0. -1.
         11   -1    0    0    0    0 -0.00000000000E+00 -0.00000000000E+00 -0.45593999997E+02  0.45594000000E+02  0.51100000000E-03 0.  1.
    9900012    2    1    2    0    0  0.24922191813E+02 -0.30990174951E+01 -0.19646933570E+02  0.59301928544E+02  0.49999971762E+02 0.  0.
         12    1    1    2    0    0 -0.24922191813E+02  0.30990174951E+01  0.19646933570E+02  0.31886071456E+02  0.00000000000E+00 0. -1.
         11    1    3    3    0    0  0.12575118428E+01 -0.61014623907E+01 -0.11246264046E+01  0.63303999993E+01  0.51100000000E-03 0. -1.
        -11    1    3    3    0    0  0.20682593459E+02 -0.85389087035E+01  0.81043193150E+01  0.23798374437E+02  0.51100000000E-03 0.  1.
         12    1    3    3    0    0  0.29820865106E+01  0.11541353599E+02 -0.26626626480E+02  0.29173154108E+02  0.00000000000E+00 0. -1.
</event>
<event>
 7    1  0.1193961E-011  0.5930194E+02  0.7816164E-02  0.1266605E+00
        -11   -1    0    0    0    0  0.00000000000E+00  0.00000000000E+00  0.45593999997E+02  0.45594000000E+02  0.51100000000E-03 0.  1.
         11   -1    0    0    0    0 -0.00000000000E+00 -0.00000000000E+00 -0.45593999997E+02  0.45594000000E+02  0.51100000000E-03 0. -1.
    9900012    2    1    2    0    0 -0.89531079107E+01  0.30454456444E+02 -0.30147902549E+01  0.59301936919E+02  0.49999987035E+02 0.  0.
         12    1    1    2    0    0  0.89531079107E+01 -0.30454456444E+02  0.30147902549E+01  0.31886063081E+02  0.00000000000E+00 0. -1.
         11    1    3    3    0    0  0.51419450848E+01 -0.19296315158E+01 -0.81630946197E+01  0.98386579915E+01  0.51100000000E-03 0. -1.
        -11    1    3    3    0    0  0.10398520534E+02  0.49927252252E+01  0.53548131387E+01  0.12717332994E+02  0.51100000000E-03 0.  1.
         12    1    3    3    0    0 -0.24493573529E+02  0.27391362734E+02 -0.20650877394E+00  0.36745945933E+02  0.00000000000E+00 0. -1.
</event>
<event>
 7    1  0.1193961E-011  0.5930195E+02  0.7816164E-02  0.1266605E+00
        -11   -1    0    0    0    0  0.00000000000E+00  0.00000000000E+00  0.45593999997E+02  0.45594000000E+02  0.51100000000E-03 0. -1.
         11   -1    0    0    0    0 -0.00000000000E+00 -0.00000000000E+00 -0.45593999997E+02  0.45594000000E+02  0.51100000000E-03 0.  1.
    9900012    2    1    2    0    0  0.17398039612E+02 -0.13379834149E+02 -0.23130247485E+02  0.59301951438E+02  0.50000013515E+02 0.  0.
         12    1    1    2    0    0 -0.17398039612E+02  0.13379834149E+02  0.23130247485E+02  0.31886048562E+02  0.00000000000E+00 0. -1.
         11    1    3    3    0    0  0.21785522079E+02 -0.21765253594E+02 -0.49480815473E+00  0.30799027122E+02  0.51100000000E-03 0. -1.
        -11    1    3    3    0    0 -0.30703146227E+01 -0.30596697743E+01 -0.17978287662E+01  0.46926111648E+01  0.51100000000E-03 0.  1.
        -12    1    3    3    0    0 -0.13171678442E+01  0.11445089220E+02 -0.20837610564E+02  0.23810313152E+02  0.00000000000E+00 0.  1.
</event>
<event>
 7    1  0.1193961E-011  0.5930190E+02  0.7816164E-02  0.1266605E+00
        -11   -1    0    0    0    0  0.00000000000E+00  0.00000000000E+00  0.45593999997E+02  0.45594000000E+02  0.51100000000E-03 0.  1.
         11   -1    0    0    0    0 -0.00000000000E+00 -0.00000000000E+00 -0.45593999997E+02  0.45594000000E+02  0.51100000000E-03 0. -1.
    9900012    2    1    2    0    0  0.25923622997E+01 -0.13735491956E+02  0.28659015990E+02  0.59301901477E+02  0.49999922397E+02 0.  0.
         12    1    1    2    0    0 -0.25923622997E+01  0.13735491956E+02 -0.28659015990E+02  0.31886098523E+02  0.00000000000E+00 0. -1.
         11    1    3    3    0    0 -0.33596130871E+01  0.20244271902E+01 -0.77007291220E+01  0.86421371671E+01  0.51100000000E-03 0. -1.
        -11    1    3    3    0    0  0.15215583726E+02  0.18254387321E+01  0.14202283519E+02  0.20893804634E+02  0.51100000000E-03 0.  1.
         12    1    3    3    0    0 -0.92636083390E+01 -0.17585357878E+02  0.22157461593E+02  0.29765959675E+02  0.00000000000E+00 0. -1.
</event>
<event>
 7    1  0.1193961E-011  0.5930216E+02  0.7816164E-02  0.1266604E+00
        -11   -1    0    0    0    0  0.00000000000E+00  0.00000000000E+00  0.45593999997E+02  0.45594000000E+02  0.51100000000E-03 0.  1.
         11   -1    0    0    0    0 -0.00000000000E+00 -0.00000000000E+00 -0.45593999997E+02  0.45594000000E+02  0.51100000000E-03 0. -1.
    9900012    2    1    2    0    0 -0.78877729084E+01 -0.30411365159E+02 -0.54441668875E+01  0.59302156034E+02  0.50000386648E+02 0.  0.
         12    1    1    2    0    0  0.78877729084E+01  0.30411365159E+02  0.54441668875E+01  0.31885843966E+02  0.00000000000E+00 0. -1.
         11    1    3    3    0    0 -0.15668491050E+02  0.17961852956E+01  0.64862345543E+01  0.17052833558E+02  0.51100000000E-03 0. -1.
        -11    1    3    3    0    0 -0.68141381772E+01 -0.22283493660E+01 -0.16402138990E+01  0.73544763165E+01  0.51100000000E-03 0.  1.
         12    1    3    3    0    0  0.14594856319E+02 -0.29979201089E+02 -0.10290187543E+02  0.34894846160E+02  0.00000000000E+00 0. -1.
</event>
<event>
 7    1  0.1193961E-011  0.5930193E+02  0.7816164E-02  0.1266605E+00
        -11   -1    0    0    0    0  0.00000000000E+00  0.00000000000E+00  0.45593999997E+02  0.45594000000E+02  0.51100000000E-03 0. -1.
         11   -1    0    0    0    0 -0.00000000000E+00 -0.00000000000E+00 -0.45593999997E+02  0.45594000000E+02  0.51100000000E-03 0.  1.
    9900012    2    1    2    0    0  0.10638016133E+02 -0.29155168230E+02 -0.73164571280E+01  0.59301925192E+02  0.49999965648E+02 0.  0.
         12    1    1    2    0    0 -0.10638016133E+02  0.29155168230E+02  0.73164571280E+01  0.31886074808E+02  0.00000000000E+00 0. -1.
         11    1    3    3    0    0 -0.19066036149E+01 -0.16883400470E+02 -0.37679550338E+01  0.17403500629E+02  0.51100000000E-03 0. -1.
        -11    1    3    3    0    0  0.16875947317E+01 -0.16516940730E+02 -0.17227568474E+02  0.23925852605E+02  0.51100000000E-03 0.  1.
        -12    1    3    3    0    0  0.10857025016E+02  0.42451729700E+01  0.13679066380E+02  0.17972571958E+02  0.00000000000E+00 0.  1.
</event>
<event>
 7    1  0.1193961E-011  0.5930194E+02  0.7816164E-02  0.1266605E+00
        -11   -1    0    0    0    0  0.00000000000E+00  0.00000000000E+00  0.45593999997E+02  0.45594000000E+02  0.51100000000E-03 0.  1.
         11   -1    0    0    0    0 -0.00000000000E+00 -0.00000000000E+00 -0.45593999997E+02  0.45594000000E+02  0.51100000000E-03 0. -1.
    9900012    2    1    2    0    0  0.26780473421E+02  0.22517330619E+01 -0.17159742821E+02  0.59301939846E+02  0.49999992374E+02 0.  0.
         12    1    1    2    0    0 -0.26780473421E+02 -0.22517330619E+01  0.17159742821E+02  0.31886060154E+02  0.00000000000E+00 0. -1.
         11    1    3    3    0    0  0.53971933048E+00 -0.83930551963E+01 -0.32912709775E+01  0.90314526734E+01  0.51100000000E-03 0. -1.
        -11    1    3    3    0    0  0.11648363335E+02 -0.14272622927E+02 -0.10484298439E+02  0.21196996193E+02  0.51100000000E-03 0.  1.
        -12    1    3    3    0    0  0.14592390756E+02  0.24917411185E+02 -0.33841734037E+01  0.29073490980E+02  0.00000000000E+00 0.  1.
</event>
<event>
 7    1  0.1193961E-011  0.5930195E+02  0.7816164E-02  0.1266605E+00
        -11   -1    0    0    0    0  0.00000000000E+00  0.00000000000E+00  0.45593999997E+02  0.45594000000E+02  0.51100000000E-03 0. -1.
         11   -1    0    0    0    0 -0.00000000000E+00 -0.00000000000E+00 -0.45593999997E+02  0.45594000000E+02  0.51100000000E-03 0.  1.
    9900012    2    1    2    0    0  0.84470282031E+00 -0.94157254468E+01 -0.30452430355E+02  0.59301954101E+02  0.50000018371E+02 0.  0.
         12    1    1    2    0    0 -0.84470282031E+00  0.94157254468E+01  0.30452430355E+02  0.31886045899E+02  0.00000000000E+00 0. -1.
         11    1    3    3    0    0 -0.20130738316E+01  0.42679621614E+00  0.65448671002E+01  0.68607511894E+01  0.51100000000E-03 0. -1.
        -11    1    3    3    0    0  0.59492969413E+01  0.44645250161E+01  0.43242431405E+01  0.86037896717E+01  0.51100000000E-03 0.  1.
        -12    1    3    3    0    0 -0.30915202893E+01 -0.14307046679E+02 -0.41321540596E+02  0.43837413240E+02  0.00000000000E+00 0.  1.
</event>
<event>
 7    1  0.1193961E-011  0.5930193E+02  0.7816164E-02  0.1266605E+00
        -11   -1    0    0    0    0  0.00000000000E+00  0.00000000000E+00  0.45593999997E+02  0.45594000000E+02  0.51100000000E-03 0. -1.
         11   -1    0    0    0    0 -0.00000000000E+00 -0.00000000000E+00 -0.45593999997E+02  0.45594000000E+02  0.51100000000E-03 0.  1.
    9900012    2    1    2    0    0  0.17511192245E+02  0.22055527079E+02 -0.14954381162E+02  0.59301927107E+02  0.49999969141E+02 0.  0.
         12    1    1    2    0    0 -0.17511192245E+02 -0.22055527079E+02  0.14954381162E+02  0.31886072893E+02  0.00000000000E+00 0. -1.
         11    1    3    3    0    0  0.12168098982E+02 -0.64837478851E+01  0.44103006134E+01  0.14475923847E+02  0.51100000000E-03 0. -1.
        -11    1    3    3    0    0  0.14234966427E+02  0.63762661543E+01 -0.12471799191E+02  0.19970899193E+02  0.51100000000E-03 0.  1.
         12    1    3    3    0    0 -0.88918731640E+01  0.22163008810E+02 -0.68928825844E+01  0.24855104068E+02  0.00000000000E+00 0. -1.
</event>
<event>
 7    1  0.1193961E-011  0.5930189E+02  0.7816164E-02  0.1266605E+00
        -11   -1    0    0    0    0  0.00000000000E+00  0.00000000000E+00  0.45593999997E+02  0.45594000000E+02  0.51100000000E-03 0.  1.
         11   -1    0    0    0    0 -0.00000000000E+00 -0.00000000000E+00 -0.45593999997E+02  0.45594000000E+02  0.51100000000E-03 0. -1.
    9900012    2    1    2    0    0  0.22172660869E+02  0.18546925253E+02  0.13457654296E+02  0.59301893535E+02  0.49999907913E+02 0.  0.
         12    1    1    2    0    0 -0.22172660869E+02 -0.18546925253E+02 -0.13457654296E+02  0.31886106465E+02  0.00000000000E+00 0. -1.
         11    1    3    3    0    0  0.22943722186E+01  0.25251956455E+01  0.15019990422E+01  0.37278356065E+01  0.51100000000E-03 0. -1.
        -11    1    3    3    0    0  0.15214060353E+02  0.25258820034E+02 -0.10134883665E+02  0.31179985393E+02  0.51100000000E-03 0.  1.
         12    1    3    3    0    0  0.46642282979E+01 -0.92370904261E+01  0.22090538918E+02  0.24394072535E+02  0.00000000000E+00 0. -1.
</event>
<event>
 7    1  0.1193961E-011  0.5930195E+02  0.7816164E-02  0.1266605E+00
        -11   -1    0    0    0    0  0.00000000000E+00  0.00000000000E+00  0.45593999997E+02  0.45594000000E+02  0.51100000000E-03 0. -1.
         11   -1    0    0    0    0 -0.00000000000E+00 -0.00000000000E+00 -0.45593999997E+02  0.45594000000E+02  0.51100000000E-03 0.  1.
    9900012    2    1    2    0    0  0.89216329882E+01  0.20880098720E+02 -0.22386294605E+02  0.59301949070E+02  0.50000009196E+02 0.  0.
         12    1    1    2    0    0 -0.89216329882E+01 -0.20880098720E+02  0.22386294605E+02  0.31886050930E+02  0.00000000000E+00 0. -1.
         11    1    3    3    0    0 -0.65079133348E+01 -0.57606413438E+01 -0.21718524172E+01  0.89585081263E+01  0.51100000000E-03 0. -1.
        -11    1    3    3    0    0 -0.39748596147E+01  0.12359310229E+02 -0.22670959572E+02  0.26125169214E+02  0.51100000000E-03 0.  1.
         12    1    3    3    0    0  0.19404405938E+02  0.14281429834E+02  0.24565173838E+01  0.24218271730E+02  0.00000000000E+00 0. -1.
</event>
<event>
 7    1  0.1193961E-011  0.5930195E+02  0.7816164E-02  0.1266605E+00
        -11   -1    0    0    0    0  0.00000000000E+00  0.00000000000E+00  0.45593999997E+02  0.45594000000E+02  0.51100000000E-03 0.  1.
         11   -1    0    0    0    0 -0.00000000000E+00 -0.00000000000E+00 -0.45593999997E+02  0.45594000000E+02  0.51100000000E-03 0. -1.
    9900012    2    1    2    0    0  0.29068212423E+02  0.82079685007E+01  0.10217078846E+02  0.59301946300E+02  0.50000004144E+02 0.  0.
         12    1    1    2    0    0 -0.29068212423E+02 -0.82079685007E+01 -0.10217078846E+02  0.31886053700E+02  0.00000000000E+00 0. -1.
         11    1    3    3    0    0  0.20811786302E+02  0.66621977901E+01  0.22571720546E+02  0.31416522677E+02  0.51100000000E-03 0.  1.
        -11    1    3    3    0    0  0.11124876898E+01  0.32721654953E+01  0.66580587028E+01  0.75016292790E+01  0.51100000000E-03 0. -1.
         12    1    3    3    0    0  0.71439384320E+01 -0.17263947846E+01 -0.19012700403E+02  0.20383794344E+02  0.00000000000E+00 0. -1.
</event>
<event>
 7    1  0.1193961E-011  0.5930190E+02  0.7816164E-02  0.1266605E+00
        -11   -1    0    0    0    0  0.00000000000E+00  0.00000000000E+00  0.45593999997E+02  0.45594000000E+02  0.51100000000E-03 0.  1.
         11   -1    0    0    0    0 -0.00000000000E+00 -0.00000000000E+00 -0.45593999997E+02  0.45594000000E+02  0.51100000000E-03 0. -1.
    9900012    2    1    2    0    0  0.28093263515E+02  0.14258289027E+02  0.49186236556E+01  0.59301903977E+02  0.49999926957E+02 0.  0.
         12    1    1    2    0    0 -0.28093263515E+02 -0.14258289027E+02 -0.49186236556E+01  0.31886096023E+02  0.00000000000E+00 0. -1.
         11    1    3    3    0    0 -0.10182603953E+01  0.81412009868E+01  0.72635497952E+01  0.10957881348E+02  0.51100000000E-03 0. -1.
        -11    1    3    3    0    0 -0.51125569644E+01  0.65142556087E+01  0.90535599635E+01  0.12269503377E+02  0.51100000000E-03 0.  1.
         12    1    3    3    0    0  0.34224080875E+02 -0.39716756834E+00 -0.11398486103E+02  0.36074519252E+02  0.00000000000E+00 0. -1.
</event>
<event>
 7    1  0.1193961E-011  0.5930193E+02  0.7816164E-02  0.1266605E+00
        -11   -1    0    0    0    0  0.00000000000E+00  0.00000000000E+00  0.45593999997E+02  0.45594000000E+02  0.51100000000E-03 0.  1.
         11   -1    0    0    0    0 -0.00000000000E+00 -0.00000000000E+00 -0.45593999997E+02  0.45594000000E+02  0.51100000000E-03 0. -1.
    9900012    2    1    2    0    0 -0.11318590190E+01  0.14260628448E+02  0.28496921759E+02  0.59301934418E+02  0.49999982474E+02 0.  0.
         12    1    1    2    0    0  0.11318590190E+01 -0.14260628448E+02 -0.28496921759E+02  0.31886065582E+02  0.00000000000E+00 0. -1.
         11    1    3    3    0    0 -0.14285989172E+02  0.14641832859E+02  0.54954394682E+01  0.21181893478E+02  0.51100000000E-03 0. -1.
        -11    1    3    3    0    0 -0.77469544474E+01  0.17709483753E+01  0.12026394610E+02  0.14414774675E+02  0.51100000000E-03 0.  1.
         12    1    3    3    0    0  0.20901084601E+02 -0.21521527860E+01  0.10975087680E+02  0.23705266265E+02  0.00000000000E+00 0. -1.
</event>
<event>
 7    1  0.1193961E-011  0.5930198E+02  0.7816164E-02  0.1266605E+00
        -11   -1    0    0    0    0  0.00000000000E+00  0.00000000000E+00  0.45593999997E+02  0.45594000000E+02  0.51100000000E-03 0. -1.
         11   -1    0    0    0    0 -0.00000000000E+00 -0.00000000000E+00 -0.45593999997E+02  0.45594000000E+02  0.51100000000E-03 0.  1.
    9900012    2    1    2    0    0 -0.20906495147E+02 -0.21904936548E+02  0.99905176766E+01  0.59301980682E+02  0.50000066849E+02 0.  0.
         12    1    1    2    0    0  0.20906495147E+02  0.21904936548E+02 -0.99905176766E+01  0.31886019318E+02  0.00000000000E+00 0. -1.
         11    1    3    3    0    0 -0.19240848007E+02 -0.21724102279E+02  0.14968293874E+01  0.29058343902E+02  0.51100000000E-03 0.  1.
        -11    1    3    3    0    0  0.66071006758E+01 -0.11943267510E+02  0.80717759459E+01  0.15857143039E+02  0.51100000000E-03 0. -1.
         12    1    3    3    0    0 -0.82727478155E+01  0.11762433240E+02  0.42191234330E+00  0.14386493742E+02  0.00000000000E+00 0. -1.
</event>
<event>
 7    1  0.1193961E-011  0.5930186E+02  0.7816164E-02  0.1266605E+00
        -11   -1    0    0    0    0  0.00000000000E+00  0.00000000000E+00  0.45593999997E+02  0.45594000000E+02  0.51100000000E-03 0.  1.
         11   -1    0    0    0    0 -0.00000000000E+00 -0.00000000000E+00 -0.45593999997E+02  0.45594000000E+02  0.51100000000E-03 0. -1.
    9900012    2    1    2    0    0 -0.81597807535E+01  0.30476604329E+02  0.46174079585E+01  0.59301860540E+02  0.49999847738E+02 0.  0.
         12    1    1    2    0    0  0.81597807535E+01 -0.30476604329E+02 -0.46174079585E+01  0.31886139460E+02  0.00000000000E+00 0. -1.
         11    1    3    3    0    0  0.44112119379E+01 -0.83214309639E+01 -0.73864744271E+01  0.11969336188E+02  0.51100000000E-03 0. -1.
        -11    1    3    3    0    0  0.50692029942E+01  0.13527698666E+02  0.55696885870E+00  0.14457028214E+02  0.51100000000E-03 0.  1.
        -12    1    3    3    0    0 -0.17640195686E+02  0.25270336627E+02  0.11446913527E+02  0.32875496139E+02  0.00000000000E+00 0.  1.
</event>
<event>
 7    1  0.1193961E-011  0.5930192E+02  0.7816164E-02  0.1266605E+00
        -11   -1    0    0    0    0  0.00000000000E+00  0.00000000000E+00  0.45593999997E+02  0.45594000000E+02  0.51100000000E-03 0.  1.
         11   -1    0    0    0    0 -0.00000000000E+00 -0.00000000000E+00 -0.45593999997E+02  0.45594000000E+02  0.51100000000E-03 0. -1.
    9900012    2    1    2    0    0 -0.58541195467E+01 -0.11878590589E+02  0.29006040516E+02  0.59301921275E+02  0.49999958504E+02 0.  0.
         12    1    1    2    0    0  0.58541195467E+01  0.11878590589E+02 -0.29006040516E+02  0.31886078725E+02  0.00000000000E+00 0. -1.
         11    1    3    3    0    0  0.50295114307E+01  0.83399793197E+01  0.17533538046E+02  0.20056824199E+02  0.51100000000E-03 0. -1.
        -11    1    3    3    0    0 -0.93818245905E+01 -0.12906041587E+02  0.21481407330E+02  0.26758837853E+02  0.51100000000E-03 0.  1.
         12    1    3    3    0    0 -0.15018063870E+01 -0.73125283212E+01 -0.10008904860E+02  0.12486259222E+02  0.00000000000E+00 0. -1.
</event>
<event>
 7    1  0.1193961E-011  0.5930197E+02  0.7816164E-02  0.1266605E+00
        -11   -1    0    0    0    0  0.00000000000E+00  0.00000000000E+00  0.45593999997E+02  0.45594000000E+02  0.51100000000E-03 0.  1.
         11   -1    0    0    0    0 -0.00000000000E+00 -0.00000000000E+00 -0.45593999997E+02  0.45594000000E+02  0.51100000000E-03 0. -1.
    9900012    2    1    2    0    0  0.20707390187E+02 -0.21585319673E+02  0.11045227918E+02  0.59301967109E+02  0.50000042095E+02 0.  0.
         12    1    1    2    0    0 -0.20707390187E+02  0.21585319673E+02 -0.11045227918E+02  0.31886032891E+02  0.00000000000E+00 0. -1.
         11    1    3    3    0    0 -0.75707335374E+01 -0.11220387341E+01 -0.79813216886E+01  0.11057869296E+02  0.51100000000E-03 0. -1.
        -11    1    3    3    0    0 -0.50599634398E+00 -0.45062662885E+00  0.12580646929E+02  0.12598879873E+02  0.51100000000E-03 0.  1.
         12    1    3    3    0    0  0.28784120068E+02 -0.20012654310E+02  0.64459026777E+01  0.35645217940E+02  0.00000000000E+00 0. -1.
</event>
<event>
 7    1  0.1193961E-011  0.5930195E+02  0.7816164E-02  0.1266605E+00
        -11   -1    0    0    0    0  0.00000000000E+00  0.00000000000E+00  0.45593999997E+02  0.45594000000E+02  0.51100000000E-03 0. -1.
         11   -1    0    0    0    0 -0.00000000000E+00 -0.00000000000E+00 -0.45593999997E+02  0.45594000000E+02  0.51100000000E-03 0.  1.
    9900012    2    1    2    0    0  0.31119020617E+02 -0.47594990024E+01 -0.50669302997E+01  0.59301951992E+02  0.50000014525E+02 0.  0.
         12    1    1    2    0    0 -0.31119020617E+02  0.47594990024E+01  0.50669302997E+01  0.31886048008E+02  0.00000000000E+00 0. -1.
         11    1    3    3    0    0 -0.11494315454E+01  0.23558875312E+01  0.92770460968E+01  0.96402792221E+01  0.51100000000E-03 0. -1.
        -11    1    3    3    0    0 -0.58517742379E+01  0.38360811384E+01 -0.58030445780E+01  0.90903304047E+01  0.51100000000E-03 0.  1.
        -12    1    3    3    0    0  0.38120226400E+02 -0.10951467672E+02 -0.85409318185E+01  0.40571342365E+02  0.00000000000E+00 0.  1.
</event>
<event>
 7    1  0.1193961E-011  0.5930194E+02  0.7816164E-02  0.1266605E+00
        -11   -1    0    0    0    0  0.00000000000E+00  0.00000000000E+00  0.45593999997E+02  0.45594000000E+02  0.51100000000E-03 0.  1.
         11   -1    0    0    0    0 -0.00000000000E+00 -0.00000000000E+00 -0.45593999997E+02  0.45594000000E+02  0.51100000000E-03 0. -1.
    9900012    2    1    2    0    0 -0.70922897534E+01  0.18196784454E+01  0.31033995961E+02  0.59301941778E+02  0.49999995898E+02 0.  0.
         12    1    1    2    0    0  0.70922897534E+01 -0.18196784454E+01 -0.31033995961E+02  0.31886058222E+02  0.00000000000E+00 0. -1.
         11    1    3    3    0    0  0.88592962955E+01 -0.81739790911E+01  0.25052593878E+02  0.27801682059E+02  0.51100000000E-03 0. -1.
        -11    1    3    3    0    0  0.17049876606E+01  0.22652741228E+01  0.11183005661E+02  0.11536813496E+02  0.51100000000E-03 0.  1.
        -12    1    3    3    0    0 -0.17656573710E+02  0.77283834137E+01 -0.52016035772E+01  0.19963446224E+02  0.00000000000E+00 0.  1.
</event>
<event>
 7    1  0.1193961E-011  0.5930196E+02  0.7816164E-02  0.1266605E+00
        -11   -1    0    0    0    0  0.00000000000E+00  0.00000000000E+00  0.45593999997E+02  0.45594000000E+02  0.51100000000E-03 0. -1.
         11   -1    0    0    0    0 -0.00000000000E+00 -0.00000000000E+00 -0.45593999997E+02  0.45594000000E+02  0.51100000000E-03 0.  1.
    9900012    2    1    2    0    0 -0.72892567519E+01  0.15831182268E+02 -0.26701315250E+02  0.59301955528E+02  0.50000020973E+02 0.  0.
         12    1    1    2    0    0  0.72892567519E+01 -0.15831182268E+02  0.26701315250E+02  0.31886044472E+02  0.00000000000E+00 0. -1.
         11    1    3    3    0    0  0.11403131101E+02  0.16463348868E+02 -0.66612192715E+01  0.21105570290E+02  0.51100000000E-03 0. -1.
        -11    1    3    3    0    0 -0.15042015736E+02  0.22859343787E+01  0.22868071368E+01  0.15385617327E+02  0.51100000000E-03 0.  1.
         12    1    3    3    0    0 -0.36503721161E+01 -0.29181009780E+01 -0.22326903116E+02  0.22810767910E+02  0.00000000000E+00 0. -1.
</event>
<event>
 7    1  0.1193961E-011  0.5930193E+02  0.7816164E-02  0.1266605E+00
        -11   -1    0    0    0    0  0.00000000000E+00  0.00000000000E+00  0.45593999997E+02  0.45594000000E+02  0.51100000000E-03 0. -1.
         11   -1    0    0    0    0 -0.00000000000E+00 -0.00000000000E+00 -0.45593999997E+02  0.45594000000E+02  0.51100000000E-03 0.  1.
    9900012    2    1    2    0    0 -0.17079949758E+02 -0.26237138454E+02 -0.60505598284E+01  0.59301931064E+02  0.49999976357E+02 0.  0.
         12    1    1    2    0    0  0.17079949758E+02  0.26237138454E+02  0.60505598284E+01  0.31886068936E+02  0.00000000000E+00 0. -1.
         11    1    3    3    0    0  0.11330065366E+02  0.50957779973E+01 -0.57699406699E+00  0.12436649750E+02  0.51100000000E-03 0. -1.
        -11    1    3    3    0    0 -0.77837255651E+00 -0.11014798420E+02  0.31832253467E+01  0.11491935082E+02  0.51100000000E-03 0.  1.
        -12    1    3    3    0    0 -0.27631642567E+02 -0.20318118032E+02 -0.86567911080E+01  0.35373346231E+02  0.00000000000E+00 0.  1.
</event>
<event>
 7    1  0.1193961E-011  0.5930194E+02  0.7816164E-02  0.1266605E+00
        -11   -1    0    0    0    0  0.00000000000E+00  0.00000000000E+00  0.45593999997E+02  0.45594000000E+02  0.51100000000E-03 0. -1.
         11   -1    0    0    0    0 -0.00000000000E+00 -0.00000000000E+00 -0.45593999997E+02  0.45594000000E+02  0.51100000000E-03 0.  1.
    9900012    2    1    2    0    0 -0.25669278589E+02  0.18784498813E+02 -0.22252315088E+01  0.59301938560E+02  0.49999990028E+02 0.  0.
         12    1    1    2    0    0  0.25669278589E+02 -0.18784498813E+02  0.22252315088E+01  0.31886061440E+02  0.00000000000E+00 0. -1.
         11    1    3    3    0    0 -0.16068991929E+02 -0.25853134853E+01  0.10977025968E+02  0.19631389324E+02  0.51100000000E-03 0. -1.
        -11    1    3    3    0    0 -0.15254316939E+02  0.63860988060E+00 -0.18835232579E+01  0.15383421856E+02  0.51100000000E-03 0.  1.
        -12    1    3    3    0    0  0.56540302799E+01  0.20731202417E+02 -0.11318734218E+02  0.24287127380E+02  0.00000000000E+00 0.  1.
</event>
<event>
 7    1  0.1193961E-011  0.5930193E+02  0.7816164E-02  0.1266605E+00
        -11   -1    0    0    0    0  0.00000000000E+00  0.00000000000E+00  0.45593999997E+02  0.45594000000E+02  0.51100000000E-03 0.  1.
         11   -1    0    0    0    0 -0.00000000000E+00 -0.00000000000E+00 -0.45593999997E+02  0.45594000000E+02  0.51100000000E-03 0. -1.
    9900012    2    1    2    0    0 -0.10245514004E+02  0.12419372611E+02  0.27522905394E+02  0.59301926322E+02  0.49999967709E+02 0.  0.
         12    1    1    2    0    0  0.10245514004E+02 -0.12419372611E+02 -0.27522905394E+02  0.31886073678E+02  0.00000000000E+00 0. -1.
         11    1    3    3    0    0 -0.11116282163E+02 -0.15918512345E+02  0.46201682904E+01  0.19957873627E+02  0.51100000000E-03 0. -1.
        -11    1    3    3    0    0  0.13002315058E+01  0.72491082954E+01 -0.10369975127E+01  0.74374415728E+01  0.51100000000E-03 0.  1.
        -12    1    3    3    0    0 -0.42946334700E+00  0.21088776660E+02  0.23939734617E+02  0.31906611122E+02  0.00000000000E+00 0.  1.
</event>
<event>
 7    1  0.1193961E-011  0.5930195E+02  0.7816164E-02  0.1266605E+00
        -11   -1    0    0    0    0  0.00000000000E+00  0.00000000000E+00  0.45593999997E+02  0.45594000000E+02  0.51100000000E-03 0. -1.
         11   -1    0    0    0    0 -0.00000000000E+00 -0.00000000000E+00 -0.45593999997E+02  0.45594000000E+02  0.51100000000E-03 0.  1.
    9900012    2    1    2    0    0  0.14608162583E+02  0.12231255349E+02 -0.25567916384E+02  0.59301947098E+02  0.50000005599E+02 0.  0.
         12    1    1    2    0    0 -0.14608162583E+02 -0.12231255349E+02  0.25567916384E+02  0.31886052902E+02  0.00000000000E+00 0. -1.
         11    1    3    3    0    0 -0.60463024691E+01  0.96531409439E+01  0.72466851202E+01  0.13500198114E+02  0.51100000000E-03 0. -1.
        -11    1    3    3    0    0 -0.40498143408E+01  0.47863782344E+01 -0.28038776076E+01  0.68681979221E+01  0.51100000000E-03 0.  1.
        -12    1    3    3    0    0  0.24704279393E+02 -0.22082638289E+01 -0.30010723896E+02  0.38933551061E+02  0.00000000000E+00 0.  1.
</event>
<event>
 7    1  0.1193961E-011  0.5930192E+02  0.7816164E-02  0.1266605E+00
        -11   -1    0    0    0    0  0.00000000000E+00  0.00000000000E+00  0.45593999997E+02  0.45594000000E+02  0.51100000000E-03 0. -1.
         11   -1    0    0    0    0 -0.00000000000E+00 -0.00000000000E+00 -0.45593999997E+02  0.45594000000E+02  0.51100000000E-03 0.  1.
    9900012    2    1    2    0    0  0.28716528215E+02 -0.11534763118E+02  0.76832393919E+01  0.59301922780E+02  0.49999961249E+02 0.  0.
         12    1    1    2    0    0 -0.28716528215E+02  0.11534763118E+02 -0.76832393919E+01  0.31886077220E+02  0.00000000000E+00 0. -1.
         11    1    3    3    0    0  0.78121386215E+01 -0.72235062211E+01  0.14840579529E+02  0.18260650399E+02  0.51100000000E-03 0. -1.
        -11    1    3    3    0    0  0.11503970991E+02 -0.18059568046E+02  0.28653189204E+01  0.21603226596E+02  0.51100000000E-03 0.  1.
         12    1    3    3    0    0  0.94004186025E+01  0.13748311149E+02 -0.10022659057E+02  0.19438045785E+02  0.00000000000E+00 0. -1.
</event>
<event>
 7    1  0.1193961E-011  0.5930199E+02  0.7816164E-02  0.1266605E+00
        -11   -1    0    0    0    0  0.00000000000E+00  0.00000000000E+00  0.45593999997E+02  0.45594000000E+02  0.51100000000E-03 0.  1.
         11   -1    0    0    0    0 -0.00000000000E+00 -0.00000000000E+00 -0.45593999997E+02  0.45594000000E+02  0.51100000000E-03 0. -1.
    9900012    2    1    2    0    0  0.64414950004E+01  0.21481533763E+02  0.22666468545E+02  0.59301985088E+02  0.50000074884E+02 0.  0.
         12    1    1    2    0    0 -0.64414950004E+01 -0.21481533763E+02 -0.22666468545E+02  0.31886014912E+02  0.00000000000E+00 0. -1.
         11    1    3    3    0    0 -0.25847139752E+01 -0.53196474524E+01 -0.49873679456E+01  0.77364872285E+01  0.51100000000E-03 0. -1.
        -11    1    3    3    0    0  0.66229081306E+01  0.15940070318E+02 -0.42511020759E+01  0.17776968891E+02  0.51100000000E-03 0.  1.
         12    1    3    3    0    0  0.24033008450E+01  0.10861110898E+02  0.31904938567E+02  0.33788528968E+02  0.00000000000E+00 0. -1.
</event>
<event>
 7    1  0.1193961E-011  0.5930193E+02  0.7816164E-02  0.1266605E+00
        -11   -1    0    0    0    0  0.00000000000E+00  0.00000000000E+00  0.45593999997E+02  0.45594000000E+02  0.51100000000E-03 0.  1.
         11   -1    0    0    0    0 -0.00000000000E+00 -0.00000000000E+00 -0.45593999997E+02  0.45594000000E+02  0.51100000000E-03 0. -1.
    9900012    2    1    2    0    0  0.61549772964E+01  0.25648827663E+02  0.17915783374E+02  0.59301930943E+02  0.49999976136E+02 0.  0.
         12    1    1    2    0    0 -0.61549772964E+01 -0.25648827663E+02 -0.17915783374E+02  0.31886069057E+02  0.00000000000E+00 0. -1.
         11    1    3    3    0    0  0.79112918090E+01  0.27738408423E+01 -0.10193191355E+02  0.13197874123E+02  0.51100000000E-03 0. -1.
        -11    1    3    3    0    0  0.11010861873E+02  0.11757259611E+01  0.11366676316E+02  0.15868923765E+02  0.51100000000E-03 0.  1.
        -12    1    3    3    0    0 -0.12767176386E+02  0.21699260860E+02  0.16742298412E+02  0.30235133055E+02  0.00000000000E+00 0.  1.
</event>
<event>
 7    1  0.1193961E-011  0.5930199E+02  0.7816164E-02  0.1266605E+00
        -11   -1    0    0    0    0  0.00000000000E+00  0.00000000000E+00  0.45593999997E+02  0.45594000000E+02  0.51100000000E-03 0.  1.
         11   -1    0    0    0    0 -0.00000000000E+00 -0.00000000000E+00 -0.45593999997E+02  0.45594000000E+02  0.51100000000E-03 0. -1.
    9900012    2    1    2    0    0 -0.14910519987E+02 -0.10859613640E+02  0.26008902450E+02  0.59301987058E+02  0.50000078476E+02 0.  0.
         12    1    1    2    0    0  0.14910519987E+02  0.10859613640E+02 -0.26008902450E+02  0.31886012942E+02  0.00000000000E+00 0. -1.
         11    1    3    3    0    0 -0.16323571287E+02 -0.10069041367E+02  0.18704893548E+02  0.26790252267E+02  0.51100000000E-03 0.  1.
        -11    1    3    3    0    0  0.89623404984E+01 -0.96471130309E+00  0.17581931221E+02  0.19757998907E+02  0.51100000000E-03 0. -1.
         12    1    3    3    0    0 -0.75492891986E+01  0.17413903016E+00 -0.10277922319E+02  0.12753735884E+02  0.00000000000E+00 0. -1.
</event>
<event>
 7    1  0.1193961E-011  0.5930210E+02  0.7816164E-02  0.1266604E+00
        -11   -1    0    0    0    0  0.00000000000E+00  0.00000000000E+00  0.45593999997E+02  0.45594000000E+02  0.51100000000E-03 0.  1.
         11   -1    0    0    0    0 -0.00000000000E+00 -0.00000000000E+00 -0.45593999997E+02  0.45594000000E+02  0.51100000000E-03 0. -1.
    9900012    2    1    2    0    0  0.69226023230E+01  0.68428486886E+01  0.30363858937E+02  0.59302095110E+02  0.50000275536E+02 0.  0.
         12    1    1    2    0    0 -0.69226023230E+01 -0.68428486886E+01 -0.30363858937E+02  0.31885904890E+02  0.00000000000E+00 0. -1.
         11    1    3    3    0    0  0.11590933162E+02 -0.14737303042E+02  0.83862170441E+00  0.18768087786E+02  0.51100000000E-03 0. -1.
        -11    1    3    3    0    0 -0.73389234166E+01  0.45008455112E+01  0.35060571696E+01  0.92956895584E+01  0.51100000000E-03 0.  1.
        -12    1    3    3    0    0  0.26705925773E+01  0.17079306219E+02  0.26019180064E+02  0.31238317765E+02  0.00000000000E+00 0.  1.
</event>
<event>
 7    1  0.1193961E-011  0.5930192E+02  0.7816164E-02  0.1266605E+00
        -11   -1    0    0    0    0  0.00000000000E+00  0.00000000000E+00  0.45593999997E+02  0.45594000000E+02  0.51100000000E-03 0.  1.
         11   -1    0    0    0    0 -0.00000000000E+00 -0.00000000000E+00 -0.45593999997E+02  0.45594000000E+02  0.51100000000E-03 0. -1.
    9900012    2    1    2    0    0 -0.92477597346E+01 -0.22965904097E+02  0.20093988764E+02  0.59301918466E+02  0.49999953382E+02 0.  0.
         12    1    1    2    0    0  0.92477597346E+01  0.22965904097E+02 -0.20093988764E+02  0.31886081534E+02  0.00000000000E+00 0. -1.
         11    1    3    3    0    0 -0.88880330432E+01 -0.25262298930E+01 -0.64320049138E+01  0.11258314986E+02  0.51100000000E-03 0. -1.
        -11    1    3    3    0    0 -0.14363414730E+02 -0.51823384368E+01  0.11835823268E+01  0.15315520944E+02  0.51100000000E-03 0.  1.
        -12    1    3    3    0    0  0.14003688039E+02 -0.15257335768E+02  0.25342411351E+02  0.32728082537E+02  0.00000000000E+00 0.  1.
</event>
<event>
 7    1  0.1193961E-011  0.5930194E+02  0.7816164E-02  0.1266605E+00
        -11   -1    0    0    0    0  0.00000000000E+00  0.00000000000E+00  0.45593999997E+02  0.45594000000E+02  0.51100000000E-03 0. -1.
         11   -1    0    0    0    0 -0.00000000000E+00 -0.00000000000E+00 -0.45593999997E+02  0.45594000000E+02  0.51100000000E-03 0.  1.
    9900012    2    1    2    0    0 -0.54168521105E+01  0.28693514891E+02 -0.12808630321E+02  0.59301935735E+02  0.49999984876E+02 0.  0.
         12    1    1    2    0    0  0.54168521105E+01 -0.28693514891E+02  0.12808630321E+02  0.31886064265E+02  0.00000000000E+00 0. -1.
         11    1    3    3    0    0 -0.67650542998E+01  0.34111368843E+01 -0.11311813442E+02  0.13614658943E+02  0.51100000000E-03 0.  1.
        -11    1    3    3    0    0 -0.48140837175E+01 -0.28516556175E+01 -0.13401678026E+02  0.14522820524E+02  0.51100000000E-03 0. -1.
         12    1    3    3    0    0  0.61622859068E+01  0.28134033624E+02  0.11904861147E+02  0.31164456268E+02  0.00000000000E+00 0. -1.
</event>
<event>
 7    1  0.1193961E-011  0.5930195E+02  0.7816164E-02  0.1266605E+00
        -11   -1    0    0    0    0  0.00000000000E+00  0.00000000000E+00  0.45593999997E+02  0.45594000000E+02  0.51100000000E-03 0.  1.
         11   -1    0    0    0    0 -0.00000000000E+00 -0.00000000000E+00 -0.45593999997E+02  0.45594000000E+02  0.51100000000E-03 0. -1.
    9900012    2    1    2    0    0 -0.15439357010E+02 -0.26678948899E+02  0.81596800835E+01  0.59301946022E+02  0.50000003638E+02 0.  0.
         12    1    1    2    0    0  0.15439357010E+02  0.26678948899E+02 -0.81596800835E+01  0.31886053978E+02  0.00000000000E+00 0. -1.
         11    1    3    3    0    0  0.14054158307E+02 -0.20032204172E+02  0.63100221143E+01  0.25271029838E+02  0.51100000000E-03 0. -1.
        -11    1    3    3    0    0 -0.86287862230E+01  0.51115243894E+01  0.69915236844E+00  0.10053479376E+02  0.51100000000E-03 0.  1.
        -12    1    3    3    0    0 -0.20864729094E+02 -0.11758269116E+02  0.11505056008E+01  0.23977436809E+02  0.00000000000E+00 0.  1.
</event>
<event>
 7    1  0.1193961E-011  0.5930194E+02  0.7816164E-02  0.1266605E+00
        -11   -1    0    0    0    0  0.00000000000E+00  0.00000000000E+00  0.45593999997E+02  0.45594000000E+02  0.51100000000E-03 0.  1.
         11   -1    0    0    0    0 -0.00000000000E+00 -0.00000000000E+00 -0.45593999997E+02  0.45594000000E+02  0.51100000000E-03 0. -1.
    9900012    2    1    2    0    0  0.26613382652E+01 -0.25298000189E+02  0.19226260132E+02  0.59301943273E+02  0.49999998624E+02 0.  0.
         12    1    1    2    0    0 -0.26613382652E+01  0.25298000189E+02 -0.19226260132E+02  0.31886056727E+02  0.00000000000E+00 0. -1.
         11    1    3    3    0    0 -0.13688595402E+02 -0.10874036149E+02 -0.10592076415E+02  0.20440508538E+02  0.51100000000E-03 0. -1.
        -11    1    3    3    0    0  0.75548402050E+01  0.10522478700E+00  0.12492425498E+02  0.14599567729E+02  0.51100000000E-03 0.  1.
        -12    1    3    3    0    0  0.87950934618E+01 -0.14529188826E+02  0.17325911050E+02  0.24261867007E+02  0.00000000000E+00 0.  1.
</event>
<event>
 7    1  0.1193961E-011  0.5930200E+02  0.7816164E-02  0.1266605E+00
        -11   -1    0    0    0    0  0.00000000000E+00  0.00000000000E+00  0.45593999997E+02  0.45594000000E+02  0.51100000000E-03 0. -1.
         11   -1    0    0    0    0 -0.00000000000E+00 -0.00000000000E+00 -0.45593999997E+02  0.45594000000E+02  0.51100000000E-03 0.  1.
    9900012    2    1    2    0    0  0.24235724243E+01 -0.13401314749E+02 -0.28831375949E+02  0.59301997124E+02  0.50000096835E+02 0.  0.
         12    1    1    2    0    0 -0.24235724243E+01  0.13401314749E+02  0.28831375949E+02  0.31886002876E+02  0.00000000000E+00 0. -1.
         11    1    3    3    0    0  0.51746202790E+01 -0.13710516913E+02 -0.47436759355E+00  0.14662196081E+02  0.51100000000E-03 0. -1.
        -11    1    3    3    0    0 -0.26919981697E+01 -0.13204425465E+02 -0.28053791305E+02  0.31122643090E+02  0.51100000000E-03 0.  1.
        -12    1    3    3    0    0 -0.59049685107E-01  0.13513627629E+02 -0.30321705000E+00  0.13517157954E+02  0.00000000000E+00 0.  1.
</event>
<event>
 7    1  0.1193961E-011  0.5930198E+02  0.7816164E-02  0.1266605E+00
        -11   -1    0    0    0    0  0.00000000000E+00  0.00000000000E+00  0.45593999997E+02  0.45594000000E+02  0.51100000000E-03 0.  1.
         11   -1    0    0    0    0 -0.00000000000E+00 -0.00000000000E+00 -0.45593999997E+02  0.45594000000E+02  0.51100000000E-03 0. -1.
    9900012    2    1    2    0    0 -0.12265453460E+01  0.28382531794E+02  0.14479158091E+02  0.59301975733E+02  0.50000057823E+02 0.  0.
         12    1    1    2    0    0  0.12265453460E+01 -0.28382531794E+02 -0.14479158091E+02  0.31886024267E+02  0.00000000000E+00 0. -1.
         11    1    3    3    0    0 -0.22513243122E+01  0.19766614633E+02 -0.94200573001E+01  0.22011928470E+02  0.51100000000E-03 0. -1.
        -11    1    3    3    0    0  0.15027117149E+01  0.57301524480E+01 -0.52975480397E+01  0.79471255853E+01  0.51100000000E-03 0.  1.
        -12    1    3    3    0    0 -0.47793274866E+00  0.28857647136E+01  0.29196763431E+02  0.29342921677E+02  0.00000000000E+00 0.  1.
</event>
<event>
 7    1  0.1193961E-011  0.5930195E+02  0.7816164E-02  0.1266605E+00
        -11   -1    0    0    0    0  0.00000000000E+00  0.00000000000E+00  0.45593999997E+02  0.45594000000E+02  0.51100000000E-03 0.  1.
         11   -1    0    0    0    0 -0.00000000000E+00 -0.00000000000E+00 -0.45593999997E+02  0.45594000000E+02  0.51100000000E-03 0. -1.
    9900012    2    1    2    0    0  0.29902061034E+02 -0.10596397262E+02  0.32098494167E+01  0.59301952545E+02  0.50000015534E+02 0.  0.
         12    1    1    2    0    0 -0.29902061034E+02  0.10596397262E+02 -0.32098494167E+01  0.31886047455E+02  0.00000000000E+00 0. -1.
         11    1    3    3    0    0  0.45491110885E+01  0.61498548861E+01 -0.48459512152E+01  0.90552951502E+01  0.51100000000E-03 0. -1.
        -11    1    3    3    0    0  0.14146840508E+02  0.11299124198E+01 -0.13851965008E+02  0.19831458173E+02  0.51100000000E-03 0.  1.
        -12    1    3    3    0    0  0.11206109437E+02 -0.17876164568E+02  0.21907765640E+02  0.30415199222E+02  0.00000000000E+00 0.  1.
</event>
<event>
 7    1  0.1193961E-011  0.5930195E+02  0.7816164E-02  0.1266605E+00
        -11   -1    0    0    0    0  0.00000000000E+00  0.00000000000E+00  0.45593999997E+02  0.45594000000E+02  0.51100000000E-03 0.  1.
         11   -1    0    0    0    0 -0.00000000000E+00 -0.00000000000E+00 -0.45593999997E+02  0.45594000000E+02  0.51100000000E-03 0. -1.
    9900012    2    1    2    0    0  0.10214564574E+02  0.52306982205E+01  0.29749330073E+02  0.59301950180E+02  0.50000011220E+02 0.  0.
         12    1    1    2    0    0 -0.10214564574E+02 -0.52306982205E+01 -0.29749330073E+02  0.31886049820E+02  0.00000000000E+00 0. -1.
         11    1    3    3    0    0 -0.58787814161E+01  0.81951018157E+01  0.22938453837E+02  0.25057781814E+02  0.51100000000E-03 0.  1.
        -11    1    3    3    0    0 -0.41734402602E+00  0.86373093491E+01  0.10633753264E+02  0.13705984006E+02  0.51100000000E-03 0. -1.
        -12    1    3    3    0    0  0.16510690016E+02 -0.11601712944E+02 -0.38228770280E+01  0.20538184361E+02  0.00000000000E+00 0.  1.
</event>
<event>
 7    1  0.1193961E-011  0.5930194E+02  0.7816164E-02  0.1266605E+00
        -11   -1    0    0    0    0  0.00000000000E+00  0.00000000000E+00  0.45593999997E+02  0.45594000000E+02  0.51100000000E-03 0. -1.
         11   -1    0    0    0    0 -0.00000000000E+00 -0.00000000000E+00 -0.45593999997E+02  0.45594000000E+02  0.51100000000E-03 0.  1.
    9900012    2    1    2    0    0  0.70011767310E+01  0.91239579510E+01  0.29739831811E+02  0.59301942224E+02  0.49999996711E+02 0.  0.
         12    1    1    2    0    0 -0.70011767310E+01 -0.91239579510E+01 -0.29739831811E+02  0.31886057776E+02  0.00000000000E+00 0. -1.
         11    1    3    3    0    0  0.53724761486E+01 -0.53164333504E+01  0.11214579975E+01  0.76410491320E+01  0.51100000000E-03 0. -1.
        -11    1    3    3    0    0 -0.64113976382E+01 -0.23892607892E+01 -0.80237379633E+01  0.10544901989E+02  0.51100000000E-03 0.  1.
         12    1    3    3    0    0  0.80400982205E+01  0.16829652091E+02  0.36642111777E+02  0.41115991103E+02  0.00000000000E+00 0. -1.
</event>
<event>
 7    1  0.1193961E-011  0.5930194E+02  0.7816164E-02  0.1266605E+00
        -11   -1    0    0    0    0  0.00000000000E+00  0.00000000000E+00  0.45593999997E+02  0.45594000000E+02  0.51100000000E-03 0.  1.
         11   -1    0    0    0    0 -0.00000000000E+00 -0.00000000000E+00 -0.45593999997E+02  0.45594000000E+02  0.51100000000E-03 0. -1.
    9900012    2    1    2    0    0  0.24655096432E+02  0.49422844374E+01  0.19606655910E+02  0.59301938601E+02  0.49999990104E+02 0.  0.
         12    1    1    2    0    0 -0.24655096432E+02 -0.49422844374E+01 -0.19606655910E+02  0.31886061399E+02  0.00000000000E+00 0. -1.
         11    1    3    3    0    0  0.11758144940E+02  0.85448622614E+01  0.78242719484E+01  0.16507206768E+02  0.51100000000E-03 0. -1.
        -11    1    3    3    0    0  0.16620746163E+02  0.13208564001E+02  0.14004845251E+02  0.25433266734E+02  0.51100000000E-03 0.  1.
         12    1    3    3    0    0 -0.37237946704E+01 -0.16811141825E+02 -0.22224612895E+01  0.17361465100E+02  0.00000000000E+00 0. -1.
</event>
<event>
 7    1  0.1193961E-011  0.5930197E+02  0.7816164E-02  0.1266605E+00
        -11   -1    0    0    0    0  0.00000000000E+00  0.00000000000E+00  0.45593999997E+02  0.45594000000E+02  0.51100000000E-03 0.  1.
         11   -1    0    0    0    0 -0.00000000000E+00 -0.00000000000E+00 -0.45593999997E+02  0.45594000000E+02  0.51100000000E-03 0. -1.
    9900012    2    1    2    0    0  0.20592676841E+02  0.17306261734E+02  0.17121731192E+02  0.59301973066E+02  0.50000052958E+02 0.  0.
         12    1    1    2    0    0 -0.20592676841E+02 -0.17306261734E+02 -0.17121731192E+02  0.31886026934E+02  0.00000000000E+00 0. -1.
         11    1    3    3    0    0 -0.12389935394E+02  0.84867987922E+01  0.61156678170E+00  0.15030311607E+02  0.51100000000E-03 0. -1.
        -11    1    3    3    0    0 -0.26098100909E+01 -0.91918644753E+00 -0.15681811954E+01  0.31804410007E+01  0.51100000000E-03 0.  1.
        -12    1    3    3    0    0  0.35592422326E+02  0.97386493890E+01  0.18078345605E+02  0.41091220458E+02  0.00000000000E+00 0.  1.
</event>
<event>
 7    1  0.1193961E-011  0.5930196E+02  0.7816164E-02  0.1266605E+00
        -11   -1    0    0    0    0  0.00000000000E+00  0.00000000000E+00  0.45593999997E+02  0.45594000000E+02  0.51100000000E-03 0. -1.
         11   -1    0    0    0    0 -0.00000000000E+00 -0.00000000000E+00 -0.45593999997E+02  0.45594000000E+02  0.51100000000E-03 0.  1.
    9900012    2    1    2    0    0  0.24430682848E+02  0.17700523036E+02  0.10322451617E+02  0.59301956226E+02  0.50000022246E+02 0.  0.
         12    1    1    2    0    0 -0.24430682848E+02 -0.17700523036E+02 -0.10322451617E+02  0.31886043774E+02  0.00000000000E+00 0. -1.
         11    1    3    3    0    0  0.76999391318E+01  0.18997978486E+02  0.11453430416E+02  0.23481765644E+02  0.51100000000E-03 0. -1.
        -11    1    3    3    0    0  0.20426000291E+02  0.10574507869E+02 -0.31767708883E+01  0.23219250162E+02  0.51100000000E-03 0.  1.
        -12    1    3    3    0    0 -0.36952565747E+01 -0.11871963319E+02  0.20457920889E+01  0.12600940420E+02  0.00000000000E+00 0.  1.
</event>
<event>
 7    1  0.1193961E-011  0.5930195E+02  0.7816164E-02  0.1266605E+00
        -11   -1    0    0    0    0  0.00000000000E+00  0.00000000000E+00  0.45593999997E+02  0.45594000000E+02  0.51100000000E-03 0.  1.
         11   -1    0    0    0    0 -0.00000000000E+00 -0.00000000000E+00 -0.45593999997E+02  0.45594000000E+02  0.51100000000E-03 0. -1.
    9900012    2    1    2    0    0 -0.14867253152E+02  0.27038555994E+02  0.80375168612E+01  0.59301946562E+02  0.50000004623E+02 0.  0.
         12    1    1    2    0    0  0.14867253152E+02 -0.27038555994E+02 -0.80375168612E+01  0.31886053438E+02  0.00000000000E+00 0. -1.
         11    1    3    3    0    0  0.41974401549E+01 -0.35097694893E+01  0.14799025972E+02  0.15778091003E+02  0.51100000000E-03 0. -1.
        -11    1    3    3    0    0 -0.74387788157E+00  0.49841915005E+01  0.74633544328E+01  0.90053972076E+01  0.51100000000E-03 0.  1.
         12    1    3    3    0    0 -0.18320815426E+02  0.25564133983E+02 -0.14224863544E+02  0.34518458352E+02  0.00000000000E+00 0. -1.
</event>
<event>
 7    1  0.1193961E-011  0.5930194E+02  0.7816164E-02  0.1266605E+00
        -11   -1    0    0    0    0  0.00000000000E+00  0.00000000000E+00  0.45593999997E+02  0.45594000000E+02  0.51100000000E-03 0.  1.
         11   -1    0    0    0    0 -0.00000000000E+00 -0.00000000000E+00 -0.45593999997E+02  0.45594000000E+02  0.51100000000E-03 0. -1.
    9900012    2    1    2    0    0 -0.86937445532E+01  0.38766678441E+00  0.30675547016E+02  0.59301942473E+02  0.49999997165E+02 0.  0.
         12    1    1    2    0    0  0.86937445532E+01 -0.38766678441E+00 -0.30675547016E+02  0.31886057527E+02  0.00000000000E+00 0. -1.
         11    1    3    3    0    0 -0.15206446906E+02 -0.20582949364E+01  0.29635144270E+02  0.33372359547E+02  0.51100000000E-03 0. -1.
        -11    1    3    3    0    0 -0.16727295066E+01  0.11037826293E+02  0.64442392292E+01  0.12890300725E+02  0.51100000000E-03 0.  1.
         12    1    3    3    0    0  0.81854318597E+01 -0.85918645725E+01 -0.54038364838E+01  0.13039282201E+02  0.00000000000E+00 0. -1.
</event>
<event>
 7    1  0.1193961E-011  0.5930192E+02  0.7816164E-02  0.1266605E+00
        -11   -1    0    0    0    0  0.00000000000E+00  0.00000000000E+00  0.45593999997E+02  0.45594000000E+02  0.51100000000E-03 0.  1.
         11   -1    0    0    0    0 -0.00000000000E+00 -0.00000000000E+00 -0.45593999997E+02  0.45594000000E+02  0.51100000000E-03 0. -1.
    9900012    2    1    2    0    0 -0.10103962674E+02  0.22930945868E+02 -0.19718109851E+02  0.59301918456E+02  0.49999953363E+02 0.  0.
         12    1    1    2    0    0  0.10103962674E+02 -0.22930945868E+02  0.19718109851E+02  0.31886081544E+02  0.00000000000E+00 0. -1.
         11    1    3    3    0    0  0.65493463488E+00  0.11918618377E+02 -0.28301816045E+02  0.30716041332E+02  0.51100000000E-03 0. -1.
        -11    1    3    3    0    0 -0.64778265535E+01 -0.64988088060E+01  0.19765505285E+01  0.93863467338E+01  0.51100000000E-03 0.  1.
         12    1    3    3    0    0 -0.42810707558E+01  0.17511136297E+02  0.66071556655E+01  0.19199530391E+02  0.00000000000E+00 0. -1.
</event>
<event>
 7    1  0.1193961E-011  0.5930193E+02  0.7816164E-02  0.1266605E+00
        -11   -1    0    0    0    0  0.00000000000E+00  0.00000000000E+00  0.45593999997E+02  0.45594000000E+02  0.51100000000E-03 0.  1.
         11   -1    0    0    0    0 -0.00000000000E+00 -0.00000000000E+00 -0.45593999997E+02  0.45594000000E+02  0.51100000000E-03 0. -1.
    9900012    2    1    2    0    0 -0.11810433172E+02 -0.12833953955E+02  0.26693162237E+02  0.59301927554E+02  0.49999969956E+02 0.  0.
         12    1    1    2    0    0  0.11810433172E+02  0.12833953955E+02 -0.26693162237E+02  0.31886072446E+02  0.00000000000E+00 0. -1.
         11    1    3    3    0    0 -0.17097065196E+02  0.11018008097E+02  0.15809229126E+02  0.25761169744E+02  0.51100000000E-03 0. -1.
        -11    1    3    3    0    0  0.40311355387E+01  0.47338122761E+00  0.80543415462E+01  0.90192328677E+01  0.51100000000E-03 0.  1.
         12    1    3    3    0    0  0.12554964857E+01 -0.24325343279E+02  0.28295915642E+01  0.24521524942E+02  0.00000000000E+00 0. -1.
</event>
<event>
 7    1  0.1193961E-011  0.5930194E+02  0.7816164E-02  0.1266605E+00
        -11   -1    0    0    0    0  0.00000000000E+00  0.00000000000E+00  0.45593999997E+02  0.45594000000E+02  0.51100000000E-03 0. -1.
         11   -1    0    0    0    0 -0.00000000000E+00 -0.00000000000E+00 -0.45593999997E+02  0.45594000000E+02  0.51100000000E-03 0.  1.
    9900012    2    1    2    0    0 -0.10476241493E+02 -0.26534456994E+02 -0.14244007170E+02  0.59301940600E+02  0.49999993748E+02 0.  0.
         12    1    1    2    0    0  0.10476241493E+02  0.26534456994E+02  0.14244007170E+02  0.31886059400E+02  0.00000000000E+00 0. -1.
         11    1    3    3    0    0 -0.66478275327E+01 -0.95484927855E+01  0.11813108813E+01  0.11694563739E+02  0.51100000000E-03 0. -1.
        -11    1    3    3    0    0  0.71956944808E+01 -0.25788015920E+02 -0.93897729077E-01  0.26773281480E+02  0.51100000000E-03 0.  1.
        -12    1    3    3    0    0 -0.11024108441E+02  0.88020517112E+01 -0.15331420323E+02  0.20834095381E+02  0.00000000000E+00 0.  1.
</event>
<event>
 7    1  0.1193961E-011  0.5930193E+02  0.7816164E-02  0.1266605E+00
        -11   -1    0    0    0    0  0.00000000000E+00  0.00000000000E+00  0.45593999997E+02  0.45594000000E+02  0.51100000000E-03 0.  1.
         11   -1    0    0    0    0 -0.00000000000E+00 -0.00000000000E+00 -0.45593999997E+02  0.45594000000E+02  0.51100000000E-03 0. -1.
    9900012    2    1    2    0    0  0.19330518894E+02  0.10700175237E+02  0.22990403216E+02  0.59301931713E+02  0.49999977540E+02 0.  0.
         12    1    1    2    0    0 -0.19330518894E+02 -0.10700175237E+02 -0.22990403216E+02  0.31886068287E+02  0.00000000000E+00 0. -1.
         11    1    3    3    0    0  0.15201100941E+02 -0.42337742701E+01 -0.33624483956E+01  0.16133950969E+02  0.51100000000E-03 0. -1.
        -11    1    3    3    0    0 -0.41745911595E+01 -0.76808888131E+01  0.21155213385E+01  0.89943701893E+01  0.51100000000E-03 0.  1.
        -12    1    3    3    0    0  0.83040091122E+01  0.22614838321E+02  0.24237330273E+02  0.34173610555E+02  0.00000000000E+00 0.  1.
</event>
<event>
 7    1  0.1193961E-011  0.5930194E+02  0.7816164E-02  0.1266605E+00
        -11   -1    0    0    0    0  0.00000000000E+00  0.00000000000E+00  0.45593999997E+02  0.45594000000E+02  0.51100000000E-03 0.  1.
         11   -1    0    0    0    0 -0.00000000000E+00 -0.00000000000E+00 -0.45593999997E+02  0.45594000000E+02  0.51100000000E-03 0. -1.
    9900012    2    1    2    0    0 -0.14805432752E+02 -0.20634341925E+02  0.19280657975E+02  0.59301942269E+02  0.49999996793E+02 0.  0.
         12    1    1    2    0    0  0.14805432752E+02  0.20634341925E+02 -0.19280657975E+02  0.31886057731E+02  0.00000000000E+00 0. -1.
         11    1    3    3    0    0 -0.13937324096E+02  0.46992975973E+01 -0.49199078911E+01  0.15509284148E+02  0.51100000000E-03 0. -1.
        -11    1    3    3    0    0 -0.87880290660E+00  0.34434673739E+01  0.12036661643E+02  0.12550338078E+02  0.51100000000E-03 0.  1.
         12    1    3    3    0    0  0.10694250885E-01 -0.28777106897E+02  0.12163904223E+02  0.31242320043E+02  0.00000000000E+00 0. -1.
</event>
<event>
 7    1  0.1193961E-011  0.5930191E+02  0.7816164E-02  0.1266605E+00
        -11   -1    0    0    0    0  0.00000000000E+00  0.00000000000E+00  0.45593999997E+02  0.45594000000E+02  0.51100000000E-03 0. -1.
         11   -1    0    0    0    0 -0.00000000000E+00 -0.00000000000E+00 -0.45593999997E+02  0.45594000000E+02  0.51100000000E-03 0.  1.
    9900012    2    1    2    0    0  0.24914060509E+01  0.18971155955E+02  0.25507075488E+02  0.59301909579E+02  0.49999937174E+02 0.  0.
         12    1    1    2    0    0 -0.24914060509E+01 -0.18971155955E+02 -0.25507075488E+02  0.31886090421E+02  0.00000000000E+00 0. -1.
         11    1    3    3    0    0 -0.45670336154E+01  0.31824902646E+01  0.24687912258E+02  0.25307687612E+02  0.51100000000E-03 0. -1.
        -11    1    3    3    0    0  0.29991556759E+01 -0.28786816355E+01  0.11415319969E+02  0.12148714870E+02  0.51100000000E-03 0.  1.
        -12    1    3    3    0    0  0.40592839904E+01  0.18667347326E+02 -0.10596156739E+02  0.21845507098E+02  0.00000000000E+00 0.  1.
</event>
<event>
 7    1  0.1193961E-011  0.5930168E+02  0.7816164E-02  0.1266606E+00
        -11   -1    0    0    0    0  0.00000000000E+00  0.00000000000E+00  0.45593999997E+02  0.45594000000E+02  0.51100000000E-03 0.  1.
         11   -1    0    0    0    0 -0.00000000000E+00 -0.00000000000E+00 -0.45593999997E+02  0.45594000000E+02  0.51100000000E-03 0. -1.
    9900012    2    1    2    0    0  0.12224134762E+02  0.22570481534E+02  0.18917744430E+02  0.59301683787E+02  0.49999525380E+02 0.  0.
         12    1    1    2    0    0 -0.12224134762E+02 -0.22570481534E+02 -0.18917744430E+02  0.31886316213E+02  0.00000000000E+00 0. -1.
         11    1    3    3    0    0  0.14766711282E+02 -0.72093013291E+01 -0.37845420363E+01  0.16862756193E+02  0.51100000000E-03 0. -1.
        -11    1    3    3    0    0 -0.56702917761E+01  0.25715293036E+01  0.11034111697E+02  0.12669514315E+02  0.51100000000E-03 0.  1.
        -12    1    3    3    0    0  0.31277152558E+01  0.27208253560E+02  0.11668174769E+02  0.29769413278E+02  0.00000000000E+00 0.  1.
</event>
<event>
 7    1  0.1193961E-011  0.5930190E+02  0.7816164E-02  0.1266605E+00
        -11   -1    0    0    0    0  0.00000000000E+00  0.00000000000E+00  0.45593999997E+02  0.45594000000E+02  0.51100000000E-03 0.  1.
         11   -1    0    0    0    0 -0.00000000000E+00 -0.00000000000E+00 -0.45593999997E+02  0.45594000000E+02  0.51100000000E-03 0. -1.
    9900012    2    1    2    0    0 -0.30774841360E+02  0.82289798590E+01 -0.13843383349E+01  0.59301900162E+02  0.49999919999E+02 0.  0.
         12    1    1    2    0    0  0.30774841360E+02 -0.82289798590E+01  0.13843383349E+01  0.31886099838E+02  0.00000000000E+00 0. -1.
         11    1    3    3    0    0  0.32420022545E+01  0.14633954117E+01  0.12603880349E+02  0.13096179017E+02  0.51100000000E-03 0. -1.
        -11    1    3    3    0    0 -0.17352360965E+02  0.13605175315E+02  0.19730607496E+01  0.22138161518E+02  0.51100000000E-03 0.  1.
         12    1    3    3    0    0 -0.16664482650E+02 -0.68395908682E+01 -0.15961279433E+02  0.24067559627E+02  0.00000000000E+00 0. -1.
</event>
<event>
 7    1  0.1193961E-011  0.5930194E+02  0.7816164E-02  0.1266605E+00
        -11   -1    0    0    0    0  0.00000000000E+00  0.00000000000E+00  0.45593999997E+02  0.45594000000E+02  0.51100000000E-03 0.  1.
         11   -1    0    0    0    0 -0.00000000000E+00 -0.00000000000E+00 -0.45593999997E+02  0.45594000000E+02  0.51100000000E-03 0. -1.
    9900012    2    1    2    0    0  0.11613146963E+02  0.34956588242E+01  0.29489595178E+02  0.59301936637E+02  0.49999986522E+02 0.  0.
         12    1    1    2    0    0 -0.11613146963E+02 -0.34956588242E+01 -0.29489595178E+02  0.31886063363E+02  0.00000000000E+00 0. -1.
         11    1    3    3    0    0  0.21881994648E+02 -0.80462122905E+01  0.10129846602E+02  0.25420012086E+02  0.51100000000E-03 0. -1.
        -11    1    3    3    0    0  0.63309940228E+01  0.36920940679E+01  0.12079710735E+02  0.14129134992E+02  0.51100000000E-03 0.  1.
         12    1    3    3    0    0 -0.16599841708E+02  0.78497770468E+01  0.72800378418E+01  0.19752789560E+02  0.00000000000E+00 0. -1.
</event>
<event>
 7    1  0.1193961E-011  0.5930196E+02  0.7816164E-02  0.1266605E+00
        -11   -1    0    0    0    0  0.00000000000E+00  0.00000000000E+00  0.45593999997E+02  0.45594000000E+02  0.51100000000E-03 0.  1.
         11   -1    0    0    0    0 -0.00000000000E+00 -0.00000000000E+00 -0.45593999997E+02  0.45594000000E+02  0.51100000000E-03 0. -1.
    9900012    2    1    2    0    0  0.22750309611E+02  0.22177027415E+02  0.27059391123E+01  0.59301964831E+02  0.50000037939E+02 0.  0.
         12    1    1    2    0    0 -0.22750309611E+02 -0.22177027415E+02 -0.27059391123E+01  0.31886035169E+02  0.00000000000E+00 0. -1.
         11    1    3    3    0    0  0.19076577878E+01 -0.87359272986E+00 -0.52387765767E+01  0.56433237348E+01  0.51100000000E-03 0. -1.
        -11    1    3    3    0    0  0.15391815148E+02  0.35876035107E+02  0.44482031504E+01  0.39291021622E+02  0.51100000000E-03 0.  1.
         12    1    3    3    0    0  0.54508366753E+01 -0.12825414962E+02  0.34965125387E+01  0.14367619474E+02  0.00000000000E+00 0. -1.
</event>
<event>
 7    1  0.1193961E-011  0.5930188E+02  0.7816164E-02  0.1266605E+00
        -11   -1    0    0    0    0  0.00000000000E+00  0.00000000000E+00  0.45593999997E+02  0.45594000000E+02  0.51100000000E-03 0.  1.
         11   -1    0    0    0    0 -0.00000000000E+00 -0.00000000000E+00 -0.45593999997E+02  0.45594000000E+02  0.51100000000E-03 0. -1.
    9900012    2    1    2    0    0 -0.17401290542E+02  0.16458635982E+02  0.21048353297E+02  0.59301877824E+02  0.49999879260E+02 0.  0.
         12    1    1    2    0    0  0.17401290542E+02 -0.16458635982E+02 -0.21048353297E+02  0.31886122176E+02  0.00000000000E+00 0. -1.
         11    1    3    3    0    0 -0.48272051718E+01  0.17452753991E+02  0.21990877560E+02  0.28486825512E+02  0.51100000000E-03 0. -1.
        -11    1    3    3    0    0 -0.14390203863E+02  0.40764045054E+01  0.10428364567E+02  0.18233097069E+02  0.51100000000E-03 0.  1.
        -12    1    3    3    0    0  0.18161184927E+01 -0.50705225141E+01 -0.11370888831E+02  0.12581955243E+02  0.00000000000E+00 0.  1.
</event>
<event>
 7    1  0.1193961E-011  0.5930195E+02  0.7816164E-02  0.1266605E+00
        -11   -1    0    0    0    0  0.00000000000E+00  0.00000000000E+00  0.45593999997E+02  0.45594000000E+02  0.51100000000E-03 0. -1.
         11   -1    0    0    0    0 -0.00000000000E+00 -0.00000000000E+00 -0.45593999997E+02  0.45594000000E+02  0.51100000000E-03 0.  1.
    9900012    2    1    2    0    0  0.45736551417E+01 -0.14221693439E+02 -0.28169939849E+02  0.59301946674E+02  0.50000004826E+02 0.  0.
         12    1    1    2    0    0 -0.45736551417E+01  0.14221693439E+02  0.28169939849E+02  0.31886053326E+02  0.00000000000E+00 0. -1.
         11    1    3    3    0    0  0.13597632642E+02  0.19356457198E+01 -0.32996651650E+02  0.35741031857E+02  0.51100000000E-03 0.  1.
        -11    1    3    3    0    0  0.10966583056E+01  0.50843753645E+00  0.38534038645E+01  0.40385504542E+01  0.51100000000E-03 0. -1.
        -12    1    3    3    0    0 -0.10120635805E+02 -0.16665776695E+02  0.97330793681E+00  0.19522364363E+02  0.00000000000E+00 0.  1.
</event>
<event>
 7    1  0.1193961E-011  0.5930193E+02  0.7816164E-02  0.1266605E+00
        -11   -1    0    0    0    0  0.00000000000E+00  0.00000000000E+00  0.45593999997E+02  0.45594000000E+02  0.51100000000E-03 0.  1.
         11   -1    0    0    0    0 -0.00000000000E+00 -0.00000000000E+00 -0.45593999997E+02  0.45594000000E+02  0.51100000000E-03 0. -1.
    9900012    2    1    2    0    0  0.84873016266E+01  0.30723285676E+02 -0.87581449469E+00  0.59301927450E+02  0.49999969766E+02 0.  0.
         12    1    1    2    0    0 -0.84873016266E+01 -0.30723285676E+02  0.87581449469E+00  0.31886072550E+02  0.00000000000E+00 0. -1.
         11    1    3    3    0    0  0.93474131599E+01  0.58640560668E+01  0.12016314163E+02  0.16314199112E+02  0.51100000000E-03 0.  1.
        -11    1    3    3    0    0 -0.20466063708E+01  0.16859086708E+02  0.93037201471E+01  0.19364312823E+02  0.51100000000E-03 0. -1.
         12    1    3    3    0    0  0.11864948375E+01  0.80001429015E+01 -0.22195848805E+02  0.23623415515E+02  0.00000000000E+00 0. -1.
</event>
<event>
 7    1  0.1193961E-011  0.5930173E+02  0.7816164E-02  0.1266606E+00
        -11   -1    0    0    0    0  0.00000000000E+00  0.00000000000E+00  0.45593999997E+02  0.45594000000E+02  0.51100000000E-03 0. -1.
         11   -1    0    0    0    0 -0.00000000000E+00 -0.00000000000E+00 -0.45593999997E+02  0.45594000000E+02  0.51100000000E-03 0.  1.
    9900012    2    1    2    0    0  0.18115431602E+02 -0.11043796909E+01 -0.26217278293E+02  0.59301730264E+02  0.49999610144E+02 0.  0.
         12    1    1    2    0    0 -0.18115431602E+02  0.11043796909E+01  0.26217278293E+02  0.31886269736E+02  0.00000000000E+00 0. -1.
         11    1    3    3    0    0 -0.30010093979E+01  0.11588088200E+02 -0.86089813059E+00  0.12001291238E+02  0.51100000000E-03 0. -1.
        -11    1    3    3    0    0  0.91615682330E+01  0.10388854248E+02 -0.10298014733E+02  0.17260119721E+02  0.51100000000E-03 0.  1.
        -12    1    3    3    0    0  0.11954872767E+02 -0.23081322139E+02 -0.15058365429E+02  0.30040319305E+02  0.00000000000E+00 0.  1.
</event>
<event>
 7    1  0.1193961E-011  0.5930193E+02  0.7816164E-02  0.1266605E+00
        -11   -1    0    0    0    0  0.00000000000E+00  0.00000000000E+00  0.45593999997E+02  0.45594000000E+02  0.51100000000E-03 0. -1.
         11   -1    0    0    0    0 -0.00000000000E+00 -0.00000000000E+00 -0.45593999997E+02  0.45594000000E+02  0.51100000000E-03 0.  1.
    9900012    2    1    2    0    0  0.13364938849E+02 -0.27622950183E+02  0.86644482201E+01  0.59301927332E+02  0.49999969550E+02 0.  0.
         12    1    1    2    0    0 -0.13364938849E+02  0.27622950183E+02 -0.86644482201E+01  0.31886072668E+02  0.00000000000E+00 0. -1.
         11    1    3    3    0    0  0.77364150274E+01 -0.12330677087E+02  0.88022663791E+01  0.17011102509E+02  0.51100000000E-03 0. -1.
        -11    1    3    3    0    0  0.68189867165E+01 -0.23069179549E+02  0.12723891165E+02  0.27213655240E+02  0.51100000000E-03 0.  1.
        -12    1    3    3    0    0 -0.11904628945E+01  0.77769064532E+01 -0.12861709324E+02  0.15077169582E+02  0.00000000000E+00 0.  1.
</event>
<event>
 7    1  0.1193961E-011  0.5930196E+02  0.7816164E-02  0.1266605E+00
        -11   -1    0    0    0    0  0.00000000000E+00  0.00000000000E+00  0.45593999997E+02  0.45594000000E+02  0.51100000000E-03 0. -1.
         11   -1    0    0    0    0 -0.00000000000E+00 -0.00000000000E+00 -0.45593999997E+02  0.45594000000E+02  0.51100000000E-03 0.  1.
    9900012    2    1    2    0    0 -0.97169115915E+00 -0.88603836344E+01 -0.30614847217E+02  0.59301961488E+02  0.50000031843E+02 0.  0.
         12    1    1    2    0    0  0.97169115915E+00  0.88603836344E+01  0.30614847217E+02  0.31886038512E+02  0.00000000000E+00 0. -1.
         11    1    3    3    0    0  0.48377039353E+01 -0.89050089621E+00 -0.15225695988E+02  0.16000568421E+02  0.51100000000E-03 0. -1.
        -11    1    3    3    0    0  0.72037925887E+01 -0.31051249022E+01 -0.25135282263E+02  0.26330948388E+02  0.51100000000E-03 0.  1.
         12    1    3    3    0    0 -0.13013187683E+02 -0.48647578360E+01  0.97461310333E+01  0.16970444679E+02  0.00000000000E+00 0. -1.
</event>
<event>
 7    1  0.1193961E-011  0.5930201E+02  0.7816164E-02  0.1266605E+00
        -11   -1    0    0    0    0  0.00000000000E+00  0.00000000000E+00  0.45593999997E+02  0.45594000000E+02  0.51100000000E-03 0.  1.
         11   -1    0    0    0    0 -0.00000000000E+00 -0.00000000000E+00 -0.45593999997E+02  0.45594000000E+02  0.51100000000E-03 0. -1.
    9900012    2    1    2    0    0  0.23375043312E+02  0.21470236523E+02 -0.30582551956E+01  0.59302005723E+02  0.50000112518E+02 0.  0.
         12    1    1    2    0    0 -0.23375043312E+02 -0.21470236523E+02  0.30582551956E+01  0.31885994277E+02  0.00000000000E+00 0. -1.
         11    1    3    3    0    0 -0.10635532488E+02 -0.59827624426E+01  0.44902490391E+00  0.12211045057E+02  0.51100000000E-03 0. -1.
        -11    1    3    3    0    0  0.73224647183E+01  0.16346589346E+02  0.43189140068E+00  0.17916919468E+02  0.51100000000E-03 0.  1.
        -12    1    3    3    0    0  0.26688111082E+02  0.11106409620E+02 -0.39391715002E+01  0.29174041199E+02  0.00000000000E+00 0.  1.
</event>
<event>
 7    1  0.1193961E-011  0.5930181E+02  0.7816164E-02  0.1266605E+00
        -11   -1    0    0    0    0  0.00000000000E+00  0.00000000000E+00  0.45593999997E+02  0.45594000000E+02  0.51100000000E-03 0. -1.
         11   -1    0    0    0    0 -0.00000000000E+00 -0.00000000000E+00 -0.45593999997E+02  0.45594000000E+02  0.51100000000E-03 0.  1.
    9900012    2    1    2    0    0 -0.25758940735E+02  0.57085911505E+01 -0.17905806342E+02  0.59301812686E+02  0.49999760463E+02 0.  0.
         12    1    1    2    0    0  0.25758940735E+02 -0.57085911505E+01  0.17905806342E+02  0.31886187314E+02  0.00000000000E+00 0. -1.
         11    1    3    3    0    0  0.17807502745E+01  0.16707504648E+02  0.36784884993E+01  0.17200088983E+02  0.51100000000E-03 0. -1.
        -11    1    3    3    0    0 -0.19035937877E+02  0.11355289662E+01 -0.47055658997E+01  0.19641759279E+02  0.51100000000E-03 0.  1.
        -12    1    3    3    0    0 -0.85037531323E+01 -0.12134442464E+02 -0.16878728941E+02  0.22459964424E+02  0.00000000000E+00 0.  1.
</event>
<event>
 7    1  0.1193961E-011  0.5930194E+02  0.7816164E-02  0.1266605E+00
        -11   -1    0    0    0    0  0.00000000000E+00  0.00000000000E+00  0.45593999997E+02  0.45594000000E+02  0.51100000000E-03 0. -1.
         11   -1    0    0    0    0 -0.00000000000E+00 -0.00000000000E+00 -0.45593999997E+02  0.45594000000E+02  0.51100000000E-03 0.  1.
    9900012    2    1    2    0    0 -0.26458937648E+02 -0.12521256822E+02  0.12643727812E+02  0.59301935539E+02  0.49999984518E+02 0.  0.
         12    1    1    2    0    0  0.26458937648E+02  0.12521256822E+02 -0.12643727812E+02  0.31886064461E+02  0.00000000000E+00 0. -1.
         11    1    3    3    0    0 -0.93426874731E+01 -0.12066358764E+02  0.19698109340E+02  0.24917831665E+02  0.51100000000E-03 0. -1.
        -11    1    3    3    0    0 -0.71112858775E+00 -0.11117530467E+02 -0.95325404666E+01  0.14662009261E+02  0.51100000000E-03 0.  1.
         12    1    3    3    0    0 -0.16405121587E+02  0.10662632410E+02  0.24781589384E+01  0.19722094613E+02  0.00000000000E+00 0. -1.
</event>
<event>
 7    1  0.1193961E-011  0.5930196E+02  0.7816164E-02  0.1266605E+00
        -11   -1    0    0    0    0  0.00000000000E+00  0.00000000000E+00  0.45593999997E+02  0.45594000000E+02  0.51100000000E-03 0.  1.
         11   -1    0    0    0    0 -0.00000000000E+00 -0.00000000000E+00 -0.45593999997E+02  0.45594000000E+02  0.51100000000E-03 0. -1.
    9900012    2    1    2    0    0  0.15906904165E+02  0.56709766385E+01  0.27046812459E+02  0.59301958534E+02  0.50000026456E+02 0.  0.
         12    1    1    2    0    0 -0.15906904165E+02 -0.56709766385E+01 -0.27046812459E+02  0.31886041466E+02  0.00000000000E+00 0. -1.
         11    1    3    3    0    0  0.13435354230E+02 -0.40292460101E+01  0.25722161166E+02  0.29298005769E+02  0.51100000000E-03 0. -1.
        -11    1    3    3    0    0  0.17006550374E+01 -0.65109614511E+01  0.96492143646E+01  0.11764020770E+02  0.51100000000E-03 0.  1.
         12    1    3    3    0    0  0.77089489708E+00  0.16211184100E+02 -0.83245630712E+01  0.18239931995E+02  0.00000000000E+00 0. -1.
</event>
<event>
 7    1  0.1193961E-011  0.5930194E+02  0.7816164E-02  0.1266605E+00
        -11   -1    0    0    0    0  0.00000000000E+00  0.00000000000E+00  0.45593999997E+02  0.45594000000E+02  0.51100000000E-03 0. -1.
         11   -1    0    0    0    0 -0.00000000000E+00 -0.00000000000E+00 -0.45593999997E+02  0.45594000000E+02  0.51100000000E-03 0.  1.
    9900012    2    1    2    0    0 -0.20759386187E+02  0.52316726668E+01 -0.23630448549E+02  0.59301943292E+02  0.49999998659E+02 0.  0.
         12    1    1    2    0    0  0.20759386187E+02 -0.52316726668E+01  0.23630448549E+02  0.31886056708E+02  0.00000000000E+00 0. -1.
         11    1    3    3    0    0 -0.10915785507E+02  0.15761944948E+01  0.11736615195E+02  0.16105492816E+02  0.51100000000E-03 0. -1.
        -11    1    3    3    0    0 -0.15261405942E+02  0.53117359390E+01 -0.14972175621E+02  0.22029323482E+02  0.51100000000E-03 0.  1.
        -12    1    3    3    0    0  0.54178052624E+01 -0.16562577670E+01 -0.20394888123E+02  0.21167126995E+02  0.00000000000E+00 0.  1.
</event>
<event>
 7    1  0.1193961E-011  0.5930204E+02  0.7816164E-02  0.1266604E+00
        -11   -1    0    0    0    0  0.00000000000E+00  0.00000000000E+00  0.45593999997E+02  0.45594000000E+02  0.51100000000E-03 0.  1.
         11   -1    0    0    0    0 -0.00000000000E+00 -0.00000000000E+00 -0.45593999997E+02  0.45594000000E+02  0.51100000000E-03 0. -1.
    9900012    2    1    2    0    0 -0.23334553552E+02 -0.43477207727E+00  0.21726118071E+02  0.59302037216E+02  0.50000169953E+02 0.  0.
         12    1    1    2    0    0  0.23334553552E+02  0.43477207727E+00 -0.21726118071E+02  0.31885962784E+02  0.00000000000E+00 0. -1.
         11    1    3    3    0    0  0.74150956114E+01  0.26197815711E+01  0.90862513755E+01  0.12016940656E+02  0.51100000000E-03 0. -1.
        -11    1    3    3    0    0 -0.15795216631E+02  0.15046122129E+02  0.86620980787E+01  0.23471399679E+02  0.51100000000E-03 0.  1.
         12    1    3    3    0    0 -0.14954432533E+02 -0.18100675777E+02  0.39777686170E+01  0.23813696881E+02  0.00000000000E+00 0. -1.
</event>
<event>
 7    1  0.1193961E-011  0.5930196E+02  0.7816164E-02  0.1266605E+00
        -11   -1    0    0    0    0  0.00000000000E+00  0.00000000000E+00  0.45593999997E+02  0.45594000000E+02  0.51100000000E-03 0.  1.
         11   -1    0    0    0    0 -0.00000000000E+00 -0.00000000000E+00 -0.45593999997E+02  0.45594000000E+02  0.51100000000E-03 0. -1.
    9900012    2    1    2    0    0  0.25529830066E+02 -0.32249275669E+01  0.18829428066E+02  0.59301956936E+02  0.50000023542E+02 0.  0.
         12    1    1    2    0    0 -0.25529830066E+02  0.32249275669E+01 -0.18829428066E+02  0.31886043064E+02  0.00000000000E+00 0. -1.
         11    1    3    3    0    0  0.31558926707E+01 -0.77172351196E+01  0.11039925310E+02  0.13834570017E+02  0.51100000000E-03 0. -1.
        -11    1    3    3    0    0  0.57018955560E+01 -0.16284277594E+02  0.75354026682E+01  0.18827416268E+02  0.51100000000E-03 0.  1.
         12    1    3    3    0    0  0.16672041839E+02  0.20776585147E+02  0.25410008762E+00  0.26639970651E+02  0.00000000000E+00 0. -1.
</event>
<event>
 7    1  0.1193961E-011  0.5930195E+02  0.7816164E-02  0.1266605E+00
        -11   -1    0    0    0    0  0.00000000000E+00  0.00000000000E+00  0.45593999997E+02  0.45594000000E+02  0.51100000000E-03 0. -1.
         11   -1    0    0    0    0 -0.00000000000E+00 -0.00000000000E+00 -0.45593999997E+02  0.45594000000E+02  0.51100000000E-03 0.  1.
    9900012    2    1    2    0    0  0.11048554336E+01  0.19319589869E+02 -0.25342706225E+02  0.59301952628E+02  0.50000015684E+02 0.  0.
         12    1    1    2    0    0 -0.11048554336E+01 -0.19319589869E+02  0.25342706225E+02  0.31886047372E+02  0.00000000000E+00 0. -1.
         11    1    3    3    0    0  0.11041482298E+02 -0.10437333122E+01 -0.72401442064E+01  0.13244749864E+02  0.51100000000E-03 0. -1.
        -11    1    3    3    0    0  0.10704378373E+02  0.18702102756E+02 -0.10762977374E+02  0.24087217483E+02  0.51100000000E-03 0.  1.
        -12    1    3    3    0    0 -0.20641005237E+02  0.16612204252E+01 -0.73395846442E+01  0.21969985281E+02  0.00000000000E+00 0.  1.
</event>
<event>
 7    1  0.1193961E-011  0.5930194E+02  0.7816164E-02  0.1266605E+00
        -11   -1    0    0    0    0  0.00000000000E+00  0.00000000000E+00  0.45593999997E+02  0.45594000000E+02  0.51100000000E-03 0. -1.
         11   -1    0    0    0    0 -0.00000000000E+00 -0.00000000000E+00 -0.45593999997E+02  0.45594000000E+02  0.51100000000E-03 0.  1.
    9900012    2    1    2    0    0  0.12337238808E+02  0.29350329372E+02 -0.17525474678E+01  0.59301941632E+02  0.49999995630E+02 0.  0.
         12    1    1    2    0    0 -0.12337238808E+02 -0.29350329372E+02  0.17525474678E+01  0.31886058368E+02  0.00000000000E+00 0. -1.
         11    1    3    3    0    0  0.18639895536E+02  0.24656048437E+02 -0.32659786730E+01  0.31081072167E+02  0.51100000000E-03 0. -1.
        -11    1    3    3    0    0  0.23954508708E+01 -0.53464704134E+00 -0.11476728421E+02  0.11736239936E+02  0.51100000000E-03 0.  1.
         12    1    3    3    0    0 -0.86981075984E+01  0.52289279764E+01  0.12990159626E+02  0.16484629528E+02  0.00000000000E+00 0. -1.
</event>
<event>
 7    1  0.1193961E-011  0.5930194E+02  0.7816164E-02  0.1266605E+00
        -11   -1    0    0    0    0  0.00000000000E+00  0.00000000000E+00  0.45593999997E+02  0.45594000000E+02  0.51100000000E-03 0.  1.
         11   -1    0    0    0    0 -0.00000000000E+00 -0.00000000000E+00 -0.45593999997E+02  0.45594000000E+02  0.51100000000E-03 0. -1.
    9900012    2    1    2    0    0 -0.20591694048E+02  0.20827945105E+02  0.12605529126E+02  0.59301944653E+02  0.50000001140E+02 0.  0.
         12    1    1    2    0    0  0.20591694048E+02 -0.20827945105E+02 -0.12605529126E+02  0.31886055347E+02  0.00000000000E+00 0. -1.
         11    1    3    3    0    0 -0.16120250029E+02  0.18492707436E+02 -0.81122518872E+00  0.24545891222E+02  0.51100000000E-03 0. -1.
        -11    1    3    3    0    0  0.10228518930E+02  0.89638223402E+01 -0.27323008221E+00  0.13603211584E+02  0.51100000000E-03 0.  1.
         12    1    3    3    0    0 -0.14699962949E+02 -0.66285846711E+01  0.13689984397E+02  0.21152841848E+02  0.00000000000E+00 0. -1.
</event>
<event>
 7    1  0.1193961E-011  0.5930194E+02  0.7816164E-02  0.1266605E+00
        -11   -1    0    0    0    0  0.00000000000E+00  0.00000000000E+00  0.45593999997E+02  0.45594000000E+02  0.51100000000E-03 0.  1.
         11   -1    0    0    0    0 -0.00000000000E+00 -0.00000000000E+00 -0.45593999997E+02  0.45594000000E+02  0.51100000000E-03 0. -1.
    9900012    2    1    2    0    0 -0.69389831323E+01 -0.24929537717E+02  0.18630336111E+02  0.59301940957E+02  0.49999994400E+02 0.  0.
         12    1    1    2    0    0  0.69389831323E+01  0.24929537717E+02 -0.18630336111E+02  0.31886059043E+02  0.00000000000E+00 0. -1.
         11    1    3    3    0    0 -0.16880247622E+01 -0.15085939285E+02 -0.10299871838E+02  0.18344545561E+02  0.51100000000E-03 0. -1.
        -11    1    3    3    0    0 -0.47404895576E+01 -0.30037318127E+01 -0.42727249759E+01  0.70534264743E+01  0.51100000000E-03 0.  1.
        -12    1    3    3    0    0 -0.51046881250E+00 -0.68398666191E+01  0.33202932925E+02  0.33903968921E+02  0.00000000000E+00 0.  1.
</event>
<event>
 7    1  0.1193961E-011  0.5930198E+02  0.7816164E-02  0.1266605E+00
        -11   -1    0    0    0    0  0.00000000000E+00  0.00000000000E+00  0.45593999997E+02  0.45594000000E+02  0.51100000000E-03 0. -1.
         11   -1    0    0    0    0 -0.00000000000E+00 -0.00000000000E+00 -0.45593999997E+02  0.45594000000E+02  0.51100000000E-03 0.  1.
    9900012    2    1    2    0    0 -0.26044515262E+02 -0.16628392668E+02 -0.78675396660E+01  0.59301978010E+02  0.50000061975E+02 0.  0.
         12    1    1    2    0    0  0.26044515262E+02  0.16628392668E+02  0.78675396660E+01  0.31886021990E+02  0.00000000000E+00 0. -1.
         11    1    3    3    0    0 -0.10654678351E+02 -0.14787711428E+01  0.13269835314E+02  0.17082080213E+02  0.51100000000E-03 0. -1.
        -11    1    3    3    0    0 -0.21455799136E+02 -0.11008790019E+02 -0.51969865877E+01  0.24668876021E+02  0.51100000000E-03 0.  1.
         12    1    3    3    0    0  0.60659622259E+01 -0.41408315064E+01 -0.15940388393E+02  0.17551021776E+02  0.00000000000E+00 0. -1.
</event>
<event>
 7    1  0.1193961E-011  0.5930196E+02  0.7816164E-02  0.1266605E+00
        -11   -1    0    0    0    0  0.00000000000E+00  0.00000000000E+00  0.45593999997E+02  0.45594000000E+02  0.51100000000E-03 0.  1.
         11   -1    0    0    0    0 -0.00000000000E+00 -0.00000000000E+00 -0.45593999997E+02  0.45594000000E+02  0.51100000000E-03 0. -1.
    9900012    2    1    2    0    0 -0.13287606623E+02  0.10287706394E+02  0.27098384317E+02  0.59301955635E+02  0.50000021169E+02 0.  0.
         12    1    1    2    0    0  0.13287606623E+02 -0.10287706394E+02 -0.27098384317E+02  0.31886044365E+02  0.00000000000E+00 0. -1.
         11    1    3    3    0    0 -0.19427379148E+01 -0.32366804191E-01  0.24078098626E+02  0.24156367938E+02  0.51100000000E-03 0. -1.
        -11    1    3    3    0    0 -0.14521868528E+02 -0.32204199530E+01  0.11548021614E+02  0.18831159648E+02  0.51100000000E-03 0.  1.
         12    1    3    3    0    0  0.31769998196E+01  0.13540493151E+02 -0.85277359227E+01  0.16314428050E+02  0.00000000000E+00 0. -1.
</event>
<event>
 7    1  0.1193961E-011  0.5930196E+02  0.7816164E-02  0.1266605E+00
        -11   -1    0    0    0    0  0.00000000000E+00  0.00000000000E+00  0.45593999997E+02  0.45594000000E+02  0.51100000000E-03 0. -1.
         11   -1    0    0    0    0 -0.00000000000E+00 -0.00000000000E+00 -0.45593999997E+02  0.45594000000E+02  0.51100000000E-03 0.  1.
    9900012    2    1    2    0    0 -0.11031404093E+02  0.14766724420E+02 -0.26018681001E+02  0.59301956228E+02  0.50000022251E+02 0.  0.
         12    1    1    2    0    0  0.11031404093E+02 -0.14766724420E+02  0.26018681001E+02  0.31886043772E+02  0.00000000000E+00 0. -1.
         11    1    3    3    0    0  0.11193905630E+02  0.32575406227E+01 -0.16010712526E+02  0.19805504538E+02  0.51100000000E-03 0. -1.
        -11    1    3    3    0    0 -0.46738296099E+01  0.13117367760E+02 -0.15689957875E+02  0.20978198173E+02  0.51100000000E-03 0.  1.
         12    1    3    3    0    0 -0.17551480113E+02 -0.16081839626E+01  0.56819894001E+01  0.18518253518E+02  0.00000000000E+00 0. -1.
</event>
<event>
 7    1  0.1193961E-011  0.5930194E+02  0.7816164E-02  0.1266605E+00
        -11   -1    0    0    0    0  0.00000000000E+00  0.00000000000E+00  0.45593999997E+02  0.45594000000E+02  0.51100000000E-03 0. -1.
         11   -1    0    0    0    0 -0.00000000000E+00 -0.00000000000E+00 -0.45593999997E+02  0.45594000000E+02  0.51100000000E-03 0.  1.
    9900012    2    1    2    0    0 -0.16354246019E+02 -0.24316963571E+02 -0.12567608465E+02  0.59301939367E+02  0.49999991500E+02 0.  0.
         12    1    1    2    0    0  0.16354246019E+02  0.24316963571E+02  0.12567608465E+02  0.31886060633E+02  0.00000000000E+00 0. -1.
         11    1    3    3    0    0 -0.73923153812E+01  0.63520252192E+01  0.34333302359E-01  0.97465753019E+01  0.51100000000E-03 0. -1.
        -11    1    3    3    0    0  0.12355703422E+02 -0.88208782023E+01 -0.11438381577E+02  0.19008100186E+02  0.51100000000E-03 0.  1.
         12    1    3    3    0    0 -0.21317634060E+02 -0.21848110588E+02 -0.11635601904E+01  0.30547263879E+02  0.00000000000E+00 0. -1.
</event>
<event>
 7    1  0.1193961E-011  0.5930196E+02  0.7816164E-02  0.1266605E+00
        -11   -1    0    0    0    0  0.00000000000E+00  0.00000000000E+00  0.45593999997E+02  0.45594000000E+02  0.51100000000E-03 0.  1.
         11   -1    0    0    0    0 -0.00000000000E+00 -0.00000000000E+00 -0.45593999997E+02  0.45594000000E+02  0.51100000000E-03 0. -1.
    9900012    2    1    2    0    0  0.16963934867E+02  0.20651596381E+02  0.17391266677E+02  0.59301957977E+02  0.50000025440E+02 0.  0.
         12    1    1    2    0    0 -0.16963934867E+02 -0.20651596381E+02 -0.17391266677E+02  0.31886042023E+02  0.00000000000E+00 0. -1.
         11    1    3    3    0    0  0.10683996743E+02 -0.62162827321E+01  0.25989242164E+02  0.28778996958E+02  0.51100000000E-03 0. -1.
        -11    1    3    3    0    0 -0.19382290108E+01  0.46437448974E+01  0.67715056241E+00  0.50773646231E+01  0.51100000000E-03 0.  1.
        -12    1    3    3    0    0  0.82181671344E+01  0.22224134216E+02 -0.92751260490E+01  0.25445596395E+02  0.00000000000E+00 0.  1.
</event>
<event>
 7    1  0.1193961E-011  0.5930195E+02  0.7816164E-02  0.1266605E+00
        -11   -1    0    0    0    0  0.00000000000E+00  0.00000000000E+00  0.45593999997E+02  0.45594000000E+02  0.51100000000E-03 0. -1.
         11   -1    0    0    0    0 -0.00000000000E+00 -0.00000000000E+00 -0.45593999997E+02  0.45594000000E+02  0.51100000000E-03 0.  1.
    9900012    2    1    2    0    0  0.18858171027E+02  0.43246874196E+01 -0.25345343158E+02  0.59301953591E+02  0.50000017442E+02 0.  0.
         12    1    1    2    0    0 -0.18858171027E+02 -0.43246874196E+01  0.25345343158E+02  0.31886046409E+02  0.00000000000E+00 0. -1.
         11    1    3    3    0    0 -0.61062760520E+01 -0.26844117905E+01  0.10083243066E+02  0.12089849663E+02  0.51100000000E-03 0. -1.
        -11    1    3    3    0    0 -0.26763871257E+01  0.13210546432E+01 -0.32757174223E+01  0.44315413017E+01  0.51100000000E-03 0.  1.
        -12    1    3    3    0    0  0.27640834205E+02  0.56880445670E+01 -0.32152868801E+02  0.42780562627E+02  0.00000000000E+00 0.  1.
</event>
<event>
 7    1  0.1193961E-011  0.5930195E+02  0.7816164E-02  0.1266605E+00
        -11   -1    0    0    0    0  0.00000000000E+00  0.00000000000E+00  0.45593999997E+02  0.45594000000E+02  0.51100000000E-03 0. -1.
         11   -1    0    0    0    0 -0.00000000000E+00 -0.00000000000E+00 -0.45593999997E+02  0.45594000000E+02  0.51100000000E-03 0.  1.
    9900012    2    1    2    0    0  0.11026520905E+02 -0.23235803776E+02 -0.18847643481E+02  0.59301946541E+02  0.50000004584E+02 0.  0.
         12    1    1    2    0    0 -0.11026520905E+02  0.23235803776E+02  0.18847643481E+02  0.31886053459E+02  0.00000000000E+00 0. -1.
         11    1    3    3    0    0  0.22147475400E+01  0.29985042212E+01  0.27816205938E+01  0.46511877644E+01  0.51100000000E-03 0. -1.
        -11    1    3    3    0    0  0.85542413427E+00 -0.16943088752E+02  0.10718748408E+02  0.20067176548E+02  0.51100000000E-03 0.  1.
        -12    1    3    3    0    0  0.79563492302E+01 -0.92912192455E+01 -0.32348012483E+02  0.34583582229E+02  0.00000000000E+00 0.  1.
</event>
<event>
 7    1  0.1193961E-011  0.5930170E+02  0.7816164E-02  0.1266606E+00
        -11   -1    0    0    0    0  0.00000000000E+00  0.00000000000E+00  0.45593999997E+02  0.45594000000E+02  0.51100000000E-03 0.  1.
         11   -1    0    0    0    0 -0.00000000000E+00 -0.00000000000E+00 -0.45593999997E+02  0.45594000000E+02  0.51100000000E-03 0. -1.
    9900012    2    1    2    0    0 -0.61618374854E+01 -0.15988160294E+02  0.26891385216E+02  0.59301700283E+02  0.49999555466E+02 0.  0.
         12    1    1    2    0    0  0.61618374854E+01  0.15988160294E+02 -0.26891385216E+02  0.31886299717E+02  0.00000000000E+00 0. -1.
         11    1    3    3    0    0  0.70626952943E+01 -0.20791095375E+02  0.85783661630E+01  0.23574131543E+02  0.51100000000E-03 0. -1.
        -11    1    3    3    0    0  0.81042572151E+00  0.79551030419E+01  0.19714920577E+02  0.21274833675E+02  0.51100000000E-03 0.  1.
        -12    1    3    3    0    0 -0.14034958501E+02 -0.31521679604E+01 -0.14019015237E+01  0.14452735065E+02  0.00000000000E+00 0.  1.
</event>
<event>
 7    1  0.1193961E-011  0.5930193E+02  0.7816164E-02  0.1266605E+00
        -11   -1    0    0    0    0  0.00000000000E+00  0.00000000000E+00  0.45593999997E+02  0.45594000000E+02  0.51100000000E-03 0.  1.
         11   -1    0    0    0    0 -0.00000000000E+00 -0.00000000000E+00 -0.45593999997E+02  0.45594000000E+02  0.51100000000E-03 0. -1.
    9900012    2    1    2    0    0  0.28420620263E+02 -0.27552120358E+01  0.14191488834E+02  0.59301934002E+02  0.49999981715E+02 0.  0.
         12    1    1    2    0    0 -0.28420620263E+02  0.27552120358E+01 -0.14191488834E+02  0.31886065998E+02  0.00000000000E+00 0. -1.
         11    1    3    3    0    0  0.16223947166E+02 -0.13271783294E+02  0.17174264688E+02  0.27098192952E+02  0.51100000000E-03 0. -1.
        -11    1    3    3    0    0 -0.42975985450E+01 -0.58682169208E+01  0.34940314830E+01  0.80692985661E+01  0.51100000000E-03 0.  1.
         12    1    3    3    0    0  0.16494271643E+02  0.16384788179E+02 -0.64768073366E+01  0.24134442483E+02  0.00000000000E+00 0. -1.
</event>
<event>
 7    1  0.1193961E-011  0.5930193E+02  0.7816164E-02  0.1266605E+00
        -11   -1    0    0    0    0  0.00000000000E+00  0.00000000000E+00  0.45593999997E+02  0.45594000000E+02  0.51100000000E-03 0. -1.
         11   -1    0    0    0    0 -0.00000000000E+00 -0.00000000000E+00 -0.45593999997E+02  0.45594000000E+02  0.51100000000E-03 0.  1.
    9900012    2    1    2    0    0 -0.45869289430E+00  0.14315353308E+02 -0.28488268796E+02  0.59301934101E+02  0.49999981896E+02 0.  0.
         12    1    1    2    0    0  0.45869289430E+00 -0.14315353308E+02  0.28488268796E+02  0.31886065899E+02  0.00000000000E+00 0. -1.
         11    1    3    3    0    0 -0.50736576277E+01 -0.44394259242E+01  0.74553781994E+01  0.10051525686E+02  0.51100000000E-03 0. -1.
        -11    1    3    3    0    0  0.12147969767E+02  0.17800333533E+02 -0.13197948120E+02  0.25270751437E+02  0.51100000000E-03 0.  1.
        -12    1    3    3    0    0 -0.75330050337E+01  0.95444569888E+00 -0.22745698876E+02  0.23979656978E+02  0.00000000000E+00 0.  1.
</event>
<event>
 7    1  0.1193961E-011  0.5930194E+02  0.7816164E-02  0.1266605E+00
        -11   -1    0    0    0    0  0.00000000000E+00  0.00000000000E+00  0.45593999997E+02  0.45594000000E+02  0.51100000000E-03 0. -1.
         11   -1    0    0    0    0 -0.00000000000E+00 -0.00000000000E+00 -0.45593999997E+02  0.45594000000E+02  0.51100000000E-03 0.  1.
    9900012    2    1    2    0    0 -0.16618126057E+02 -0.60248331450E+01 -0.26537896316E+02  0.59301942405E+02  0.49999997041E+02 0.  0.
         12    1    1    2    0    0  0.16618126057E+02  0.60248331450E+01  0.26537896316E+02  0.31886057595E+02  0.00000000000E+00 0. -1.
         11    1    3    3    0    0 -0.27775431874E+01 -0.85090192546E+00 -0.79079065994E+01  0.84245930045E+01  0.51100000000E-03 0. -1.
        -11    1    3    3    0    0  0.48931807868E-01  0.16213379586E+02  0.40915671144E+01  0.16721752110E+02  0.51100000000E-03 0.  1.
         12    1    3    3    0    0 -0.13889514677E+02 -0.21387310805E+02 -0.22721556831E+02  0.34155597291E+02  0.00000000000E+00 0. -1.
</event>
<event>
 7    1  0.1193961E-011  0.5930215E+02  0.7816164E-02  0.1266604E+00
        -11   -1    0    0    0    0  0.00000000000E+00  0.00000000000E+00  0.45593999997E+02  0.45594000000E+02  0.51100000000E-03 0. -1.
         11   -1    0    0    0    0 -0.00000000000E+00 -0.00000000000E+00 -0.45593999997E+02  0.45594000000E+02  0.51100000000E-03 0.  1.
    9900012    2    1    2    0    0 -0.23969001754E+02  0.18361871306E+02 -0.10248702852E+02  0.59302152464E+02  0.50000380136E+02 0.  0.
         12    1    1    2    0    0  0.23969001754E+02 -0.18361871306E+02  0.10248702852E+02  0.31885847536E+02  0.00000000000E+00 0. -1.
         11    1    3    3    0    0 -0.42616397879E+01  0.13805892752E+02 -0.42740558207E+01  0.15067574515E+02  0.51100000000E-03 0. -1.
        -11    1    3    3    0    0 -0.11726034717E+02  0.64992178841E+01 -0.22265288016E+02  0.25990051442E+02  0.51100000000E-03 0.  1.
         12    1    3    3    0    0 -0.79813272493E+01 -0.19432393303E+01  0.16290640984E+02  0.18244526506E+02  0.00000000000E+00 0. -1.
</event>
<event>
 7    1  0.1193961E-011  0.5930206E+02  0.7816164E-02  0.1266604E+00
        -11   -1    0    0    0    0  0.00000000000E+00  0.00000000000E+00  0.45593999997E+02  0.45594000000E+02  0.51100000000E-03 0.  1.
         11   -1    0    0    0    0 -0.00000000000E+00 -0.00000000000E+00 -0.45593999997E+02  0.45594000000E+02  0.51100000000E-03 0. -1.
    9900012    2    1    2    0    0 -0.10415330372E+02 -0.10399703387E+02  0.28285686930E+02  0.59302062310E+02  0.50000215718E+02 0.  0.
         12    1    1    2    0    0  0.10415330372E+02  0.10399703387E+02 -0.28285686930E+02  0.31885937690E+02  0.00000000000E+00 0. -1.
         11    1    3    3    0    0  0.19600719589E+01  0.27680597280E+01 -0.42020717597E+01  0.54001337091E+01  0.51100000000E-03 0. -1.
        -11    1    3    3    0    0 -0.80751556974E+00 -0.21323247652E+02  0.34733544856E+01  0.21619370099E+02  0.51100000000E-03 0.  1.
        -12    1    3    3    0    0 -0.11567886761E+02  0.81554845366E+01  0.29014404204E+02  0.32282558502E+02  0.00000000000E+00 0.  1.
</event>
<event>
 7    1  0.1193961E-011  0.5930196E+02  0.7816164E-02  0.1266605E+00
        -11   -1    0    0    0    0  0.00000000000E+00  0.00000000000E+00  0.45593999997E+02  0.45594000000E+02  0.51100000000E-03 0.  1.
         11   -1    0    0    0    0 -0.00000000000E+00 -0.00000000000E+00 -0.45593999997E+02  0.45594000000E+02  0.51100000000E-03 0. -1.
    9900012    2    1    2    0    0 -0.13909394335E+01  0.23608917895E+02  0.21387006271E+02  0.59301956754E+02  0.50000023209E+02 0.  0.
         12    1    1    2    0    0  0.13909394335E+01 -0.23608917895E+02 -0.21387006271E+02  0.31886043246E+02  0.00000000000E+00 0. -1.
         11    1    3    3    0    0  0.14425205330E+02 -0.67043437079E+01  0.37223242483E+01  0.16336782775E+02  0.51100000000E-03 0. -1.
        -11    1    3    3    0    0 -0.17745310040E+01  0.17307071258E+02  0.73642185919E+00  0.17413385461E+02  0.51100000000E-03 0.  1.
        -12    1    3    3    0    0 -0.14041613760E+02  0.13006190345E+02  0.16928260163E+02  0.25551788517E+02  0.00000000000E+00 0.  1.
</event>
<event>
 7    1  0.1193961E-011  0.5930195E+02  0.7816164E-02  0.1266605E+00
        -11   -1    0    0    0    0  0.00000000000E+00  0.00000000000E+00  0.45593999997E+02  0.45594000000E+02  0.51100000000E-03 0. -1.
         11   -1    0    0    0    0 -0.00000000000E+00 -0.00000000000E+00 -0.45593999997E+02  0.45594000000E+02  0.51100000000E-03 0.  1.
    9900012    2    1    2    0    0 -0.47435235497E+00  0.20148096073E+02 -0.24709299478E+02  0.59301948720E+02  0.50000008557E+02 0.  0.
         12    1    1    2    0    0  0.47435235497E+00 -0.20148096073E+02  0.24709299478E+02  0.31886051280E+02  0.00000000000E+00 0. -1.
         11    1    3    3    0    0 -0.12334300233E+02  0.25649640911E+02 -0.21002712707E+02  0.35371640935E+02  0.51100000000E-03 0. -1.
        -11    1    3    3    0    0 -0.54510415494E+01 -0.18765137465E+01 -0.22337447238E+01  0.61826186657E+01  0.51100000000E-03 0.  1.
         12    1    3    3    0    0  0.17310989428E+02 -0.36250310912E+01 -0.14728420480E+01  0.17747689119E+02  0.00000000000E+00 0. -1.
</event>
<event>
 7    1  0.1193961E-011  0.5930203E+02  0.7816164E-02  0.1266604E+00
        -11   -1    0    0    0    0  0.00000000000E+00  0.00000000000E+00  0.45593999997E+02  0.45594000000E+02  0.51100000000E-03 0.  1.
         11   -1    0    0    0    0 -0.00000000000E+00 -0.00000000000E+00 -0.45593999997E+02  0.45594000000E+02  0.51100000000E-03 0. -1.
    9900012    2    1    2    0    0  0.48292968725E+01 -0.29855942413E+01  0.31376413579E+02  0.59302028001E+02  0.50000153146E+02 0.  0.
         12    1    1    2    0    0 -0.48292968725E+01  0.29855942413E+01 -0.31376413579E+02  0.31885971999E+02  0.00000000000E+00 0. -1.
         11    1    3    3    0    0  0.26863271704E+01  0.16487895256E+01  0.66750664829E+01  0.73818272385E+01  0.51100000000E-03 0.  1.
        -11    1    3    3    0    0 -0.19825276430E+01  0.60791682961E+01 -0.11928045116E+02  0.13533845114E+02  0.51100000000E-03 0. -1.
         12    1    3    3    0    0  0.41254973450E+01 -0.10713552063E+02  0.36629392212E+02  0.38386355648E+02  0.00000000000E+00 0. -1.
</event>
<event>
 7    1  0.1193961E-011  0.5930193E+02  0.7816164E-02  0.1266605E+00
        -11   -1    0    0    0    0  0.00000000000E+00  0.00000000000E+00  0.45593999997E+02  0.45594000000E+02  0.51100000000E-03 0.  1.
         11   -1    0    0    0    0 -0.00000000000E+00 -0.00000000000E+00 -0.45593999997E+02  0.45594000000E+02  0.51100000000E-03 0. -1.
    9900012    2    1    2    0    0  0.27449101559E+01  0.95661002152E+01  0.30293173841E+02  0.59301934290E+02  0.49999982241E+02 0.  0.
         12    1    1    2    0    0 -0.27449101559E+01 -0.95661002152E+01 -0.30293173841E+02  0.31886065710E+02  0.00000000000E+00 0. -1.
         11    1    3    3    0    0  0.59320015128E+01 -0.64405257225E+01  0.89703851894E+01  0.12535422779E+02  0.51100000000E-03 0. -1.
        -11    1    3    3    0    0  0.12377486809E+02  0.16345975782E+02  0.23341419467E+02  0.31067908957E+02  0.51100000000E-03 0.  1.
         12    1    3    3    0    0 -0.15564578166E+02 -0.33934984477E+00 -0.20186308149E+01  0.15698602555E+02  0.00000000000E+00 0. -1.
</event>
<event>
 7    1  0.1193961E-011  0.5930194E+02  0.7816164E-02  0.1266605E+00
        -11   -1    0    0    0    0  0.00000000000E+00  0.00000000000E+00  0.45593999997E+02  0.45594000000E+02  0.51100000000E-03 0. -1.
         11   -1    0    0    0    0 -0.00000000000E+00 -0.00000000000E+00 -0.45593999997E+02  0.45594000000E+02  0.51100000000E-03 0.  1.
    9900012    2    1    2    0    0 -0.18230338806E+02  0.21614516183E+02 -0.14737317080E+02  0.59301935999E+02  0.49999985357E+02 0.  0.
         12    1    1    2    0    0  0.18230338806E+02 -0.21614516183E+02  0.14737317080E+02  0.31886064001E+02  0.00000000000E+00 0. -1.
         11    1    3    3    0    0 -0.11204744546E+02  0.16076447561E+02 -0.19665182576E+02  0.27761806003E+02  0.51100000000E-03 0.  1.
        -11    1    3    3    0    0  0.11772573423E+02  0.31777297440E+01  0.14837106746E+01  0.12283845040E+02  0.51100000000E-03 0. -1.
        -12    1    3    3    0    0 -0.18798167684E+02  0.23603388772E+01  0.34441548219E+01  0.19256284956E+02  0.00000000000E+00 0.  1.
</event>
<event>
 7    1  0.1193961E-011  0.5930194E+02  0.7816164E-02  0.1266605E+00
        -11   -1    0    0    0    0  0.00000000000E+00  0.00000000000E+00  0.45593999997E+02  0.45594000000E+02  0.51100000000E-03 0. -1.
         11   -1    0    0    0    0 -0.00000000000E+00 -0.00000000000E+00 -0.45593999997E+02  0.45594000000E+02  0.51100000000E-03 0.  1.
    9900012    2    1    2    0    0 -0.27441792912E+02 -0.16235406920E+02 -0.28348254002E+00  0.59301940375E+02  0.49999993338E+02 0.  0.
         12    1    1    2    0    0  0.27441792912E+02  0.16235406920E+02  0.28348254002E+00  0.31886059625E+02  0.00000000000E+00 0. -1.
         11    1    3    3    0    0  0.61020095037E+01 -0.13105464964E+01  0.43372528371E+01  0.76002509523E+01  0.51100000000E-03 0. -1.
        -11    1    3    3    0    0 -0.15273055745E+02 -0.23905162675E+02  0.56102164973E+01  0.28917080830E+02  0.51100000000E-03 0.  1.
        -12    1    3    3    0    0 -0.18270746671E+02  0.89803022519E+01 -0.10230951874E+02  0.22784608592E+02  0.00000000000E+00 0.  1.
</event>
<event>
 7    1  0.1193961E-011  0.5930194E+02  0.7816164E-02  0.1266605E+00
        -11   -1    0    0    0    0  0.00000000000E+00  0.00000000000E+00  0.45593999997E+02  0.45594000000E+02  0.51100000000E-03 0. -1.
         11   -1    0    0    0    0 -0.00000000000E+00 -0.00000000000E+00 -0.45593999997E+02  0.45594000000E+02  0.51100000000E-03 0.  1.
    9900012    2    1    2    0    0  0.16655565715E+02  0.52547950977E-01 -0.27190264355E+02  0.59301935548E+02  0.49999984535E+02 0.  0.
         12    1    1    2    0    0 -0.16655565715E+02 -0.52547950977E-01  0.27190264355E+02  0.31886064452E+02  0.00000000000E+00 0. -1.
         11    1    3    3    0    0  0.16596038740E+02 -0.17876931219E+02 -0.16027335704E+02  0.29187131782E+02  0.51100000000E-03 0. -1.
        -11    1    3    3    0    0  0.46250571496E+01  0.25058407187E+00 -0.10911809495E+02  0.11854177859E+02  0.51100000000E-03 0.  1.
        -12    1    3    3    0    0 -0.45655301743E+01  0.17678895098E+02 -0.25111915602E+00  0.18260625906E+02  0.00000000000E+00 0.  1.
</event>
<event>
 7    1  0.1193961E-011  0.5930194E+02  0.7816164E-02  0.1266605E+00
        -11   -1    0    0    0    0  0.00000000000E+00  0.00000000000E+00  0.45593999997E+02  0.45594000000E+02  0.51100000000E-03 0.  1.
         11   -1    0    0    0    0 -0.00000000000E+00 -0.00000000000E+00 -0.45593999997E+02  0.45594000000E+02  0.51100000000E-03 0. -1.
    9900012    2    1    2    0    0  0.27412386771E+00  0.31796004099E+02  0.23790036680E+01  0.59301942247E+02  0.49999996752E+02 0.  0.
         12    1    1    2    0    0 -0.27412386771E+00 -0.31796004099E+02 -0.23790036680E+01  0.31886057753E+02  0.00000000000E+00 0. -1.
         11    1    3    3    0    0 -0.38894956257E+01  0.11826778990E+02  0.52933180900E+00  0.12461182525E+02  0.51100000000E-03 0. -1.
        -11    1    3    3    0    0 -0.17705918976E+02  0.15005892397E+02 -0.42613296604E+01  0.23597357991E+02  0.51100000000E-03 0.  1.
         12    1    3    3    0    0  0.21869538469E+02  0.49633327133E+01  0.61110015194E+01  0.23243401732E+02  0.00000000000E+00 0. -1.
</event>
<event>
 7    1  0.1193961E-011  0.5930195E+02  0.7816164E-02  0.1266605E+00
        -11   -1    0    0    0    0  0.00000000000E+00  0.00000000000E+00  0.45593999997E+02  0.45594000000E+02  0.51100000000E-03 0.  1.
         11   -1    0    0    0    0 -0.00000000000E+00 -0.00000000000E+00 -0.45593999997E+02  0.45594000000E+02  0.51100000000E-03 0. -1.
    9900012    2    1    2    0    0 -0.13999747910E+02  0.32258357134E+01  0.28466146186E+02  0.59301946054E+02  0.50000003695E+02 0.  0.
         12    1    1    2    0    0  0.13999747910E+02 -0.32258357134E+01 -0.28466146186E+02  0.31886053946E+02  0.00000000000E+00 0. -1.
         11    1    3    3    0    0 -0.13168014854E+02  0.12502030569E+02  0.29010161788E+02  0.34224068588E+02  0.51100000000E-03 0.  1.
        -11    1    3    3    0    0 -0.53583572277E+01  0.66237728923E+01  0.29459407864E+00  0.85248545700E+01  0.51100000000E-03 0. -1.
         12    1    3    3    0    0  0.45266241714E+01 -0.15899967748E+02 -0.83860968061E+00  0.16553022895E+02  0.00000000000E+00 0. -1.
</event>
<event>
 7    1  0.1193961E-011  0.5930194E+02  0.7816164E-02  0.1266605E+00
        -11   -1    0    0    0    0  0.00000000000E+00  0.00000000000E+00  0.45593999997E+02  0.45594000000E+02  0.51100000000E-03 0.  1.
         11   -1    0    0    0    0 -0.00000000000E+00 -0.00000000000E+00 -0.45593999997E+02  0.45594000000E+02  0.51100000000E-03 0. -1.
    9900012    2    1    2    0    0  0.54988593294E+01 -0.25165686652E+01  0.31307351932E+02  0.59301939460E+02  0.49999991670E+02 0.  0.
         12    1    1    2    0    0 -0.54988593294E+01  0.25165686652E+01 -0.31307351932E+02  0.31886060540E+02  0.00000000000E+00 0. -1.
         11    1    3    3    0    0  0.20049599541E+02 -0.51112246867E+01  0.24035681217E+02  0.31714744700E+02  0.51100000000E-03 0. -1.
        -11    1    3    3    0    0 -0.13371973415E+02 -0.79970445781E+01  0.65626889860E+01  0.16906545537E+02  0.51100000000E-03 0.  1.
        -12    1    3    3    0    0 -0.11787667969E+01  0.10591700600E+02  0.70898172915E+00  0.10680649224E+02  0.00000000000E+00 0.  1.
</event>
<event>
 7    1  0.1193961E-011  0.5930195E+02  0.7816164E-02  0.1266605E+00
        -11   -1    0    0    0    0  0.00000000000E+00  0.00000000000E+00  0.45593999997E+02  0.45594000000E+02  0.51100000000E-03 0.  1.
         11   -1    0    0    0    0 -0.00000000000E+00 -0.00000000000E+00 -0.45593999997E+02  0.45594000000E+02  0.51100000000E-03 0. -1.
    9900012    2    1    2    0    0 -0.18194110897E+02 -0.66664824423E+01  0.25322962020E+02  0.59301951876E+02  0.50000014313E+02 0.  0.
         12    1    1    2    0    0  0.18194110897E+02  0.66664824423E+01 -0.25322962020E+02  0.31886048124E+02  0.00000000000E+00 0. -1.
         11    1    3    3    0    0  0.77085566897E+00 -0.37661102038E+00  0.13421411411E+01  0.15929210359E+01  0.51100000000E-03 0. -1.
        -11    1    3    3    0    0 -0.22661205159E+02 -0.23245433467E+02  0.23972206182E+02  0.40355260696E+02  0.51100000000E-03 0.  1.
        -12    1    3    3    0    0  0.36962385937E+01  0.16955562045E+02  0.86146970853E-02  0.17353770144E+02  0.00000000000E+00 0.  1.
</event>
<event>
 7    1  0.1193961E-011  0.5930195E+02  0.7816164E-02  0.1266605E+00
        -11   -1    0    0    0    0  0.00000000000E+00  0.00000000000E+00  0.45593999997E+02  0.45594000000E+02  0.51100000000E-03 0. -1.
         11   -1    0    0    0    0 -0.00000000000E+00 -0.00000000000E+00 -0.45593999997E+02  0.45594000000E+02  0.51100000000E-03 0.  1.
    9900012    2    1    2    0    0 -0.38465899788E+01 -0.47428333695E+01 -0.31295837961E+02  0.59301949813E+02  0.50000010551E+02 0.  0.
         12    1    1    2    0    0  0.38465899788E+01  0.47428333695E+01  0.31295837961E+02  0.31886050187E+02  0.00000000000E+00 0. -1.
         11    1    3    3    0    0  0.24835843229E+00  0.25603617942E+01 -0.15558354674E+02  0.15769576242E+02  0.51100000000E-03 0. -1.
        -11    1    3    3    0    0 -0.95814844562E+01  0.14780330369E+02 -0.91174371334E+01  0.19834078510E+02  0.51100000000E-03 0.  1.
         12    1    3    3    0    0  0.54865360451E+01 -0.22083525533E+02 -0.66200461536E+01  0.23698295061E+02  0.00000000000E+00 0. -1.
</event>
<event>
 7    1  0.1193961E-011  0.5930192E+02  0.7816164E-02  0.1266605E+00
        -11   -1    0    0    0    0  0.00000000000E+00  0.00000000000E+00  0.45593999997E+02  0.45594000000E+02  0.51100000000E-03 0.  1.
         11   -1    0    0    0    0 -0.00000000000E+00 -0.00000000000E+00 -0.45593999997E+02  0.45594000000E+02  0.51100000000E-03 0. -1.
    9900012    2    1    2    0    0  0.30006394400E+02 -0.88716245962E+01  0.61345248257E+01  0.59301924314E+02  0.49999964046E+02 0.  0.
         12    1    1    2    0    0 -0.30006394400E+02  0.88716245962E+01 -0.61345248257E+01  0.31886075686E+02  0.00000000000E+00 0. -1.
         11    1    3    3    0    0 -0.25536250823E+01  0.81006474742E+01  0.54153712091E+01  0.10073119485E+02  0.51100000000E-03 0. -1.
        -11    1    3    3    0    0  0.29080534118E+01  0.15694030476E+01  0.12028178656E+02  0.12473847947E+02  0.51100000000E-03 0.  1.
         12    1    3    3    0    0  0.29651966070E+02 -0.18541675118E+02 -0.11309025039E+02  0.36754956881E+02  0.00000000000E+00 0. -1.
</event>
<event>
 7    1  0.1193961E-011  0.5930197E+02  0.7816164E-02  0.1266605E+00
        -11   -1    0    0    0    0  0.00000000000E+00  0.00000000000E+00  0.45593999997E+02  0.45594000000E+02  0.51100000000E-03 0.  1.
         11   -1    0    0    0    0 -0.00000000000E+00 -0.00000000000E+00 -0.45593999997E+02  0.45594000000E+02  0.51100000000E-03 0. -1.
    9900012    2    1    2    0    0 -0.45402707403E+01 -0.21567453412E+02  0.23042343868E+02  0.59301973029E+02  0.50000052891E+02 0.  0.
         12    1    1    2    0    0  0.45402707403E+01  0.21567453412E+02 -0.23042343868E+02  0.31886026971E+02  0.00000000000E+00 0. -1.
         11    1    3    3    0    0  0.35136627663E+00 -0.18506826837E+02  0.26876118129E+02  0.32633599614E+02  0.51100000000E-03 0. -1.
        -11    1    3    3    0    0  0.69046639901E+01 -0.76791657441E+01  0.47490055145E+01  0.11366486923E+02  0.51100000000E-03 0.  1.
         12    1    3    3    0    0 -0.11796301007E+02  0.46185391695E+01 -0.85827797753E+01  0.15301886491E+02  0.00000000000E+00 0. -1.
</event>
<event>
 7    1  0.1193961E-011  0.5930198E+02  0.7816164E-02  0.1266605E+00
        -11   -1    0    0    0    0  0.00000000000E+00  0.00000000000E+00  0.45593999997E+02  0.45594000000E+02  0.51100000000E-03 0.  1.
         11   -1    0    0    0    0 -0.00000000000E+00 -0.00000000000E+00 -0.45593999997E+02  0.45594000000E+02  0.51100000000E-03 0. -1.
    9900012    2    1    2    0    0 -0.11477988726E+02  0.13961291211E+02  0.26268928930E+02  0.59301976344E+02  0.50000058937E+02 0.  0.
         12    1    1    2    0    0  0.11477988726E+02 -0.13961291211E+02 -0.26268928930E+02  0.31886023656E+02  0.00000000000E+00 0. -1.
         11    1    3    3    0    0 -0.13790794057E+01 -0.70062002922E+01  0.11257135185E+02  0.13330858764E+02  0.51100000000E-03 0. -1.
        -11    1    3    3    0    0  0.12971388579E+02  0.16196230992E+01  0.22298869282E+01  0.13260938754E+02  0.51100000000E-03 0.  1.
         12    1    3    3    0    0 -0.23070297900E+02  0.19347868404E+02  0.12781906817E+02  0.32710178826E+02  0.00000000000E+00 0. -1.
</event>
<event>
 7    1  0.1193961E-011  0.5930194E+02  0.7816164E-02  0.1266605E+00
        -11   -1    0    0    0    0  0.00000000000E+00  0.00000000000E+00  0.45593999997E+02  0.45594000000E+02  0.51100000000E-03 0. -1.
         11   -1    0    0    0    0 -0.00000000000E+00 -0.00000000000E+00 -0.45593999997E+02  0.45594000000E+02  0.51100000000E-03 0.  1.
    9900012    2    1    2    0    0 -0.72789962928E+01 -0.28649899856E+02 -0.11954916753E+02  0.59301943747E+02  0.49999999488E+02 0.  0.
         12    1    1    2    0    0  0.72789962928E+01  0.28649899856E+02  0.11954916753E+02  0.31886056253E+02  0.00000000000E+00 0. -1.
         11    1    3    3    0    0 -0.88007681858E+01  0.79711350139E+00 -0.12109704182E+02  0.14991125582E+02  0.51100000000E-03 0. -1.
        -11    1    3    3    0    0 -0.67356046782E+01 -0.73066420027E+01 -0.13695338185E+02  0.16920924206E+02  0.51100000000E-03 0.  1.
         12    1    3    3    0    0  0.82573765712E+01 -0.22140371355E+02  0.13850125613E+02  0.27389893959E+02  0.00000000000E+00 0. -1.
</event>
<event>
 7    1  0.1193961E-011  0.5930195E+02  0.7816164E-02  0.1266605E+00
        -11   -1    0    0    0    0  0.00000000000E+00  0.00000000000E+00  0.45593999997E+02  0.45594000000E+02  0.51100000000E-03 0.  1.
         11   -1    0    0    0    0 -0.00000000000E+00 -0.00000000000E+00 -0.45593999997E+02  0.45594000000E+02  0.51100000000E-03 0. -1.
    9900012    2    1    2    0    0  0.24010983494E+02 -0.15226793157E+00  0.20980226825E+02  0.59301946129E+02  0.50000003831E+02 0.  0.
         12    1    1    2    0    0 -0.24010983494E+02  0.15226793157E+00 -0.20980226825E+02  0.31886053871E+02  0.00000000000E+00 0. -1.
         11    1    3    3    0    0  0.18155730518E+02  0.37774250008E+01 -0.32328828321E+01  0.18824213714E+02  0.51100000000E-03 0.  1.
        -11    1    3    3    0    0  0.16153942759E+02  0.30536938321E+01  0.42940595461E+01  0.16991582043E+02  0.51100000000E-03 0. -1.
         12    1    3    3    0    0 -0.10298689783E+02 -0.69833867645E+01  0.19919050111E+02  0.23486150372E+02  0.00000000000E+00 0. -1.
</event>
<event>
 7    1  0.1193961E-011  0.5930194E+02  0.7816164E-02  0.1266605E+00
        -11   -1    0    0    0    0  0.00000000000E+00  0.00000000000E+00  0.45593999997E+02  0.45594000000E+02  0.51100000000E-03 0.  1.
         11   -1    0    0    0    0 -0.00000000000E+00 -0.00000000000E+00 -0.45593999997E+02  0.45594000000E+02  0.51100000000E-03 0. -1.
    9900012    2    1    2    0    0  0.19248002310E+02 -0.25367147911E+02  0.16561682931E+01  0.59301942240E+02  0.49999996740E+02 0.  0.
         12    1    1    2    0    0 -0.19248002310E+02  0.25367147911E+02 -0.16561682931E+01  0.31886057760E+02  0.00000000000E+00 0. -1.
         11    1    3    3    0    0  0.14719950387E+02 -0.13576957495E+02  0.30464786348E+01  0.20255659617E+02  0.51100000000E-03 0. -1.
        -11    1    3    3    0    0  0.16826894722E+02 -0.15293496430E+02  0.69523639829E+01  0.23777526874E+02  0.51100000000E-03 0.  1.
         12    1    3    3    0    0 -0.12298842799E+02  0.35033060143E+01 -0.83426743246E+01  0.15268755748E+02  0.00000000000E+00 0. -1.
</event>
<event>
 7    1  0.1193961E-011  0.5930194E+02  0.7816164E-02  0.1266605E+00
        -11   -1    0    0    0    0  0.00000000000E+00  0.00000000000E+00  0.45593999997E+02  0.45594000000E+02  0.51100000000E-03 0.  1.
         11   -1    0    0    0    0 -0.00000000000E+00 -0.00000000000E+00 -0.45593999997E+02  0.45594000000E+02  0.51100000000E-03 0. -1.
    9900012    2    1    2    0    0  0.79827986531E+01  0.28598870464E+01  0.30737867134E+02  0.59301944988E+02  0.50000001752E+02 0.  0.
         12    1    1    2    0    0 -0.79827986531E+01 -0.28598870464E+01 -0.30737867134E+02  0.31886055012E+02  0.00000000000E+00 0. -1.
         11    1    3    3    0    0 -0.88556539165E+01 -0.49347554434E+01  0.80484875314E+01  0.12944209878E+02  0.51100000000E-03 0. -1.
        -11    1    3    3    0    0  0.85874584223E+01 -0.14369740553E+02  0.84557006183E+01  0.18754539688E+02  0.51100000000E-03 0.  1.
        -12    1    3    3    0    0  0.82509941472E+01  0.22164383042E+02  0.14233678984E+02  0.27603195422E+02  0.00000000000E+00 0.  1.
</event>
<event>
 7    1  0.1193961E-011  0.5930195E+02  0.7816164E-02  0.1266605E+00
        -11   -1    0    0    0    0  0.00000000000E+00  0.00000000000E+00  0.45593999997E+02  0.45594000000E+02  0.51100000000E-03 0. -1.
         11   -1    0    0    0    0 -0.00000000000E+00 -0.00000000000E+00 -0.45593999997E+02  0.45594000000E+02  0.51100000000E-03 0.  1.
    9900012    2    1    2    0    0  0.26251567873E+02 -0.64840848035E+01 -0.16897696972E+02  0.59301947650E+02  0.50000006606E+02 0.  0.
         12    1    1    2    0    0 -0.26251567873E+02  0.64840848035E+01  0.16897696972E+02  0.31886052350E+02  0.00000000000E+00 0. -1.
         11    1    3    3    0    0  0.13175936938E+02 -0.44855157946E+01  0.43460315032E+01  0.14581260447E+02  0.51100000000E-03 0. -1.
        -11    1    3    3    0    0  0.22454247611E+02 -0.92326279806E+01 -0.22119860678E+02  0.32843917121E+02  0.51100000000E-03 0.  1.
        -12    1    3    3    0    0 -0.93786166756E+01  0.72340589717E+01  0.87613220291E+00  0.11876770082E+02  0.00000000000E+00 0.  1.
</event>
<event>
 7    1  0.1193961E-011  0.5930190E+02  0.7816164E-02  0.1266605E+00
        -11   -1    0    0    0    0  0.00000000000E+00  0.00000000000E+00  0.45593999997E+02  0.45594000000E+02  0.51100000000E-03 0.  1.
         11   -1    0    0    0    0 -0.00000000000E+00 -0.00000000000E+00 -0.45593999997E+02  0.45594000000E+02  0.51100000000E-03 0. -1.
    9900012    2    1    2    0    0 -0.16661804618E+02  0.57732382593E+01  0.26566470605E+02  0.59301899995E+02  0.49999919695E+02 0.  0.
         12    1    1    2    0    0  0.16661804618E+02 -0.57732382593E+01 -0.26566470605E+02  0.31886100005E+02  0.00000000000E+00 0. -1.
         11    1    3    3    0    0  0.15854665475E+01  0.39925871825E+01  0.61813176677E+01  0.75274926074E+01  0.51100000000E-03 0. -1.
        -11    1    3    3    0    0  0.86703037690E+01  0.14718729548E+02  0.34029009342E+01  0.17418234755E+02  0.51100000000E-03 0.  1.
         12    1    3    3    0    0 -0.26917574935E+02 -0.12938078471E+02  0.16982252003E+02  0.34356172633E+02  0.00000000000E+00 0. -1.
</event>
<event>
 7    1  0.1193961E-011  0.5930197E+02  0.7816164E-02  0.1266605E+00
        -11   -1    0    0    0    0  0.00000000000E+00  0.00000000000E+00  0.45593999997E+02  0.45594000000E+02  0.51100000000E-03 0. -1.
         11   -1    0    0    0    0 -0.00000000000E+00 -0.00000000000E+00 -0.45593999997E+02  0.45594000000E+02  0.51100000000E-03 0.  1.
    9900012    2    1    2    0    0  0.11650560874E+02  0.10998387135E+02 -0.27568441997E+02  0.59301967283E+02  0.50000042412E+02 0.  0.
         12    1    1    2    0    0 -0.11650560874E+02 -0.10998387135E+02  0.27568441997E+02  0.31886032717E+02  0.00000000000E+00 0. -1.
         11    1    3    3    0    0 -0.31855758543E+01 -0.68015100912E+01 -0.93041758997E+01  0.11957262332E+02  0.51100000000E-03 0. -1.
        -11    1    3    3    0    0  0.21472439076E+02  0.12353857296E+02 -0.25911215509E+02  0.35847936055E+02  0.51100000000E-03 0.  1.
         12    1    3    3    0    0 -0.66363023471E+01  0.54460399298E+01  0.76469494114E+01  0.11496768897E+02  0.00000000000E+00 0. -1.
</event>
<event>
 7    1  0.1193961E-011  0.5930195E+02  0.7816164E-02  0.1266605E+00
        -11   -1    0    0    0    0  0.00000000000E+00  0.00000000000E+00  0.45593999997E+02  0.45594000000E+02  0.51100000000E-03 0.  1.
         11   -1    0    0    0    0 -0.00000000000E+00 -0.00000000000E+00 -0.45593999997E+02  0.45594000000E+02  0.51100000000E-03 0. -1.
    9900012    2    1    2    0    0 -0.63247880912E+00 -0.31311446985E+02  0.59928077925E+01  0.59301945258E+02  0.50000002245E+02 0.  0.
         12    1    1    2    0    0  0.63247880912E+00  0.31311446985E+02 -0.59928077925E+01  0.31886054742E+02  0.00000000000E+00 0. -1.
         11    1    3    3    0    0 -0.47568532709E+01 -0.18220104722E+02 -0.19476081292E+02  0.27090913825E+02  0.51100000000E-03 0. -1.
        -11    1    3    3    0    0  0.13406824440E+01 -0.99409665027E+01  0.48024330363E+01  0.11121313221E+02  0.51100000000E-03 0.  1.
        -12    1    3    3    0    0  0.27836920177E+01 -0.31503757598E+01  0.20666456048E+02  0.21089718212E+02  0.00000000000E+00 0.  1.
</event>
<event>
 7    1  0.1193961E-011  0.5930194E+02  0.7816164E-02  0.1266605E+00
        -11   -1    0    0    0    0  0.00000000000E+00  0.00000000000E+00  0.45593999997E+02  0.45594000000E+02  0.51100000000E-03 0.  1.
         11   -1    0    0    0    0 -0.00000000000E+00 -0.00000000000E+00 -0.45593999997E+02  0.45594000000E+02  0.51100000000E-03 0. -1.
    9900012    2    1    2    0    0  0.27749775407E+02  0.11639138486E+02 -0.10545198882E+02  0.59301940362E+02  0.49999993314E+02 0.  0.
         12    1    1    2    0    0 -0.27749775407E+02 -0.11639138486E+02  0.10545198882E+02  0.31886059638E+02  0.00000000000E+00 0. -1.
         11    1    3    3    0    0  0.98072175002E+01 -0.11459847146E+02  0.17197824504E+01  0.15181148298E+02  0.51100000000E-03 0. -1.
        -11    1    3    3    0    0  0.22565319058E+01 -0.58822031945E+00 -0.15365989431E+02  0.15541929444E+02  0.51100000000E-03 0.  1.
        -12    1    3    3    0    0  0.15686026001E+02  0.23687205951E+02  0.31010080988E+01  0.28578862620E+02  0.00000000000E+00 0.  1.
</event>
<event>
 7    1  0.1193961E-011  0.5930195E+02  0.7816164E-02  0.1266605E+00
        -11   -1    0    0    0    0  0.00000000000E+00  0.00000000000E+00  0.45593999997E+02  0.45594000000E+02  0.51100000000E-03 0. -1.
         11   -1    0    0    0    0 -0.00000000000E+00 -0.00000000000E+00 -0.45593999997E+02  0.45594000000E+02  0.51100000000E-03 0.  1.
    9900012    2    1    2    0    0  0.27139209122E+02 -0.72063032115E+01 -0.15108043565E+02  0.59301945711E+02  0.50000003071E+02 0.  0.
         12    1    1    2    0    0 -0.27139209122E+02  0.72063032115E+01  0.15108043565E+02  0.31886054289E+02  0.00000000000E+00 0. -1.
         11    1    3    3    0    0 -0.90081857438E+01 -0.29922580962E+01 -0.58199568900E+01  0.11134312613E+02  0.51100000000E-03 0. -1.
        -11    1    3    3    0    0  0.69815686292E+01  0.76238825805E+01 -0.12847735438E+02  0.16490306009E+02  0.51100000000E-03 0.  1.
         12    1    3    3    0    0  0.29165826237E+02 -0.11837927696E+02  0.35596487631E+01  0.31677327089E+02  0.00000000000E+00 0. -1.
</event>
<event>
 7    1  0.1193961E-011  0.5930190E+02  0.7816164E-02  0.1266605E+00
        -11   -1    0    0    0    0  0.00000000000E+00  0.00000000000E+00  0.45593999997E+02  0.45594000000E+02  0.51100000000E-03 0. -1.
         11   -1    0    0    0    0 -0.00000000000E+00 -0.00000000000E+00 -0.45593999997E+02  0.45594000000E+02  0.51100000000E-03 0.  1.
    9900012    2    1    2    0    0  0.54371650291E+00  0.56560301033E+01 -0.31375735963E+02  0.59301904106E+02  0.49999927192E+02 0.  0.
         12    1    1    2    0    0 -0.54371650291E+00 -0.56560301033E+01  0.31375735963E+02  0.31886095894E+02  0.00000000000E+00 0. -1.
         11    1    3    3    0    0  0.78459901762E+01  0.12390771525E+01 -0.22143290525E+02  0.23524884475E+02  0.51100000000E-03 0. -1.
        -11    1    3    3    0    0 -0.16550164253E+01 -0.14261086209E+02 -0.74716157763E+01  0.16184644012E+02  0.51100000000E-03 0.  1.
         12    1    3    3    0    0 -0.56472572479E+01  0.18678039160E+02 -0.17608296616E+01  0.19592375619E+02  0.00000000000E+00 0. -1.
</event>
<event>
 7    1  0.1193961E-011  0.5930195E+02  0.7816164E-02  0.1266605E+00
        -11   -1    0    0    0    0  0.00000000000E+00  0.00000000000E+00  0.45593999997E+02  0.45594000000E+02  0.51100000000E-03 0. -1.
         11   -1    0    0    0    0 -0.00000000000E+00 -0.00000000000E+00 -0.45593999997E+02  0.45594000000E+02  0.51100000000E-03 0.  1.
    9900012    2    1    2    0    0  0.25296732079E+02  0.13634714298E+02 -0.13816303598E+02  0.59301947673E+02  0.50000006648E+02 0.  0.
         12    1    1    2    0    0 -0.25296732079E+02 -0.13634714298E+02  0.13816303598E+02  0.31886052327E+02  0.00000000000E+00 0. -1.
         11    1    3    3    0    0 -0.96419603984E+01  0.41854835612E+01  0.33356944127E+01  0.11027807146E+02  0.51100000000E-03 0.  1.
        -11    1    3    3    0    0  0.11630091711E+02 -0.19065464990E+01  0.62562080110E+01  0.13342941643E+02  0.51100000000E-03 0. -1.
        -12    1    3    3    0    0  0.23308600767E+02  0.11355777236E+02 -0.23408206022E+02  0.34931198884E+02  0.00000000000E+00 0.  1.
</event>
<event>
 7    1  0.1193961E-011  0.5930194E+02  0.7816164E-02  0.1266605E+00
        -11   -1    0    0    0    0  0.00000000000E+00  0.00000000000E+00  0.45593999997E+02  0.45594000000E+02  0.51100000000E-03 0.  1.
         11   -1    0    0    0    0 -0.00000000000E+00 -0.00000000000E+00 -0.45593999997E+02  0.45594000000E+02  0.51100000000E-03 0. -1.
    9900012    2    1    2    0    0  0.86311729130E+01 -0.15916978400E+01  0.30654363073E+02  0.59301943122E+02  0.49999998348E+02 0.  0.
         12    1    1    2    0    0 -0.86311729130E+01  0.15916978400E+01 -0.30654363073E+02  0.31886056878E+02  0.00000000000E+00 0. -1.
         11    1    3    3    0    0 -0.44388411142E+01 -0.11041213240E+01 -0.53817489039E+01  0.70629750007E+01  0.51100000000E-03 0. -1.
        -11    1    3    3    0    0  0.94525802476E+01 -0.14341584316E+02  0.47332104419E+01  0.17816722352E+02  0.51100000000E-03 0.  1.
        -12    1    3    3    0    0  0.36174337795E+01  0.13854007800E+02  0.31302901534E+02  0.34422245769E+02  0.00000000000E+00 0.  1.
</event>
<event>
 7    1  0.1193961E-011  0.5930210E+02  0.7816164E-02  0.1266604E+00
        -11   -1    0    0    0    0  0.00000000000E+00  0.00000000000E+00  0.45593999997E+02  0.45594000000E+02  0.51100000000E-03 0. -1.
         11   -1    0    0    0    0 -0.00000000000E+00 -0.00000000000E+00 -0.45593999997E+02  0.45594000000E+02  0.51100000000E-03 0.  1.
    9900012    2    1    2    0    0 -0.14302399168E+02 -0.25758363048E+02 -0.12192559330E+02  0.59302103558E+02  0.50000290944E+02 0.  0.
         12    1    1    2    0    0  0.14302399168E+02  0.25758363048E+02  0.12192559330E+02  0.31885896442E+02  0.00000000000E+00 0. -1.
         11    1    3    3    0    0 -0.14092706808E-01 -0.15574501269E+01  0.46734455797E+01  0.49261489370E+01  0.51100000000E-03 0. -1.
        -11    1    3    3    0    0  0.10106178110E+02 -0.25284051881E+02 -0.10043643347E+02  0.29022282602E+02  0.51100000000E-03 0.  1.
         12    1    3    3    0    0 -0.24394484572E+02  0.10831389593E+01 -0.68223615623E+01  0.25353672019E+02  0.00000000000E+00 0. -1.
</event>
<event>
 7    1  0.1193961E-011  0.5930195E+02  0.7816164E-02  0.1266605E+00
        -11   -1    0    0    0    0  0.00000000000E+00  0.00000000000E+00  0.45593999997E+02  0.45594000000E+02  0.51100000000E-03 0.  1.
         11   -1    0    0    0    0 -0.00000000000E+00 -0.00000000000E+00 -0.45593999997E+02  0.45594000000E+02  0.51100000000E-03 0. -1.
    9900012    2    1    2    0    0  0.28083237290E+02 -0.11331566370E+02  0.99823766499E+01  0.59301945734E+02  0.50000003112E+02 0.  0.
         12    1    1    2    0    0 -0.28083237290E+02  0.11331566370E+02 -0.99823766499E+01  0.31886054266E+02  0.00000000000E+00 0. -1.
         11    1    3    3    0    0  0.53241726138E+01  0.35310310608E+00 -0.10321808083E+02  0.11619432782E+02  0.51100000000E-03 0. -1.
        -11    1    3    3    0    0  0.19348502798E+02 -0.23315314317E+02  0.10410064060E+02  0.32036508490E+02  0.51100000000E-03 0.  1.
        -12    1    3    3    0    0  0.34105618780E+01  0.11630644841E+02  0.98941206730E+01  0.15646004462E+02  0.00000000000E+00 0.  1.
</event>
<event>
 7    1  0.1193961E-011  0.5930194E+02  0.7816164E-02  0.1266605E+00
        -11   -1    0    0    0    0  0.00000000000E+00  0.00000000000E+00  0.45593999997E+02  0.45594000000E+02  0.51100000000E-03 0. -1.
         11   -1    0    0    0    0 -0.00000000000E+00 -0.00000000000E+00 -0.45593999997E+02  0.45594000000E+02  0.51100000000E-03 0.  1.
    9900012    2    1    2    0    0  0.16349988779E+02 -0.24886622121E+02  0.11404156460E+02  0.59301939123E+02  0.49999991055E+02 0.  0.
         12    1    1    2    0    0 -0.16349988779E+02  0.24886622121E+02 -0.11404156460E+02  0.31886060877E+02  0.00000000000E+00 0. -1.
         11    1    3    3    0    0  0.70097323413E+01 -0.11135554819E+02  0.15598182666E+02  0.20406867260E+02  0.51100000000E-03 0. -1.
        -11    1    3    3    0    0  0.18574870378E+02 -0.14600763155E+02  0.67293434695E+01  0.24566077385E+02  0.51100000000E-03 0.  1.
         12    1    3    3    0    0 -0.92346139403E+01  0.84969585340E+00 -0.10923369676E+02  0.14328994478E+02  0.00000000000E+00 0. -1.
</event>
<event>
 7    1  0.1193961E-011  0.5930197E+02  0.7816164E-02  0.1266605E+00
        -11   -1    0    0    0    0  0.00000000000E+00  0.00000000000E+00  0.45593999997E+02  0.45594000000E+02  0.51100000000E-03 0.  1.
         11   -1    0    0    0    0 -0.00000000000E+00 -0.00000000000E+00 -0.45593999997E+02  0.45594000000E+02  0.51100000000E-03 0. -1.
    9900012    2    1    2    0    0 -0.18833104292E+02  0.22976936834E+02  0.11579880512E+02  0.59301967380E+02  0.50000042589E+02 0.  0.
         12    1    1    2    0    0  0.18833104292E+02 -0.22976936834E+02 -0.11579880512E+02  0.31886032620E+02  0.00000000000E+00 0. -1.
         11    1    3    3    0    0 -0.62544430130E+01  0.32892926955E+02  0.53253581481E+01  0.33903128775E+02  0.51100000000E-03 0. -1.
        -11    1    3    3    0    0  0.40878253855E+01 -0.14009988140E+00  0.43693663104E+01  0.59850903564E+01  0.51100000000E-03 0.  1.
        -12    1    3    3    0    0 -0.16666486665E+02 -0.97758902393E+01  0.18851560539E+01  0.19413748249E+02  0.00000000000E+00 0.  1.
</event>
<event>
 7    1  0.1193961E-011  0.5930195E+02  0.7816164E-02  0.1266605E+00
        -11   -1    0    0    0    0  0.00000000000E+00  0.00000000000E+00  0.45593999997E+02  0.45594000000E+02  0.51100000000E-03 0.  1.
         11   -1    0    0    0    0 -0.00000000000E+00 -0.00000000000E+00 -0.45593999997E+02  0.45594000000E+02  0.51100000000E-03 0. -1.
    9900012    2    1    2    0    0 -0.24850335715E+02  0.17225286198E+02 -0.10122780864E+02  0.59301947216E+02  0.50000005814E+02 0.  0.
         12    1    1    2    0    0  0.24850335715E+02 -0.17225286198E+02  0.10122780864E+02  0.31886052784E+02  0.00000000000E+00 0. -1.
         11    1    3    3    0    0 -0.54084613106E+01  0.18289131713E+02 -0.21188497346E+02  0.28507827217E+02  0.51100000000E-03 0. -1.
        -11    1    3    3    0    0 -0.44823640943E+01  0.58628118318E+01 -0.40583015374E+01  0.84222302319E+01  0.51100000000E-03 0.  1.
        -12    1    3    3    0    0 -0.14959510310E+02 -0.69266573465E+01  0.15124018019E+02  0.22371889767E+02  0.00000000000E+00 0.  1.
</event>
<event>
 7    1  0.1193961E-011  0.5930196E+02  0.7816164E-02  0.1266605E+00
        -11   -1    0    0    0    0  0.00000000000E+00  0.00000000000E+00  0.45593999997E+02  0.45594000000E+02  0.51100000000E-03 0.  1.
         11   -1    0    0    0    0 -0.00000000000E+00 -0.00000000000E+00 -0.45593999997E+02  0.45594000000E+02  0.51100000000E-03 0. -1.
    9900012    2    1    2    0    0  0.75532154413E+01  0.60639409723E+01  0.30379216738E+02  0.59301964605E+02  0.50000037527E+02 0.  0.
         12    1    1    2    0    0 -0.75532154413E+01 -0.60639409723E+01 -0.30379216738E+02  0.31886035395E+02  0.00000000000E+00 0. -1.
         11    1    3    3    0    0  0.36877127378E+01 -0.51234096201E+01 -0.71002687010E+01  0.95006508861E+01  0.51100000000E-03 0. -1.
        -11    1    3    3    0    0  0.48315683398E+01 -0.32504732826E+01 -0.31861973813E+01  0.66378824332E+01  0.51100000000E-03 0.  1.
        -12    1    3    3    0    0 -0.96606563637E+00  0.14437823875E+02  0.40665682820E+02  0.43163431285E+02  0.00000000000E+00 0.  1.
</event>
<event>
 7    1  0.1193961E-011  0.5930194E+02  0.7816164E-02  0.1266605E+00
        -11   -1    0    0    0    0  0.00000000000E+00  0.00000000000E+00  0.45593999997E+02  0.45594000000E+02  0.51100000000E-03 0. -1.
         11   -1    0    0    0    0 -0.00000000000E+00 -0.00000000000E+00 -0.45593999997E+02  0.45594000000E+02  0.51100000000E-03 0.  1.
    9900012    2    1    2    0    0  0.25013511418E+02 -0.19771104117E+02  0.38552999389E+00  0.59301938079E+02  0.49999989150E+02 0.  0.
         12    1    1    2    0    0 -0.25013511418E+02  0.19771104117E+02 -0.38552999389E+00  0.31886061921E+02  0.00000000000E+00 0. -1.
         11    1    3    3    0    0 -0.36040528375E+01 -0.47611413464E+01  0.89028320099E+01  0.10719985160E+02  0.51100000000E-03 0. -1.
        -11    1    3    3    0    0  0.26395528758E+02 -0.33209503384E+00 -0.17082854849E+02  0.31442934907E+02  0.51100000000E-03 0.  1.
         12    1    3    3    0    0  0.22220354976E+01 -0.14677867737E+02  0.85655528332E+01  0.17139018011E+02  0.00000000000E+00 0. -1.
</event>
<event>
 7    1  0.1193961E-011  0.5930196E+02  0.7816164E-02  0.1266605E+00
        -11   -1    0    0    0    0  0.00000000000E+00  0.00000000000E+00  0.45593999997E+02  0.45594000000E+02  0.51100000000E-03 0.  1.
         11   -1    0    0    0    0 -0.00000000000E+00 -0.00000000000E+00 -0.45593999997E+02  0.45594000000E+02  0.51100000000E-03 0. -1.
    9900012    2    1    2    0    0  0.30203631128E+02  0.39640556609E+00  0.10212899514E+02  0.59301956232E+02  0.50000022257E+02 0.  0.
         12    1    1    2    0    0 -0.30203631128E+02 -0.39640556609E+00 -0.10212899514E+02  0.31886043768E+02  0.00000000000E+00 0. -1.
         11    1    3    3    0    0 -0.78423695588E+00 -0.27877647568E+01 -0.71792747985E+00  0.29836353781E+01  0.51100000000E-03 0. -1.
        -11    1    3    3    0    0  0.94851007162E+01 -0.24296460313E+01 -0.17607977128E+02  0.20147237385E+02  0.51100000000E-03 0.  1.
        -12    1    3    3    0    0  0.21502767368E+02  0.56138163542E+01  0.28538804122E+02  0.36171083468E+02  0.00000000000E+00 0.  1.
</event>
<event>
 7    1  0.1193961E-011  0.5930192E+02  0.7816164E-02  0.1266605E+00
        -11   -1    0    0    0    0  0.00000000000E+00  0.00000000000E+00  0.45593999997E+02  0.45594000000E+02  0.51100000000E-03 0. -1.
         11   -1    0    0    0    0 -0.00000000000E+00 -0.00000000000E+00 -0.45593999997E+02  0.45594000000E+02  0.51100000000E-03 0.  1.
    9900012    2    1    2    0    0 -0.30999590113E+02  0.49302467452E+01  0.56071333900E+01  0.59301923650E+02  0.49999962836E+02 0.  0.
         12    1    1    2    0    0  0.30999590113E+02 -0.49302467452E+01 -0.56071333900E+01  0.31886076350E+02  0.00000000000E+00 0. -1.
         11    1    3    3    0    0 -0.20102148588E+01 -0.46585813761E+01  0.24160305857E+01  0.56196573088E+01  0.51100000000E-03 0. -1.
        -11    1    3    3    0    0 -0.62017162596E+01  0.15989340155E+02 -0.15813167578E+02  0.23327592080E+02  0.51100000000E-03 0.  1.
         12    1    3    3    0    0 -0.22787658995E+02 -0.64005120336E+01  0.19004270382E+02  0.30354674261E+02  0.00000000000E+00 0. -1.
</event>
<event>
 7    1  0.1193961E-011  0.5930192E+02  0.7816164E-02  0.1266605E+00
        -11   -1    0    0    0    0  0.00000000000E+00  0.00000000000E+00  0.45593999997E+02  0.45594000000E+02  0.51100000000E-03 0. -1.
         11   -1    0    0    0    0 -0.00000000000E+00 -0.00000000000E+00 -0.45593999997E+02  0.45594000000E+02  0.51100000000E-03 0.  1.
    9900012    2    1    2    0    0 -0.30479974110E+02  0.85821873914E+01 -0.37469391472E+01  0.59301916591E+02  0.49999949963E+02 0.  0.
         12    1    1    2    0    0  0.30479974110E+02 -0.85821873914E+01  0.37469391472E+01  0.31886083409E+02  0.00000000000E+00 0. -1.
         11    1    3    3    0    0 -0.18797062879E+02 -0.48677233810E+01 -0.34093352652E+00  0.19420106583E+02  0.51100000000E-03 0. -1.
        -11    1    3    3    0    0 -0.23362192447E+02  0.35158590109E+01  0.17891181915E+01  0.23692915496E+02  0.51100000000E-03 0.  1.
         12    1    3    3    0    0  0.11679281216E+02  0.99340517615E+01 -0.51951238122E+01  0.16188894512E+02  0.00000000000E+00 0. -1.
</event>
<event>
 7    1  0.1193961E-011  0.5930196E+02  0.7816164E-02  0.1266605E+00
        -11   -1    0    0    0    0  0.00000000000E+00  0.00000000000E+00  0.45593999997E+02  0.45594000000E+02  0.51100000000E-03 0. -1.
         11   -1    0    0    0    0 -0.00000000000E+00 -0.00000000000E+00 -0.45593999997E+02  0.45594000000E+02  0.51100000000E-03 0.  1.
    9900012    2    1    2    0    0 -0.59711906897E+01 -0.27912400716E+02 -0.14211352248E+02  0.59301956585E+02  0.50000022901E+02 0.  0.
         12    1    1    2    0    0  0.59711906897E+01  0.27912400716E+02  0.14211352248E+02  0.31886043415E+02  0.00000000000E+00 0. -1.
         11    1    3    3    0    0 -0.21275061073E+02 -0.12058936781E+02 -0.71098121004E+01  0.25467540287E+02  0.51100000000E-03 0. -1.
        -11    1    3    3    0    0  0.15290622817E+01 -0.33528419895E+01 -0.13631008479E+02  0.14120338993E+02  0.51100000000E-03 0.  1.
        -12    1    3    3    0    0  0.13774808101E+02 -0.12500621946E+02  0.65294683312E+01  0.19714077304E+02  0.00000000000E+00 0.  1.
</event>
<event>
 7    1  0.1193961E-011  0.5930194E+02  0.7816164E-02  0.1266605E+00
        -11   -1    0    0    0    0  0.00000000000E+00  0.00000000000E+00  0.45593999997E+02  0.45594000000E+02  0.51100000000E-03 0.  1.
         11   -1    0    0    0    0 -0.00000000000E+00 -0.00000000000E+00 -0.45593999997E+02  0.45594000000E+02  0.51100000000E-03 0. -1.
    9900012    2    1    2    0    0  0.11671093086E+02  0.40968176574E+01  0.29389161281E+02  0.59301935183E+02  0.49999983869E+02 0.  0.
         12    1    1    2    0    0 -0.11671093086E+02 -0.40968176574E+01 -0.29389161281E+02  0.31886064817E+02  0.00000000000E+00 0. -1.
         11    1    3    3    0    0  0.15815817556E+02  0.14476809173E+02  0.19586931173E+02  0.29040763795E+02  0.51100000000E-03 0. -1.
        -11    1    3    3    0    0 -0.95440581107E+01  0.58260003515E+01  0.62641873988E+01  0.12816839288E+02  0.51100000000E-03 0.  1.
        -12    1    3    3    0    0  0.53993336402E+01 -0.16205991867E+02  0.35380427096E+01  0.17444332099E+02  0.00000000000E+00 0.  1.
</event>
<event>
 7    1  0.1193961E-011  0.5930194E+02  0.7816164E-02  0.1266605E+00
        -11   -1    0    0    0    0  0.00000000000E+00  0.00000000000E+00  0.45593999997E+02  0.45594000000E+02  0.51100000000E-03 0.  1.
         11   -1    0    0    0    0 -0.00000000000E+00 -0.00000000000E+00 -0.45593999997E+02  0.45594000000E+02  0.51100000000E-03 0. -1.
    9900012    2    1    2    0    0 -0.28259849222E+02 -0.83562528154E+01  0.12176803178E+02  0.59301943882E+02  0.49999999733E+02 0.  0.
         12    1    1    2    0    0  0.28259849222E+02  0.83562528154E+01 -0.12176803178E+02  0.31886056118E+02  0.00000000000E+00 0. -1.
         11    1    3    3    0    0 -0.77952760082E+01  0.12601280672E+02 -0.15511676124E+00  0.14818321905E+02  0.51100000000E-03 0. -1.
        -11    1    3    3    0    0 -0.26564867454E+02 -0.10081996977E+02  0.14382682971E+02  0.31846513398E+02  0.51100000000E-03 0.  1.
         12    1    3    3    0    0  0.61002942407E+01 -0.10875536510E+02 -0.20507630320E+01  0.12637108578E+02  0.00000000000E+00 0. -1.
</event>
<event>
 7    1  0.1193961E-011  0.5930180E+02  0.7816164E-02  0.1266605E+00
        -11   -1    0    0    0    0  0.00000000000E+00  0.00000000000E+00  0.45593999997E+02  0.45594000000E+02  0.51100000000E-03 0.  1.
         11   -1    0    0    0    0 -0.00000000000E+00 -0.00000000000E+00 -0.45593999997E+02  0.45594000000E+02  0.51100000000E-03 0. -1.
    9900012    2    1    2    0    0 -0.17028534749E+02  0.19010364558E+02  0.19114514604E+02  0.59301801969E+02  0.49999740917E+02 0.  0.
         12    1    1    2    0    0  0.17028534749E+02 -0.19010364558E+02 -0.19114514604E+02  0.31886198031E+02  0.00000000000E+00 0. -1.
         11    1    3    3    0    0 -0.15696434626E+02  0.15165479108E+02 -0.46401631842E+00  0.21830829758E+02  0.51100000000E-03 0. -1.
        -11    1    3    3    0    0 -0.11426078445E+02 -0.81476651475E+01  0.16205017146E+02  0.21436937677E+02  0.51100000000E-03 0.  1.
         12    1    3    3    0    0  0.10093978322E+02  0.11992550598E+02  0.33735137771E+01  0.16034034534E+02  0.00000000000E+00 0. -1.
</event>
<event>
 7    1  0.1193961E-011  0.5930193E+02  0.7816164E-02  0.1266605E+00
        -11   -1    0    0    0    0  0.00000000000E+00  0.00000000000E+00  0.45593999997E+02  0.45594000000E+02  0.51100000000E-03 0. -1.
         11   -1    0    0    0    0 -0.00000000000E+00 -0.00000000000E+00 -0.45593999997E+02  0.45594000000E+02  0.51100000000E-03 0.  1.
    9900012    2    1    2    0    0  0.86362726256E+01 -0.27603966103E+02 -0.13422267483E+02  0.59301930725E+02  0.49999975738E+02 0.  0.
         12    1    1    2    0    0 -0.86362726256E+01  0.27603966103E+02  0.13422267483E+02  0.31886069275E+02  0.00000000000E+00 0. -1.
         11    1    3    3    0    0  0.22375857598E+01  0.89340799425E+01 -0.73169462170E+01  0.11762749536E+02  0.51100000000E-03 0. -1.
        -11    1    3    3    0    0 -0.67084653925E+01 -0.11652320628E+01  0.47301946322E+01  0.82907186179E+01  0.51100000000E-03 0.  1.
        -12    1    3    3    0    0  0.13107152258E+02 -0.35372813982E+02 -0.10835515898E+02  0.39248462570E+02  0.00000000000E+00 0.  1.
</event>
<event>
 7    1  0.1193961E-011  0.5930192E+02  0.7816164E-02  0.1266605E+00
        -11   -1    0    0    0    0  0.00000000000E+00  0.00000000000E+00  0.45593999997E+02  0.45594000000E+02  0.51100000000E-03 0.  1.
         11   -1    0    0    0    0 -0.00000000000E+00 -0.00000000000E+00 -0.45593999997E+02  0.45594000000E+02  0.51100000000E-03 0. -1.
    9900012    2    1    2    0    0 -0.40722603198E+01  0.31478516491E+02  0.30400281337E+01  0.59301920347E+02  0.49999956812E+02 0.  0.
         12    1    1    2    0    0  0.40722603198E+01 -0.31478516491E+02 -0.30400281337E+01  0.31886079653E+02  0.00000000000E+00 0. -1.
         11    1    3    3    0    0  0.10001027614E+02  0.20602299776E+02 -0.10903218533E+02  0.25364453159E+02  0.51100000000E-03 0. -1.
        -11    1    3    3    0    0 -0.43336916197E+01  0.18118409877E+02  0.66677342921E+01  0.19786771853E+02  0.51100000000E-03 0.  1.
         12    1    3    3    0    0 -0.97395963137E+01 -0.72421931618E+01  0.72755123748E+01  0.14150695335E+02  0.00000000000E+00 0. -1.
</event>
<event>
 7    1  0.1193961E-011  0.5930195E+02  0.7816164E-02  0.1266605E+00
        -11   -1    0    0    0    0  0.00000000000E+00  0.00000000000E+00  0.45593999997E+02  0.45594000000E+02  0.51100000000E-03 0.  1.
         11   -1    0    0    0    0 -0.00000000000E+00 -0.00000000000E+00 -0.45593999997E+02  0.45594000000E+02  0.51100000000E-03 0. -1.
    9900012    2    1    2    0    0 -0.11236211420E+02  0.48118938878E+00  0.29836827062E+02  0.59301949140E+02  0.50000009324E+02 0.  0.
         12    1    1    2    0    0  0.11236211420E+02 -0.48118938878E+00 -0.29836827062E+02  0.31886050860E+02  0.00000000000E+00 0. -1.
         11    1    3    3    0    0  0.59111043414E+01 -0.10742335462E+02  0.93911238446E+01  0.15444485522E+02  0.51100000000E-03 0. -1.
        -11    1    3    3    0    0 -0.42579680792E+01  0.32879565706E+01 -0.91508023625E+01  0.10614995747E+02  0.51100000000E-03 0.  1.
        -12    1    3    3    0    0 -0.12889347683E+02  0.79355682804E+01  0.29596505580E+02  0.33242467871E+02  0.00000000000E+00 0.  1.
</event>
<event>
 7    1  0.1193961E-011  0.5930222E+02  0.7816164E-02  0.1266604E+00
        -11   -1    0    0    0    0  0.00000000000E+00  0.00000000000E+00  0.45593999997E+02  0.45594000000E+02  0.51100000000E-03 0.  1.
         11   -1    0    0    0    0 -0.00000000000E+00 -0.00000000000E+00 -0.45593999997E+02  0.45594000000E+02  0.51100000000E-03 0. -1.
    9900012    2    1    2    0    0 -0.31596057055E+01  0.25620321510E+02  0.18716816069E+02  0.59302216549E+02  0.50000497012E+02 0.  0.
         12    1    1    2    0    0  0.31596057055E+01 -0.25620321510E+02 -0.18716816069E+02  0.31885783451E+02  0.00000000000E+00 0. -1.
         11    1    3    3    0    0 -0.85860731815E+01 -0.26976593602E+01  0.12900200986E+02  0.15729373937E+02  0.51100000000E-03 0. -1.
        -11    1    3    3    0    0 -0.80031882752E+01  0.28149115269E+02  0.92586148409E+00  0.29279360184E+02  0.51100000000E-03 0.  1.
         12    1    3    3    0    0  0.13429655751E+02  0.16886560147E+00  0.48907535985E+01  0.14293482429E+02  0.00000000000E+00 0. -1.
</event>
<event>
 7    1  0.1193961E-011  0.5930194E+02  0.7816164E-02  0.1266605E+00
        -11   -1    0    0    0    0  0.00000000000E+00  0.00000000000E+00  0.45593999997E+02  0.45594000000E+02  0.51100000000E-03 0. -1.
         11   -1    0    0    0    0 -0.00000000000E+00 -0.00000000000E+00 -0.45593999997E+02  0.45594000000E+02  0.51100000000E-03 0.  1.
    9900012    2    1    2    0    0 -0.14523314092E+01  0.31335646408E+02 -0.57174086617E+01  0.59301940913E+02  0.49999994319E+02 0.  0.
         12    1    1    2    0    0  0.14523314092E+01 -0.31335646408E+02  0.57174086617E+01  0.31886059087E+02  0.00000000000E+00 0. -1.
         11    1    3    3    0    0  0.55649952200E+01  0.18330012172E+02  0.62589535241E+01  0.20152742183E+02  0.51100000000E-03 0. -1.
        -11    1    3    3    0    0 -0.11751769375E+01  0.22888866959E+02 -0.51233045586E+00  0.22924741094E+02  0.51100000000E-03 0.  1.
         12    1    3    3    0    0 -0.58421496917E+01 -0.98832327227E+01 -0.11464031730E+02  0.16224457636E+02  0.00000000000E+00 0. -1.
</event>
<event>
 7    1  0.1193961E-011  0.5930195E+02  0.7816164E-02  0.1266605E+00
        -11   -1    0    0    0    0  0.00000000000E+00  0.00000000000E+00  0.45593999997E+02  0.45594000000E+02  0.51100000000E-03 0.  1.
         11   -1    0    0    0    0 -0.00000000000E+00 -0.00000000000E+00 -0.45593999997E+02  0.45594000000E+02  0.51100000000E-03 0. -1.
    9900012    2    1    2    0    0 -0.27027230416E+02  0.29383254137E+01  0.16661798471E+02  0.59301945549E+02  0.50000002774E+02 0.  0.
         12    1    1    2    0    0  0.27027230416E+02 -0.29383254137E+01 -0.16661798471E+02  0.31886054451E+02  0.00000000000E+00 0. -1.
         11    1    3    3    0    0 -0.15838140573E+01 -0.24738598880E+01  0.10520241143E+01  0.31201289575E+01  0.51100000000E-03 0. -1.
        -11    1    3    3    0    0 -0.19706062221E+02 -0.17608139422E+02  0.18533321681E+02  0.32277848053E+02  0.51100000000E-03 0.  1.
         12    1    3    3    0    0 -0.57373541374E+01  0.23020324724E+02 -0.29235473242E+01  0.23903968538E+02  0.00000000000E+00 0. -1.
</event>
<event>
 7    1  0.1193961E-011  0.5930195E+02  0.7816164E-02  0.1266605E+00
        -11   -1    0    0    0    0  0.00000000000E+00  0.00000000000E+00  0.45593999997E+02  0.45594000000E+02  0.51100000000E-03 0. -1.
         11   -1    0    0    0    0 -0.00000000000E+00 -0.00000000000E+00 -0.45593999997E+02  0.45594000000E+02  0.51100000000E-03 0.  1.
    9900012    2    1    2    0    0 -0.51729190647E+01 -0.14664951374E+02 -0.27837025399E+02  0.59301954878E+02  0.50000019789E+02 0.  0.
         12    1    1    2    0    0  0.51729190647E+01  0.14664951374E+02  0.27837025399E+02  0.31886045122E+02  0.00000000000E+00 0. -1.
         11    1    3    3    0    0 -0.13247286139E+02 -0.14291356133E+01 -0.36817525569E+02  0.39154351072E+02  0.51100000000E-03 0. -1.
        -11    1    3    3    0    0  0.64838210251E+00 -0.77429155861E+01  0.80348915566E+00  0.78114490466E+01  0.51100000000E-03 0.  1.
        -12    1    3    3    0    0  0.74259849714E+01 -0.54929001741E+01  0.81770110141E+01  0.12336154759E+02  0.00000000000E+00 0.  1.
</event>
<event>
 7    1  0.1193961E-011  0.5930186E+02  0.7816164E-02  0.1266605E+00
        -11   -1    0    0    0    0  0.00000000000E+00  0.00000000000E+00  0.45593999997E+02  0.45594000000E+02  0.51100000000E-03 0.  1.
         11   -1    0    0    0    0 -0.00000000000E+00 -0.00000000000E+00 -0.45593999997E+02  0.45594000000E+02  0.51100000000E-03 0. -1.
    9900012    2    1    2    0    0  0.66976966044E+01 -0.40641324311E+01  0.30908732441E+02  0.59301857974E+02  0.49999843058E+02 0.  0.
         12    1    1    2    0    0 -0.66976966044E+01  0.40641324311E+01 -0.30908732441E+02  0.31886142026E+02  0.00000000000E+00 0. -1.
         11    1    3    3    0    0  0.85284333396E+01 -0.53237056176E+01  0.22579789936E+01  0.10304100452E+02  0.51100000000E-03 0. -1.
        -11    1    3    3    0    0  0.97366215556E+01  0.12282031391E+02  0.29057003081E+02  0.33014535022E+02  0.51100000000E-03 0.  1.
        -12    1    3    3    0    0 -0.11567358291E+02 -0.11022458204E+02 -0.40624963409E+00  0.15983222499E+02  0.00000000000E+00 0.  1.
</event>
<event>
 7    1  0.1193961E-011  0.5930190E+02  0.7816164E-02  0.1266605E+00
        -11   -1    0    0    0    0  0.00000000000E+00  0.00000000000E+00  0.45593999997E+02  0.45594000000E+02  0.51100000000E-03 0. -1.
         11   -1    0    0    0    0 -0.00000000000E+00 -0.00000000000E+00 -0.45593999997E+02  0.45594000000E+02  0.51100000000E-03 0.  1.
    9900012    2    1    2    0    0  0.26703504329E+02  0.19121512588E+01 -0.17320224011E+02  0.59301896041E+02  0.49999912484E+02 0.  0.
         12    1    1    2    0    0 -0.26703504329E+02 -0.19121512588E+01  0.17320224011E+02  0.31886103959E+02  0.00000000000E+00 0. -1.
         11    1    3    3    0    0  0.37027243455E+01 -0.52823694998E+01 -0.21345271749E+02  0.22298749324E+02  0.51100000000E-03 0. -1.
        -11    1    3    3    0    0  0.32712179986E+01  0.12975458605E+02 -0.53450623337E+01  0.14409478992E+02  0.51100000000E-03 0.  1.
        -12    1    3    3    0    0  0.19729561985E+02 -0.57809378469E+01  0.93701100721E+01  0.22593667725E+02  0.00000000000E+00 0.  1.
</event>
<event>
 7    1  0.1193961E-011  0.5930195E+02  0.7816164E-02  0.1266605E+00
        -11   -1    0    0    0    0  0.00000000000E+00  0.00000000000E+00  0.45593999997E+02  0.45594000000E+02  0.51100000000E-03 0.  1.
         11   -1    0    0    0    0 -0.00000000000E+00 -0.00000000000E+00 -0.45593999997E+02  0.45594000000E+02  0.51100000000E-03 0. -1.
    9900012    2    1    2    0    0 -0.31682173724E+02  0.14390720462E+00  0.35970907440E+01  0.59301954416E+02  0.50000018945E+02 0.  0.
         12    1    1    2    0    0  0.31682173724E+02 -0.14390720462E+00 -0.35970907440E+01  0.31886045584E+02  0.00000000000E+00 0. -1.
         11    1    3    3    0    0 -0.10729149027E+02 -0.69545206356E+01 -0.25060963615E+01  0.13029217757E+02  0.51100000000E-03 0. -1.
        -11    1    3    3    0    0 -0.21731509616E+02 -0.42723008927E+01 -0.11765506335E+02  0.25078640407E+02  0.51100000000E-03 0.  1.
         12    1    3    3    0    0  0.77848491852E+00  0.11370728733E+02  0.17868693440E+02  0.21194096252E+02  0.00000000000E+00 0. -1.
</event>
<event>
 7    1  0.1193961E-011  0.5930198E+02  0.7816164E-02  0.1266605E+00
        -11   -1    0    0    0    0  0.00000000000E+00  0.00000000000E+00  0.45593999997E+02  0.45594000000E+02  0.51100000000E-03 0.  1.
         11   -1    0    0    0    0 -0.00000000000E+00 -0.00000000000E+00 -0.45593999997E+02  0.45594000000E+02  0.51100000000E-03 0. -1.
    9900012    2    1    2    0    0  0.14484519352E+02 -0.18167084366E+02  0.21837445284E+02  0.59301979995E+02  0.50000065595E+02 0.  0.
         12    1    1    2    0    0 -0.14484519352E+02  0.18167084366E+02 -0.21837445284E+02  0.31886020005E+02  0.00000000000E+00 0. -1.
         11    1    3    3    0    0 -0.24333906383E+01 -0.71889872234E+01 -0.66629386639E+01  0.10099390041E+02  0.51100000000E-03 0. -1.
        -11    1    3    3    0    0 -0.87764826733E+01 -0.29544712725E+01 -0.94389034429E+00  0.93084089864E+01  0.51100000000E-03 0.  1.
        -12    1    3    3    0    0  0.25694392664E+02 -0.80236258698E+01  0.29444274293E+02  0.39894180968E+02  0.00000000000E+00 0.  1.
</event>
<event>
 7    1  0.1193961E-011  0.5930195E+02  0.7816164E-02  0.1266605E+00
        -11   -1    0    0    0    0  0.00000000000E+00  0.00000000000E+00  0.45593999997E+02  0.45594000000E+02  0.51100000000E-03 0. -1.
         11   -1    0    0    0    0 -0.00000000000E+00 -0.00000000000E+00 -0.45593999997E+02  0.45594000000E+02  0.51100000000E-03 0.  1.
    9900012    2    1    2    0    0 -0.24861019384E+02  0.45661851015E+01 -0.19437078598E+02  0.59301947319E+02  0.50000006002E+02 0.  0.
         12    1    1    2    0    0  0.24861019384E+02 -0.45661851015E+01  0.19437078598E+02  0.31886052681E+02  0.00000000000E+00 0. -1.
         11    1    3    3    0    0 -0.20343189187E+01 -0.12001352256E+02  0.85961392268E+01  0.14901829394E+02  0.51100000000E-03 0. -1.
        -11    1    3    3    0    0 -0.10475422373E+02  0.36847067886E+01  0.74702685769E-01  0.11104824122E+02  0.51100000000E-03 0.  1.
        -12    1    3    3    0    0 -0.12351278091E+02  0.12882830569E+02 -0.28107920511E+02  0.33295293803E+02  0.00000000000E+00 0.  1.
</event>
<event>
 7    1  0.1193961E-011  0.5930194E+02  0.7816164E-02  0.1266605E+00
        -11   -1    0    0    0    0  0.00000000000E+00  0.00000000000E+00  0.45593999997E+02  0.45594000000E+02  0.51100000000E-03 0.  1.
         11   -1    0    0    0    0 -0.00000000000E+00 -0.00000000000E+00 -0.45593999997E+02  0.45594000000E+02  0.51100000000E-03 0. -1.
    9900012    2    1    2    0    0  0.13943078471E+02 -0.28237812580E+02  0.49937399542E+01  0.59301938229E+02  0.49999989425E+02 0.  0.
         12    1    1    2    0    0 -0.13943078471E+02  0.28237812580E+02 -0.49937399542E+01  0.31886061771E+02  0.00000000000E+00 0. -1.
         11    1    3    3    0    0 -0.70300871088E+01 -0.77812979381E+01 -0.18000215915E+01  0.10640056407E+02  0.51100000000E-03 0. -1.
        -11    1    3    3    0    0  0.25077859846E+02 -0.25760795151E+02 -0.37700867331E+01  0.36148736845E+02  0.51100000000E-03 0.  1.
         12    1    3    3    0    0 -0.41046942669E+01  0.53042805092E+01  0.10563848279E+02  0.12513144976E+02  0.00000000000E+00 0. -1.
</event>
<event>
 7    1  0.1193961E-011  0.5930194E+02  0.7816164E-02  0.1266605E+00
        -11   -1    0    0    0    0  0.00000000000E+00  0.00000000000E+00  0.45593999997E+02  0.45594000000E+02  0.51100000000E-03 0.  1.
         11   -1    0    0    0    0 -0.00000000000E+00 -0.00000000000E+00 -0.45593999997E+02  0.45594000000E+02  0.51100000000E-03 0. -1.
    9900012    2    1    2    0    0  0.21189026375E+02  0.11819475712E+02  0.20689271813E+02  0.59301940147E+02  0.49999992922E+02 0.  0.
         12    1    1    2    0    0 -0.21189026375E+02 -0.11819475712E+02 -0.20689271813E+02  0.31886059853E+02  0.00000000000E+00 0. -1.
         11    1    3    3    0    0 -0.25293421027E+01  0.99112015402E+01  0.94224754711E+01  0.13907283405E+02  0.51100000000E-03 0. -1.
        -11    1    3    3    0    0 -0.47122738649E+01  0.12569110803E+02  0.54026763649E+01  0.14469864668E+02  0.51100000000E-03 0.  1.
        -12    1    3    3    0    0  0.28430642342E+02 -0.10660836631E+02  0.58641199770E+01  0.30924792073E+02  0.00000000000E+00 0.  1.
</event>
<event>
 7    1  0.1193961E-011  0.5930194E+02  0.7816164E-02  0.1266605E+00
        -11   -1    0    0    0    0  0.00000000000E+00  0.00000000000E+00  0.45593999997E+02  0.45594000000E+02  0.51100000000E-03 0.  1.
         11   -1    0    0    0    0 -0.00000000000E+00 -0.00000000000E+00 -0.45593999997E+02  0.45594000000E+02  0.51100000000E-03 0. -1.
    9900012    2    1    2    0    0  0.75767055160E+01 -0.28770219792E+02  0.11471205818E+02  0.59301943859E+02  0.49999999692E+02 0.  0.
         12    1    1    2    0    0 -0.75767055160E+01  0.28770219792E+02 -0.11471205818E+02  0.31886056141E+02  0.00000000000E+00 0. -1.
         11    1    3    3    0    0 -0.11454294460E+02 -0.20689798408E+02  0.20813607903E+01  0.23740275540E+02  0.51100000000E-03 0. -1.
        -11    1    3    3    0    0  0.42411293156E+01 -0.16666811465E+02  0.47112591969E+01  0.17831594033E+02  0.51100000000E-03 0.  1.
        -12    1    3    3    0    0  0.14789870660E+02  0.85863900818E+01  0.46785858303E+01  0.17730074285E+02  0.00000000000E+00 0.  1.
</event>
<event>
 7    1  0.1193961E-011  0.5930189E+02  0.7816164E-02  0.1266605E+00
        -11   -1    0    0    0    0  0.00000000000E+00  0.00000000000E+00  0.45593999997E+02  0.45594000000E+02  0.51100000000E-03 0.  1.
         11   -1    0    0    0    0 -0.00000000000E+00 -0.00000000000E+00 -0.45593999997E+02  0.45594000000E+02  0.51100000000E-03 0. -1.
    9900012    2    1    2    0    0  0.86374234362E+01  0.18759678028E+02  0.24293896138E+02  0.59301890282E+02  0.49999901982E+02 0.  0.
         12    1    1    2    0    0 -0.86374234362E+01 -0.18759678028E+02 -0.24293896138E+02  0.31886109718E+02  0.00000000000E+00 0. -1.
         11    1    3    3    0    0 -0.59306955918E+01  0.15143463921E+02 -0.83916004384E+01  0.18300726978E+02  0.51100000000E-03 0. -1.
        -11    1    3    3    0    0  0.10549547023E+02  0.10083418683E+02  0.11787638487E+02  0.18759442852E+02  0.51100000000E-03 0.  1.
        -12    1    3    3    0    0  0.40185720050E+01 -0.64672045763E+01  0.20897858089E+02  0.22241720453E+02  0.00000000000E+00 0.  1.
</event>
<event>
 7    1  0.1193961E-011  0.5930195E+02  0.7816164E-02  0.1266605E+00
        -11   -1    0    0    0    0  0.00000000000E+00  0.00000000000E+00  0.45593999997E+02  0.45594000000E+02  0.51100000000E-03 0.  1.
         11   -1    0    0    0    0 -0.00000000000E+00 -0.00000000000E+00 -0.45593999997E+02  0.45594000000E+02  0.51100000000E-03 0. -1.
    9900012    2    1    2    0    0 -0.27103956912E+02 -0.14414740834E+02  0.86203859488E+01  0.59301948387E+02  0.50000007949E+02 0.  0.
         12    1    1    2    0    0  0.27103956912E+02  0.14414740834E+02 -0.86203859488E+01  0.31886051613E+02  0.00000000000E+00 0. -1.
         11    1    3    3    0    0  0.88492179355E+01 -0.25705925674E+01 -0.34965999435E+01  0.98561055008E+01  0.51100000000E-03 0. -1.
        -11    1    3    3    0    0 -0.12063566695E+02 -0.90266616169E+01 -0.89030302273E+01  0.17500691668E+02  0.51100000000E-03 0.  1.
        -12    1    3    3    0    0 -0.23889608152E+02 -0.28174866500E+01  0.21020016120E+02  0.31945151218E+02  0.00000000000E+00 0.  1.
</event>
<event>
 7    1  0.1193961E-011  0.5930184E+02  0.7816164E-02  0.1266605E+00
        -11   -1    0    0    0    0  0.00000000000E+00  0.00000000000E+00  0.45593999997E+02  0.45594000000E+02  0.51100000000E-03 0. -1.
         11   -1    0    0    0    0 -0.00000000000E+00 -0.00000000000E+00 -0.45593999997E+02  0.45594000000E+02  0.51100000000E-03 0.  1.
    9900012    2    1    2    0    0  0.86822079094E+01 -0.18861936812E+02 -0.24198632991E+02  0.59301839473E+02  0.49999809318E+02 0.  0.
         12    1    1    2    0    0 -0.86822079094E+01  0.18861936812E+02  0.24198632991E+02  0.31886160527E+02  0.00000000000E+00 0. -1.
         11    1    3    3    0    0 -0.35074792335E+01 -0.17377330513E+02 -0.28514948461E+02  0.33576424949E+02  0.51100000000E-03 0.  1.
        -11    1    3    3    0    0 -0.59681375424E+01 -0.16258997785E+01  0.43585704076E+01  0.75669909524E+01  0.51100000000E-03 0. -1.
        -12    1    3    3    0    0  0.18157824685E+02  0.14129347936E+00 -0.42254937752E-01  0.18158423572E+02  0.00000000000E+00 0.  1.
</event>
<event>
 7    1  0.1193961E-011  0.5930205E+02  0.7816164E-02  0.1266604E+00
        -11   -1    0    0    0    0  0.00000000000E+00  0.00000000000E+00  0.45593999997E+02  0.45594000000E+02  0.51100000000E-03 0.  1.
         11   -1    0    0    0    0 -0.00000000000E+00 -0.00000000000E+00 -0.45593999997E+02  0.45594000000E+02  0.51100000000E-03 0. -1.
    9900012    2    1    2    0    0 -0.18294966143E+02 -0.37275125952E-01  0.26115256618E+02  0.59302050056E+02  0.50000193370E+02 0.  0.
         12    1    1    2    0    0  0.18294966143E+02  0.37275125952E-01 -0.26115256618E+02  0.31885949944E+02  0.00000000000E+00 0. -1.
         11    1    3    3    0    0 -0.78892668905E+01 -0.48984093574E+01  0.17124352391E+01  0.94428481408E+01  0.51100000000E-03 0.  1.
        -11    1    3    3    0    0 -0.24697160565E+02 -0.54887383038E+01  0.18157067097E+02  0.31140890707E+02  0.51100000000E-03 0. -1.
        -12    1    3    3    0    0  0.14291461313E+02  0.10349872535E+02  0.62457542814E+01  0.18718311209E+02  0.00000000000E+00 0.  1.
</event>
<event>
 7    1  0.1193961E-011  0.5930193E+02  0.7816164E-02  0.1266605E+00
        -11   -1    0    0    0    0  0.00000000000E+00  0.00000000000E+00  0.45593999997E+02  0.45594000000E+02  0.51100000000E-03 0.  1.
         11   -1    0    0    0    0 -0.00000000000E+00 -0.00000000000E+00 -0.45593999997E+02  0.45594000000E+02  0.51100000000E-03 0. -1.
    9900012    2    1    2    0    0  0.13434371426E+02  0.15877397283E+02  0.24169136517E+02  0.59301933449E+02  0.49999980707E+02 0.  0.
         12    1    1    2    0    0 -0.13434371426E+02 -0.15877397283E+02 -0.24169136517E+02  0.31886066551E+02  0.00000000000E+00 0. -1.
         11    1    3    3    0    0 -0.52073356440E+01  0.14086984542E+02  0.54783398700E+01  0.15986609584E+02  0.51100000000E-03 0. -1.
        -11    1    3    3    0    0  0.19774625606E+02  0.13100363015E+02  0.29551134102E+01  0.23903724072E+02  0.51100000000E-03 0.  1.
         12    1    3    3    0    0 -0.11329185360E+01 -0.11309950274E+02  0.15735683237E+02  0.19411599793E+02  0.00000000000E+00 0. -1.
</event>
<event>
 7    1  0.1193961E-011  0.5930194E+02  0.7816164E-02  0.1266605E+00
        -11   -1    0    0    0    0  0.00000000000E+00  0.00000000000E+00  0.45593999997E+02  0.45594000000E+02  0.51100000000E-03 0.  1.
         11   -1    0    0    0    0 -0.00000000000E+00 -0.00000000000E+00 -0.45593999997E+02  0.45594000000E+02  0.51100000000E-03 0. -1.
    9900012    2    1    2    0    0  0.18991263364E+02 -0.25204031976E+02  0.45617654724E+01  0.59301936959E+02  0.49999987108E+02 0.  0.
         12    1    1    2    0    0 -0.18991263364E+02  0.25204031976E+02 -0.45617654724E+01  0.31886063041E+02  0.00000000000E+00 0. -1.
         11    1    3    3    0    0  0.27369681324E+01 -0.72951070347E+01 -0.51655328034E+01  0.93483854547E+01  0.51100000000E-03 0.  1.
        -11    1    3    3    0    0  0.18126759614E+02 -0.25231471830E+02  0.20185965945E+02  0.37049693740E+02  0.51100000000E-03 0. -1.
         12    1    3    3    0    0 -0.18724643818E+01  0.73225468885E+01 -0.10458667669E+02  0.12903857765E+02  0.00000000000E+00 0. -1.
</event>
<event>
 7    1  0.1193961E-011  0.5930196E+02  0.7816164E-02  0.1266605E+00
        -11   -1    0    0    0    0  0.00000000000E+00  0.00000000000E+00  0.45593999997E+02  0.45594000000E+02  0.51100000000E-03 0.  1.
         11   -1    0    0    0    0 -0.00000000000E+00 -0.00000000000E+00 -0.45593999997E+02  0.45594000000E+02  0.51100000000E-03 0. -1.
    9900012    2    1    2    0    0  0.59888539834E+01  0.31316302213E+02  0.37711603763E+00  0.59301962729E+02  0.50000034107E+02 0.  0.
         12    1    1    2    0    0 -0.59888539834E+01 -0.31316302213E+02 -0.37711603763E+00  0.31886037271E+02  0.00000000000E+00 0. -1.
         11    1    3    3    0    0  0.20284182112E+01 -0.84509716247E+00  0.12098291453E+02  0.12296232187E+02  0.51100000000E-03 0. -1.
        -11    1    3    3    0    0 -0.58912476361E+01 -0.29726486888E+01 -0.79356549429E+01  0.10320758624E+02  0.51100000000E-03 0.  1.
        -12    1    3    3    0    0  0.98516834083E+01  0.35134048064E+02 -0.37855204727E+01  0.36684971918E+02  0.00000000000E+00 0.  1.
</event>
<event>
 7    1  0.1193961E-011  0.5930195E+02  0.7816164E-02  0.1266605E+00
        -11   -1    0    0    0    0  0.00000000000E+00  0.00000000000E+00  0.45593999997E+02  0.45594000000E+02  0.51100000000E-03 0. -1.
         11   -1    0    0    0    0 -0.00000000000E+00 -0.00000000000E+00 -0.45593999997E+02  0.45594000000E+02  0.51100000000E-03 0.  1.
    9900012    2    1    2    0    0 -0.22207582356E+02 -0.22712784981E+02 -0.27699877667E+01  0.59301950575E+02  0.50000011941E+02 0.  0.
         12    1    1    2    0    0  0.22207582356E+02  0.22712784981E+02  0.27699877667E+01  0.31886049425E+02  0.00000000000E+00 0. -1.
         11    1    3    3    0    0  0.14044201312E+01 -0.22192665730E+01 -0.40776180082E+01  0.48502070996E+01  0.51100000000E-03 0. -1.
        -11    1    3    3    0    0 -0.30167321036E+01  0.76840267916E+01 -0.14069613429E+02  0.16312540042E+02  0.51100000000E-03 0.  1.
         12    1    3    3    0    0 -0.20595270384E+02 -0.28177545199E+02  0.15377243671E+02  0.38139203434E+02  0.00000000000E+00 0. -1.
</event>
<event>
 7    1  0.1193961E-011  0.5930196E+02  0.7816164E-02  0.1266605E+00
        -11   -1    0    0    0    0  0.00000000000E+00  0.00000000000E+00  0.45593999997E+02  0.45594000000E+02  0.51100000000E-03 0.  1.
         11   -1    0    0    0    0 -0.00000000000E+00 -0.00000000000E+00 -0.45593999997E+02  0.45594000000E+02  0.51100000000E-03 0. -1.
    9900012    2    1    2    0    0 -0.11161916824E+02  0.10421785983E+02  0.27991379643E+02  0.59301963173E+02  0.50000034916E+02 0.  0.
         12    1    1    2    0    0  0.11161916824E+02 -0.10421785983E+02 -0.27991379643E+02  0.31886036827E+02  0.00000000000E+00 0. -1.
         11    1    3    3    0    0 -0.48829322525E+01 -0.15505803671E+02 -0.23518433843E+01  0.16425715888E+02  0.51100000000E-03 0. -1.
        -11    1    3    3    0    0 -0.55954822306E+01  0.35512523894E+01  0.12875574885E+02  0.14481065010E+02  0.51100000000E-03 0.  1.
        -12    1    3    3    0    0 -0.68350234076E+00  0.22376337265E+02  0.17467648142E+02  0.28395182275E+02  0.00000000000E+00 0.  1.
</event>
<event>
 7    1  0.1193961E-011  0.5930194E+02  0.7816164E-02  0.1266605E+00
        -11   -1    0    0    0    0  0.00000000000E+00  0.00000000000E+00  0.45593999997E+02  0.45594000000E+02  0.51100000000E-03 0.  1.
         11   -1    0    0    0    0 -0.00000000000E+00 -0.00000000000E+00 -0.45593999997E+02  0.45594000000E+02  0.51100000000E-03 0. -1.
    9900012    2    1    2    0    0  0.80443384871E+01 -0.38623420398E+01  0.30611954329E+02  0.59301940106E+02  0.49999992848E+02 0.  0.
         12    1    1    2    0    0 -0.80443384871E+01  0.38623420398E+01 -0.30611954329E+02  0.31886059894E+02  0.00000000000E+00 0. -1.
         11    1    3    3    0    0  0.34943849279E+01 -0.17021321965E+02  0.82629065988E-01  0.17376505842E+02  0.51100000000E-03 0. -1.
        -11    1    3    3    0    0  0.11694817694E+02  0.17926627347E+01  0.24502148521E+02  0.27209147047E+02  0.51100000000E-03 0.  1.
        -12    1    3    3    0    0 -0.71448641351E+01  0.11366317190E+02  0.60271767416E+01  0.14716287217E+02  0.00000000000E+00 0.  1.
</event>
<event>
 7    1  0.1193961E-011  0.5930190E+02  0.7816164E-02  0.1266605E+00
        -11   -1    0    0    0    0  0.00000000000E+00  0.00000000000E+00  0.45593999997E+02  0.45594000000E+02  0.51100000000E-03 0.  1.
         11   -1    0    0    0    0 -0.00000000000E+00 -0.00000000000E+00 -0.45593999997E+02  0.45594000000E+02  0.51100000000E-03 0. -1.
    9900012    2    1    2    0    0  0.10879678319E+02  0.19271693841E+02  0.22955557092E+02  0.59301902947E+02  0.49999925079E+02 0.  0.
         12    1    1    2    0    0 -0.10879678319E+02 -0.19271693841E+02 -0.22955557092E+02  0.31886097053E+02  0.00000000000E+00 0. -1.
         11    1    3    3    0    0  0.27060912381E+01 -0.54252115000E+01 -0.46166952755E+01  0.76203494104E+01  0.51100000000E-03 0. -1.
        -11    1    3    3    0    0  0.19932037999E+02  0.49700336916E+01  0.10533190048E+02  0.23085395092E+02  0.51100000000E-03 0.  1.
         12    1    3    3    0    0 -0.11758450918E+02  0.19726871650E+02  0.17039062320E+02  0.28596158445E+02  0.00000000000E+00 0. -1.
</event>
<event>
 7    1  0.1193961E-011  0.5930196E+02  0.7816164E-02  0.1266605E+00
        -11   -1    0    0    0    0  0.00000000000E+00  0.00000000000E+00  0.45593999997E+02  0.45594000000E+02  0.51100000000E-03 0. -1.
         11   -1    0    0    0    0 -0.00000000000E+00 -0.00000000000E+00 -0.45593999997E+02  0.45594000000E+02  0.51100000000E-03 0.  1.
    9900012    2    1    2    0    0 -0.29219166012E+00 -0.91006152907E+01 -0.30558354678E+02  0.59301958928E+02  0.50000027174E+02 0.  0.
         12    1    1    2    0    0  0.29219166012E+00  0.91006152907E+01  0.30558354678E+02  0.31886041072E+02  0.00000000000E+00 0. -1.
         11    1    3    3    0    0  0.59835470481E+01 -0.31452280403E+01  0.36137432064E+01  0.76651441556E+01  0.51100000000E-03 0. -1.
        -11    1    3    3    0    0  0.55821252271E+01 -0.14587418504E+02 -0.13385516239E+01  0.15676243854E+02  0.51100000000E-03 0.  1.
         12    1    3    3    0    0 -0.11857863935E+02  0.86320312539E+01 -0.32833546261E+02  0.35960570918E+02  0.00000000000E+00 0. -1.
</event>
<event>
 7    1  0.1193961E-011  0.5930198E+02  0.7816164E-02  0.1266605E+00
        -11   -1    0    0    0    0  0.00000000000E+00  0.00000000000E+00  0.45593999997E+02  0.45594000000E+02  0.51100000000E-03 0. -1.
         11   -1    0    0    0    0 -0.00000000000E+00 -0.00000000000E+00 -0.45593999997E+02  0.45594000000E+02  0.51100000000E-03 0.  1.
    9900012    2    1    2    0    0  0.21386269931E+02 -0.12585263622E+02 -0.20023901331E+02  0.59301983841E+02  0.50000072610E+02 0.  0.
         12    1    1    2    0    0 -0.21386269931E+02  0.12585263622E+02  0.20023901331E+02  0.31886016159E+02  0.00000000000E+00 0. -1.
         11    1    3    3    0    0  0.19494435512E+02  0.68328458734E+01 -0.57665745205E+01  0.21447008663E+02  0.51100000000E-03 0. -1.
        -11    1    3    3    0    0 -0.57047187238E+01 -0.62762703441E+01 -0.19922560769E+02  0.21652801504E+02  0.51100000000E-03 0.  1.
         12    1    3    3    0    0  0.75965531434E+01 -0.13141839151E+02  0.56652339584E+01  0.16202173673E+02  0.00000000000E+00 0. -1.
</event>
<event>
 7    1  0.1193961E-011  0.5930193E+02  0.7816164E-02  0.1266605E+00
        -11   -1    0    0    0    0  0.00000000000E+00  0.00000000000E+00  0.45593999997E+02  0.45594000000E+02  0.51100000000E-03 0. -1.
         11   -1    0    0    0    0 -0.00000000000E+00 -0.00000000000E+00 -0.45593999997E+02  0.45594000000E+02  0.51100000000E-03 0.  1.
    9900012    2    1    2    0    0  0.11563563742E+02 -0.13617021714E+02 -0.26411784048E+02  0.59301927439E+02  0.49999969745E+02 0.  0.
         12    1    1    2    0    0 -0.11563563742E+02  0.13617021714E+02  0.26411784048E+02  0.31886072561E+02  0.00000000000E+00 0. -1.
         11    1    3    3    0    0 -0.90240109121E+01  0.21753966704E+01 -0.54699711891E+00  0.92986197752E+01  0.51100000000E-03 0. -1.
        -11    1    3    3    0    0  0.10371974352E+02 -0.26192497869E+02 -0.15951710330E+02  0.32374092408E+02  0.51100000000E-03 0.  1.
         12    1    3    3    0    0  0.10215600303E+02  0.10400079485E+02 -0.99130765999E+01  0.17629215255E+02  0.00000000000E+00 0. -1.
</event>
<event>
 7    1  0.1193961E-011  0.5930195E+02  0.7816164E-02  0.1266605E+00
        -11   -1    0    0    0    0  0.00000000000E+00  0.00000000000E+00  0.45593999997E+02  0.45594000000E+02  0.51100000000E-03 0. -1.
         11   -1    0    0    0    0 -0.00000000000E+00 -0.00000000000E+00 -0.45593999997E+02  0.45594000000E+02  0.51100000000E-03 0.  1.
    9900012    2    1    2    0    0  0.15182809431E+02  0.12366883208E+00 -0.28039035270E+02  0.59301945131E+02  0.50000002013E+02 0.  0.
         12    1    1    2    0    0 -0.15182809431E+02 -0.12366883208E+00  0.28039035270E+02  0.31886054869E+02  0.00000000000E+00 0. -1.
         11    1    3    3    0    0  0.14602067933E+02  0.16312981362E+02 -0.17422708981E+02  0.27980073934E+02  0.51100000000E-03 0. -1.
        -11    1    3    3    0    0  0.59963252693E+01  0.35886995853E+01 -0.80433056346E+01  0.10655019814E+02  0.51100000000E-03 0.  1.
         12    1    3    3    0    0 -0.54155837711E+01 -0.19778012115E+02 -0.25730206548E+01  0.20666851383E+02  0.00000000000E+00 0. -1.
</event>
<event>
 7    1  0.1193961E-011  0.5930196E+02  0.7816164E-02  0.1266605E+00
        -11   -1    0    0    0    0  0.00000000000E+00  0.00000000000E+00  0.45593999997E+02  0.45594000000E+02  0.51100000000E-03 0. -1.
         11   -1    0    0    0    0 -0.00000000000E+00 -0.00000000000E+00 -0.45593999997E+02  0.45594000000E+02  0.51100000000E-03 0.  1.
    9900012    2    1    2    0    0 -0.70527604492E+01 -0.18748004538E+02 -0.24809079409E+02  0.59301960340E+02  0.50000029749E+02 0.  0.
         12    1    1    2    0    0  0.70527604492E+01  0.18748004538E+02  0.24809079409E+02  0.31886039660E+02  0.00000000000E+00 0. -1.
         11    1    3    3    0    0  0.15248732108E+02  0.25453178862E+00 -0.10778948419E+01  0.15288900382E+02  0.51100000000E-03 0. -1.
        -11    1    3    3    0    0 -0.11105140458E+02  0.35862182097E+01 -0.96027447515E+01  0.15112836023E+02  0.51100000000E-03 0.  1.
        -12    1    3    3    0    0 -0.11196352100E+02 -0.22588754536E+02 -0.14128439816E+02  0.28900223934E+02  0.00000000000E+00 0.  1.
</event>
<event>
 7    1  0.1193961E-011  0.5930196E+02  0.7816164E-02  0.1266605E+00
        -11   -1    0    0    0    0  0.00000000000E+00  0.00000000000E+00  0.45593999997E+02  0.45594000000E+02  0.51100000000E-03 0. -1.
         11   -1    0    0    0    0 -0.00000000000E+00 -0.00000000000E+00 -0.45593999997E+02  0.45594000000E+02  0.51100000000E-03 0.  1.
    9900012    2    1    2    0    0 -0.65315720604E+01  0.28437682415E+02  0.12859102871E+02  0.59301956951E+02  0.50000023569E+02 0.  0.
         12    1    1    2    0    0  0.65315720604E+01 -0.28437682415E+02 -0.12859102871E+02  0.31886043049E+02  0.00000000000E+00 0. -1.
         11    1    3    3    0    0 -0.11375538872E+02  0.17322147794E+02  0.16447723728E+02  0.26457273195E+02  0.51100000000E-03 0. -1.
        -11    1    3    3    0    0 -0.68390302727E+01  0.15834524026E+02 -0.86137301306E+01  0.19279544425E+02  0.51100000000E-03 0.  1.
        -12    1    3    3    0    0  0.11682997084E+02 -0.47189894051E+01  0.50251092730E+01  0.13565139331E+02  0.00000000000E+00 0.  1.
</event>
<event>
 7    1  0.1193961E-011  0.5930196E+02  0.7816164E-02  0.1266605E+00
        -11   -1    0    0    0    0  0.00000000000E+00  0.00000000000E+00  0.45593999997E+02  0.45594000000E+02  0.51100000000E-03 0.  1.
         11   -1    0    0    0    0 -0.00000000000E+00 -0.00000000000E+00 -0.45593999997E+02  0.45594000000E+02  0.51100000000E-03 0. -1.
    9900012    2    1    2    0    0 -0.18628260322E+02 -0.11437246836E+02  0.23214150141E+02  0.59301961291E+02  0.50000031483E+02 0.  0.
         12    1    1    2    0    0  0.18628260322E+02  0.11437246836E+02 -0.23214150141E+02  0.31886038709E+02  0.00000000000E+00 0. -1.
         11    1    3    3    0    0 -0.19961941479E+02 -0.19002731501E+02  0.21739359548E+02  0.35102459543E+02  0.51100000000E-03 0. -1.
        -11    1    3    3    0    0  0.78155584390E+01 -0.41535510241E+01  0.52432569777E+01  0.10287209720E+02  0.51100000000E-03 0.  1.
        -12    1    3    3    0    0 -0.64818772815E+01  0.11719035689E+02 -0.37684663850E+01  0.13912292028E+02  0.00000000000E+00 0.  1.
</event>
<event>
 7    1  0.1193961E-011  0.5930194E+02  0.7816164E-02  0.1266605E+00
        -11   -1    0    0    0    0  0.00000000000E+00  0.00000000000E+00  0.45593999997E+02  0.45594000000E+02  0.51100000000E-03 0.  1.
         11   -1    0    0    0    0 -0.00000000000E+00 -0.00000000000E+00 -0.45593999997E+02  0.45594000000E+02  0.51100000000E-03 0. -1.
    9900012    2    1    2    0    0  0.12741217591E+02  0.27261226839E+02 -0.10545511807E+02  0.59301938252E+02  0.49999989467E+02 0.  0.
         12    1    1    2    0    0 -0.12741217591E+02 -0.27261226839E+02  0.10545511807E+02  0.31886061748E+02  0.00000000000E+00 0. -1.
         11    1    3    3    0    0 -0.61621126939E+01 -0.12238994657E+01  0.22574488777E+01  0.66757500291E+01  0.51100000000E-03 0. -1.
        -11    1    3    3    0    0  0.18260184298E+02 -0.20185719657E+01  0.24178157932E+01  0.18529835316E+02  0.51100000000E-03 0.  1.
         12    1    3    3    0    0  0.64314598729E+00  0.30503698271E+02 -0.15220776478E+02  0.34096352907E+02  0.00000000000E+00 0. -1.
</event>
<event>
 7    1  0.1193961E-011  0.5930194E+02  0.7816164E-02  0.1266605E+00
        -11   -1    0    0    0    0  0.00000000000E+00  0.00000000000E+00  0.45593999997E+02  0.45594000000E+02  0.51100000000E-03 0.  1.
         11   -1    0    0    0    0 -0.00000000000E+00 -0.00000000000E+00 -0.45593999997E+02  0.45594000000E+02  0.51100000000E-03 0. -1.
    9900012    2    1    2    0    0 -0.10100998269E+02  0.15551342381E+02  0.25939283487E+02  0.59301939664E+02  0.49999992043E+02 0.  0.
         12    1    1    2    0    0  0.10100998269E+02 -0.15551342381E+02 -0.25939283487E+02  0.31886060336E+02  0.00000000000E+00 0. -1.
         11    1    3    3    0    0 -0.20787022471E+02  0.23674634818E+02  0.13974754083E+02  0.34465669715E+02  0.51100000000E-03 0. -1.
        -11    1    3    3    0    0  0.44641866402E+01  0.53087246438E+01  0.32662160700E+01  0.76667912049E+01  0.51100000000E-03 0.  1.
        -12    1    3    3    0    0  0.62218375617E+01 -0.13432017081E+02  0.86983133345E+01  0.17169478745E+02  0.00000000000E+00 0.  1.
</event>
<event>
 7    1  0.1193961E-011  0.5930194E+02  0.7816164E-02  0.1266605E+00
        -11   -1    0    0    0    0  0.00000000000E+00  0.00000000000E+00  0.45593999997E+02  0.45594000000E+02  0.51100000000E-03 0. -1.
         11   -1    0    0    0    0 -0.00000000000E+00 -0.00000000000E+00 -0.45593999997E+02  0.45594000000E+02  0.51100000000E-03 0.  1.
    9900012    2    1    2    0    0 -0.80731233935E+01  0.30795318509E+02  0.17872157105E+01  0.59301935592E+02  0.49999984616E+02 0.  0.
         12    1    1    2    0    0  0.80731233935E+01 -0.30795318509E+02 -0.17872157105E+01  0.31886064408E+02  0.00000000000E+00 0. -1.
         11    1    3    3    0    0  0.24090835870E+01  0.26142126283E+01 -0.90496430187E+01  0.97228509411E+01  0.51100000000E-03 0. -1.
        -11    1    3    3    0    0 -0.10733755589E+02  0.35253130122E+02  0.25838496489E+00  0.36851912508E+02  0.51100000000E-03 0.  1.
         12    1    3    3    0    0  0.25154860853E+00 -0.70720242416E+01  0.10578473764E+02  0.12727172143E+02  0.00000000000E+00 0. -1.
</event>
<event>
 7    1  0.1193961E-011  0.5930193E+02  0.7816164E-02  0.1266605E+00
        -11   -1    0    0    0    0  0.00000000000E+00  0.00000000000E+00  0.45593999997E+02  0.45594000000E+02  0.51100000000E-03 0.  1.
         11   -1    0    0    0    0 -0.00000000000E+00 -0.00000000000E+00 -0.45593999997E+02  0.45594000000E+02  0.51100000000E-03 0. -1.
    9900012    2    1    2    0    0 -0.19366348147E+02  0.21014408667E+02  0.14144278387E+02  0.59301930576E+02  0.49999975468E+02 0.  0.
         12    1    1    2    0    0  0.19366348147E+02 -0.21014408667E+02 -0.14144278387E+02  0.31886069424E+02  0.00000000000E+00 0. -1.
         11    1    3    3    0    0  0.91536185689E+01  0.99886131595E+01 -0.60180113868E+01  0.14824897540E+02  0.51100000000E-03 0. -1.
        -11    1    3    3    0    0 -0.76221005798E+01  0.12321456420E+02 -0.12334138318E+01  0.14540839573E+02  0.51100000000E-03 0.  1.
        -12    1    3    3    0    0 -0.20897866136E+02 -0.12956609124E+01  0.21395703606E+02  0.29936193463E+02  0.00000000000E+00 0.  1.
</event>
<event>
 7    1  0.1193961E-011  0.5930193E+02  0.7816164E-02  0.1266605E+00
        -11   -1    0    0    0    0  0.00000000000E+00  0.00000000000E+00  0.45593999997E+02  0.45594000000E+02  0.51100000000E-03 0.  1.
         11   -1    0    0    0    0 -0.00000000000E+00 -0.00000000000E+00 -0.45593999997E+02  0.45594000000E+02  0.51100000000E-03 0. -1.
    9900012    2    1    2    0    0 -0.29398462768E+02  0.55378936205E+01  0.11035562593E+02  0.59301929050E+02  0.49999972684E+02 0.  0.
         12    1    1    2    0    0  0.29398462768E+02 -0.55378936205E+01 -0.11035562593E+02  0.31886070950E+02  0.00000000000E+00 0. -1.
         11    1    3    3    0    0 -0.14280704166E+02  0.81141742282E+01  0.10134289678E+02  0.19299796953E+02  0.51100000000E-03 0. -1.
        -11    1    3    3    0    0 -0.20398954905E+02  0.54608663976E+01  0.12807104175E+02  0.24697375177E+02  0.51100000000E-03 0.  1.
         12    1    3    3    0    0  0.52811963031E+01 -0.80371470053E+01 -0.11905831260E+02  0.15304756920E+02  0.00000000000E+00 0. -1.
</event>
<event>
 7    1  0.1193961E-011  0.5930201E+02  0.7816164E-02  0.1266605E+00
        -11   -1    0    0    0    0  0.00000000000E+00  0.00000000000E+00  0.45593999997E+02  0.45594000000E+02  0.51100000000E-03 0. -1.
         11   -1    0    0    0    0 -0.00000000000E+00 -0.00000000000E+00 -0.45593999997E+02  0.45594000000E+02  0.51100000000E-03 0.  1.
    9900012    2    1    2    0    0 -0.18138997742E+02  0.26216921502E+02 -0.60526107222E+00  0.59302006945E+02  0.50000114746E+02 0.  0.
         12    1    1    2    0    0  0.18138997742E+02 -0.26216921502E+02  0.60526107222E+00  0.31885993055E+02  0.00000000000E+00 0. -1.
         11    1    3    3    0    0 -0.24091616041E+02  0.17408459044E+02  0.72864983941E+00  0.29731991870E+02  0.51100000000E-03 0. -1.
        -11    1    3    3    0    0 -0.41388671403E+01  0.15908250983E+02  0.25498989783E+01  0.16634441848E+02  0.51100000000E-03 0.  1.
        -12    1    3    3    0    0  0.10091485438E+02 -0.70997885246E+01 -0.38838098899E+01  0.12935573227E+02  0.00000000000E+00 0.  1.
</event>
<event>
 7    1  0.1193961E-011  0.5930194E+02  0.7816164E-02  0.1266605E+00
        -11   -1    0    0    0    0  0.00000000000E+00  0.00000000000E+00  0.45593999997E+02  0.45594000000E+02  0.51100000000E-03 0.  1.
         11   -1    0    0    0    0 -0.00000000000E+00 -0.00000000000E+00 -0.45593999997E+02  0.45594000000E+02  0.51100000000E-03 0. -1.
    9900012    2    1    2    0    0 -0.25269009451E+02 -0.22377834391E+00  0.19446021086E+02  0.59301942679E+02  0.49999997540E+02 0.  0.
         12    1    1    2    0    0  0.25269009451E+02  0.22377834391E+00 -0.19446021086E+02  0.31886057321E+02  0.00000000000E+00 0. -1.
         11    1    3    3    0    0 -0.82470183881E+01 -0.57817378055E+01 -0.88231894085E+00  0.10110405102E+02  0.51100000000E-03 0. -1.
        -11    1    3    3    0    0 -0.28589533193E+02  0.55481923841E+01  0.43205337050E+01  0.29441651766E+02  0.51100000000E-03 0.  1.
         12    1    3    3    0    0  0.11567542130E+02  0.97670774649E-02  0.16007806322E+02  0.19749885812E+02  0.00000000000E+00 0. -1.
</event>
<event>
 7    1  0.1193961E-011  0.5930193E+02  0.7816164E-02  0.1266605E+00
        -11   -1    0    0    0    0  0.00000000000E+00  0.00000000000E+00  0.45593999997E+02  0.45594000000E+02  0.51100000000E-03 0.  1.
         11   -1    0    0    0    0 -0.00000000000E+00 -0.00000000000E+00 -0.45593999997E+02  0.45594000000E+02  0.51100000000E-03 0. -1.
    9900012    2    1    2    0    0  0.24308693071E+02  0.14398530409E+02  0.14781451362E+02  0.59301928729E+02  0.49999972098E+02 0.  0.
         12    1    1    2    0    0 -0.24308693071E+02 -0.14398530409E+02 -0.14781451362E+02  0.31886071271E+02  0.00000000000E+00 0. -1.
         11    1    3    3    0    0  0.78152921430E+01  0.18527970016E+02  0.56195376716E+00  0.20116666138E+02  0.51100000000E-03 0. -1.
        -11    1    3    3    0    0  0.21681112478E+02  0.79284828124E+01  0.11453754427E+02  0.25770525193E+02  0.51100000000E-03 0.  1.
        -12    1    3    3    0    0 -0.51877115499E+01 -0.12057922419E+02  0.27657431679E+01  0.13414737398E+02  0.00000000000E+00 0.  1.
</event>
<event>
 7    1  0.1193961E-011  0.5930194E+02  0.7816164E-02  0.1266605E+00
        -11   -1    0    0    0    0  0.00000000000E+00  0.00000000000E+00  0.45593999997E+02  0.45594000000E+02  0.51100000000E-03 0.  1.
         11   -1    0    0    0    0 -0.00000000000E+00 -0.00000000000E+00 -0.45593999997E+02  0.45594000000E+02  0.51100000000E-03 0. -1.
    9900012    2    1    2    0    0  0.28078637061E+02  0.85928178687E+01  0.12428771587E+02  0.59301941271E+02  0.49999994972E+02 0.  0.
         12    1    1    2    0    0 -0.28078637061E+02 -0.85928178687E+01 -0.12428771587E+02  0.31886058729E+02  0.00000000000E+00 0. -1.
         11    1    3    3    0    0  0.28087843624E+02  0.11632821639E+02 -0.60531580964E+01  0.30998229335E+02  0.51100000000E-03 0. -1.
        -11    1    3    3    0    0 -0.34432887291E+01 -0.77373718904E+01 -0.46668371433E+00  0.84818014002E+01  0.51100000000E-03 0.  1.
        -12    1    3    3    0    0  0.34340821657E+01  0.46973681203E+01  0.18948613398E+02  0.19821910535E+02  0.00000000000E+00 0.  1.
</event>
<event>
 7    1  0.1193961E-011  0.5930194E+02  0.7816164E-02  0.1266605E+00
        -11   -1    0    0    0    0  0.00000000000E+00  0.00000000000E+00  0.45593999997E+02  0.45594000000E+02  0.51100000000E-03 0.  1.
         11   -1    0    0    0    0 -0.00000000000E+00 -0.00000000000E+00 -0.45593999997E+02  0.45594000000E+02  0.51100000000E-03 0. -1.
    9900012    2    1    2    0    0 -0.11331838434E+02 -0.31252166543E+01  0.29640230974E+02  0.59301939823E+02  0.49999992331E+02 0.  0.
         12    1    1    2    0    0  0.11331838434E+02  0.31252166543E+01 -0.29640230974E+02  0.31886060177E+02  0.00000000000E+00 0. -1.
         11    1    3    3    0    0  0.32728696216E+01 -0.49044820192E+01 -0.75628222968E+01  0.95896767824E+01  0.51100000000E-03 0. -1.
        -11    1    3    3    0    0  0.60099168765E+01  0.92603704439E+01  0.12111479089E+02  0.16387845728E+02  0.51100000000E-03 0.  1.
        -12    1    3    3    0    0 -0.20614624932E+02 -0.74811050791E+01  0.25091574182E+02  0.33324417313E+02  0.00000000000E+00 0.  1.
</event>
<event>
 7    1  0.1193961E-011  0.5930194E+02  0.7816164E-02  0.1266605E+00
        -11   -1    0    0    0    0  0.00000000000E+00  0.00000000000E+00  0.45593999997E+02  0.45594000000E+02  0.51100000000E-03 0.  1.
         11   -1    0    0    0    0 -0.00000000000E+00 -0.00000000000E+00 -0.45593999997E+02  0.45594000000E+02  0.51100000000E-03 0. -1.
    9900012    2    1    2    0    0  0.29433795206E+02 -0.11999694982E+02  0.25258934339E+01  0.59301935371E+02  0.49999984212E+02 0.  0.
         12    1    1    2    0    0 -0.29433795206E+02  0.11999694982E+02 -0.25258934339E+01  0.31886064629E+02  0.00000000000E+00 0. -1.
         11    1    3    3    0    0  0.28408704704E+02  0.53094280372E+01 -0.19717399528E+01  0.28967780166E+02  0.51100000000E-03 0. -1.
        -11    1    3    3    0    0  0.47720986039E+01 -0.79014934391E+01 -0.93764081367E+01  0.13157642398E+02  0.51100000000E-03 0.  1.
         12    1    3    3    0    0 -0.37470081014E+01 -0.94076295796E+01  0.13874041524E+02  0.17176512807E+02  0.00000000000E+00 0. -1.
</event>
<event>
 7    1  0.1193961E-011  0.5930195E+02  0.7816164E-02  0.1266605E+00
        -11   -1    0    0    0    0  0.00000000000E+00  0.00000000000E+00  0.45593999997E+02  0.45594000000E+02  0.51100000000E-03 0.  1.
         11   -1    0    0    0    0 -0.00000000000E+00 -0.00000000000E+00 -0.45593999997E+02  0.45594000000E+02  0.51100000000E-03 0. -1.
    9900012    2    1    2    0    0  0.18363444978E+01 -0.30479869550E+02 -0.91829079766E+01  0.59301946500E+02  0.50000004509E+02 0.  0.
         12    1    1    2    0    0 -0.18363444978E+01  0.30479869550E+02  0.91829079766E+01  0.31886053500E+02  0.00000000000E+00 0. -1.
         11    1    3    3    0    0  0.14933480415E+01 -0.24559381345E+02 -0.69689685522E+01  0.25572638178E+02  0.51100000000E-03 0. -1.
        -11    1    3    3    0    0 -0.14478504156E+02 -0.21081604813E+01  0.66195597767E+01  0.16058953736E+02  0.51100000000E-03 0.  1.
         12    1    3    3    0    0  0.14821500612E+02 -0.38123277238E+01 -0.88334992011E+01  0.17670354586E+02  0.00000000000E+00 0. -1.
</event>
<event>
 7    1  0.1193961E-011  0.5930195E+02  0.7816164E-02  0.1266605E+00
        -11   -1    0    0    0    0  0.00000000000E+00  0.00000000000E+00  0.45593999997E+02  0.45594000000E+02  0.51100000000E-03 0.  1.
         11   -1    0    0    0    0 -0.00000000000E+00 -0.00000000000E+00 -0.45593999997E+02  0.45594000000E+02  0.51100000000E-03 0. -1.
    9900012    2    1    2    0    0 -0.21011861050E+02 -0.10898540141E+02  0.21364539668E+02  0.59301952311E+02  0.50000015108E+02 0.  0.
         12    1    1    2    0    0  0.21011861050E+02  0.10898540141E+02 -0.21364539668E+02  0.31886047689E+02  0.00000000000E+00 0. -1.
         11    1    3    3    0    0 -0.43320638687E-01  0.29511427989E+01 -0.97229186501E+00  0.31074864809E+01  0.51100000000E-03 0. -1.
        -11    1    3    3    0    0 -0.32966436275E+02 -0.86469841746E+01  0.49509840358E+01  0.34439345220E+02  0.51100000000E-03 0.  1.
         12    1    3    3    0    0  0.11997895864E+02 -0.52026987651E+01  0.17385847497E+02  0.21755120611E+02  0.00000000000E+00 0. -1.
</event>
<event>
 7    1  0.1193961E-011  0.5930190E+02  0.7816164E-02  0.1266605E+00
        -11   -1    0    0    0    0  0.00000000000E+00  0.00000000000E+00  0.45593999997E+02  0.45594000000E+02  0.51100000000E-03 0.  1.
         11   -1    0    0    0    0 -0.00000000000E+00 -0.00000000000E+00 -0.45593999997E+02  0.45594000000E+02  0.51100000000E-03 0. -1.
    9900012    2    1    2    0    0  0.25963300602E+02  0.18390308338E+02  0.21039838451E+01  0.59301903234E+02  0.49999925602E+02 0.  0.
         12    1    1    2    0    0 -0.25963300602E+02 -0.18390308338E+02 -0.21039838451E+01  0.31886096766E+02  0.00000000000E+00 0. -1.
         11    1    3    3    0    0 -0.71577843230E+01  0.35506787583E+00  0.46176915274E+01  0.85254340015E+01  0.51100000000E-03 0. -1.
        -11    1    3    3    0    0  0.21702017055E+02 -0.66938068321E+01  0.32294633374E+01  0.22939355437E+02  0.51100000000E-03 0.  1.
         12    1    3    3    0    0  0.11419067870E+02  0.24729047294E+02 -0.57431710196E+01  0.27837113796E+02  0.00000000000E+00 0. -1.
</event>
<event>
 7    1  0.1193961E-011  0.5930208E+02  0.7816164E-02  0.1266604E+00
        -11   -1    0    0    0    0  0.00000000000E+00  0.00000000000E+00  0.45593999997E+02  0.45594000000E+02  0.51100000000E-03 0. -1.
         11   -1    0    0    0    0 -0.00000000000E+00 -0.00000000000E+00 -0.45593999997E+02  0.45594000000E+02  0.51100000000E-03 0.  1.
    9900012    2    1    2    0    0  0.31021282952E+01  0.12667046350E+02 -0.29096988190E+02  0.59302078578E+02  0.50000245387E+02 0.  0.
         12    1    1    2    0    0 -0.31021282952E+01 -0.12667046350E+02  0.29096988190E+02  0.31885921422E+02  0.00000000000E+00 0. -1.
         11    1    3    3    0    0 -0.29399045663E+01  0.24406755773E+00 -0.97752818032E+01  0.10210717038E+02  0.51100000000E-03 0. -1.
        -11    1    3    3    0    0 -0.16642625451E+02  0.91871773535E+01 -0.17935038768E+02  0.26135164539E+02  0.51100000000E-03 0.  1.
        -12    1    3    3    0    0  0.22684658312E+02  0.32358014390E+01 -0.13866676192E+01  0.22956197002E+02  0.00000000000E+00 0.  1.
</event>
<event>
 7    1  0.1193961E-011  0.5930194E+02  0.7816164E-02  0.1266605E+00
        -11   -1    0    0    0    0  0.00000000000E+00  0.00000000000E+00  0.45593999997E+02  0.45594000000E+02  0.51100000000E-03 0. -1.
         11   -1    0    0    0    0 -0.00000000000E+00 -0.00000000000E+00 -0.45593999997E+02  0.45594000000E+02  0.51100000000E-03 0.  1.
    9900012    2    1    2    0    0  0.86850066869E+01  0.66715622223E+01 -0.29946311137E+02  0.59301942947E+02  0.49999998030E+02 0.  0.
         12    1    1    2    0    0 -0.86850066869E+01 -0.66715622223E+01  0.29946311137E+02  0.31886057053E+02  0.00000000000E+00 0. -1.
         11    1    3    3    0    0 -0.62471336997E+01 -0.30718712532E+01  0.42147578922E+00  0.69742895380E+01  0.51100000000E-03 0. -1.
        -11    1    3    3    0    0  0.97939309084E+01  0.71419142076E+01 -0.39618130860E+02  0.41430958404E+02  0.51100000000E-03 0.  1.
         12    1    3    3    0    0  0.51382094782E+01  0.26015192679E+01  0.92503439338E+01  0.10896695005E+02  0.00000000000E+00 0. -1.
</event>
<event>
 7    1  0.1193961E-011  0.5930192E+02  0.7816164E-02  0.1266605E+00
        -11   -1    0    0    0    0  0.00000000000E+00  0.00000000000E+00  0.45593999997E+02  0.45594000000E+02  0.51100000000E-03 0.  1.
         11   -1    0    0    0    0 -0.00000000000E+00 -0.00000000000E+00 -0.45593999997E+02  0.45594000000E+02  0.51100000000E-03 0. -1.
    9900012    2    1    2    0    0  0.17621799634E+02  0.53870858606E+01  0.26022554387E+02  0.59301923834E+02  0.49999963172E+02 0.  0.
         12    1    1    2    0    0 -0.17621799634E+02 -0.53870858606E+01 -0.26022554387E+02  0.31886076166E+02  0.00000000000E+00 0. -1.
         11    1    3    3    0    0  0.15632017564E+02 -0.40913853422E+01  0.32995714833E+01  0.16492015625E+02  0.51100000000E-03 0. -1.
        -11    1    3    3    0    0  0.10514088527E+02 -0.90753334735E+01  0.16278910237E+02  0.21398847025E+02  0.51100000000E-03 0.  1.
        -12    1    3    3    0    0 -0.85243064569E+01  0.18553804676E+02  0.64440726667E+01  0.21411061185E+02  0.00000000000E+00 0.  1.
</event>
<event>
 7    1  0.1193961E-011  0.5930200E+02  0.7816164E-02  0.1266605E+00
        -11   -1    0    0    0    0  0.00000000000E+00  0.00000000000E+00  0.45593999997E+02  0.45594000000E+02  0.51100000000E-03 0. -1.
         11   -1    0    0    0    0 -0.00000000000E+00 -0.00000000000E+00 -0.45593999997E+02  0.45594000000E+02  0.51100000000E-03 0.  1.
    9900012    2    1    2    0    0  0.37995025413E+01 -0.27177320955E+02 -0.16238050633E+02  0.59301995512E+02  0.50000093894E+02 0.  0.
         12    1    1    2    0    0 -0.37995025413E+01  0.27177320955E+02  0.16238050633E+02  0.31886004488E+02  0.00000000000E+00 0. -1.
         11    1    3    3    0    0  0.26677126113E+01  0.13266049367E+01 -0.81014255319E+01  0.86318982353E+01  0.51100000000E-03 0. -1.
        -11    1    3    3    0    0 -0.17860425196E+01 -0.27633495536E+02 -0.22691027732E+02  0.35800597246E+02  0.51100000000E-03 0.  1.
        -12    1    3    3    0    0  0.29178324496E+01 -0.87043035591E+00  0.14554402631E+02  0.14869500030E+02  0.00000000000E+00 0.  1.
</event>
<event>
 7    1  0.1193961E-011  0.5930196E+02  0.7816164E-02  0.1266605E+00
        -11   -1    0    0    0    0  0.00000000000E+00  0.00000000000E+00  0.45593999997E+02  0.45594000000E+02  0.51100000000E-03 0. -1.
         11   -1    0    0    0    0 -0.00000000000E+00 -0.00000000000E+00 -0.45593999997E+02  0.45594000000E+02  0.51100000000E-03 0.  1.
    9900012    2    1    2    0    0  0.12453921656E+01  0.77803352443E+01 -0.30897163310E+02  0.59301963577E+02  0.50000035653E+02 0.  0.
         12    1    1    2    0    0 -0.12453921656E+01 -0.77803352443E+01  0.30897163310E+02  0.31886036423E+02  0.00000000000E+00 0. -1.
         11    1    3    3    0    0 -0.98018511604E+01  0.62439572218E+01 -0.21593799883E+02  0.24522550471E+02  0.51100000000E-03 0. -1.
        -11    1    3    3    0    0 -0.87472110128E+01 -0.74900942798E+01 -0.52217303091E+01  0.12644432787E+02  0.51100000000E-03 0.  1.
         12    1    3    3    0    0  0.19794454339E+02  0.90264723024E+01 -0.40816331185E+01  0.22134980319E+02  0.00000000000E+00 0. -1.
</event>
<event>
 7    1  0.1193961E-011  0.5930200E+02  0.7816164E-02  0.1266605E+00
        -11   -1    0    0    0    0  0.00000000000E+00  0.00000000000E+00  0.45593999997E+02  0.45594000000E+02  0.51100000000E-03 0.  1.
         11   -1    0    0    0    0 -0.00000000000E+00 -0.00000000000E+00 -0.45593999997E+02  0.45594000000E+02  0.51100000000E-03 0. -1.
    9900012    2    1    2    0    0 -0.33465679721E+00 -0.29969971299E+02  0.10881457807E+02  0.59301995251E+02  0.50000093419E+02 0.  0.
         12    1    1    2    0    0  0.33465679721E+00  0.29969971299E+02 -0.10881457807E+02  0.31886004749E+02  0.00000000000E+00 0. -1.
         11    1    3    3    0    0 -0.86142810196E+01 -0.12434358792E+00  0.42214685594E+01  0.95938571947E+01  0.51100000000E-03 0. -1.
        -11    1    3    3    0    0  0.30121036188E+01 -0.35329189192E+02 -0.49793107907E+01  0.35805277731E+02  0.51100000000E-03 0.  1.
         12    1    3    3    0    0  0.52675206036E+01  0.54835614813E+01  0.11639300039E+02  0.13902860325E+02  0.00000000000E+00 0. -1.
</event>
<event>
 7    1  0.1193961E-011  0.5930195E+02  0.7816164E-02  0.1266605E+00
        -11   -1    0    0    0    0  0.00000000000E+00  0.00000000000E+00  0.45593999997E+02  0.45594000000E+02  0.51100000000E-03 0.  1.
         11   -1    0    0    0    0 -0.00000000000E+00 -0.00000000000E+00 -0.45593999997E+02  0.45594000000E+02  0.51100000000E-03 0. -1.
    9900012    2    1    2    0    0  0.11252221262E+02 -0.19060507596E+02  0.22952225155E+02  0.59301951755E+02  0.50000014092E+02 0.  0.
         12    1    1    2    0    0 -0.11252221262E+02  0.19060507596E+02 -0.22952225155E+02  0.31886048245E+02  0.00000000000E+00 0. -1.
         11    1    3    3    0    0  0.79342430138E+01 -0.96484875695E+01  0.78965500509E+01  0.14778397327E+02  0.51100000000E-03 0. -1.
        -11    1    3    3    0    0  0.18001370112E+02 -0.10656844327E+02  0.20038105082E+02  0.28967970458E+02  0.51100000000E-03 0.  1.
         12    1    3    3    0    0 -0.14683391864E+02  0.12448243009E+01 -0.49824299778E+01  0.15555583970E+02  0.00000000000E+00 0. -1.
</event>
<event>
 7    1  0.1193961E-011  0.5930194E+02  0.7816164E-02  0.1266605E+00
        -11   -1    0    0    0    0  0.00000000000E+00  0.00000000000E+00  0.45593999997E+02  0.45594000000E+02  0.51100000000E-03 0.  1.
         11   -1    0    0    0    0 -0.00000000000E+00 -0.00000000000E+00 -0.45593999997E+02  0.45594000000E+02  0.51100000000E-03 0. -1.
    9900012    2    1    2    0    0  0.18268352618E+02 -0.40750870859E+01  0.25814370308E+02  0.59301941031E+02  0.49999994536E+02 0.  0.
         12    1    1    2    0    0 -0.18268352618E+02  0.40750870859E+01 -0.25814370308E+02  0.31886058969E+02  0.00000000000E+00 0. -1.
         11    1    3    3    0    0 -0.83559160558E+01 -0.19252175717E+01 -0.24374509742E+01  0.89145366309E+01  0.51100000000E-03 0. -1.
        -11    1    3    3    0    0 -0.75044628663E+01 -0.74379485501E-02  0.57169058010E+01  0.94339827450E+01  0.51100000000E-03 0.  1.
         12    1    3    3    0    0  0.34128731540E+02 -0.21424315657E+01  0.22534915482E+02  0.40953421656E+02  0.00000000000E+00 0. -1.
</event>
<event>
 7    1  0.1193961E-011  0.5930199E+02  0.7816164E-02  0.1266605E+00
        -11   -1    0    0    0    0  0.00000000000E+00  0.00000000000E+00  0.45593999997E+02  0.45594000000E+02  0.51100000000E-03 0. -1.
         11   -1    0    0    0    0 -0.00000000000E+00 -0.00000000000E+00 -0.45593999997E+02  0.45594000000E+02  0.51100000000E-03 0.  1.
    9900012    2    1    2    0    0 -0.10712141718E+02  0.29858219436E+02  0.32333653932E+01  0.59301985827E+02  0.50000076233E+02 0.  0.
         12    1    1    2    0    0  0.10712141718E+02 -0.29858219436E+02 -0.32333653932E+01  0.31886014173E+02  0.00000000000E+00 0. -1.
         11    1    3    3    0    0 -0.21732316492E+02  0.16267339174E+02 -0.41800668885E+01  0.27466213124E+02  0.51100000000E-03 0. -1.
        -11    1    3    3    0    0  0.89246674797E+01  0.42881454485E+01 -0.86549450244E+01  0.13150891781E+02  0.51100000000E-03 0.  1.
        -12    1    3    3    0    0  0.20955072947E+01  0.93027348131E+01  0.16068377306E+02  0.18684880922E+02  0.00000000000E+00 0.  1.
</event>
<event>
 7    1  0.1193961E-011  0.5930195E+02  0.7816164E-02  0.1266605E+00
        -11   -1    0    0    0    0  0.00000000000E+00  0.00000000000E+00  0.45593999997E+02  0.45594000000E+02  0.51100000000E-03 0.  1.
         11   -1    0    0    0    0 -0.00000000000E+00 -0.00000000000E+00 -0.45593999997E+02  0.45594000000E+02  0.51100000000E-03 0. -1.
    9900012    2    1    2    0    0  0.23228298917E+02 -0.12828748485E+01  0.21806433336E+02  0.59301950178E+02  0.50000011216E+02 0.  0.
         12    1    1    2    0    0 -0.23228298917E+02  0.12828748485E+01 -0.21806433336E+02  0.31886049822E+02  0.00000000000E+00 0. -1.
         11    1    3    3    0    0  0.45866518231E+01 -0.42839026727E+01  0.14292066810E+01  0.64367560971E+01  0.51100000000E-03 0. -1.
        -11    1    3    3    0    0  0.21565593971E+02 -0.53320528865E+01 -0.76377158723E+01  0.23491282113E+02  0.51100000000E-03 0.  1.
         12    1    3    3    0    0 -0.29239468776E+01  0.83330807106E+01  0.28014942527E+02  0.29373911968E+02  0.00000000000E+00 0. -1.
</event>
<event>
 7    1  0.1193961E-011  0.5930196E+02  0.7816164E-02  0.1266605E+00
        -11   -1    0    0    0    0  0.00000000000E+00  0.00000000000E+00  0.45593999997E+02  0.45594000000E+02  0.51100000000E-03 0.  1.
         11   -1    0    0    0    0 -0.00000000000E+00 -0.00000000000E+00 -0.45593999997E+02  0.45594000000E+02  0.51100000000E-03 0. -1.
    9900012    2    1    2    0    0  0.15259676495E+02  0.24416833971E+02  0.13699642258E+02  0.59301957507E+02  0.50000024582E+02 0.  0.
         12    1    1    2    0    0 -0.15259676495E+02 -0.24416833971E+02 -0.13699642258E+02  0.31886042493E+02  0.00000000000E+00 0. -1.
         11    1    3    3    0    0  0.86050470524E+01 -0.66231659871E+01 -0.24588425230E+01  0.11133690730E+02  0.51100000000E-03 0. -1.
        -11    1    3    3    0    0  0.33003666723E+01  0.59835928603E+01  0.21301289868E+02  0.22370533163E+02  0.51100000000E-03 0.  1.
         12    1    3    3    0    0  0.33542627706E+01  0.25056407098E+02 -0.51428050878E+01  0.25797733613E+02  0.00000000000E+00 0. -1.
</event>
<event>
 7    1  0.1193961E-011  0.5930186E+02  0.7816164E-02  0.1266605E+00
        -11   -1    0    0    0    0  0.00000000000E+00  0.00000000000E+00  0.45593999997E+02  0.45594000000E+02  0.51100000000E-03 0.  1.
         11   -1    0    0    0    0 -0.00000000000E+00 -0.00000000000E+00 -0.45593999997E+02  0.45594000000E+02  0.51100000000E-03 0. -1.
    9900012    2    1    2    0    0  0.16670503569E+02 -0.74767360899E+01  0.26132716017E+02  0.59301856956E+02  0.49999841202E+02 0.  0.
         12    1    1    2    0    0 -0.16670503569E+02  0.74767360899E+01 -0.26132716017E+02  0.31886143044E+02  0.00000000000E+00 0. -1.
         11    1    3    3    0    0  0.23052589577E+02 -0.11542211922E+01  0.17985291709E+02  0.29261319705E+02  0.51100000000E-03 0. -1.
        -11    1    3    3    0    0  0.44378142153E+01 -0.11645424486E+02  0.12080960275E+02  0.17356834616E+02  0.51100000000E-03 0.  1.
        -12    1    3    3    0    0 -0.10819900223E+02  0.53229095879E+01 -0.39335359670E+01  0.12683702635E+02  0.00000000000E+00 0.  1.
</event>
<event>
 7    1  0.1193961E-011  0.5930196E+02  0.7816164E-02  0.1266605E+00
        -11   -1    0    0    0    0  0.00000000000E+00  0.00000000000E+00  0.45593999997E+02  0.45594000000E+02  0.51100000000E-03 0. -1.
         11   -1    0    0    0    0 -0.00000000000E+00 -0.00000000000E+00 -0.45593999997E+02  0.45594000000E+02  0.51100000000E-03 0.  1.
    9900012    2    1    2    0    0 -0.13784907874E+02  0.20625875955E+02 -0.20031708154E+02  0.59301956414E+02  0.50000022589E+02 0.  0.
         12    1    1    2    0    0  0.13784907874E+02 -0.20625875955E+02  0.20031708154E+02  0.31886043586E+02  0.00000000000E+00 0. -1.
         11    1    3    3    0    0 -0.23206767692E+01 -0.31508573976E+01  0.19221894095E+01  0.43598457993E+01  0.51100000000E-03 0. -1.
        -11    1    3    3    0    0 -0.85342203155E+01 -0.32735483205E+00 -0.28534078016E+02  0.29784789508E+02  0.51100000000E-03 0.  1.
         12    1    3    3    0    0 -0.29300107896E+01  0.24104088185E+02  0.65801804525E+01  0.25157321106E+02  0.00000000000E+00 0. -1.
</event>
<event>
 7    1  0.1193961E-011  0.5930191E+02  0.7816164E-02  0.1266605E+00
        -11   -1    0    0    0    0  0.00000000000E+00  0.00000000000E+00  0.45593999997E+02  0.45594000000E+02  0.51100000000E-03 0. -1.
         11   -1    0    0    0    0 -0.00000000000E+00 -0.00000000000E+00 -0.45593999997E+02  0.45594000000E+02  0.51100000000E-03 0.  1.
    9900012    2    1    2    0    0  0.29392713582E+02 -0.35007697078E+01 -0.11854779629E+02  0.59301908984E+02  0.49999936089E+02 0.  0.
         12    1    1    2    0    0 -0.29392713582E+02  0.35007697078E+01  0.11854779629E+02  0.31886091016E+02  0.00000000000E+00 0. -1.
         11    1    3    3    0    0  0.41463991482E+01 -0.46465534322E+01  0.13738412648E+01  0.63773446494E+01  0.51100000000E-03 0. -1.
        -11    1    3    3    0    0  0.38215032338E+02  0.15408138648E+01 -0.91727536669E+01  0.39330677773E+02  0.51100000000E-03 0.  1.
         12    1    3    3    0    0 -0.12968717905E+02 -0.39503014040E+00 -0.40558672266E+01  0.13593886562E+02  0.00000000000E+00 0. -1.
</event>
<event>
 7    1  0.1193961E-011  0.5930195E+02  0.7816164E-02  0.1266605E+00
        -11   -1    0    0    0    0  0.00000000000E+00  0.00000000000E+00  0.45593999997E+02  0.45594000000E+02  0.51100000000E-03 0.  1.
         11   -1    0    0    0    0 -0.00000000000E+00 -0.00000000000E+00 -0.45593999997E+02  0.45594000000E+02  0.51100000000E-03 0. -1.
    9900012    2    1    2    0    0 -0.17628131196E+02  0.56436016582E+01  0.25963802202E+02  0.59301948600E+02  0.50000008338E+02 0.  0.
         12    1    1    2    0    0  0.17628131196E+02 -0.56436016582E+01 -0.25963802202E+02  0.31886051400E+02  0.00000000000E+00 0. -1.
         11    1    3    3    0    0 -0.19690075252E+02  0.11650712948E+02 -0.58852235055E+01  0.23623590574E+02  0.51100000000E-03 0.  1.
        -11    1    3    3    0    0 -0.29092163448E+00  0.16624778279E+01 -0.93336494246E+00  0.19286363842E+01  0.51100000000E-03 0. -1.
        -12    1    3    3    0    0  0.23528656911E+01 -0.76695891173E+01  0.32782390649E+02  0.33749721642E+02  0.00000000000E+00 0.  1.
</event>
<event>
 7    1  0.1193961E-011  0.5930194E+02  0.7816164E-02  0.1266605E+00
        -11   -1    0    0    0    0  0.00000000000E+00  0.00000000000E+00  0.45593999997E+02  0.45594000000E+02  0.51100000000E-03 0. -1.
         11   -1    0    0    0    0 -0.00000000000E+00 -0.00000000000E+00 -0.45593999997E+02  0.45594000000E+02  0.51100000000E-03 0.  1.
    9900012    2    1    2    0    0 -0.21881840254E+02 -0.39149826873E+01  0.22859985647E+02  0.59301937745E+02  0.49999988542E+02 0.  0.
         12    1    1    2    0    0  0.21881840254E+02  0.39149826873E+01 -0.22859985647E+02  0.31886062255E+02  0.00000000000E+00 0. -1.
         11    1    3    3    0    0  0.47791115241E-01 -0.69008194121E+01 -0.16073146454E+01  0.70856935567E+01  0.51100000000E-03 0. -1.
        -11    1    3    3    0    0 -0.12042257955E+02 -0.14030688015E+02 -0.26827054263E+01  0.18683497838E+02  0.51100000000E-03 0.  1.
        -12    1    3    3    0    0 -0.98873734150E+01  0.17016524740E+02  0.27150005718E+02  0.33532746350E+02  0.00000000000E+00 0.  1.
</event>
<event>
 7    1  0.1193961E-011  0.5930194E+02  0.7816164E-02  0.1266605E+00
        -11   -1    0    0    0    0  0.00000000000E+00  0.00000000000E+00  0.45593999997E+02  0.45594000000E+02  0.51100000000E-03 0. -1.
         11   -1    0    0    0    0 -0.00000000000E+00 -0.00000000000E+00 -0.45593999997E+02  0.45594000000E+02  0.51100000000E-03 0.  1.
    9900012    2    1    2    0    0 -0.23963199166E+02 -0.17502990284E+02 -0.11667533698E+02  0.59301938378E+02  0.49999989696E+02 0.  0.
         12    1    1    2    0    0  0.23963199166E+02  0.17502990284E+02  0.11667533698E+02  0.31886061622E+02  0.00000000000E+00 0. -1.
         11    1    3    3    0    0 -0.22675017905E+02 -0.67513057753E+01  0.69419805086E+01  0.24656189088E+02  0.51100000000E-03 0. -1.
        -11    1    3    3    0    0 -0.54520337714E+01  0.26940465999E+01  0.45150362704E+01  0.75741740217E+01  0.51100000000E-03 0.  1.
        -12    1    3    3    0    0  0.41638525104E+01 -0.13445731109E+02 -0.23124550477E+02  0.27071575269E+02  0.00000000000E+00 0.  1.
</event>
<event>
 7    1  0.1193961E-011  0.5930186E+02  0.7816164E-02  0.1266605E+00
        -11   -1    0    0    0    0  0.00000000000E+00  0.00000000000E+00  0.45593999997E+02  0.45594000000E+02  0.51100000000E-03 0. -1.
         11   -1    0    0    0    0 -0.00000000000E+00 -0.00000000000E+00 -0.45593999997E+02  0.45594000000E+02  0.51100000000E-03 0.  1.
    9900012    2    1    2    0    0  0.17141894330E+02 -0.24921178009E+02 -0.10090390966E+02  0.59301864386E+02  0.49999854752E+02 0.  0.
         12    1    1    2    0    0 -0.17141894330E+02  0.24921178009E+02  0.10090390966E+02  0.31886135614E+02  0.00000000000E+00 0. -1.
         11    1    3    3    0    0 -0.15895911329E+01  0.13178729318E+01  0.12591631909E+02  0.12759811262E+02  0.51100000000E-03 0. -1.
        -11    1    3    3    0    0  0.17696239258E+02 -0.16422152822E+02 -0.27483746777E+01  0.24298097679E+02  0.51100000000E-03 0.  1.
        -12    1    3    3    0    0  0.10352462047E+01 -0.98168981182E+01 -0.19933648197E+02  0.22243955445E+02  0.00000000000E+00 0.  1.
</event>
<event>
 7    1  0.1193961E-011  0.5930196E+02  0.7816164E-02  0.1266605E+00
        -11   -1    0    0    0    0  0.00000000000E+00  0.00000000000E+00  0.45593999997E+02  0.45594000000E+02  0.51100000000E-03 0. -1.
         11   -1    0    0    0    0 -0.00000000000E+00 -0.00000000000E+00 -0.45593999997E+02  0.45594000000E+02  0.51100000000E-03 0.  1.
    9900012    2    1    2    0    0 -0.72997527394E+01 -0.31035548497E+02 -0.47770724141E+00  0.59301955015E+02  0.50000020039E+02 0.  0.
         12    1    1    2    0    0  0.72997527394E+01  0.31035548497E+02  0.47770724141E+00  0.31886044985E+02  0.00000000000E+00 0. -1.
         11    1    3    3    0    0  0.86167310770E+01 -0.56307392086E+01 -0.76816530118E+01  0.12843717209E+02  0.51100000000E-03 0. -1.
        -11    1    3    3    0    0 -0.54196341907E+01  0.11104706523E+01 -0.11218094578E+02  0.12508046452E+02  0.51100000000E-03 0.  1.
         12    1    3    3    0    0 -0.10496849626E+02 -0.26515279941E+02  0.18422040348E+02  0.33950191354E+02  0.00000000000E+00 0. -1.
</event>
<event>
 7    1  0.1193961E-011  0.5930196E+02  0.7816164E-02  0.1266605E+00
        -11   -1    0    0    0    0  0.00000000000E+00  0.00000000000E+00  0.45593999997E+02  0.45594000000E+02  0.51100000000E-03 0.  1.
         11   -1    0    0    0    0 -0.00000000000E+00 -0.00000000000E+00 -0.45593999997E+02  0.45594000000E+02  0.51100000000E-03 0. -1.
    9900012    2    1    2    0    0 -0.21027950945E+02  0.22693747324E+02  0.77161096795E+01  0.59301964857E+02  0.50000037987E+02 0.  0.
         12    1    1    2    0    0  0.21027950945E+02 -0.22693747324E+02 -0.77161096795E+01  0.31886035143E+02  0.00000000000E+00 0. -1.
         11    1    3    3    0    0  0.13755704939E+01 -0.60085162539E+01 -0.76094412703E+01  0.97927554071E+01  0.51100000000E-03 0. -1.
        -11    1    3    3    0    0 -0.12367023240E+02  0.27363595986E+00 -0.47912596888E+01  0.13265530902E+02  0.51100000000E-03 0.  1.
        -12    1    3    3    0    0 -0.10036498199E+02  0.28428627618E+02  0.20116810639E+02  0.36243678547E+02  0.00000000000E+00 0.  1.
</event>
<event>
 7    1  0.1193961E-011  0.5930195E+02  0.7816164E-02  0.1266605E+00
        -11   -1    0    0    0    0  0.00000000000E+00  0.00000000000E+00  0.45593999997E+02  0.45594000000E+02  0.51100000000E-03 0.  1.
         11   -1    0    0    0    0 -0.00000000000E+00 -0.00000000000E+00 -0.45593999997E+02  0.45594000000E+02  0.51100000000E-03 0. -1.
    9900012    2    1    2    0    0 -0.18434806050E+02 -0.52704089465E+01  0.25477461948E+02  0.59301947377E+02  0.50000006109E+02 0.  0.
         12    1    1    2    0    0  0.18434806050E+02  0.52704089465E+01 -0.25477461948E+02  0.31886052623E+02  0.00000000000E+00 0. -1.
         11    1    3    3    0    0  0.26184284860E+01 -0.49435783915E+01  0.22035647463E+02  0.22734662839E+02  0.51100000000E-03 0.  1.
        -11    1    3    3    0    0  0.68510246941E+01 -0.26206339864E+01 -0.28522457507E+01  0.78701694984E+01  0.51100000000E-03 0. -1.
        -12    1    3    3    0    0 -0.27904259230E+02  0.22938034314E+01  0.62940602358E+01  0.28697115040E+02  0.00000000000E+00 0.  1.
</event>
<event>
 7    1  0.1193961E-011  0.5930186E+02  0.7816164E-02  0.1266605E+00
        -11   -1    0    0    0    0  0.00000000000E+00  0.00000000000E+00  0.45593999997E+02  0.45594000000E+02  0.51100000000E-03 0.  1.
         11   -1    0    0    0    0 -0.00000000000E+00 -0.00000000000E+00 -0.45593999997E+02  0.45594000000E+02  0.51100000000E-03 0. -1.
    9900012    2    1    2    0    0 -0.36388181252E+01  0.19763353613E+02 -0.24756708335E+02  0.59301862715E+02  0.49999851705E+02 0.  0.
         12    1    1    2    0    0  0.36388181252E+01 -0.19763353613E+02  0.24756708335E+02  0.31886137285E+02  0.00000000000E+00 0. -1.
         11    1    3    3    0    0 -0.57990449991E+01 -0.70868613892E+01 -0.45259538457E+01  0.10214537959E+02  0.51100000000E-03 0. -1.
        -11    1    3    3    0    0 -0.10562460197E+02  0.74203567811E+01  0.58435492987E+01  0.14169485836E+02  0.51100000000E-03 0.  1.
         12    1    3    3    0    0  0.12722687071E+02  0.19429858221E+02 -0.26074303788E+02  0.34917838920E+02  0.00000000000E+00 0. -1.
</event>
<event>
 7    1  0.1193961E-011  0.5930196E+02  0.7816164E-02  0.1266605E+00
        -11   -1    0    0    0    0  0.00000000000E+00  0.00000000000E+00  0.45593999997E+02  0.45594000000E+02  0.51100000000E-03 0. -1.
         11   -1    0    0    0    0 -0.00000000000E+00 -0.00000000000E+00 -0.45593999997E+02  0.45594000000E+02  0.51100000000E-03 0.  1.
    9900012    2    1    2    0    0  0.76342266814E+01  0.24492039053E+02  0.18936165110E+02  0.59301956924E+02  0.50000023519E+02 0.  0.
         12    1    1    2    0    0 -0.76342266814E+01 -0.24492039053E+02 -0.18936165110E+02  0.31886043076E+02  0.00000000000E+00 0. -1.
         11    1    3    3    0    0 -0.26385043136E+01  0.10372349540E+02 -0.37729245263E+01  0.11348228925E+02  0.51100000000E-03 0. -1.
        -11    1    3    3    0    0  0.45948991683E-01 -0.11694929915E+02 -0.58574665126E+00  0.11709679604E+02  0.51100000000E-03 0.  1.
         12    1    3    3    0    0  0.10226782003E+02  0.25814619427E+02  0.23294836288E+02  0.36244048394E+02  0.00000000000E+00 0. -1.
</event>
<event>
 7    1  0.1193961E-011  0.5930199E+02  0.7816164E-02  0.1266605E+00
        -11   -1    0    0    0    0  0.00000000000E+00  0.00000000000E+00  0.45593999997E+02  0.45594000000E+02  0.51100000000E-03 0.  1.
         11   -1    0    0    0    0 -0.00000000000E+00 -0.00000000000E+00 -0.45593999997E+02  0.45594000000E+02  0.51100000000E-03 0. -1.
    9900012    2    1    2    0    0  0.15884437730E+00  0.31205661752E+02  0.65497253500E+01  0.59301992739E+02  0.50000088837E+02 0.  0.
         12    1    1    2    0    0 -0.15884437730E+00 -0.31205661752E+02 -0.65497253500E+01  0.31886007261E+02  0.00000000000E+00 0. -1.
         11    1    3    3    0    0 -0.73866955660E+00  0.62440932094E+01 -0.49514933883E+01  0.80032255845E+01  0.51100000000E-03 0. -1.
        -11    1    3    3    0    0  0.10307698252E+02  0.29707980859E+02 -0.48781357567E+01  0.31821517542E+02  0.51100000000E-03 0.  1.
        -12    1    3    3    0    0 -0.94101843178E+01 -0.47464123163E+01  0.16379354495E+02  0.19477249612E+02  0.00000000000E+00 0.  1.
</event>
<event>
 7    1  0.1193961E-011  0.5930192E+02  0.7816164E-02  0.1266605E+00
        -11   -1    0    0    0    0  0.00000000000E+00  0.00000000000E+00  0.45593999997E+02  0.45594000000E+02  0.51100000000E-03 0. -1.
         11   -1    0    0    0    0 -0.00000000000E+00 -0.00000000000E+00 -0.45593999997E+02  0.45594000000E+02  0.51100000000E-03 0.  1.
    9900012    2    1    2    0    0  0.39928180773E+01 -0.31479830646E+02  0.31304600874E+01  0.59301919744E+02  0.49999955713E+02 0.  0.
         12    1    1    2    0    0 -0.39928180773E+01  0.31479830646E+02 -0.31304600874E+01  0.31886080256E+02  0.00000000000E+00 0. -1.
         11    1    3    3    0    0  0.10370369167E+02 -0.16317093826E+02 -0.15106777408E+01  0.19392634042E+02  0.51100000000E-03 0. -1.
        -11    1    3    3    0    0  0.73245396122E+01 -0.35520248067E+01 -0.12608082813E+02  0.15007648491E+02  0.51100000000E-03 0.  1.
         12    1    3    3    0    0 -0.13702090701E+02 -0.11610712013E+02  0.17249220641E+02  0.24901637211E+02  0.00000000000E+00 0. -1.
</event>
<event>
 7    1  0.1193961E-011  0.5930196E+02  0.7816164E-02  0.1266605E+00
        -11   -1    0    0    0    0  0.00000000000E+00  0.00000000000E+00  0.45593999997E+02  0.45594000000E+02  0.51100000000E-03 0. -1.
         11   -1    0    0    0    0 -0.00000000000E+00 -0.00000000000E+00 -0.45593999997E+02  0.45594000000E+02  0.51100000000E-03 0.  1.
    9900012    2    1    2    0    0  0.85482247165E+01 -0.24004044821E+02 -0.19169077709E+02  0.59301955187E+02  0.50000020352E+02 0.  0.
         12    1    1    2    0    0 -0.85482247165E+01  0.24004044821E+02  0.19169077709E+02  0.31886044813E+02  0.00000000000E+00 0. -1.
         11    1    3    3    0    0  0.36407645070E-01  0.66605413667E+01  0.42616063544E+01  0.79073020554E+01  0.51100000000E-03 0. -1.
        -11    1    3    3    0    0 -0.89363409186E+01  0.10988518907E+01 -0.17745497484E+01  0.91768563006E+01  0.51100000000E-03 0.  1.
        -12    1    3    3    0    0  0.17448157990E+02 -0.31763438079E+02 -0.21656134315E+02  0.42217796831E+02  0.00000000000E+00 0.  1.
</event>
<event>
 7    1  0.1193961E-011  0.5930194E+02  0.7816164E-02  0.1266605E+00
        -11   -1    0    0    0    0  0.00000000000E+00  0.00000000000E+00  0.45593999997E+02  0.45594000000E+02  0.51100000000E-03 0. -1.
         11   -1    0    0    0    0 -0.00000000000E+00 -0.00000000000E+00 -0.45593999997E+02  0.45594000000E+02  0.51100000000E-03 0.  1.
    9900012    2    1    2    0    0  0.33917958418E+01 -0.26476311801E+01 -0.31594403626E+02  0.59301943950E+02  0.49999999859E+02 0.  0.
         12    1    1    2    0    0 -0.33917958418E+01  0.26476311801E+01  0.31594403626E+02  0.31886056050E+02  0.00000000000E+00 0. -1.
         11    1    3    3    0    0  0.11555285667E+02 -0.89236826864E+01 -0.29849517602E+01  0.14901901785E+02  0.51100000000E-03 0. -1.
        -11    1    3    3    0    0 -0.34236336240E+01 -0.12970094333E+02 -0.72020520264E+01  0.15225444750E+02  0.51100000000E-03 0.  1.
        -12    1    3    3    0    0 -0.47398562011E+01  0.19246145839E+02 -0.21407399840E+02  0.29174597415E+02  0.00000000000E+00 0.  1.
</event>
<event>
 7    1  0.1193961E-011  0.5930191E+02  0.7816164E-02  0.1266605E+00
        -11   -1    0    0    0    0  0.00000000000E+00  0.00000000000E+00  0.45593999997E+02  0.45594000000E+02  0.51100000000E-03 0. -1.
         11   -1    0    0    0    0 -0.00000000000E+00 -0.00000000000E+00 -0.45593999997E+02  0.45594000000E+02  0.51100000000E-03 0.  1.
    9900012    2    1    2    0    0  0.18290337270E+02 -0.13158136052E+02 -0.22562124458E+02  0.59301914604E+02  0.49999946338E+02 0.  0.
         12    1    1    2    0    0 -0.18290337270E+02  0.13158136052E+02  0.22562124458E+02  0.31886085396E+02  0.00000000000E+00 0. -1.
         11    1    3    3    0    0 -0.32085542427E+01 -0.16146720181E+02 -0.34639131401E-01  0.16462460116E+02  0.51100000000E-03 0. -1.
        -11    1    3    3    0    0 -0.25110678115E+01 -0.88135790908E+01 -0.27465873603E+01  0.95670465836E+01  0.51100000000E-03 0.  1.
         12    1    3    3    0    0  0.24009959324E+02  0.11802163219E+02 -0.19780897966E+02  0.33272407905E+02  0.00000000000E+00 0. -1.
</event>
<event>
 7    1  0.1193961E-011  0.5930200E+02  0.7816164E-02  0.1266605E+00
        -11   -1    0    0    0    0  0.00000000000E+00  0.00000000000E+00  0.45593999997E+02  0.45594000000E+02  0.51100000000E-03 0.  1.
         11   -1    0    0    0    0 -0.00000000000E+00 -0.00000000000E+00 -0.45593999997E+02  0.45594000000E+02  0.51100000000E-03 0. -1.
    9900012    2    1    2    0    0  0.25335488912E+02 -0.18081091208E+02  0.69212660874E+01  0.59302003357E+02  0.50000108202E+02 0.  0.
         12    1    1    2    0    0 -0.25335488912E+02  0.18081091208E+02 -0.69212660874E+01  0.31885996643E+02  0.00000000000E+00 0. -1.
         11    1    3    3    0    0  0.82288538019E+01 -0.30706563574E+01  0.44977854456E+01  0.98677778418E+01  0.51100000000E-03 0. -1.
        -11    1    3    3    0    0  0.61049501068E+01  0.13037924313E+02  0.10989281389E+02  0.18111382938E+02  0.51100000000E-03 0.  1.
        -12    1    3    3    0    0  0.11001685003E+02 -0.28048359164E+02 -0.85658007475E+01  0.31322842577E+02  0.00000000000E+00 0.  1.
</event>
<event>
 7    1  0.1193961E-011  0.5930197E+02  0.7816164E-02  0.1266605E+00
        -11   -1    0    0    0    0  0.00000000000E+00  0.00000000000E+00  0.45593999997E+02  0.45594000000E+02  0.51100000000E-03 0. -1.
         11   -1    0    0    0    0 -0.00000000000E+00 -0.00000000000E+00 -0.45593999997E+02  0.45594000000E+02  0.51100000000E-03 0.  1.
    9900012    2    1    2    0    0  0.15437784556E+02 -0.20243317728E+02 -0.19199013301E+02  0.59301965183E+02  0.50000038582E+02 0.  0.
         12    1    1    2    0    0 -0.15437784556E+02  0.20243317728E+02  0.19199013301E+02  0.31886034817E+02  0.00000000000E+00 0. -1.
         11    1    3    3    0    0  0.12388541490E+02 -0.49780588938E+01  0.18785709281E+01  0.13482806073E+02  0.51100000000E-03 0. -1.
        -11    1    3    3    0    0  0.10914041202E+02  0.76803172227E+01  0.49958203591E+00  0.13354892380E+02  0.51100000000E-03 0.  1.
        -12    1    3    3    0    0 -0.78647981360E+01 -0.22945576057E+02 -0.21577166265E+02  0.32464266730E+02  0.00000000000E+00 0.  1.
</event>
<event>
 7    1  0.1193961E-011  0.5930196E+02  0.7816164E-02  0.1266605E+00
        -11   -1    0    0    0    0  0.00000000000E+00  0.00000000000E+00  0.45593999997E+02  0.45594000000E+02  0.51100000000E-03 0.  1.
         11   -1    0    0    0    0 -0.00000000000E+00 -0.00000000000E+00 -0.45593999997E+02  0.45594000000E+02  0.51100000000E-03 0. -1.
    9900012    2    1    2    0    0  0.22812110106E+02  0.16852280412E+02  0.14571479603E+02  0.59301956965E+02  0.50000023595E+02 0.  0.
         12    1    1    2    0    0 -0.22812110106E+02 -0.16852280412E+02 -0.14571479603E+02  0.31886043035E+02  0.00000000000E+00 0. -1.
         11    1    3    3    0    0  0.54498129007E+01  0.11073001019E+02 -0.26770775060E+01  0.12628481954E+02  0.51100000000E-03 0. -1.
        -11    1    3    3    0    0  0.21655026880E+02  0.27591565337E+01  0.27527006702E+02  0.35132452692E+02  0.51100000000E-03 0.  1.
         12    1    3    3    0    0 -0.42927296749E+01  0.30201228589E+01 -0.10278449592E+02  0.11541022319E+02  0.00000000000E+00 0. -1.
</event>
<event>
 7    1  0.1193961E-011  0.5930196E+02  0.7816164E-02  0.1266605E+00
        -11   -1    0    0    0    0  0.00000000000E+00  0.00000000000E+00  0.45593999997E+02  0.45594000000E+02  0.51100000000E-03 0.  1.
         11   -1    0    0    0    0 -0.00000000000E+00 -0.00000000000E+00 -0.45593999997E+02  0.45594000000E+02  0.51100000000E-03 0. -1.
    9900012    2    1    2    0    0  0.24264618454E+02  0.61060789095E+01  0.19765217484E+02  0.59301957120E+02  0.50000023877E+02 0.  0.
         12    1    1    2    0    0 -0.24264618454E+02 -0.61060789095E+01 -0.19765217484E+02  0.31886042880E+02  0.00000000000E+00 0. -1.
         11    1    3    3    0    0  0.77746132168E+01  0.78670730709E+01  0.23086534180E+02  0.25599287296E+02  0.51100000000E-03 0. -1.
        -11    1    3    3    0    0 -0.17021198719E+01 -0.54006851188E+01  0.95638141177E+01  0.11114456917E+02  0.51100000000E-03 0.  1.
         12    1    3    3    0    0  0.18192125109E+02  0.36396909575E+01 -0.12885130813E+02  0.22588212907E+02  0.00000000000E+00 0. -1.
</event>
<event>
 7    1  0.1193961E-011  0.5930192E+02  0.7816164E-02  0.1266605E+00
        -11   -1    0    0    0    0  0.00000000000E+00  0.00000000000E+00  0.45593999997E+02  0.45594000000E+02  0.51100000000E-03 0.  1.
         11   -1    0    0    0    0 -0.00000000000E+00 -0.00000000000E+00 -0.45593999997E+02  0.45594000000E+02  0.51100000000E-03 0. -1.
    9900012    2    1    2    0    0  0.87451984718E+01 -0.13777181504E+02  0.27394033030E+02  0.59301917265E+02  0.49999951192E+02 0.  0.
         12    1    1    2    0    0 -0.87451984718E+01  0.13777181504E+02 -0.27394033030E+02  0.31886082735E+02  0.00000000000E+00 0. -1.
         11    1    3    3    0    0  0.49044287643E+01 -0.55024076478E+00 -0.52331750034E+01  0.71932125841E+01  0.51100000000E-03 0. -1.
        -11    1    3    3    0    0 -0.16974515372E+02 -0.77601644344E+01  0.19012411172E+02  0.26642561870E+02  0.51100000000E-03 0.  1.
         12    1    3    3    0    0  0.20815285079E+02 -0.54667763051E+01  0.13614796861E+02  0.25466142811E+02  0.00000000000E+00 0. -1.
</event>
<event>
 7    1  0.1193961E-011  0.5930195E+02  0.7816164E-02  0.1266605E+00
        -11   -1    0    0    0    0  0.00000000000E+00  0.00000000000E+00  0.45593999997E+02  0.45594000000E+02  0.51100000000E-03 0.  1.
         11   -1    0    0    0    0 -0.00000000000E+00 -0.00000000000E+00 -0.45593999997E+02  0.45594000000E+02  0.51100000000E-03 0. -1.
    9900012    2    1    2    0    0 -0.19988372442E+02  0.82896389827E+01  0.23419376226E+02  0.59301947718E+02  0.50000006730E+02 0.  0.
         12    1    1    2    0    0  0.19988372442E+02 -0.82896389827E+01 -0.23419376226E+02  0.31886052282E+02  0.00000000000E+00 0. -1.
         11    1    3    3    0    0 -0.32162521596E+02 -0.11137182672E+01  0.17522606309E+02  0.36643006098E+02  0.51100000000E-03 0. -1.
        -11    1    3    3    0    0  0.62457261870E+01  0.74206016360E+01 -0.43704642291E+01  0.10638391894E+02  0.51100000000E-03 0.  1.
        -12    1    3    3    0    0  0.59284229672E+01  0.19827556139E+01  0.10267234146E+02  0.12020549726E+02  0.00000000000E+00 0.  1.
</event>
<event>
 7    1  0.1193961E-011  0.5930203E+02  0.7816164E-02  0.1266604E+00
        -11   -1    0    0    0    0  0.00000000000E+00  0.00000000000E+00  0.45593999997E+02  0.45594000000E+02  0.51100000000E-03 0. -1.
         11   -1    0    0    0    0 -0.00000000000E+00 -0.00000000000E+00 -0.45593999997E+02  0.45594000000E+02  0.51100000000E-03 0.  1.
    9900012    2    1    2    0    0  0.15342535695E+02 -0.15791983765E+02 -0.23063717253E+02  0.59302028064E+02  0.50000153262E+02 0.  0.
         12    1    1    2    0    0 -0.15342535695E+02  0.15791983765E+02  0.23063717253E+02  0.31885971936E+02  0.00000000000E+00 0. -1.
         11    1    3    3    0    0  0.76728631210E+01 -0.59086578337E+01 -0.17214290605E+02  0.19751376336E+02  0.51100000000E-03 0.  1.
        -11    1    3    3    0    0  0.76689111421E+01 -0.14877269232E+02 -0.19096606501E+02  0.25393418794E+02  0.51100000000E-03 0. -1.
         12    1    3    3    0    0  0.76143220149E-03  0.49939433009E+01  0.13247179854E+02  0.14157232934E+02  0.00000000000E+00 0. -1.
</event>
<event>
 7    1  0.1193961E-011  0.5930194E+02  0.7816164E-02  0.1266605E+00
        -11   -1    0    0    0    0  0.00000000000E+00  0.00000000000E+00  0.45593999997E+02  0.45594000000E+02  0.51100000000E-03 0.  1.
         11   -1    0    0    0    0 -0.00000000000E+00 -0.00000000000E+00 -0.45593999997E+02  0.45594000000E+02  0.51100000000E-03 0. -1.
    9900012    2    1    2    0    0  0.27703987083E+02  0.15007649127E+02 -0.48969839611E+01  0.59301939024E+02  0.49999990875E+02 0.  0.
         12    1    1    2    0    0 -0.27703987083E+02 -0.15007649127E+02  0.48969839611E+01  0.31886060976E+02  0.00000000000E+00 0. -1.
         11    1    3    3    0    0 -0.14611691167E+01 -0.48138893574E+01 -0.81592507123E+00  0.50964968278E+01  0.51100000000E-03 0. -1.
        -11    1    3    3    0    0  0.13453340238E+02  0.13934997822E+02 -0.22232948242E+02  0.29486955008E+02  0.51100000000E-03 0.  1.
        -12    1    3    3    0    0  0.15711815962E+02  0.58865406627E+01  0.18151889352E+02  0.24718487188E+02  0.00000000000E+00 0.  1.
</event>
<event>
 7    1  0.1193961E-011  0.5930195E+02  0.7816164E-02  0.1266605E+00
        -11   -1    0    0    0    0  0.00000000000E+00  0.00000000000E+00  0.45593999997E+02  0.45594000000E+02  0.51100000000E-03 0. -1.
         11   -1    0    0    0    0 -0.00000000000E+00 -0.00000000000E+00 -0.45593999997E+02  0.45594000000E+02  0.51100000000E-03 0.  1.
    9900012    2    1    2    0    0 -0.26576719176E+02 -0.63369047341E+01  0.16439034298E+02  0.59301949564E+02  0.50000010097E+02 0.  0.
         12    1    1    2    0    0  0.26576719176E+02  0.63369047341E+01 -0.16439034298E+02  0.31886050436E+02  0.00000000000E+00 0. -1.
         11    1    3    3    0    0 -0.23781148220E+02 -0.69046514911E+00  0.18025146612E+02  0.29848377902E+02  0.51100000000E-03 0. -1.
        -11    1    3    3    0    0 -0.77294342551E+01 -0.60005279948E+01  0.11714051141E+02  0.15263337922E+02  0.51100000000E-03 0.  1.
        -12    1    3    3    0    0  0.49338632988E+01  0.35408840981E+00 -0.13300163455E+02  0.14190233740E+02  0.00000000000E+00 0.  1.
</event>
<event>
 7    1  0.1193961E-011  0.5930187E+02  0.7816164E-02  0.1266605E+00
        -11   -1    0    0    0    0  0.00000000000E+00  0.00000000000E+00  0.45593999997E+02  0.45594000000E+02  0.51100000000E-03 0.  1.
         11   -1    0    0    0    0 -0.00000000000E+00 -0.00000000000E+00 -0.45593999997E+02  0.45594000000E+02  0.51100000000E-03 0. -1.
    9900012    2    1    2    0    0 -0.13690481914E+02 -0.24562712695E+02  0.15032268990E+02  0.59301870398E+02  0.49999865718E+02 0.  0.
         12    1    1    2    0    0  0.13690481914E+02  0.24562712695E+02 -0.15032268990E+02  0.31886129602E+02  0.00000000000E+00 0. -1.
         11    1    3    3    0    0 -0.13058590898E+02 -0.70324074980E+01  0.13454763434E+01  0.14892678010E+02  0.51100000000E-03 0. -1.
        -11    1    3    3    0    0 -0.11225550113E+02 -0.19103886217E+02  0.21714974046E+02  0.31024370131E+02  0.51100000000E-03 0.  1.
        -12    1    3    3    0    0  0.10593659097E+02  0.15735810202E+01 -0.80281813991E+01  0.13384822257E+02  0.00000000000E+00 0.  1.
</event>
<event>
 7    1  0.1193961E-011  0.5930194E+02  0.7816164E-02  0.1266605E+00
        -11   -1    0    0    0    0  0.00000000000E+00  0.00000000000E+00  0.45593999997E+02  0.45594000000E+02  0.51100000000E-03 0.  1.
         11   -1    0    0    0    0 -0.00000000000E+00 -0.00000000000E+00 -0.45593999997E+02  0.45594000000E+02  0.51100000000E-03 0. -1.
    9900012    2    1    2    0    0 -0.25781005293E+02  0.17981036373E+02 -0.53612252458E+01  0.59301942873E+02  0.49999997894E+02 0.  0.
         12    1    1    2    0    0  0.25781005293E+02 -0.17981036373E+02  0.53612252458E+01  0.31886057127E+02  0.00000000000E+00 0. -1.
         11    1    3    3    0    0 -0.12716310048E+02  0.50835284406E+01 -0.87776718534E+01  0.16266355648E+02  0.51100000000E-03 0. -1.
        -11    1    3    3    0    0 -0.23707992634E+02  0.14512568211E+02 -0.63356154811E+01  0.28510060936E+02  0.51100000000E-03 0.  1.
        -12    1    3    3    0    0  0.10643297388E+02 -0.16150602784E+01  0.97520620886E+01  0.14525526289E+02  0.00000000000E+00 0.  1.
</event>
<event>
 7    1  0.1193961E-011  0.5930195E+02  0.7816164E-02  0.1266605E+00
        -11   -1    0    0    0    0  0.00000000000E+00  0.00000000000E+00  0.45593999997E+02  0.45594000000E+02  0.51100000000E-03 0.  1.
         11   -1    0    0    0    0 -0.00000000000E+00 -0.00000000000E+00 -0.45593999997E+02  0.45594000000E+02  0.51100000000E-03 0. -1.
    9900012    2    1    2    0    0 -0.67937874434E+01 -0.69693971356E+01  0.30364321868E+02  0.59301951534E+02  0.50000013690E+02 0.  0.
         12    1    1    2    0    0  0.67937874434E+01  0.69693971356E+01 -0.30364321868E+02  0.31886048466E+02  0.00000000000E+00 0. -1.
         11    1    3    3    0    0 -0.40737632409E+01  0.18731102922E+02  0.12504457773E+02  0.22886922643E+02  0.51100000000E-03 0. -1.
        -11    1    3    3    0    0  0.25674940116E+01 -0.38867372862E+01 -0.31880704506E+01  0.56446918154E+01  0.51100000000E-03 0.  1.
        -12    1    3    3    0    0 -0.52875182141E+01 -0.21813762771E+02  0.21047934546E+02  0.30770337076E+02  0.00000000000E+00 0.  1.
</event>
<event>
 7    1  0.1193961E-011  0.5930192E+02  0.7816164E-02  0.1266605E+00
        -11   -1    0    0    0    0  0.00000000000E+00  0.00000000000E+00  0.45593999997E+02  0.45594000000E+02  0.51100000000E-03 0. -1.
         11   -1    0    0    0    0 -0.00000000000E+00 -0.00000000000E+00 -0.45593999997E+02  0.45594000000E+02  0.51100000000E-03 0.  1.
    9900012    2    1    2    0    0 -0.14842339845E+02  0.27095101905E+02 -0.78919079357E+01  0.59301924510E+02  0.49999964404E+02 0.  0.
         12    1    1    2    0    0  0.14842339845E+02 -0.27095101905E+02  0.78919079357E+01  0.31886075490E+02  0.00000000000E+00 0. -1.
         11    1    3    3    0    0 -0.65047916937E+01  0.28761206448E+02  0.12116169321E+02  0.31879787807E+02  0.51100000000E-03 0. -1.
        -11    1    3    3    0    0 -0.37403281335E+01  0.75596449434E+01 -0.94569148870E+01  0.12671682037E+02  0.51100000000E-03 0.  1.
        -12    1    3    3    0    0 -0.45972200183E+01 -0.92257494871E+01 -0.10551162369E+02  0.14750454666E+02  0.00000000000E+00 0.  1.
</event>
<event>
 7    1  0.1586994E-011  0.5930194E+02  0.7816164E-02  0.1266605E+00
        -11   -1    0    0    0    0  0.00000000000E+00  0.00000000000E+00  0.45593999997E+02  0.45594000000E+02  0.51100000000E-03 0. -1.
         11   -1    0    0    0    0 -0.00000000000E+00 -0.00000000000E+00 -0.45593999997E+02  0.45594000000E+02  0.51100000000E-03 0.  1.
    9900012    2    1    2    0    0  0.67215130778E+01 -0.14210201371E+02 -0.27741890116E+02  0.59301936770E+02  0.49999986764E+02 0.  0.
         12    1    1    2    0    0 -0.67215130778E+01  0.14210201371E+02  0.27741890116E+02  0.31886063230E+02  0.00000000000E+00 0. -1.
         11    1    3    3    0    0 -0.51041002129E-01 -0.15919674554E+02 -0.79386793955E+01  0.17789358445E+02  0.51100000000E-03 0. -1.
        -11    1    3    3    0    0 -0.33541135048E+00  0.10183406988E+01 -0.29472463776E+02  0.29491958902E+02  0.51100000000E-03 0.  1.
         12    1    3    3    0    0  0.71079654304E+01  0.69113248364E+00  0.96692530556E+01  0.12020619423E+02  0.00000000000E+00 0. -1.
</event>
<event>
 7    1  0.1193961E-011  0.5930195E+02  0.7816164E-02  0.1266605E+00
        -11   -1    0    0    0    0  0.00000000000E+00  0.00000000000E+00  0.45593999997E+02  0.45594000000E+02  0.51100000000E-03 0. -1.
         11   -1    0    0    0    0 -0.00000000000E+00 -0.00000000000E+00 -0.45593999997E+02  0.45594000000E+02  0.51100000000E-03 0.  1.
    9900012    2    1    2    0    0 -0.21563556399E+02  0.23477671813E+02 -0.72936895842E+00  0.59301952622E+02  0.50000015674E+02 0.  0.
         12    1    1    2    0    0  0.21563556399E+02 -0.23477671813E+02  0.72936895842E+00  0.31886047378E+02  0.00000000000E+00 0. -1.
         11    1    3    3    0    0  0.58699300313E+01  0.18685450539E+02 -0.35292843269E+00  0.19588943288E+02  0.51100000000E-03 0. -1.
        -11    1    3    3    0    0 -0.17429043352E+02  0.11014097858E+02 -0.11416496698E+02  0.23567314248E+02  0.51100000000E-03 0.  1.
         12    1    3    3    0    0 -0.10004443078E+02 -0.62218765827E+01  0.11040056172E+02  0.16145695086E+02  0.00000000000E+00 0. -1.
</event>
<event>
 7    1  0.1193961E-011  0.5930194E+02  0.7816164E-02  0.1266605E+00
        -11   -1    0    0    0    0  0.00000000000E+00  0.00000000000E+00  0.45593999997E+02  0.45594000000E+02  0.51100000000E-03 0.  1.
         11   -1    0    0    0    0 -0.00000000000E+00 -0.00000000000E+00 -0.45593999997E+02  0.45594000000E+02  0.51100000000E-03 0. -1.
    9900012    2    1    2    0    0  0.15255432783E+02  0.11972863717E+02  0.25310925924E+02  0.59301942449E+02  0.49999997121E+02 0.  0.
         12    1    1    2    0    0 -0.15255432783E+02 -0.11972863717E+02 -0.25310925924E+02  0.31886057551E+02  0.00000000000E+00 0. -1.
         11    1    3    3    0    0  0.53113412646E+01 -0.13280710410E+00 -0.95828154330E+01  0.10957113472E+02  0.51100000000E-03 0. -1.
        -11    1    3    3    0    0  0.19923852658E+02  0.53220571577E+01  0.16814899977E+02  0.26608740268E+02  0.51100000000E-03 0.  1.
         12    1    3    3    0    0 -0.99797611391E+01  0.67836136631E+01  0.18078841380E+02  0.21736088709E+02  0.00000000000E+00 0. -1.
</event>
<event>
 7    1  0.1193961E-011  0.5930190E+02  0.7816164E-02  0.1266605E+00
        -11   -1    0    0    0    0  0.00000000000E+00  0.00000000000E+00  0.45593999997E+02  0.45594000000E+02  0.51100000000E-03 0.  1.
         11   -1    0    0    0    0 -0.00000000000E+00 -0.00000000000E+00 -0.45593999997E+02  0.45594000000E+02  0.51100000000E-03 0. -1.
    9900012    2    1    2    0    0 -0.22717433727E+02  0.16373448481E+02  0.15249644118E+02  0.59301901838E+02  0.49999923055E+02 0.  0.
         12    1    1    2    0    0  0.22717433727E+02 -0.16373448481E+02 -0.15249644118E+02  0.31886098162E+02  0.00000000000E+00 0. -1.
         11    1    3    3    0    0  0.27133163418E+01  0.43418479274E+01 -0.51994997623E+01  0.72971588330E+01  0.51100000000E-03 0. -1.
        -11    1    3    3    0    0  0.37325511643E+01  0.47137926625E+01  0.21090177186E+02  0.21930511928E+02  0.51100000000E-03 0.  1.
         12    1    3    3    0    0 -0.29163301233E+02  0.73178078914E+01 -0.64103330506E+00  0.30074231076E+02  0.00000000000E+00 0. -1.
</event>
<event>
 7    1  0.1193961E-011  0.5930233E+02  0.7816164E-02  0.1266603E+00
        -11   -1    0    0    0    0  0.00000000000E+00  0.00000000000E+00  0.45593999997E+02  0.45594000000E+02  0.51100000000E-03 0.  1.
         11   -1    0    0    0    0 -0.00000000000E+00 -0.00000000000E+00 -0.45593999997E+02  0.45594000000E+02  0.51100000000E-03 0. -1.
    9900012    2    1    2    0    0 -0.17199120593E+02  0.55527929352E+01  0.26268852261E+02  0.59302331469E+02  0.50000706595E+02 0.  0.
         12    1    1    2    0    0  0.17199120593E+02 -0.55527929352E+01 -0.26268852261E+02  0.31885668531E+02  0.00000000000E+00 0. -1.
         11    1    3    3    0    0 -0.84292186384E+01 -0.39413851149E+01  0.54314044155E+01  0.10774339779E+02  0.51100000000E-03 0.  1.
        -11    1    3    3    0    0  0.68723125677E+01 -0.20635227180E+01 -0.98560737091E+01  0.12191349197E+02  0.51100000000E-03 0. -1.
         12    1    3    3    0    0 -0.15642214522E+02  0.11557700768E+02  0.30693521555E+02  0.36336642493E+02  0.00000000000E+00 0. -1.
</event>
<event>
 7    1  0.1193961E-011  0.5930199E+02  0.7816164E-02  0.1266605E+00
        -11   -1    0    0    0    0  0.00000000000E+00  0.00000000000E+00  0.45593999997E+02  0.45594000000E+02  0.51100000000E-03 0.  1.
         11   -1    0    0    0    0 -0.00000000000E+00 -0.00000000000E+00 -0.45593999997E+02  0.45594000000E+02  0.51100000000E-03 0. -1.
    9900012    2    1    2    0    0 -0.22505074889E+01  0.29994729221E+02 -0.10581552256E+02  0.59301987187E+02  0.50000078711E+02 0.  0.
         12    1    1    2    0    0  0.22505074889E+01 -0.29994729221E+02  0.10581552256E+02  0.31886012813E+02  0.00000000000E+00 0. -1.
         11    1    3    3    0    0 -0.54352830225E+01  0.11677166330E+02 -0.21405065048E+02  0.24981499655E+02  0.51100000000E-03 0. -1.
        -11    1    3    3    0    0 -0.35908523581E+01  0.14794420551E-01 -0.70144191334E+01  0.78801342357E+01  0.51100000000E-03 0.  1.
        -12    1    3    3    0    0  0.67756278917E+01  0.18302768471E+02  0.17837931926E+02  0.26440353296E+02  0.00000000000E+00 0.  1.
</event>
<event>
 7    1  0.1193961E-011  0.5930217E+02  0.7816164E-02  0.1266604E+00
        -11   -1    0    0    0    0  0.00000000000E+00  0.00000000000E+00  0.45593999997E+02  0.45594000000E+02  0.51100000000E-03 0.  1.
         11   -1    0    0    0    0 -0.00000000000E+00 -0.00000000000E+00 -0.45593999997E+02  0.45594000000E+02  0.51100000000E-03 0. -1.
    9900012    2    1    2    0    0 -0.19943236698E+02  0.19934994547E+02  0.14885215154E+02  0.59302167288E+02  0.50000407171E+02 0.  0.
         12    1    1    2    0    0  0.19943236698E+02 -0.19934994547E+02 -0.14885215154E+02  0.31885832712E+02  0.00000000000E+00 0. -1.
         11    1    3    3    0    0 -0.20117881026E-01  0.76488267515E+01  0.57581677276E+01  0.95739987072E+01  0.51100000000E-03 0. -1.
        -11    1    3    3    0    0  0.59829733681E+01  0.20656831977E+02  0.59816154642E+01  0.22322195265E+02  0.51100000000E-03 0.  1.
         12    1    3    3    0    0 -0.25906092185E+02 -0.83706641808E+01  0.31454319619E+01  0.27405973315E+02  0.00000000000E+00 0. -1.
</event>
<event>
 7    1  0.1193961E-011  0.5930194E+02  0.7816164E-02  0.1266605E+00
        -11   -1    0    0    0    0  0.00000000000E+00  0.00000000000E+00  0.45593999997E+02  0.45594000000E+02  0.51100000000E-03 0. -1.
         11   -1    0    0    0    0 -0.00000000000E+00 -0.00000000000E+00 -0.45593999997E+02  0.45594000000E+02  0.51100000000E-03 0.  1.
    9900012    2    1    2    0    0  0.26252157343E+02 -0.15655197956E+02 -0.90807341963E+01  0.59301941577E+02  0.49999995530E+02 0.  0.
         12    1    1    2    0    0 -0.26252157343E+02  0.15655197956E+02  0.90807341963E+01  0.31886058423E+02  0.00000000000E+00 0. -1.
         11    1    3    3    0    0  0.89617933686E+01 -0.82763792937E+01 -0.45538104047E+01  0.13021113011E+02  0.51100000000E-03 0. -1.
        -11    1    3    3    0    0  0.26844253662E+02 -0.31169179353E+01 -0.15472092110E+02  0.31140243522E+02  0.51100000000E-03 0.  1.
         12    1    3    3    0    0 -0.95538896870E+01 -0.42619007266E+01  0.10945168318E+02  0.15140585044E+02  0.00000000000E+00 0. -1.
</event>
<event>
 7    1  0.1193961E-011  0.5930194E+02  0.7816164E-02  0.1266605E+00
        -11   -1    0    0    0    0  0.00000000000E+00  0.00000000000E+00  0.45593999997E+02  0.45594000000E+02  0.51100000000E-03 0. -1.
         11   -1    0    0    0    0 -0.00000000000E+00 -0.00000000000E+00 -0.45593999997E+02  0.45594000000E+02  0.51100000000E-03 0.  1.
    9900012    2    1    2    0    0  0.28996275469E+02  0.12680105172E+02 -0.38925489043E+01  0.59301937289E+02  0.49999987710E+02 0.  0.
         12    1    1    2    0    0 -0.28996275469E+02 -0.12680105172E+02  0.38925489043E+01  0.31886062711E+02  0.00000000000E+00 0. -1.
         11    1    3    3    0    0  0.19545470863E+02  0.10182972964E+02 -0.25848862603E+01  0.22190088032E+02  0.51100000000E-03 0.  1.
        -11    1    3    3    0    0  0.10588923347E+02  0.84590857309E+01 -0.16145951770E+02  0.21080161002E+02  0.51100000000E-03 0. -1.
         12    1    3    3    0    0 -0.11381187411E+01 -0.59619535234E+01  0.14838289126E+02  0.16031688254E+02  0.00000000000E+00 0. -1.
</event>
<event>
 7    1  0.1193961E-011  0.5930194E+02  0.7816164E-02  0.1266605E+00
        -11   -1    0    0    0    0  0.00000000000E+00  0.00000000000E+00  0.45593999997E+02  0.45594000000E+02  0.51100000000E-03 0.  1.
         11   -1    0    0    0    0 -0.00000000000E+00 -0.00000000000E+00 -0.45593999997E+02  0.45594000000E+02  0.51100000000E-03 0. -1.
    9900012    2    1    2    0    0  0.72739334935E+01  0.17930984846E+02  0.25343454358E+02  0.59301937138E+02  0.49999987435E+02 0.  0.
         12    1    1    2    0    0 -0.72739334935E+01 -0.17930984846E+02 -0.25343454358E+02  0.31886062862E+02  0.00000000000E+00 0. -1.
         11    1    3    3    0    0 -0.75411244705E+01  0.18862937509E+02  0.10095788391E+02  0.22684882924E+02  0.51100000000E-03 0. -1.
        -11    1    3    3    0    0 -0.22358461560E+00  0.11990804178E+02  0.11138508576E+02  0.16367521146E+02  0.51100000000E-03 0.  1.
         12    1    3    3    0    0  0.15038642580E+02 -0.12922756841E+02  0.41091573915E+01  0.20249533068E+02  0.00000000000E+00 0. -1.
</event>
<event>
 7    1  0.1193961E-011  0.5930195E+02  0.7816164E-02  0.1266605E+00
        -11   -1    0    0    0    0  0.00000000000E+00  0.00000000000E+00  0.45593999997E+02  0.45594000000E+02  0.51100000000E-03 0.  1.
         11   -1    0    0    0    0 -0.00000000000E+00 -0.00000000000E+00 -0.45593999997E+02  0.45594000000E+02  0.51100000000E-03 0. -1.
    9900012    2    1    2    0    0  0.14780240028E+02  0.14384599299E+02  0.24317641800E+02  0.59301954541E+02  0.50000019174E+02 0.  0.
         12    1    1    2    0    0 -0.14780240028E+02 -0.14384599299E+02 -0.24317641800E+02  0.31886045459E+02  0.00000000000E+00 0. -1.
         11    1    3    3    0    0 -0.31243156491E+00  0.97457107139E+00  0.60442951052E+01  0.61303267316E+01  0.51100000000E-03 0.  1.
        -11    1    3    3    0    0 -0.90964632540E+01  0.17344327436E+02  0.20758179764E+02  0.28538979753E+02  0.51100000000E-03 0. -1.
         12    1    3    3    0    0  0.24189134847E+02 -0.39342992091E+01 -0.24848330690E+01  0.24632648057E+02  0.00000000000E+00 0. -1.
</event>
<event>
 7    1  0.1193961E-011  0.5930194E+02  0.7816164E-02  0.1266605E+00
        -11   -1    0    0    0    0  0.00000000000E+00  0.00000000000E+00  0.45593999997E+02  0.45594000000E+02  0.51100000000E-03 0.  1.
         11   -1    0    0    0    0 -0.00000000000E+00 -0.00000000000E+00 -0.45593999997E+02  0.45594000000E+02  0.51100000000E-03 0. -1.
    9900012    2    1    2    0    0  0.24104919749E+02 -0.70936135528E+01  0.19630443369E+02  0.59301940096E+02  0.49999992829E+02 0.  0.
         12    1    1    2    0    0 -0.24104919749E+02  0.70936135528E+01 -0.19630443369E+02  0.31886059904E+02  0.00000000000E+00 0. -1.
         11    1    3    3    0    0  0.74696772946E+01  0.10859418861E+02 -0.69999941464E+00  0.13198979367E+02  0.51100000000E-03 0. -1.
        -11    1    3    3    0    0  0.22810622620E+00  0.53306709294E+01 -0.54916804390E+01  0.76568034657E+01  0.51100000000E-03 0.  1.
        -12    1    3    3    0    0  0.16407136228E+02 -0.23283703343E+02  0.25822123223E+02  0.38446157263E+02  0.00000000000E+00 0.  1.
</event>
<event>
 7    1  0.1193961E-011  0.5930195E+02  0.7816164E-02  0.1266605E+00
        -11   -1    0    0    0    0  0.00000000000E+00  0.00000000000E+00  0.45593999997E+02  0.45594000000E+02  0.51100000000E-03 0.  1.
         11   -1    0    0    0    0 -0.00000000000E+00 -0.00000000000E+00 -0.45593999997E+02  0.45594000000E+02  0.51100000000E-03 0. -1.
    9900012    2    1    2    0    0  0.29891589294E+02 -0.92748385877E+01  0.60983752992E+01  0.59301954108E+02  0.50000018384E+02 0.  0.
         12    1    1    2    0    0 -0.29891589294E+02  0.92748385877E+01 -0.60983752992E+01  0.31886045892E+02  0.00000000000E+00 0. -1.
         11    1    3    3    0    0  0.13859019784E+02 -0.89098442507E+01  0.55962462124E+01  0.17400451887E+02  0.51100000000E-03 0. -1.
        -11    1    3    3    0    0  0.26557473286E+02 -0.52826105905E+01  0.78043605484E+01  0.28180017846E+02  0.51100000000E-03 0.  1.
         12    1    3    3    0    0 -0.10524903777E+02  0.49176162535E+01 -0.73022314615E+01  0.13721484375E+02  0.00000000000E+00 0. -1.
</event>
<event>
 7    1  0.1193961E-011  0.5930195E+02  0.7816164E-02  0.1266605E+00
        -11   -1    0    0    0    0  0.00000000000E+00  0.00000000000E+00  0.45593999997E+02  0.45594000000E+02  0.51100000000E-03 0.  1.
         11   -1    0    0    0    0 -0.00000000000E+00 -0.00000000000E+00 -0.45593999997E+02  0.45594000000E+02  0.51100000000E-03 0. -1.
    9900012    2    1    2    0    0  0.13796585602E+02  0.97766045263E+01  0.27033170855E+02  0.59301951377E+02  0.50000013403E+02 0.  0.
         12    1    1    2    0    0 -0.13796585602E+02 -0.97766045263E+01 -0.27033170855E+02  0.31886048623E+02  0.00000000000E+00 0. -1.
         11    1    3    3    0    0 -0.79157048646E+01 -0.48152985169E+01  0.90468349663E+01  0.12949544644E+02  0.51100000000E-03 0. -1.
        -11    1    3    3    0    0  0.95978199024E+01 -0.67831995282E+01 -0.49389675293E+01  0.12748464348E+02  0.51100000000E-03 0.  1.
        -12    1    3    3    0    0  0.12114470564E+02  0.21375102571E+02  0.22925303418E+02  0.33603942385E+02  0.00000000000E+00 0.  1.
</event>
<event>
 7    1  0.1193961E-011  0.5930180E+02  0.7816164E-02  0.1266605E+00
        -11   -1    0    0    0    0  0.00000000000E+00  0.00000000000E+00  0.45593999997E+02  0.45594000000E+02  0.51100000000E-03 0. -1.
         11   -1    0    0    0    0 -0.00000000000E+00 -0.00000000000E+00 -0.45593999997E+02  0.45594000000E+02  0.51100000000E-03 0.  1.
    9900012    2    1    2    0    0 -0.28883962807E+02  0.20651929293E+01 -0.13348464654E+02  0.59301798629E+02  0.49999734827E+02 0.  0.
         12    1    1    2    0    0  0.28883962807E+02 -0.20651929293E+01  0.13348464654E+02  0.31886201371E+02  0.00000000000E+00 0. -1.
         11    1    3    3    0    0  0.75936239872E+01 -0.12385274294E+02 -0.37265381658E+01  0.14998174274E+02  0.51100000000E-03 0. -1.
        -11    1    3    3    0    0 -0.16154589038E+02 -0.27207773665E+01 -0.60284823829E+01  0.17456115736E+02  0.51100000000E-03 0.  1.
        -12    1    3    3    0    0 -0.20322997755E+02  0.17171244590E+02 -0.35934441050E+01  0.26847508619E+02  0.00000000000E+00 0.  1.
</event>
<event>
 7    1  0.1193961E-011  0.5930193E+02  0.7816164E-02  0.1266605E+00
        -11   -1    0    0    0    0  0.00000000000E+00  0.00000000000E+00  0.45593999997E+02  0.45594000000E+02  0.51100000000E-03 0.  1.
         11   -1    0    0    0    0 -0.00000000000E+00 -0.00000000000E+00 -0.45593999997E+02  0.45594000000E+02  0.51100000000E-03 0. -1.
    9900012    2    1    2    0    0  0.15092840249E+02  0.66650089558E+01  0.27285620475E+02  0.59301933202E+02  0.49999980256E+02 0.  0.
         12    1    1    2    0    0 -0.15092840249E+02 -0.66650089558E+01 -0.27285620475E+02  0.31886066798E+02  0.00000000000E+00 0. -1.
         11    1    3    3    0    0  0.31016301399E+01  0.11768257358E+02  0.37033142635E+01  0.12721105596E+02  0.51100000000E-03 0.  1.
        -11    1    3    3    0    0 -0.81445061935E+01 -0.15088392641E+02  0.14049899951E+02  0.22167369319E+02  0.51100000000E-03 0. -1.
         12    1    3    3    0    0  0.20135716302E+02  0.99851442379E+01  0.95324062603E+01  0.24413458288E+02  0.00000000000E+00 0. -1.
</event>
<event>
 7    1  0.1193961E-011  0.5930194E+02  0.7816164E-02  0.1266605E+00
        -11   -1    0    0    0    0  0.00000000000E+00  0.00000000000E+00  0.45593999997E+02  0.45594000000E+02  0.51100000000E-03 0.  1.
         11   -1    0    0    0    0 -0.00000000000E+00 -0.00000000000E+00 -0.45593999997E+02  0.45594000000E+02  0.51100000000E-03 0. -1.
    9900012    2    1    2    0    0 -0.23584061068E+02  0.14938617142E+02 -0.15406191691E+02  0.59301937825E+02  0.49999988689E+02 0.  0.
         12    1    1    2    0    0  0.23584061068E+02 -0.14938617142E+02  0.15406191691E+02  0.31886062175E+02  0.00000000000E+00 0. -1.
         11    1    3    3    0    0 -0.81841199624E+01 -0.70359631082E+01  0.57793588924E+01  0.12242776886E+02  0.51100000000E-03 0. -1.
        -11    1    3    3    0    0 -0.53642348233E+00 -0.62224473636E+01 -0.12577149955E+02  0.14042482066E+02  0.51100000000E-03 0.  1.
        -12    1    3    3    0    0 -0.14863517623E+02  0.28197027614E+02 -0.86084006286E+01  0.33016678873E+02  0.00000000000E+00 0.  1.
</event>
<event>
 7    1  0.1193961E-011  0.5930193E+02  0.7816164E-02  0.1266605E+00
        -11   -1    0    0    0    0  0.00000000000E+00  0.00000000000E+00  0.45593999997E+02  0.45594000000E+02  0.51100000000E-03 0.  1.
         11   -1    0    0    0    0 -0.00000000000E+00 -0.00000000000E+00 -0.45593999997E+02  0.45594000000E+02  0.51100000000E-03 0. -1.
    9900012    2    1    2    0    0  0.14088674206E+01  0.30991648795E+02  0.73657534483E+01  0.59301928961E+02  0.49999972521E+02 0.  0.
         12    1    1    2    0    0 -0.14088674206E+01 -0.30991648795E+02 -0.73657534483E+01  0.31886071039E+02  0.00000000000E+00 0. -1.
         11    1    3    3    0    0  0.87802883663E+01  0.26348072521E+01  0.65116623337E+00  0.91901953611E+01  0.51100000000E-03 0. -1.
        -11    1    3    3    0    0  0.77341743261E+01 -0.71281866199E+01 -0.16555494006E+01  0.10647503983E+02  0.51100000000E-03 0.  1.
         12    1    3    3    0    0 -0.15105595272E+02  0.35485028163E+02  0.83701366155E+01  0.39464229616E+02  0.00000000000E+00 0. -1.
</event>
<event>
 7    1  0.1193961E-011  0.5930188E+02  0.7816164E-02  0.1266605E+00
        -11   -1    0    0    0    0  0.00000000000E+00  0.00000000000E+00  0.45593999997E+02  0.45594000000E+02  0.51100000000E-03 0.  1.
         11   -1    0    0    0    0 -0.00000000000E+00 -0.00000000000E+00 -0.45593999997E+02  0.45594000000E+02  0.51100000000E-03 0. -1.
    9900012    2    1    2    0    0  0.19016028008E+02  0.20042469899E+02  0.15919013415E+02  0.59301875918E+02  0.49999875785E+02 0.  0.
         12    1    1    2    0    0 -0.19016028008E+02 -0.20042469899E+02 -0.15919013415E+02  0.31886124082E+02  0.00000000000E+00 0. -1.
         11    1    3    3    0    0 -0.67513077309E+01 -0.80381233292E+01  0.64792853700E+01  0.12335830815E+02  0.51100000000E-03 0. -1.
        -11    1    3    3    0    0  0.75094938622E+01  0.21369527937E+01 -0.76507271235E+01  0.10931271248E+02  0.51100000000E-03 0.  1.
        -12    1    3    3    0    0  0.18257841877E+02  0.25943640434E+02  0.17090455168E+02  0.36034773856E+02  0.00000000000E+00 0.  1.
</event>
<event>
 7    1  0.1193961E-011  0.5930195E+02  0.7816164E-02  0.1266605E+00
        -11   -1    0    0    0    0  0.00000000000E+00  0.00000000000E+00  0.45593999997E+02  0.45594000000E+02  0.51100000000E-03 0. -1.
         11   -1    0    0    0    0 -0.00000000000E+00 -0.00000000000E+00 -0.45593999997E+02  0.45594000000E+02  0.51100000000E-03 0.  1.
    9900012    2    1    2    0    0  0.18716782086E+02 -0.25620250496E+02  0.31631199368E+01  0.59301945135E+02  0.50000002020E+02 0.  0.
         12    1    1    2    0    0 -0.18716782086E+02  0.25620250496E+02 -0.31631199368E+01  0.31886054865E+02  0.00000000000E+00 0. -1.
         11    1    3    3    0    0 -0.59825659429E+01 -0.31327991251E+01  0.12514575760E+01  0.68681636516E+01  0.51100000000E-03 0. -1.
        -11    1    3    3    0    0 -0.11170869518E+02 -0.66342145886E+01  0.24065321079E+01  0.13213346512E+02  0.51100000000E-03 0.  1.
        -12    1    3    3    0    0  0.35870217547E+02 -0.15853236782E+02 -0.49486974711E+00  0.39220434972E+02  0.00000000000E+00 0.  1.
</event>
<event>
 7    1  0.1193961E-011  0.5930203E+02  0.7816164E-02  0.1266604E+00
        -11   -1    0    0    0    0  0.00000000000E+00  0.00000000000E+00  0.45593999997E+02  0.45594000000E+02  0.51100000000E-03 0. -1.
         11   -1    0    0    0    0 -0.00000000000E+00 -0.00000000000E+00 -0.45593999997E+02  0.45594000000E+02  0.51100000000E-03 0.  1.
    9900012    2    1    2    0    0 -0.96419919054E+01  0.29579437370E+02 -0.69859952556E+01  0.59302027336E+02  0.50000151935E+02 0.  0.
         12    1    1    2    0    0  0.96419919054E+01 -0.29579437370E+02  0.69859952556E+01  0.31885972664E+02  0.00000000000E+00 0. -1.
         11    1    3    3    0    0 -0.68257779513E+01  0.31345312806E+00 -0.63872095677E+01  0.93533921027E+01  0.51100000000E-03 0. -1.
        -11    1    3    3    0    0 -0.19895258590E+02  0.21852590437E+02 -0.67993110907E+01  0.30324703705E+02  0.51100000000E-03 0.  1.
         12    1    3    3    0    0  0.17079044636E+02  0.74133938041E+01  0.62005254028E+01  0.19623931529E+02  0.00000000000E+00 0. -1.
</event>
<event>
 7    1  0.1193961E-011  0.5930194E+02  0.7816164E-02  0.1266605E+00
        -11   -1    0    0    0    0  0.00000000000E+00  0.00000000000E+00  0.45593999997E+02  0.45594000000E+02  0.51100000000E-03 0. -1.
         11   -1    0    0    0    0 -0.00000000000E+00 -0.00000000000E+00 -0.45593999997E+02  0.45594000000E+02  0.51100000000E-03 0.  1.
    9900012    2    1    2    0    0  0.25707336293E+02 -0.96196869268E+00 -0.18839549020E+02  0.59301935171E+02  0.49999983847E+02 0.  0.
         12    1    1    2    0    0 -0.25707336293E+02  0.96196869268E+00  0.18839549020E+02  0.31886064829E+02  0.00000000000E+00 0. -1.
         11    1    3    3    0    0  0.77151270395E+01 -0.15006111633E+02 -0.14904556717E+02  0.22513382304E+02  0.51100000000E-03 0.  1.
        -11    1    3    3    0    0  0.34105843239E+01 -0.87911663233E+01 -0.14291631973E+00  0.94306477025E+01  0.51100000000E-03 0. -1.
         12    1    3    3    0    0  0.14581624929E+02  0.22835309263E+02 -0.37920759832E+01  0.27357905165E+02  0.00000000000E+00 0. -1.
</event>
<event>
 7    1  0.1193961E-011  0.5930194E+02  0.7816164E-02  0.1266605E+00
        -11   -1    0    0    0    0  0.00000000000E+00  0.00000000000E+00  0.45593999997E+02  0.45594000000E+02  0.51100000000E-03 0. -1.
         11   -1    0    0    0    0 -0.00000000000E+00 -0.00000000000E+00 -0.45593999997E+02  0.45594000000E+02  0.51100000000E-03 0.  1.
    9900012    2    1    2    0    0  0.22977689771E+02  0.56723418201E+01 -0.21367520752E+02  0.59301942984E+02  0.49999998097E+02 0.  0.
         12    1    1    2    0    0 -0.22977689771E+02 -0.56723418201E+01  0.21367520752E+02  0.31886057016E+02  0.00000000000E+00 0. -1.
         11    1    3    3    0    0  0.24868400010E+02  0.15380058820E+02 -0.45557340181E+01  0.29592874836E+02  0.51100000000E-03 0. -1.
        -11    1    3    3    0    0  0.86991299966E+01 -0.10491499996E+02 -0.73399461476E+01  0.15479704279E+02  0.51100000000E-03 0.  1.
         12    1    3    3    0    0 -0.10589840236E+02  0.78378299630E+00 -0.94718405862E+01  0.14229363869E+02  0.00000000000E+00 0. -1.
</event>
<event>
 7    1  0.1193961E-011  0.5930189E+02  0.7816164E-02  0.1266605E+00
        -11   -1    0    0    0    0  0.00000000000E+00  0.00000000000E+00  0.45593999997E+02  0.45594000000E+02  0.51100000000E-03 0. -1.
         11   -1    0    0    0    0 -0.00000000000E+00 -0.00000000000E+00 -0.45593999997E+02  0.45594000000E+02  0.51100000000E-03 0.  1.
    9900012    2    1    2    0    0 -0.31026894966E+02 -0.32197996155E+01 -0.66097487858E+01  0.59301888606E+02  0.49999898924E+02 0.  0.
         12    1    1    2    0    0  0.31026894966E+02  0.32197996155E+01  0.66097487858E+01  0.31886111394E+02  0.00000000000E+00 0. -1.
         11    1    3    3    0    0 -0.11381560836E+02 -0.23065721395E+01  0.11250725770E+02  0.16169076434E+02  0.51100000000E-03 0. -1.
        -11    1    3    3    0    0 -0.25377801526E+02  0.72600658747E+01 -0.50214929210E+01  0.26869253027E+02  0.51100000000E-03 0.  1.
        -12    1    3    3    0    0  0.57324673960E+01 -0.81732933508E+01 -0.12838981635E+02  0.16263559145E+02  0.00000000000E+00 0.  1.
</event>
<event>
 7    1  0.1193961E-011  0.5930194E+02  0.7816164E-02  0.1266605E+00
        -11   -1    0    0    0    0  0.00000000000E+00  0.00000000000E+00  0.45593999997E+02  0.45594000000E+02  0.51100000000E-03 0. -1.
         11   -1    0    0    0    0 -0.00000000000E+00 -0.00000000000E+00 -0.45593999997E+02  0.45594000000E+02  0.51100000000E-03 0.  1.
    9900012    2    1    2    0    0  0.57544029929E+01  0.19550298985E+02 -0.24523329425E+02  0.59301936739E+02  0.49999986707E+02 0.  0.
         12    1    1    2    0    0 -0.57544029929E+01 -0.19550298985E+02  0.24523329425E+02  0.31886063261E+02  0.00000000000E+00 0. -1.
         11    1    3    3    0    0 -0.15643754128E+01  0.41995952601E+01 -0.42372515496E+01  0.61675093625E+01  0.51100000000E-03 0. -1.
        -11    1    3    3    0    0 -0.11598403751E+02  0.84022176612E+01 -0.28084270649E+02  0.31525330915E+02  0.51100000000E-03 0.  1.
         12    1    3    3    0    0  0.18917182157E+02  0.69484860639E+01  0.77981927733E+01  0.21609096461E+02  0.00000000000E+00 0. -1.
</event>
<event>
 7    1  0.1193961E-011  0.5930194E+02  0.7816164E-02  0.1266605E+00
        -11   -1    0    0    0    0  0.00000000000E+00  0.00000000000E+00  0.45593999997E+02  0.45594000000E+02  0.51100000000E-03 0.  1.
         11   -1    0    0    0    0 -0.00000000000E+00 -0.00000000000E+00 -0.45593999997E+02  0.45594000000E+02  0.51100000000E-03 0. -1.
    9900012    2    1    2    0    0  0.24262759671E+02 -0.18313989382E+02  0.96248088620E+01  0.59301942553E+02  0.49999997310E+02 0.  0.
         12    1    1    2    0    0 -0.24262759671E+02  0.18313989382E+02 -0.96248088620E+01  0.31886057447E+02  0.00000000000E+00 0. -1.
         11    1    3    3    0    0  0.86709101109E+01  0.73283097100E+01 -0.66699274507E+01  0.13167260072E+02  0.51100000000E-03 0. -1.
        -11    1    3    3    0    0  0.19745594339E+02 -0.15448068637E+02 -0.16040291726E+01  0.25121787959E+02  0.51100000000E-03 0.  1.
         12    1    3    3    0    0 -0.41537447791E+01 -0.10194230455E+02  0.17898765485E+02  0.21012894521E+02  0.00000000000E+00 0. -1.
</event>
<event>
 7    1  0.1193961E-011  0.5930207E+02  0.7816164E-02  0.1266604E+00
        -11   -1    0    0    0    0  0.00000000000E+00  0.00000000000E+00  0.45593999997E+02  0.45594000000E+02  0.51100000000E-03 0.  1.
         11   -1    0    0    0    0 -0.00000000000E+00 -0.00000000000E+00 -0.45593999997E+02  0.45594000000E+02  0.51100000000E-03 0. -1.
    9900012    2    1    2    0    0 -0.15895384057E+02 -0.24894216175E+02 -0.12013618378E+02  0.59302074268E+02  0.50000237526E+02 0.  0.
         12    1    1    2    0    0  0.15895384057E+02  0.24894216175E+02  0.12013618378E+02  0.31885925732E+02  0.00000000000E+00 0. -1.
         11    1    3    3    0    0 -0.25411877013E+02  0.16775615953E+01 -0.49356408405E+01  0.25941053506E+02  0.51100000000E-03 0. -1.
        -11    1    3    3    0    0  0.42884287896E+01 -0.86293076313E+01 -0.10619507013E+02  0.14339787347E+02  0.51100000000E-03 0.  1.
        -12    1    3    3    0    0  0.52280641664E+01 -0.17942470139E+02  0.35415294762E+01  0.19021233416E+02  0.00000000000E+00 0.  1.
</event>
<event>
 7    1  0.1193961E-011  0.5930192E+02  0.7816164E-02  0.1266605E+00
        -11   -1    0    0    0    0  0.00000000000E+00  0.00000000000E+00  0.45593999997E+02  0.45594000000E+02  0.51100000000E-03 0. -1.
         11   -1    0    0    0    0 -0.00000000000E+00 -0.00000000000E+00 -0.45593999997E+02  0.45594000000E+02  0.51100000000E-03 0.  1.
    9900012    2    1    2    0    0  0.15322396906E+02  0.19897714469E+02 -0.19647572556E+02  0.59301921606E+02  0.49999959107E+02 0.  0.
         12    1    1    2    0    0 -0.15322396906E+02 -0.19897714469E+02  0.19647572556E+02  0.31886078394E+02  0.00000000000E+00 0. -1.
         11    1    3    3    0    0  0.53697561905E+01  0.10174870160E+02  0.68879155219E+01  0.13409162718E+02  0.51100000000E-03 0. -1.
        -11    1    3    3    0    0  0.16218927140E+02  0.17596671232E+02 -0.87932531294E+01  0.25495445414E+02  0.51100000000E-03 0.  1.
        -12    1    3    3    0    0 -0.62662864246E+01 -0.78738269221E+01 -0.17742234949E+02  0.20397313473E+02  0.00000000000E+00 0.  1.
</event>
<event>
 7    1  0.1193961E-011  0.5930194E+02  0.7816164E-02  0.1266605E+00
        -11   -1    0    0    0    0  0.00000000000E+00  0.00000000000E+00  0.45593999997E+02  0.45594000000E+02  0.51100000000E-03 0. -1.
         11   -1    0    0    0    0 -0.00000000000E+00 -0.00000000000E+00 -0.45593999997E+02  0.45594000000E+02  0.51100000000E-03 0.  1.
    9900012    2    1    2    0    0 -0.13515143329E+02 -0.31937180530E+01 -0.28702989093E+02  0.59301944787E+02  0.50000001384E+02 0.  0.
         12    1    1    2    0    0  0.13515143329E+02  0.31937180530E+01  0.28702989093E+02  0.31886055213E+02  0.00000000000E+00 0. -1.
         11    1    3    3    0    0  0.99028772210E+01 -0.69568428918E+01 -0.12975835189E+00  0.12102953266E+02  0.51100000000E-03 0. -1.
        -11    1    3    3    0    0 -0.11867939912E+02  0.12083989532E+02 -0.28276063217E+02  0.32960681911E+02  0.51100000000E-03 0.  1.
         12    1    3    3    0    0 -0.11550080638E+02 -0.83208646929E+01 -0.29716752437E+00  0.14238309609E+02  0.00000000000E+00 0. -1.
</event>
<event>
 7    1  0.1193961E-011  0.5930235E+02  0.7816164E-02  0.1266603E+00
        -11   -1    0    0    0    0  0.00000000000E+00  0.00000000000E+00  0.45593999997E+02  0.45594000000E+02  0.51100000000E-03 0. -1.
         11   -1    0    0    0    0 -0.00000000000E+00 -0.00000000000E+00 -0.45593999997E+02  0.45594000000E+02  0.51100000000E-03 0.  1.
    9900012    2    1    2    0    0 -0.15388528023E+02 -0.14097405407E+02 -0.24107070618E+02  0.59302352951E+02  0.50000745773E+02 0.  0.
         12    1    1    2    0    0  0.15388528023E+02  0.14097405407E+02  0.24107070618E+02  0.31885647049E+02  0.00000000000E+00 0. -1.
         11    1    3    3    0    0 -0.20224905565E+02 -0.17257226186E+01 -0.16426399023E+02  0.26112286549E+02  0.51100000000E-03 0. -1.
        -11    1    3    3    0    0 -0.90577565029E+01  0.44096513981E+01 -0.49762826672E+01  0.11236163392E+02  0.51100000000E-03 0.  1.
         12    1    3    3    0    0  0.13894134045E+02 -0.16781334187E+02 -0.27043889271E+01  0.21953903011E+02  0.00000000000E+00 0. -1.
</event>
<event>
 7    1  0.1193961E-011  0.5930195E+02  0.7816164E-02  0.1266605E+00
        -11   -1    0    0    0    0  0.00000000000E+00  0.00000000000E+00  0.45593999997E+02  0.45594000000E+02  0.51100000000E-03 0. -1.
         11   -1    0    0    0    0 -0.00000000000E+00 -0.00000000000E+00 -0.45593999997E+02  0.45594000000E+02  0.51100000000E-03 0.  1.
    9900012    2    1    2    0    0  0.29361531293E+02  0.13407873955E+01 -0.12362160809E+02  0.59301948966E+02  0.50000009006E+02 0.  0.
         12    1    1    2    0    0 -0.29361531293E+02 -0.13407873955E+01  0.12362160809E+02  0.31886051034E+02  0.00000000000E+00 0. -1.
         11    1    3    3    0    0  0.45754838038E+01  0.97379426669E+00 -0.15651938195E+02  0.16336048997E+02  0.51100000000E-03 0. -1.
        -11    1    3    3    0    0 -0.56232707037E+01  0.95120956320E+01  0.16123187373E+01  0.11166947152E+02  0.51100000000E-03 0.  1.
         12    1    3    3    0    0  0.30409318192E+02 -0.91451025032E+01  0.16774586492E+01  0.31798952817E+02  0.00000000000E+00 0. -1.
</event>
<event>
 7    1  0.1193961E-011  0.5930195E+02  0.7816164E-02  0.1266605E+00
        -11   -1    0    0    0    0  0.00000000000E+00  0.00000000000E+00  0.45593999997E+02  0.45594000000E+02  0.51100000000E-03 0.  1.
         11   -1    0    0    0    0 -0.00000000000E+00 -0.00000000000E+00 -0.45593999997E+02  0.45594000000E+02  0.51100000000E-03 0. -1.
    9900012    2    1    2    0    0  0.53251260632E+01 -0.12257091627E+02  0.28950420924E+02  0.59301950787E+02  0.50000012327E+02 0.  0.
         12    1    1    2    0    0 -0.53251260632E+01  0.12257091627E+02 -0.28950420924E+02  0.31886049213E+02  0.00000000000E+00 0. -1.
         11    1    3    3    0    0  0.97409124481E+01 -0.13111797758E+02  0.18948521966E+01  0.16443694259E+02  0.51100000000E-03 0. -1.
        -11    1    3    3    0    0  0.97344729193E+01 -0.71591640117E+01  0.97467476877E+00  0.12122853770E+02  0.51100000000E-03 0.  1.
        -12    1    3    3    0    0 -0.14150259304E+02  0.80138701426E+01  0.26080893958E+02  0.30735402758E+02  0.00000000000E+00 0.  1.
</event>
<event>
 7    1  0.1193961E-011  0.5930198E+02  0.7816164E-02  0.1266605E+00
        -11   -1    0    0    0    0  0.00000000000E+00  0.00000000000E+00  0.45593999997E+02  0.45594000000E+02  0.51100000000E-03 0. -1.
         11   -1    0    0    0    0 -0.00000000000E+00 -0.00000000000E+00 -0.45593999997E+02  0.45594000000E+02  0.51100000000E-03 0.  1.
    9900012    2    1    2    0    0 -0.10648617922E+02  0.29482631948E+02 -0.58394774782E+01  0.59301981944E+02  0.50000069150E+02 0.  0.
         12    1    1    2    0    0  0.10648617922E+02 -0.29482631948E+02  0.58394774782E+01  0.31886018056E+02  0.00000000000E+00 0. -1.
         11    1    3    3    0    0  0.19207918621E+01  0.15255428419E+02 -0.16097648112E+02  0.22260993074E+02  0.51100000000E-03 0. -1.
        -11    1    3    3    0    0 -0.72865008823E+01  0.10975088403E+02 -0.95584356101E+01  0.16276036131E+02  0.51100000000E-03 0.  1.
         12    1    3    3    0    0 -0.52829089020E+01  0.32521151254E+01  0.19816606243E+02  0.20764952739E+02  0.00000000000E+00 0. -1.
</event>
<event>
 7    1  0.1193961E-011  0.5930196E+02  0.7816164E-02  0.1266605E+00
        -11   -1    0    0    0    0  0.00000000000E+00  0.00000000000E+00  0.45593999997E+02  0.45594000000E+02  0.51100000000E-03 0. -1.
         11   -1    0    0    0    0 -0.00000000000E+00 -0.00000000000E+00 -0.45593999997E+02  0.45594000000E+02  0.51100000000E-03 0.  1.
    9900012    2    1    2    0    0 -0.62377966680E+01 -0.11640152152E+02 -0.29022684666E+02  0.59301961133E+02  0.50000031197E+02 0.  0.
         12    1    1    2    0    0  0.62377966680E+01  0.11640152152E+02  0.29022684666E+02  0.31886038867E+02  0.00000000000E+00 0. -1.
         11    1    3    3    0    0  0.94425975765E+01 -0.26606078271E+01 -0.34857648793E+01  0.10411149795E+02  0.51100000000E-03 0. -1.
        -11    1    3    3    0    0  0.73517743794E+01 -0.15583562019E+02 -0.14459218221E+02  0.22493665409E+02  0.51100000000E-03 0.  1.
        -12    1    3    3    0    0 -0.23032168624E+02  0.66040176943E+01 -0.11077701565E+02  0.26397145929E+02  0.00000000000E+00 0.  1.
</event>
<event>
 7    1  0.1193961E-011  0.5930195E+02  0.7816164E-02  0.1266605E+00
        -11   -1    0    0    0    0  0.00000000000E+00  0.00000000000E+00  0.45593999997E+02  0.45594000000E+02  0.51100000000E-03 0. -1.
         11   -1    0    0    0    0 -0.00000000000E+00 -0.00000000000E+00 -0.45593999997E+02  0.45594000000E+02  0.51100000000E-03 0.  1.
    9900012    2    1    2    0    0  0.22789294513E+02 -0.20718333087E+02 -0.82534215450E+01  0.59301949170E+02  0.50000009379E+02 0.  0.
         12    1    1    2    0    0 -0.22789294513E+02  0.20718333087E+02  0.82534215450E+01  0.31886050830E+02  0.00000000000E+00 0. -1.
         11    1    3    3    0    0  0.20349125693E+02 -0.23136464929E+02 -0.20096232701E+02  0.36786430853E+02  0.51100000000E-03 0. -1.
        -11    1    3    3    0    0 -0.22870538016E+01 -0.76345824670E+01  0.40001902188E+01  0.89173419013E+01  0.51100000000E-03 0.  1.
         12    1    3    3    0    0  0.47272226218E+01  0.10052714308E+02  0.78426209372E+01  0.13598176416E+02  0.00000000000E+00 0. -1.
</event>
<event>
 7    1  0.1193961E-011  0.5930195E+02  0.7816164E-02  0.1266605E+00
        -11   -1    0    0    0    0  0.00000000000E+00  0.00000000000E+00  0.45593999997E+02  0.45594000000E+02  0.51100000000E-03 0. -1.
         11   -1    0    0    0    0 -0.00000000000E+00 -0.00000000000E+00 -0.45593999997E+02  0.45594000000E+02  0.51100000000E-03 0.  1.
    9900012    2    1    2    0    0 -0.15769228717E+02 -0.26572442079E+02 -0.78712662321E+01  0.59301951570E+02  0.50000013756E+02 0.  0.
         12    1    1    2    0    0  0.15769228717E+02  0.26572442079E+02  0.78712662321E+01  0.31886048430E+02  0.00000000000E+00 0. -1.
         11    1    3    3    0    0  0.24059211713E+01 -0.98873676697E+00 -0.24671465672E+01  0.35850898904E+01  0.51100000000E-03 0. -1.
        -11    1    3    3    0    0 -0.13505117125E+01 -0.32166368823E+02  0.80561441009E+01  0.33187356375E+02  0.51100000000E-03 0.  1.
         12    1    3    3    0    0 -0.16824638176E+02  0.65826635106E+01 -0.13460263766E+02  0.22529505305E+02  0.00000000000E+00 0. -1.
</event>
<event>
 7    1  0.1193961E-011  0.5930194E+02  0.7816164E-02  0.1266605E+00
        -11   -1    0    0    0    0  0.00000000000E+00  0.00000000000E+00  0.45593999997E+02  0.45594000000E+02  0.51100000000E-03 0.  1.
         11   -1    0    0    0    0 -0.00000000000E+00 -0.00000000000E+00 -0.45593999997E+02  0.45594000000E+02  0.51100000000E-03 0. -1.
    9900012    2    1    2    0    0 -0.15016347601E+02  0.26199414328E+02 -0.10238196871E+02  0.59301942207E+02  0.49999996680E+02 0.  0.
         12    1    1    2    0    0  0.15016347601E+02 -0.26199414328E+02  0.10238196871E+02  0.31886057793E+02  0.00000000000E+00 0. -1.
         11    1    3    3    0    0 -0.27550986320E+02  0.16319175093E+01 -0.17093039981E+00  0.27599804699E+02  0.51100000000E-03 0. -1.
        -11    1    3    3    0    0  0.21978161405E+01  0.95680759622E+01 -0.92171456685E+01  0.13466040544E+02  0.51100000000E-03 0.  1.
        -12    1    3    3    0    0  0.10336822579E+02  0.14999420857E+02 -0.85012080219E+00  0.18236096963E+02  0.00000000000E+00 0.  1.
</event>
<event>
 7    1  0.1193961E-011  0.5930199E+02  0.7816164E-02  0.1266605E+00
        -11   -1    0    0    0    0  0.00000000000E+00  0.00000000000E+00  0.45593999997E+02  0.45594000000E+02  0.51100000000E-03 0. -1.
         11   -1    0    0    0    0 -0.00000000000E+00 -0.00000000000E+00 -0.45593999997E+02  0.45594000000E+02  0.51100000000E-03 0.  1.
    9900012    2    1    2    0    0  0.18225963227E+02 -0.18742216709E+02 -0.18255443290E+02  0.59301990020E+02  0.50000083880E+02 0.  0.
         12    1    1    2    0    0 -0.18225963227E+02  0.18742216709E+02  0.18255443290E+02  0.31886009980E+02  0.00000000000E+00 0. -1.
         11    1    3    3    0    0  0.24205834161E+01 -0.18020709143E+02  0.21969778326E+01  0.18314799861E+02  0.51100000000E-03 0. -1.
        -11    1    3    3    0    0 -0.94444055562E+00 -0.10605572407E+02  0.24654420961E+01  0.10929251531E+02  0.51100000000E-03 0.  1.
        -12    1    3    3    0    0  0.16749820367E+02  0.98840648409E+01 -0.22917863218E+02  0.30057938628E+02  0.00000000000E+00 0.  1.
</event>
<event>
 7    1  0.1193961E-011  0.5930195E+02  0.7816164E-02  0.1266605E+00
        -11   -1    0    0    0    0  0.00000000000E+00  0.00000000000E+00  0.45593999997E+02  0.45594000000E+02  0.51100000000E-03 0.  1.
         11   -1    0    0    0    0 -0.00000000000E+00 -0.00000000000E+00 -0.45593999997E+02  0.45594000000E+02  0.51100000000E-03 0. -1.
    9900012    2    1    2    0    0 -0.22395671754E+02 -0.18787001845E+02 -0.12735891652E+02  0.59301945246E+02  0.50000002221E+02 0.  0.
         12    1    1    2    0    0  0.22395671754E+02  0.18787001845E+02  0.12735891652E+02  0.31886054754E+02  0.00000000000E+00 0. -1.
         11    1    3    3    0    0  0.27186772807E+00 -0.26267513146E+01 -0.31072788208E+00  0.26590010545E+01  0.51100000000E-03 0. -1.
        -11    1    3    3    0    0 -0.13960359892E+02 -0.19998870909E+02  0.14301162548E+02  0.28273127461E+02  0.51100000000E-03 0.  1.
        -12    1    3    3    0    0 -0.87071795904E+01  0.38386203789E+01 -0.26726326318E+02  0.28369816730E+02  0.00000000000E+00 0.  1.
</event>
<event>
 7    1  0.1193961E-011  0.5930196E+02  0.7816164E-02  0.1266605E+00
        -11   -1    0    0    0    0  0.00000000000E+00  0.00000000000E+00  0.45593999997E+02  0.45594000000E+02  0.51100000000E-03 0. -1.
         11   -1    0    0    0    0 -0.00000000000E+00 -0.00000000000E+00 -0.45593999997E+02  0.45594000000E+02  0.51100000000E-03 0.  1.
    9900012    2    1    2    0    0  0.28021435673E+02 -0.14337066884E+02 -0.50958221553E+01  0.59301956855E+02  0.50000023394E+02 0.  0.
         12    1    1    2    0    0 -0.28021435673E+02  0.14337066884E+02  0.50958221553E+01  0.31886043145E+02  0.00000000000E+00 0. -1.
         11    1    3    3    0    0 -0.59844428346E+01 -0.18952997329E+02 -0.10540457528E+02  0.22497353377E+02  0.51100000000E-03 0. -1.
        -11    1    3    3    0    0  0.87814508433E+01 -0.39780625325E+01  0.18490160799E+00  0.96422533306E+01  0.51100000000E-03 0.  1.
        -12    1    3    3    0    0  0.25224427664E+02  0.85939929778E+01  0.52597337648E+01  0.27162350148E+02  0.00000000000E+00 0.  1.
</event>
<event>
 7    1  0.1193961E-011  0.5930193E+02  0.7816164E-02  0.1266605E+00
        -11   -1    0    0    0    0  0.00000000000E+00  0.00000000000E+00  0.45593999997E+02  0.45594000000E+02  0.51100000000E-03 0. -1.
         11   -1    0    0    0    0 -0.00000000000E+00 -0.00000000000E+00 -0.45593999997E+02  0.45594000000E+02  0.51100000000E-03 0.  1.
    9900012    2    1    2    0    0  0.25247184165E+02 -0.40305787741E+01 -0.19054014450E+02  0.59301931880E+02  0.49999977846E+02 0.  0.
         12    1    1    2    0    0 -0.25247184165E+02  0.40305787741E+01  0.19054014450E+02  0.31886068120E+02  0.00000000000E+00 0. -1.
         11    1    3    3    0    0  0.19062334570E+02  0.57673705187E+01 -0.15923689488E+02  0.25499000944E+02  0.51100000000E-03 0.  1.
        -11    1    3    3    0    0 -0.61980657184E+01 -0.57127684574E+01 -0.14322557739E+02  0.16618886923E+02  0.51100000000E-03 0. -1.
         12    1    3    3    0    0  0.12382915313E+02 -0.40851808354E+01  0.11192232778E+02  0.17184044014E+02  0.00000000000E+00 0. -1.
</event>
<event>
 7    1  0.1488131E-011  0.5930194E+02  0.7816164E-02  0.1266605E+00
        -11   -1    0    0    0    0  0.00000000000E+00  0.00000000000E+00  0.45593999997E+02  0.45594000000E+02  0.51100000000E-03 0. -1.
         11   -1    0    0    0    0 -0.00000000000E+00 -0.00000000000E+00 -0.45593999997E+02  0.45594000000E+02  0.51100000000E-03 0.  1.
    9900012    2    1    2    0    0  0.18914382565E+02 -0.23717617075E+02 -0.98204615409E+01  0.59301942038E+02  0.49999996370E+02 0.  0.
         12    1    1    2    0    0 -0.18914382565E+02  0.23717617075E+02  0.98204615409E+01  0.31886057962E+02  0.00000000000E+00 0. -1.
         11    1    3    3    0    0  0.17171178819E+02 -0.27121889095E+01  0.25802244385E+01  0.17574495985E+02  0.51100000000E-03 0. -1.
        -11    1    3    3    0    0  0.41178506137E+01 -0.23146623454E+02 -0.21638285446E+02  0.31952124629E+02  0.51100000000E-03 0.  1.
         12    1    3    3    0    0 -0.23746468681E+01  0.21411952891E+01  0.92375994669E+01  0.97753214231E+01  0.00000000000E+00 0. -1.
</event>
<event>
 7    1  0.1193961E-011  0.5930194E+02  0.7816164E-02  0.1266605E+00
        -11   -1    0    0    0    0  0.00000000000E+00  0.00000000000E+00  0.45593999997E+02  0.45594000000E+02  0.51100000000E-03 0.  1.
         11   -1    0    0    0    0 -0.00000000000E+00 -0.00000000000E+00 -0.45593999997E+02  0.45594000000E+02  0.51100000000E-03 0. -1.
    9900012    2    1    2    0    0 -0.20403363280E+02  0.24012960333E+02 -0.48786825408E+01  0.59301936580E+02  0.49999986417E+02 0.  0.
         12    1    1    2    0    0  0.20403363280E+02 -0.24012960333E+02  0.48786825408E+01  0.31886063420E+02  0.00000000000E+00 0. -1.
         11    1    3    3    0    0  0.10000588244E+01 -0.53124500440E+00 -0.83456703236E+01  0.84221465386E+01  0.51100000000E-03 0. -1.
        -11    1    3    3    0    0 -0.21374654288E+02  0.92696771856E+01 -0.14387938477E+02  0.27382759812E+02  0.51100000000E-03 0.  1.
        -12    1    3    3    0    0 -0.28767816963E-01  0.15274528151E+02  0.17854926260E+02  0.23497030229E+02  0.00000000000E+00 0.  1.
</event>
<event>
 7    1  0.1193961E-011  0.5930207E+02  0.7816164E-02  0.1266604E+00
        -11   -1    0    0    0    0  0.00000000000E+00  0.00000000000E+00  0.45593999997E+02  0.45594000000E+02  0.51100000000E-03 0. -1.
         11   -1    0    0    0    0 -0.00000000000E+00 -0.00000000000E+00 -0.45593999997E+02  0.45594000000E+02  0.51100000000E-03 0.  1.
    9900012    2    1    2    0    0 -0.22534255936E+02 -0.13450355657E+02  0.18110982239E+02  0.59302071511E+02  0.50000232499E+02 0.  0.
         12    1    1    2    0    0  0.22534255936E+02  0.13450355657E+02 -0.18110982239E+02  0.31885928489E+02  0.00000000000E+00 0. -1.
         11    1    3    3    0    0 -0.11503744079E+02 -0.20009174863E+02  0.17314542439E+02  0.28853016943E+02  0.51100000000E-03 0. -1.
        -11    1    3    3    0    0 -0.82813780991E+01  0.46498132289E+01 -0.13085763998E+02  0.16169081791E+02  0.51100000000E-03 0.  1.
         12    1    3    3    0    0 -0.27491337582E+01  0.19090059774E+01  0.13882203798E+02  0.14279972778E+02  0.00000000000E+00 0. -1.
</event>
<event>
 7    1  0.1193961E-011  0.5930178E+02  0.7816164E-02  0.1266605E+00
        -11   -1    0    0    0    0  0.00000000000E+00  0.00000000000E+00  0.45593999997E+02  0.45594000000E+02  0.51100000000E-03 0.  1.
         11   -1    0    0    0    0 -0.00000000000E+00 -0.00000000000E+00 -0.45593999997E+02  0.45594000000E+02  0.51100000000E-03 0. -1.
    9900012    2    1    2    0    0 -0.23800742719E+02  0.11005173001E+01  0.21190672106E+02  0.59301779205E+02  0.49999699402E+02 0.  0.
         12    1    1    2    0    0  0.23800742719E+02 -0.11005173001E+01 -0.21190672106E+02  0.31886220795E+02  0.00000000000E+00 0. -1.
         11    1    3    3    0    0  0.62465185048E+01  0.34498725608E+01 -0.30294245744E+00  0.71422957450E+01  0.51100000000E-03 0. -1.
        -11    1    3    3    0    0 -0.30784797591E+01 -0.15622769335E+02  0.13948845363E+02  0.21168803616E+02  0.51100000000E-03 0.  1.
         12    1    3    3    0    0 -0.26968781465E+02  0.13273414074E+02  0.75447691999E+01  0.30990679844E+02  0.00000000000E+00 0. -1.
</event>
<event>
 7    1  0.1193961E-011  0.5930196E+02  0.7816164E-02  0.1266605E+00
        -11   -1    0    0    0    0  0.00000000000E+00  0.00000000000E+00  0.45593999997E+02  0.45594000000E+02  0.51100000000E-03 0. -1.
         11   -1    0    0    0    0 -0.00000000000E+00 -0.00000000000E+00 -0.45593999997E+02  0.45594000000E+02  0.51100000000E-03 0.  1.
    9900012    2    1    2    0    0  0.24316592938E+02  0.26798105449E+01 -0.20450958930E+02  0.59301956065E+02  0.50000021953E+02 0.  0.
         12    1    1    2    0    0 -0.24316592938E+02 -0.26798105449E+01  0.20450958930E+02  0.31886043935E+02  0.00000000000E+00 0. -1.
         11    1    3    3    0    0  0.44857285449E+01 -0.10493705754E+02 -0.84813976761E+01  0.14218780814E+02  0.51100000000E-03 0. -1.
        -11    1    3    3    0    0  0.40916623902E+01 -0.78793126135E+01 -0.16186235011E+02  0.18461296608E+02  0.51100000000E-03 0.  1.
         12    1    3    3    0    0  0.15739202003E+02  0.21052828912E+02  0.42166737567E+01  0.26621878643E+02  0.00000000000E+00 0. -1.
</event>
<event>
 7    1  0.1193961E-011  0.5930189E+02  0.7816164E-02  0.1266605E+00
        -11   -1    0    0    0    0  0.00000000000E+00  0.00000000000E+00  0.45593999997E+02  0.45594000000E+02  0.51100000000E-03 0. -1.
         11   -1    0    0    0    0 -0.00000000000E+00 -0.00000000000E+00 -0.45593999997E+02  0.45594000000E+02  0.51100000000E-03 0.  1.
    9900012    2    1    2    0    0  0.11374659996E+02 -0.80096424250E+01 -0.28691236758E+02  0.59301885020E+02  0.49999892385E+02 0.  0.
         12    1    1    2    0    0 -0.11374659996E+02  0.80096424250E+01  0.28691236758E+02  0.31886114980E+02  0.00000000000E+00 0. -1.
         11    1    3    3    0    0  0.11317331394E+02 -0.21853686429E+01  0.31585785734E+01  0.11951336530E+02  0.51100000000E-03 0. -1.
        -11    1    3    3    0    0  0.16441723203E+02  0.81115212762E+00 -0.20712990469E+02  0.26457819337E+02  0.51100000000E-03 0.  1.
        -12    1    3    3    0    0 -0.16384394601E+02 -0.66354259098E+01 -0.11136824863E+02  0.20892729153E+02  0.00000000000E+00 0.  1.
</event>
<event>
 7    1  0.1193961E-011  0.5930194E+02  0.7816164E-02  0.1266605E+00
        -11   -1    0    0    0    0  0.00000000000E+00  0.00000000000E+00  0.45593999997E+02  0.45594000000E+02  0.51100000000E-03 0.  1.
         11   -1    0    0    0    0 -0.00000000000E+00 -0.00000000000E+00 -0.45593999997E+02  0.45594000000E+02  0.51100000000E-03 0. -1.
    9900012    2    1    2    0    0 -0.77603290370E+01  0.73337144319E+01  0.30045208234E+02  0.59301943298E+02  0.49999998670E+02 0.  0.
         12    1    1    2    0    0  0.77603290370E+01 -0.73337144319E+01 -0.30045208234E+02  0.31886056702E+02  0.00000000000E+00 0. -1.
         11    1    3    3    0    0 -0.42456729126E+01 -0.96629319659E+01  0.90712902421E+01  0.13917122532E+02  0.51100000000E-03 0. -1.
        -11    1    3    3    0    0 -0.17993086007E+02  0.23327274854E+00  0.77947401519E+01  0.19610291546E+02  0.51100000000E-03 0.  1.
        -12    1    3    3    0    0  0.14478429883E+02  0.16763373649E+02  0.13179177840E+02  0.25774529220E+02  0.00000000000E+00 0.  1.
</event>
<event>
 7    1  0.1193961E-011  0.5930195E+02  0.7816164E-02  0.1266605E+00
        -11   -1    0    0    0    0  0.00000000000E+00  0.00000000000E+00  0.45593999997E+02  0.45594000000E+02  0.51100000000E-03 0.  1.
         11   -1    0    0    0    0 -0.00000000000E+00 -0.00000000000E+00 -0.45593999997E+02  0.45594000000E+02  0.51100000000E-03 0. -1.
    9900012    2    1    2    0    0 -0.24346039840E+01  0.23829378392E+02  0.21046460093E+02  0.59301952055E+02  0.50000014639E+02 0.  0.
         12    1    1    2    0    0  0.24346039840E+01 -0.23829378392E+02 -0.21046460093E+02  0.31886047945E+02  0.00000000000E+00 0. -1.
         11    1    3    3    0    0  0.98153596861E+01 -0.40318739323E+01  0.16795073739E+02  0.19866348314E+02  0.51100000000E-03 0. -1.
        -11    1    3    3    0    0  0.57539686275E+01  0.17515580951E+02  0.16995391941E+01  0.18514647303E+02  0.51100000000E-03 0.  1.
         12    1    3    3    0    0 -0.18003932298E+02  0.10345671373E+02  0.25518471602E+01  0.20920956438E+02  0.00000000000E+00 0. -1.
</event>
<event>
 7    1  0.1193961E-011  0.5930194E+02  0.7816164E-02  0.1266605E+00
        -11   -1    0    0    0    0  0.00000000000E+00  0.00000000000E+00  0.45593999997E+02  0.45594000000E+02  0.51100000000E-03 0. -1.
         11   -1    0    0    0    0 -0.00000000000E+00 -0.00000000000E+00 -0.45593999997E+02  0.45594000000E+02  0.51100000000E-03 0.  1.
    9900012    2    1    2    0    0  0.20124784922E+01 -0.12188309167E+02 -0.29395846916E+02  0.59301940884E+02  0.49999994267E+02 0.  0.
         12    1    1    2    0    0 -0.20124784922E+01  0.12188309167E+02  0.29395846916E+02  0.31886059116E+02  0.00000000000E+00 0. -1.
         11    1    3    3    0    0 -0.26214603500E+01 -0.18579259751E+02 -0.16731106398E+01  0.18837734649E+02  0.51100000000E-03 0. -1.
        -11    1    3    3    0    0 -0.10196271770E-01 -0.29921454681E+01 -0.29665464085E+02  0.29815982260E+02  0.51100000000E-03 0.  1.
        -12    1    3    3    0    0  0.46441351140E+01  0.93830960519E+01  0.19427278092E+01  0.10648223975E+02  0.00000000000E+00 0.  1.
</event>
<event>
 7    1  0.1193961E-011  0.5930207E+02  0.7816164E-02  0.1266604E+00
        -11   -1    0    0    0    0  0.00000000000E+00  0.00000000000E+00  0.45593999997E+02  0.45594000000E+02  0.51100000000E-03 0. -1.
         11   -1    0    0    0    0 -0.00000000000E+00 -0.00000000000E+00 -0.45593999997E+02  0.45594000000E+02  0.51100000000E-03 0.  1.
    9900012    2    1    2    0    0 -0.22200309576E+02 -0.63311120328E+01 -0.21994909955E+02  0.59302065973E+02  0.50000222398E+02 0.  0.
         12    1    1    2    0    0  0.22200309576E+02  0.63311120328E+01  0.21994909955E+02  0.31885934027E+02  0.00000000000E+00 0. -1.
         11    1    3    3    0    0 -0.25509051991E+02  0.93668899922E+01 -0.59702189588E+01  0.27822542592E+02  0.51100000000E-03 0. -1.
        -11    1    3    3    0    0 -0.62238746329E+01  0.11232236879E+01 -0.88051156637E+01  0.10841047413E+02  0.51100000000E-03 0.  1.
         12    1    3    3    0    0  0.95326170481E+01 -0.16821225713E+02 -0.72195753326E+01  0.20638475967E+02  0.00000000000E+00 0. -1.
</event>
<event>
 7    1  0.1193961E-011  0.5930198E+02  0.7816164E-02  0.1266605E+00
        -11   -1    0    0    0    0  0.00000000000E+00  0.00000000000E+00  0.45593999997E+02  0.45594000000E+02  0.51100000000E-03 0. -1.
         11   -1    0    0    0    0 -0.00000000000E+00 -0.00000000000E+00 -0.45593999997E+02  0.45594000000E+02  0.51100000000E-03 0.  1.
    9900012    2    1    2    0    0  0.30645707039E+02 -0.73628438532E+01  0.48319434131E+01  0.59301976312E+02  0.50000058878E+02 0.  0.
         12    1    1    2    0    0 -0.30645707039E+02  0.73628438532E+01 -0.48319434131E+01  0.31886023688E+02  0.00000000000E+00 0. -1.
         11    1    3    3    0    0  0.15937041876E+02 -0.10063571007E+01 -0.12234990807E+02  0.20117083752E+02  0.51100000000E-03 0. -1.
        -11    1    3    3    0    0  0.13372018417E+02  0.99618833458E+01  0.17536973940E+01  0.16766796091E+02  0.51100000000E-03 0.  1.
        -12    1    3    3    0    0  0.13366467461E+01 -0.16318370098E+02  0.15313236826E+02  0.22418096469E+02  0.00000000000E+00 0.  1.
</event>
<event>
 7    1  0.1193961E-011  0.5930195E+02  0.7816164E-02  0.1266605E+00
        -11   -1    0    0    0    0  0.00000000000E+00  0.00000000000E+00  0.45593999997E+02  0.45594000000E+02  0.51100000000E-03 0. -1.
         11   -1    0    0    0    0 -0.00000000000E+00 -0.00000000000E+00 -0.45593999997E+02  0.45594000000E+02  0.51100000000E-03 0.  1.
    9900012    2    1    2    0    0 -0.21012492816E+02 -0.18727913969E+01 -0.23909993879E+02  0.59301952750E+02  0.50000015907E+02 0.  0.
         12    1    1    2    0    0  0.21012492816E+02  0.18727913969E+01  0.23909993879E+02  0.31886047250E+02  0.00000000000E+00 0. -1.
         11    1    3    3    0    0  0.11734850342E+02  0.60386382425E+01 -0.10102976044E+02  0.16620529161E+02  0.51100000000E-03 0. -1.
        -11    1    3    3    0    0  0.85341384497E+00  0.44479269148E+01 -0.85620101073E+00  0.46092786271E+01  0.51100000000E-03 0.  1.
        -12    1    3    3    0    0 -0.33600757003E+02 -0.12359356554E+02 -0.12950816824E+02  0.38072144962E+02  0.00000000000E+00 0.  1.
</event>
<event>
 7    1  0.1193961E-011  0.5930193E+02  0.7816164E-02  0.1266605E+00
        -11   -1    0    0    0    0  0.00000000000E+00  0.00000000000E+00  0.45593999997E+02  0.45594000000E+02  0.51100000000E-03 0. -1.
         11   -1    0    0    0    0 -0.00000000000E+00 -0.00000000000E+00 -0.45593999997E+02  0.45594000000E+02  0.51100000000E-03 0.  1.
    9900012    2    1    2    0    0  0.23333469220E+02 -0.92289145404E+01 -0.19674794797E+02  0.59301934082E+02  0.49999981861E+02 0.  0.
         12    1    1    2    0    0 -0.23333469220E+02  0.92289145404E+01  0.19674794797E+02  0.31886065918E+02  0.00000000000E+00 0. -1.
         11    1    3    3    0    0  0.40153559819E+01 -0.11186625138E+02  0.91537205374E+01  0.15001808744E+02  0.51100000000E-03 0. -1.
        -11    1    3    3    0    0 -0.60355539477E+01 -0.44138163172E+01 -0.58296514552E+01  0.94812721872E+01  0.51100000000E-03 0.  1.
        -12    1    3    3    0    0  0.25353667186E+02  0.63715269149E+01 -0.22998863879E+02  0.34818853151E+02  0.00000000000E+00 0.  1.
</event>
<event>
 7    1  0.1193961E-011  0.5930193E+02  0.7816164E-02  0.1266605E+00
        -11   -1    0    0    0    0  0.00000000000E+00  0.00000000000E+00  0.45593999997E+02  0.45594000000E+02  0.51100000000E-03 0. -1.
         11   -1    0    0    0    0 -0.00000000000E+00 -0.00000000000E+00 -0.45593999997E+02  0.45594000000E+02  0.51100000000E-03 0.  1.
    9900012    2    1    2    0    0 -0.16012191353E+02 -0.10231475950E+02 -0.25605625691E+02  0.59301930329E+02  0.49999975016E+02 0.  0.
         12    1    1    2    0    0  0.16012191353E+02  0.10231475950E+02  0.25605625691E+02  0.31886069671E+02  0.00000000000E+00 0. -1.
         11    1    3    3    0    0 -0.48708081751E+01  0.83088028986E+01 -0.62886411971E-01  0.96314553857E+01  0.51100000000E-03 0. -1.
        -11    1    3    3    0    0  0.18204961879E+01 -0.51228378678E+01 -0.30000798518E+02  0.30489434008E+02  0.51100000000E-03 0.  1.
         12    1    3    3    0    0 -0.12961879366E+02 -0.13417440981E+02  0.44580592380E+01  0.19181040935E+02  0.00000000000E+00 0. -1.
</event>
<event>
 7    1  0.1193961E-011  0.5930194E+02  0.7816164E-02  0.1266605E+00
        -11   -1    0    0    0    0  0.00000000000E+00  0.00000000000E+00  0.45593999997E+02  0.45594000000E+02  0.51100000000E-03 0. -1.
         11   -1    0    0    0    0 -0.00000000000E+00 -0.00000000000E+00 -0.45593999997E+02  0.45594000000E+02  0.51100000000E-03 0.  1.
    9900012    2    1    2    0    0  0.17737554094E+01 -0.15597490522E+02 -0.27754152468E+02  0.59301938813E+02  0.49999990490E+02 0.  0.
         12    1    1    2    0    0 -0.17737554094E+01  0.15597490522E+02  0.27754152468E+02  0.31886061187E+02  0.00000000000E+00 0. -1.
         11    1    3    3    0    0  0.11168225773E+02 -0.10470457025E+02  0.37179211818E+01  0.15753814630E+02  0.51100000000E-03 0. -1.
        -11    1    3    3    0    0  0.35553832916E+01 -0.13618324741E+02 -0.19108219830E+02  0.23732332048E+02  0.51100000000E-03 0.  1.
         12    1    3    3    0    0 -0.12949853655E+02  0.84912912440E+01 -0.12363853819E+02  0.19815792135E+02  0.00000000000E+00 0. -1.
</event>
<event>
 7    1  0.1193961E-011  0.5930195E+02  0.7816164E-02  0.1266605E+00
        -11   -1    0    0    0    0  0.00000000000E+00  0.00000000000E+00  0.45593999997E+02  0.45594000000E+02  0.51100000000E-03 0.  1.
         11   -1    0    0    0    0 -0.00000000000E+00 -0.00000000000E+00 -0.45593999997E+02  0.45594000000E+02  0.51100000000E-03 0. -1.
    9900012    2    1    2    0    0  0.42577105111E+01  0.28227233144E+02  0.14206183294E+02  0.59301946096E+02  0.50000003772E+02 0.  0.
         12    1    1    2    0    0 -0.42577105111E+01 -0.28227233144E+02 -0.14206183294E+02  0.31886053904E+02  0.00000000000E+00 0. -1.
         11    1    3    3    0    0  0.22341602535E+01  0.12639227588E+01 -0.12715771940E+02  0.12972271546E+02  0.51100000000E-03 0. -1.
        -11    1    3    3    0    0 -0.51943080617E+01  0.27742898051E+00  0.15620846585E+02  0.16464162638E+02  0.51100000000E-03 0.  1.
        -12    1    3    3    0    0  0.72178583192E+01  0.26685881405E+02  0.11301108649E+02  0.29865511912E+02  0.00000000000E+00 0.  1.
</event>
<event>
 7    1  0.1193961E-011  0.5930195E+02  0.7816164E-02  0.1266605E+00
        -11   -1    0    0    0    0  0.00000000000E+00  0.00000000000E+00  0.45593999997E+02  0.45594000000E+02  0.51100000000E-03 0.  1.
         11   -1    0    0    0    0 -0.00000000000E+00 -0.00000000000E+00 -0.45593999997E+02  0.45594000000E+02  0.51100000000E-03 0. -1.
    9900012    2    1    2    0    0  0.66564013665E+01  0.30069369245E+02 -0.82610712012E+01  0.59301953784E+02  0.50000017792E+02 0.  0.
         12    1    1    2    0    0 -0.66564013665E+01 -0.30069369245E+02  0.82610712012E+01  0.31886046216E+02  0.00000000000E+00 0. -1.
         11    1    3    3    0    0  0.12138419233E+02  0.11607144365E+02 -0.16481008728E+02  0.23530632604E+02  0.51100000000E-03 0. -1.
        -11    1    3    3    0    0  0.65845090617E+01 -0.49222261147E+01  0.39217286231E+01  0.91084589894E+01  0.51100000000E-03 0.  1.
         12    1    3    3    0    0 -0.12066526928E+02  0.23384450994E+02  0.42982089038E+01  0.26662862190E+02  0.00000000000E+00 0. -1.
</event>
<event>
 7    1  0.1193961E-011  0.5930204E+02  0.7816164E-02  0.1266604E+00
        -11   -1    0    0    0    0  0.00000000000E+00  0.00000000000E+00  0.45593999997E+02  0.45594000000E+02  0.51100000000E-03 0.  1.
         11   -1    0    0    0    0 -0.00000000000E+00 -0.00000000000E+00 -0.45593999997E+02  0.45594000000E+02  0.51100000000E-03 0. -1.
    9900012    2    1    2    0    0  0.22154418323E+02 -0.18418195967E+02  0.13662575358E+02  0.59302044482E+02  0.50000183204E+02 0.  0.
         12    1    1    2    0    0 -0.22154418323E+02  0.18418195967E+02 -0.13662575358E+02  0.31885955518E+02  0.00000000000E+00 0. -1.
         11    1    3    3    0    0 -0.91692085200E+00 -0.74305318468E+01 -0.66052524118E+01  0.99841327645E+01  0.51100000000E-03 0. -1.
        -11    1    3    3    0    0 -0.49616346061E+01 -0.14056796384E+02  0.56710453262E+00  0.14917538348E+02  0.51100000000E-03 0.  1.
        -12    1    3    3    0    0  0.28032973781E+02  0.30691322642E+01  0.19700723237E+02  0.34400373369E+02  0.00000000000E+00 0.  1.
</event>
<event>
 7    1  0.1193961E-011  0.5930200E+02  0.7816164E-02  0.1266605E+00
        -11   -1    0    0    0    0  0.00000000000E+00  0.00000000000E+00  0.45593999997E+02  0.45594000000E+02  0.51100000000E-03 0. -1.
         11   -1    0    0    0    0 -0.00000000000E+00 -0.00000000000E+00 -0.45593999997E+02  0.45594000000E+02  0.51100000000E-03 0.  1.
    9900012    2    1    2    0    0  0.25921620552E+02 -0.13501584648E+02 -0.12747301737E+02  0.59302001480E+02  0.50000104779E+02 0.  0.
         12    1    1    2    0    0 -0.25921620552E+02  0.13501584648E+02  0.12747301737E+02  0.31885998520E+02  0.00000000000E+00 0. -1.
         11    1    3    3    0    0  0.92790788855E+01 -0.24284748201E+02 -0.12764545297E+02  0.28961766470E+02  0.51100000000E-03 0. -1.
        -11    1    3    3    0    0  0.76127591547E+01 -0.68994324656E+01  0.17022075714E+01  0.10414114517E+02  0.51100000000E-03 0.  1.
         12    1    3    3    0    0  0.90297825121E+01  0.17682596019E+02 -0.16849640114E+01  0.19926120493E+02  0.00000000000E+00 0. -1.
</event>
<event>
 7    1  0.1193961E-011  0.5930192E+02  0.7816164E-02  0.1266605E+00
        -11   -1    0    0    0    0  0.00000000000E+00  0.00000000000E+00  0.45593999997E+02  0.45594000000E+02  0.51100000000E-03 0. -1.
         11   -1    0    0    0    0 -0.00000000000E+00 -0.00000000000E+00 -0.45593999997E+02  0.45594000000E+02  0.51100000000E-03 0.  1.
    9900012    2    1    2    0    0 -0.95189874101E+00 -0.29132666346E+02 -0.12926870475E+02  0.59301916203E+02  0.49999949254E+02 0.  0.
         12    1    1    2    0    0  0.95189874101E+00  0.29132666346E+02  0.12926870475E+02  0.31886083797E+02  0.00000000000E+00 0. -1.
         11    1    3    3    0    0 -0.66141069837E+01 -0.11025098361E+01 -0.79937084876E+01  0.10433662577E+02  0.51100000000E-03 0. -1.
        -11    1    3    3    0    0  0.77573794483E+01 -0.26753396018E+02  0.13020127012E+02  0.30748086804E+02  0.51100000000E-03 0.  1.
         12    1    3    3    0    0 -0.20951712056E+01 -0.12767604920E+01 -0.17953289000E+02  0.18120166822E+02  0.00000000000E+00 0. -1.
</event>
<event>
 7    1  0.1193961E-011  0.5930203E+02  0.7816164E-02  0.1266604E+00
        -11   -1    0    0    0    0  0.00000000000E+00  0.00000000000E+00  0.45593999997E+02  0.45594000000E+02  0.51100000000E-03 0.  1.
         11   -1    0    0    0    0 -0.00000000000E+00 -0.00000000000E+00 -0.45593999997E+02  0.45594000000E+02  0.51100000000E-03 0. -1.
    9900012    2    1    2    0    0 -0.84239004510E+01 -0.17646248658E+02 -0.25186564755E+02  0.59302027619E+02  0.50000152451E+02 0.  0.
         12    1    1    2    0    0  0.84239004510E+01  0.17646248658E+02  0.25186564755E+02  0.31885972381E+02  0.00000000000E+00 0. -1.
         11    1    3    3    0    0  0.78876215529E+01 -0.14840774727E+02 -0.26584631418E+02  0.31451642185E+02  0.51100000000E-03 0. -1.
        -11    1    3    3    0    0 -0.61783505735E+01  0.79797378851E+01 -0.55327225383E+01  0.11509094294E+02  0.51100000000E-03 0.  1.
        -12    1    3    3    0    0 -0.10133171431E+02 -0.10785211816E+02  0.69307892017E+01  0.16341291140E+02  0.00000000000E+00 0.  1.
</event>
<event>
 7    1  0.1193961E-011  0.5930200E+02  0.7816164E-02  0.1266605E+00
        -11   -1    0    0    0    0  0.00000000000E+00  0.00000000000E+00  0.45593999997E+02  0.45594000000E+02  0.51100000000E-03 0.  1.
         11   -1    0    0    0    0 -0.00000000000E+00 -0.00000000000E+00 -0.45593999997E+02  0.45594000000E+02  0.51100000000E-03 0. -1.
    9900012    2    1    2    0    0 -0.88422722554E+01  0.20635204059E+02  0.22643310651E+02  0.59302000840E+02  0.50000103611E+02 0.  0.
         12    1    1    2    0    0  0.88422722554E+01 -0.20635204059E+02 -0.22643310651E+02  0.31885999160E+02  0.00000000000E+00 0. -1.
         11    1    3    3    0    0  0.87295543133E+01 -0.27898658311E+00  0.17709733036E+01  0.89117505983E+01  0.51100000000E-03 0. -1.
        -11    1    3    3    0    0 -0.52218241542E+01  0.66143195378E+01 -0.10685308326E+02  0.13608544548E+02  0.51100000000E-03 0.  1.
         12    1    3    3    0    0 -0.12350002414E+02  0.14299871105E+02  0.31557645673E+02  0.36781705693E+02  0.00000000000E+00 0. -1.
</event>
<event>
 7    1  0.1193961E-011  0.5930196E+02  0.7816164E-02  0.1266605E+00
        -11   -1    0    0    0    0  0.00000000000E+00  0.00000000000E+00  0.45593999997E+02  0.45594000000E+02  0.51100000000E-03 0. -1.
         11   -1    0    0    0    0 -0.00000000000E+00 -0.00000000000E+00 -0.45593999997E+02  0.45594000000E+02  0.51100000000E-03 0.  1.
    9900012    2    1    2    0    0  0.31737191601E+02  0.50238894001E+00 -0.30360736486E+01  0.59301961228E+02  0.50000031370E+02 0.  0.
         12    1    1    2    0    0 -0.31737191601E+02 -0.50238894001E+00  0.30360736486E+01  0.31886038772E+02  0.00000000000E+00 0. -1.
         11    1    3    3    0    0  0.14898224049E+02 -0.83498322825E+01 -0.49623080964E+01  0.17784861002E+02  0.51100000000E-03 0.  1.
        -11    1    3    3    0    0  0.84239975627E+01  0.13881531253E+02 -0.14903499806E+02  0.22040302893E+02  0.51100000000E-03 0. -1.
         12    1    3    3    0    0  0.84149699889E+01 -0.50293100307E+01  0.16829734254E+02  0.19476797333E+02  0.00000000000E+00 0. -1.
</event>
<event>
 7    1  0.1193961E-011  0.5930195E+02  0.7816164E-02  0.1266605E+00
        -11   -1    0    0    0    0  0.00000000000E+00  0.00000000000E+00  0.45593999997E+02  0.45594000000E+02  0.51100000000E-03 0.  1.
         11   -1    0    0    0    0 -0.00000000000E+00 -0.00000000000E+00 -0.45593999997E+02  0.45594000000E+02  0.51100000000E-03 0. -1.
    9900012    2    1    2    0    0 -0.59525407028E+01  0.13611464611E+00  0.31325216830E+02  0.59301945407E+02  0.50000002516E+02 0.  0.
         12    1    1    2    0    0  0.59525407028E+01 -0.13611464611E+00 -0.31325216830E+02  0.31886054593E+02  0.00000000000E+00 0. -1.
         11    1    3    3    0    0  0.34330653862E+01 -0.30297391503E+01  0.26179571395E+02  0.26576967772E+02  0.51100000000E-03 0. -1.
        -11    1    3    3    0    0 -0.14662634521E+01 -0.12519488801E+02  0.79914658538E+01  0.14924846904E+02  0.51100000000E-03 0.  1.
         12    1    3    3    0    0 -0.79193426369E+01  0.15685342597E+02 -0.28458204187E+01  0.17800130731E+02  0.00000000000E+00 0. -1.
</event>
<event>
 7    1  0.1193961E-011  0.5930194E+02  0.7816164E-02  0.1266605E+00
        -11   -1    0    0    0    0  0.00000000000E+00  0.00000000000E+00  0.45593999997E+02  0.45594000000E+02  0.51100000000E-03 0.  1.
         11   -1    0    0    0    0 -0.00000000000E+00 -0.00000000000E+00 -0.45593999997E+02  0.45594000000E+02  0.51100000000E-03 0. -1.
    9900012    2    1    2    0    0 -0.13268530947E+02  0.89727020768E+01  0.27570955667E+02  0.59301938900E+02  0.49999990649E+02 0.  0.
         12    1    1    2    0    0  0.13268530947E+02 -0.89727020768E+01 -0.27570955667E+02  0.31886061100E+02  0.00000000000E+00 0. -1.
         11    1    3    3    0    0 -0.14316132737E+02 -0.41219253428E+01  0.20299179242E+02  0.25179328888E+02  0.51100000000E-03 0. -1.
        -11    1    3    3    0    0 -0.14574246941E+02  0.35053764981E+01  0.27031961539E+01  0.15231664650E+02  0.51100000000E-03 0.  1.
        -12    1    3    3    0    0  0.15621848731E+02  0.95892509215E+01  0.45685802712E+01  0.18890945363E+02  0.00000000000E+00 0.  1.
</event>
<event>
 7    1  0.1193961E-011  0.5930194E+02  0.7816164E-02  0.1266605E+00
        -11   -1    0    0    0    0  0.00000000000E+00  0.00000000000E+00  0.45593999997E+02  0.45594000000E+02  0.51100000000E-03 0. -1.
         11   -1    0    0    0    0 -0.00000000000E+00 -0.00000000000E+00 -0.45593999997E+02  0.45594000000E+02  0.51100000000E-03 0.  1.
    9900012    2    1    2    0    0 -0.70222257517E+01  0.30451529934E+02 -0.63335027886E+01  0.59301943683E+02  0.49999999372E+02 0.  0.
         12    1    1    2    0    0  0.70222257517E+01 -0.30451529934E+02  0.63335027886E+01  0.31886056317E+02  0.00000000000E+00 0. -1.
         11    1    3    3    0    0  0.50317933117E+01  0.31036516233E+02  0.82621524660E+01  0.32509190199E+02  0.51100000000E-03 0. -1.
        -11    1    3    3    0    0 -0.22712154989E+01  0.84449175630E+01 -0.83351896404E+01  0.12080994954E+02  0.51100000000E-03 0.  1.
         12    1    3    3    0    0 -0.97828035645E+01 -0.90299038613E+01 -0.62604656142E+01  0.14711758530E+02  0.00000000000E+00 0. -1.
</event>
<event>
 7    1  0.1193961E-011  0.5930194E+02  0.7816164E-02  0.1266605E+00
        -11   -1    0    0    0    0  0.00000000000E+00  0.00000000000E+00  0.45593999997E+02  0.45594000000E+02  0.51100000000E-03 0.  1.
         11   -1    0    0    0    0 -0.00000000000E+00 -0.00000000000E+00 -0.45593999997E+02  0.45594000000E+02  0.51100000000E-03 0. -1.
    9900012    2    1    2    0    0 -0.29581723428E+02  0.11900885218E+02  0.10777968138E+00  0.59301936487E+02  0.49999986247E+02 0.  0.
         12    1    1    2    0    0  0.29581723428E+02 -0.11900885218E+02 -0.10777968138E+00  0.31886063513E+02  0.00000000000E+00 0. -1.
         11    1    3    3    0    0  0.14661905065E+01  0.79336334331E+00  0.88179589175E+01  0.89741595556E+01  0.51100000000E-03 0. -1.
        -11    1    3    3    0    0 -0.28972328277E+02  0.14824189873E+02  0.76426344723E+01  0.33429960711E+02  0.51100000000E-03 0.  1.
        -12    1    3    3    0    0 -0.20755856568E+01 -0.37166679983E+01 -0.16352813708E+02  0.16897816220E+02  0.00000000000E+00 0.  1.
</event>
<event>
 7    1  0.1193961E-011  0.5930194E+02  0.7816164E-02  0.1266605E+00
        -11   -1    0    0    0    0  0.00000000000E+00  0.00000000000E+00  0.45593999997E+02  0.45594000000E+02  0.51100000000E-03 0.  1.
         11   -1    0    0    0    0 -0.00000000000E+00 -0.00000000000E+00 -0.45593999997E+02  0.45594000000E+02  0.51100000000E-03 0. -1.
    9900012    2    1    2    0    0  0.24056571662E+02  0.70959483086E+01  0.19688828388E+02  0.59301935868E+02  0.49999985118E+02 0.  0.
         12    1    1    2    0    0 -0.24056571662E+02 -0.70959483086E+01 -0.19688828388E+02  0.31886064132E+02  0.00000000000E+00 0. -1.
         11    1    3    3    0    0  0.95512152078E+01 -0.63206365882E+01 -0.78721442892E+01  0.13897726965E+02  0.51100000000E-03 0. -1.
        -11    1    3    3    0    0  0.18090787115E+01 -0.95833755534E+01  0.86273566004E+01  0.13020949848E+02  0.51100000000E-03 0.  1.
        -12    1    3    3    0    0  0.12696277743E+02  0.22999960450E+02  0.18933616077E+02  0.32383259054E+02  0.00000000000E+00 0.  1.
</event>
<event>
 7    1  0.1193961E-011  0.5930194E+02  0.7816164E-02  0.1266605E+00
        -11   -1    0    0    0    0  0.00000000000E+00  0.00000000000E+00  0.45593999997E+02  0.45594000000E+02  0.51100000000E-03 0.  1.
         11   -1    0    0    0    0 -0.00000000000E+00 -0.00000000000E+00 -0.45593999997E+02  0.45594000000E+02  0.51100000000E-03 0. -1.
    9900012    2    1    2    0    0  0.21427182253E+02 -0.20162794820E+02  0.12290573907E+02  0.59301942840E+02  0.49999997833E+02 0.  0.
         12    1    1    2    0    0 -0.21427182253E+02  0.20162794820E+02 -0.12290573907E+02  0.31886057160E+02  0.00000000000E+00 0. -1.
         11    1    3    3    0    0  0.16055182218E+02 -0.74567071865E+00 -0.19378506649E+01  0.16188890213E+02  0.51100000000E-03 0. -1.
        -11    1    3    3    0    0  0.18204604674E+02 -0.20971972989E+02  0.97056482271E+01  0.29418206780E+02  0.51100000000E-03 0.  1.
        -12    1    3    3    0    0 -0.12832604639E+02  0.15548488874E+01  0.45227763450E+01  0.13694845846E+02  0.00000000000E+00 0.  1.
</event>
<event>
 7    1  0.1193961E-011  0.5930206E+02  0.7816164E-02  0.1266604E+00
        -11   -1    0    0    0    0  0.00000000000E+00  0.00000000000E+00  0.45593999997E+02  0.45594000000E+02  0.51100000000E-03 0.  1.
         11   -1    0    0    0    0 -0.00000000000E+00 -0.00000000000E+00 -0.45593999997E+02  0.45594000000E+02  0.51100000000E-03 0. -1.
    9900012    2    1    2    0    0  0.42875025123E+01  0.29704853709E+02  0.10768118837E+02  0.59302056467E+02  0.50000205063E+02 0.  0.
         12    1    1    2    0    0 -0.42875025123E+01 -0.29704853709E+02 -0.10768118837E+02  0.31885943533E+02  0.00000000000E+00 0. -1.
         11    1    3    3    0    0  0.21735694841E+01  0.23700736575E+02 -0.57260235983E+01  0.24479310959E+02  0.51100000000E-03 0. -1.
        -11    1    3    3    0    0 -0.13554063014E+02  0.61076368563E+01  0.96560241821E+01  0.17727229209E+02  0.51100000000E-03 0.  1.
        -12    1    3    3    0    0  0.15667996042E+02 -0.10351972218E+00  0.68381182530E+01  0.17095516300E+02  0.00000000000E+00 0.  1.
</event>
<event>
 7    1  0.1193961E-011  0.5930195E+02  0.7816164E-02  0.1266605E+00
        -11   -1    0    0    0    0  0.00000000000E+00  0.00000000000E+00  0.45593999997E+02  0.45594000000E+02  0.51100000000E-03 0.  1.
         11   -1    0    0    0    0 -0.00000000000E+00 -0.00000000000E+00 -0.45593999997E+02  0.45594000000E+02  0.51100000000E-03 0. -1.
    9900012    2    1    2    0    0  0.10029850227E+02  0.11187534215E+02  0.28124035019E+02  0.59301950337E+02  0.50000011506E+02 0.  0.
         12    1    1    2    0    0 -0.10029850227E+02 -0.11187534215E+02 -0.28124035019E+02  0.31886049663E+02  0.00000000000E+00 0. -1.
         11    1    3    3    0    0 -0.12795304494E+01  0.10117828826E+02  0.22892186373E+01  0.10452185444E+02  0.51100000000E-03 0. -1.
        -11    1    3    3    0    0 -0.53097449249E+01  0.17335440694E+02  0.12774398565E+02  0.22178732023E+02  0.51100000000E-03 0.  1.
         12    1    3    3    0    0  0.16619125601E+02 -0.16265735305E+02  0.13060417817E+02  0.26671032869E+02  0.00000000000E+00 0. -1.
</event>
<event>
 7    1  0.1193961E-011  0.5930184E+02  0.7816164E-02  0.1266605E+00
        -11   -1    0    0    0    0  0.00000000000E+00  0.00000000000E+00  0.45593999997E+02  0.45594000000E+02  0.51100000000E-03 0. -1.
         11   -1    0    0    0    0 -0.00000000000E+00 -0.00000000000E+00 -0.45593999997E+02  0.45594000000E+02  0.51100000000E-03 0.  1.
    9900012    2    1    2    0    0 -0.40264159624E+01  0.84719025569E+01 -0.30475267370E+02  0.59301841879E+02  0.49999813705E+02 0.  0.
         12    1    1    2    0    0  0.40264159624E+01 -0.84719025569E+01  0.30475267370E+02  0.31886158121E+02  0.00000000000E+00 0. -1.
         11    1    3    3    0    0 -0.51760101417E+01  0.10092437078E+01  0.80309488406E+01  0.96075904050E+01  0.51100000000E-03 0. -1.
        -11    1    3    3    0    0  0.10881967893E+02  0.14073481449E+02 -0.14464787115E+02  0.22928370459E+02  0.51100000000E-03 0.  1.
        -12    1    3    3    0    0 -0.97323737140E+01 -0.66108226002E+01 -0.24041429096E+02  0.26765881015E+02  0.00000000000E+00 0.  1.
</event>
<event>
 7    1  0.1193961E-011  0.5930195E+02  0.7816164E-02  0.1266605E+00
        -11   -1    0    0    0    0  0.00000000000E+00  0.00000000000E+00  0.45593999997E+02  0.45594000000E+02  0.51100000000E-03 0. -1.
         11   -1    0    0    0    0 -0.00000000000E+00 -0.00000000000E+00 -0.45593999997E+02  0.45594000000E+02  0.51100000000E-03 0.  1.
    9900012    2    1    2    0    0  0.22805506726E+02 -0.19734395155E+02  0.10352908152E+02  0.59301949815E+02  0.50000010555E+02 0.  0.
         12    1    1    2    0    0 -0.22805506726E+02  0.19734395155E+02 -0.10352908152E+02  0.31886050185E+02  0.00000000000E+00 0. -1.
         11    1    3    3    0    0  0.44556650719E+01 -0.18267690410E+02  0.45236244151E+01  0.19339716705E+02  0.51100000000E-03 0.  1.
        -11    1    3    3    0    0  0.28436059286E+02 -0.43487530637E+01  0.63508744653E+01  0.29459374189E+02  0.51100000000E-03 0. -1.
         12    1    3    3    0    0 -0.10086217632E+02  0.28820483181E+01 -0.52159072839E+00  0.10502858921E+02  0.00000000000E+00 0. -1.
</event>
<event>
 7    1  0.1193961E-011  0.5930194E+02  0.7816164E-02  0.1266605E+00
        -11   -1    0    0    0    0  0.00000000000E+00  0.00000000000E+00  0.45593999997E+02  0.45594000000E+02  0.51100000000E-03 0.  1.
         11   -1    0    0    0    0 -0.00000000000E+00 -0.00000000000E+00 -0.45593999997E+02  0.45594000000E+02  0.51100000000E-03 0. -1.
    9900012    2    1    2    0    0 -0.22355601249E+02  0.14503631513E+02 -0.17509788965E+02  0.59301938094E+02  0.49999989178E+02 0.  0.
         12    1    1    2    0    0  0.22355601249E+02 -0.14503631513E+02  0.17509788965E+02  0.31886061906E+02  0.00000000000E+00 0. -1.
         11    1    3    3    0    0 -0.48154509527E+00  0.24146486555E+01 -0.13320767861E+02  0.13546411720E+02  0.51100000000E-03 0. -1.
        -11    1    3    3    0    0  0.71986904412E+01  0.68602273104E+01 -0.11621913652E+02  0.15295513722E+02  0.51100000000E-03 0.  1.
        -12    1    3    3    0    0 -0.29072746595E+02  0.52287555471E+01  0.74328925476E+01  0.30460012652E+02  0.00000000000E+00 0.  1.
</event>
<event>
 7    1  0.1193961E-011  0.5930203E+02  0.7816164E-02  0.1266604E+00
        -11   -1    0    0    0    0  0.00000000000E+00  0.00000000000E+00  0.45593999997E+02  0.45594000000E+02  0.51100000000E-03 0. -1.
         11   -1    0    0    0    0 -0.00000000000E+00 -0.00000000000E+00 -0.45593999997E+02  0.45594000000E+02  0.51100000000E-03 0.  1.
    9900012    2    1    2    0    0 -0.10982323272E+01  0.36259001870E+01 -0.31660098069E+02  0.59302030105E+02  0.50000156984E+02 0.  0.
         12    1    1    2    0    0  0.10982323272E+01 -0.36259001870E+01  0.31660098069E+02  0.31885969895E+02  0.00000000000E+00 0. -1.
         11    1    3    3    0    0 -0.44101416334E+00  0.80959642058E+01 -0.33634985429E+02  0.34598430238E+02  0.51100000000E-03 0.  1.
        -11    1    3    3    0    0 -0.81761644173E+01  0.68679219254E+01 -0.11653025425E+01  0.10741319585E+02  0.51100000000E-03 0. -1.
         12    1    3    3    0    0  0.75189462534E+01 -0.11337985944E+02  0.31401899019E+01  0.13962280281E+02  0.00000000000E+00 0. -1.
</event>
<event>
 7    1  0.1193961E-011  0.5930190E+02  0.7816164E-02  0.1266605E+00
        -11   -1    0    0    0    0  0.00000000000E+00  0.00000000000E+00  0.45593999997E+02  0.45594000000E+02  0.51100000000E-03 0.  1.
         11   -1    0    0    0    0 -0.00000000000E+00 -0.00000000000E+00 -0.45593999997E+02  0.45594000000E+02  0.51100000000E-03 0. -1.
    9900012    2    1    2    0    0 -0.22923650653E+02 -0.16030907209E+02  0.15304886769E+02  0.59301901082E+02  0.49999921677E+02 0.  0.
         12    1    1    2    0    0  0.22923650653E+02  0.16030907209E+02 -0.15304886769E+02  0.31886098918E+02  0.00000000000E+00 0. -1.
         11    1    3    3    0    0 -0.24069000123E+02  0.89060417342E+01  0.81146519595E+01  0.26916201868E+02  0.51100000000E-03 0. -1.
        -11    1    3    3    0    0 -0.32459691709E+01  0.62951182981E+00  0.54651887210E+01  0.63875573594E+01  0.51100000000E-03 0.  1.
         12    1    3    3    0    0  0.43913186409E+01 -0.25566460773E+02  0.17250460881E+01  0.25998141855E+02  0.00000000000E+00 0. -1.
</event>
<event>
 7    1  0.1193961E-011  0.5930192E+02  0.7816164E-02  0.1266605E+00
        -11   -1    0    0    0    0  0.00000000000E+00  0.00000000000E+00  0.45593999997E+02  0.45594000000E+02  0.51100000000E-03 0.  1.
         11   -1    0    0    0    0 -0.00000000000E+00 -0.00000000000E+00 -0.45593999997E+02  0.45594000000E+02  0.51100000000E-03 0. -1.
    9900012    2    1    2    0    0  0.15774246629E+02 -0.24999007862E+02  0.11955945177E+02  0.59301923479E+02  0.49999962525E+02 0.  0.
         12    1    1    2    0    0 -0.15774246629E+02  0.24999007862E+02 -0.11955945177E+02  0.31886076521E+02  0.00000000000E+00 0. -1.
         11    1    3    3    0    0 -0.37728289636E+01 -0.63781078166E+01 -0.51926408097E+01  0.90486472220E+01  0.51100000000E-03 0. -1.
        -11    1    3    3    0    0  0.37572780777E+01 -0.20954060653E+02 -0.60161683133E+01  0.22122026983E+02  0.51100000000E-03 0.  1.
        -12    1    3    3    0    0  0.15789797515E+02  0.23331606071E+01  0.23164754300E+02  0.28131249275E+02  0.00000000000E+00 0.  1.
</event>
<event>
 7    1  0.1193961E-011  0.5930192E+02  0.7816164E-02  0.1266605E+00
        -11   -1    0    0    0    0  0.00000000000E+00  0.00000000000E+00  0.45593999997E+02  0.45594000000E+02  0.51100000000E-03 0.  1.
         11   -1    0    0    0    0 -0.00000000000E+00 -0.00000000000E+00 -0.45593999997E+02  0.45594000000E+02  0.51100000000E-03 0. -1.
    9900012    2    1    2    0    0  0.34704542308E+01  0.11447543920E+02  0.29557262304E+02  0.59301920447E+02  0.49999956995E+02 0.  0.
         12    1    1    2    0    0 -0.34704542308E+01 -0.11447543920E+02 -0.29557262304E+02  0.31886079553E+02  0.00000000000E+00 0. -1.
         11    1    3    3    0    0  0.83099957555E+01  0.17245797077E+01  0.58288381878E+01  0.10295900131E+02  0.51100000000E-03 0.  1.
        -11    1    3    3    0    0  0.17533013037E+02  0.71997714735E+01  0.47004424032E+01  0.19527862517E+02  0.51100000000E-03 0. -1.
         12    1    3    3    0    0 -0.22372554562E+02  0.25231927384E+01  0.19027981713E+02  0.29478157800E+02  0.00000000000E+00 0. -1.
</event>
<event>
 7    1  0.1193961E-011  0.5930228E+02  0.7816164E-02  0.1266604E+00
        -11   -1    0    0    0    0  0.00000000000E+00  0.00000000000E+00  0.45593999997E+02  0.45594000000E+02  0.51100000000E-03 0.  1.
         11   -1    0    0    0    0 -0.00000000000E+00 -0.00000000000E+00 -0.45593999997E+02  0.45594000000E+02  0.51100000000E-03 0. -1.
    9900012    2    1    2    0    0  0.12230413471E+02 -0.23087738672E+02  0.18277650644E+02  0.59302279000E+02  0.50000610905E+02 0.  0.
         12    1    1    2    0    0 -0.12230413471E+02  0.23087738672E+02 -0.18277650644E+02  0.31885721000E+02  0.00000000000E+00 0. -1.
         11    1    3    3    0    0 -0.70952001730E+01 -0.39681762773E+01  0.15863092513E+02  0.17824870064E+02  0.51100000000E-03 0. -1.
        -11    1    3    3    0    0 -0.13335297161E+01  0.24143853409E+01  0.10258060373E+02  0.10622399020E+02  0.51100000000E-03 0.  1.
         12    1    3    3    0    0  0.20659143360E+02 -0.21533947736E+02 -0.78435022423E+01  0.30855009915E+02  0.00000000000E+00 0. -1.
</event>
<event>
 7    1  0.1193961E-011  0.5930192E+02  0.7816164E-02  0.1266605E+00
        -11   -1    0    0    0    0  0.00000000000E+00  0.00000000000E+00  0.45593999997E+02  0.45594000000E+02  0.51100000000E-03 0.  1.
         11   -1    0    0    0    0 -0.00000000000E+00 -0.00000000000E+00 -0.45593999997E+02  0.45594000000E+02  0.51100000000E-03 0. -1.
    9900012    2    1    2    0    0 -0.14013588668E+02  0.92787911427E+01  0.27096962521E+02  0.59301921372E+02  0.49999958681E+02 0.  0.
         12    1    1    2    0    0  0.14013588668E+02 -0.92787911427E+01 -0.27096962521E+02  0.31886078628E+02  0.00000000000E+00 0. -1.
         11    1    3    3    0    0  0.50710737635E+01 -0.30506926122E+01  0.22474641065E+02  0.23240740216E+02  0.51100000000E-03 0. -1.
        -11    1    3    3    0    0 -0.59332931064E+01  0.12590897247E+02  0.14127515729E+02  0.19832331217E+02  0.51100000000E-03 0.  1.
        -12    1    3    3    0    0 -0.13151369325E+02 -0.26141349230E+00 -0.95051942738E+01  0.16228849938E+02  0.00000000000E+00 0.  1.
</event>
<event>
 7    1  0.1213600E-011  0.5930190E+02  0.7816164E-02  0.1266605E+00
        -11   -1    0    0    0    0  0.00000000000E+00  0.00000000000E+00  0.45593999997E+02  0.45594000000E+02  0.51100000000E-03 0. -1.
         11   -1    0    0    0    0 -0.00000000000E+00 -0.00000000000E+00 -0.45593999997E+02  0.45594000000E+02  0.51100000000E-03 0.  1.
    9900012    2    1    2    0    0  0.18034813248E+02 -0.58865747443E+01 -0.25628447791E+02  0.59301896643E+02  0.49999913581E+02 0.  0.
         12    1    1    2    0    0 -0.18034813248E+02  0.58865747443E+01  0.25628447791E+02  0.31886103357E+02  0.00000000000E+00 0. -1.
         11    1    3    3    0    0  0.98154215883E+01  0.74638685270E+01  0.45960947769E+01  0.13159632282E+02  0.51100000000E-03 0. -1.
        -11    1    3    3    0    0  0.17926922778E+02 -0.11819784469E+02 -0.10064517614E+02  0.23714476174E+02  0.51100000000E-03 0.  1.
        -12    1    3    3    0    0 -0.97075311179E+01 -0.15306588023E+01 -0.20160024954E+02  0.22427788186E+02  0.00000000000E+00 0.  1.
</event>
<event>
 7    1  0.1193961E-011  0.5930197E+02  0.7816164E-02  0.1266605E+00
        -11   -1    0    0    0    0  0.00000000000E+00  0.00000000000E+00  0.45593999997E+02  0.45594000000E+02  0.51100000000E-03 0. -1.
         11   -1    0    0    0    0 -0.00000000000E+00 -0.00000000000E+00 -0.45593999997E+02  0.45594000000E+02  0.51100000000E-03 0.  1.
    9900012    2    1    2    0    0  0.30740557810E+02  0.82427477095E+01  0.19478302910E+01  0.59301971287E+02  0.50000049714E+02 0.  0.
         12    1    1    2    0    0 -0.30740557810E+02 -0.82427477095E+01 -0.19478302910E+01  0.31886028713E+02  0.00000000000E+00 0. -1.
         11    1    3    3    0    0 -0.24071814266E+01  0.11325973549E+00 -0.52033188516E+01  0.57342721875E+01  0.51100000000E-03 0. -1.
        -11    1    3    3    0    0  0.10022373544E+02 -0.16395735211E+02  0.58316969751E+00  0.19225196793E+02  0.51100000000E-03 0.  1.
        -12    1    3    3    0    0  0.23125365692E+02  0.24525223185E+02  0.65679794451E+01  0.34342502306E+02  0.00000000000E+00 0.  1.
</event>
<event>
 7    1  0.1193961E-011  0.5930193E+02  0.7816164E-02  0.1266605E+00
        -11   -1    0    0    0    0  0.00000000000E+00  0.00000000000E+00  0.45593999997E+02  0.45594000000E+02  0.51100000000E-03 0. -1.
         11   -1    0    0    0    0 -0.00000000000E+00 -0.00000000000E+00 -0.45593999997E+02  0.45594000000E+02  0.51100000000E-03 0.  1.
    9900012    2    1    2    0    0  0.21215607542E+02  0.18699822196E+02 -0.14728756216E+02  0.59301927598E+02  0.49999970036E+02 0.  0.
         12    1    1    2    0    0 -0.21215607542E+02 -0.18699822196E+02  0.14728756216E+02  0.31886072402E+02  0.00000000000E+00 0. -1.
         11    1    3    3    0    0  0.22411698804E+02  0.63217507405E+01 -0.23854500785E+01  0.23408100052E+02  0.51100000000E-03 0. -1.
        -11    1    3    3    0    0  0.40369435313E+01  0.21502035397E+02 -0.12833958093E+02  0.25364244910E+02  0.51100000000E-03 0.  1.
        -12    1    3    3    0    0 -0.52330347929E+01 -0.91239639411E+01  0.49065195474E+00  0.10529582636E+02  0.00000000000E+00 0.  1.
</event>
<event>
 7    1  0.1193961E-011  0.5930193E+02  0.7816164E-02  0.1266605E+00
        -11   -1    0    0    0    0  0.00000000000E+00  0.00000000000E+00  0.45593999997E+02  0.45594000000E+02  0.51100000000E-03 0. -1.
         11   -1    0    0    0    0 -0.00000000000E+00 -0.00000000000E+00 -0.45593999997E+02  0.45594000000E+02  0.51100000000E-03 0.  1.
    9900012    2    1    2    0    0  0.14661854925E+02 -0.21374485485E+02 -0.18571021516E+02  0.59301930005E+02  0.49999974425E+02 0.  0.
         12    1    1    2    0    0 -0.14661854925E+02  0.21374485485E+02  0.18571021516E+02  0.31886069995E+02  0.00000000000E+00 0. -1.
         11    1    3    3    0    0  0.23725822626E+02 -0.11974795034E+02 -0.44558260768E+01  0.26947444437E+02  0.51100000000E-03 0. -1.
        -11    1    3    3    0    0  0.69841610799E+01 -0.92993457407E+01 -0.10996941882E+02  0.16005907291E+02  0.51100000000E-03 0.  1.
        -12    1    3    3    0    0 -0.16048128781E+02 -0.10034471078E+00 -0.31182535579E+01  0.16348578277E+02  0.00000000000E+00 0.  1.
</event>
<event>
 7    1  0.1193961E-011  0.5930194E+02  0.7816164E-02  0.1266605E+00
        -11   -1    0    0    0    0  0.00000000000E+00  0.00000000000E+00  0.45593999997E+02  0.45594000000E+02  0.51100000000E-03 0.  1.
         11   -1    0    0    0    0 -0.00000000000E+00 -0.00000000000E+00 -0.45593999997E+02  0.45594000000E+02  0.51100000000E-03 0. -1.
    9900012    2    1    2    0    0  0.29364886538E+02  0.11163163741E+02  0.54596927664E+01  0.59301936725E+02  0.49999986682E+02 0.  0.
         12    1    1    2    0    0 -0.29364886538E+02 -0.11163163741E+02 -0.54596927664E+01  0.31886063275E+02  0.00000000000E+00 0. -1.
         11    1    3    3    0    0  0.32921954352E+01 -0.11514254774E+02  0.34282237873E+01  0.12456698294E+02  0.51100000000E-03 0. -1.
        -11    1    3    3    0    0 -0.46792047955E+01  0.15712476418E+01  0.76723476865E+01  0.91229762662E+01  0.51100000000E-03 0.  1.
        -12    1    3    3    0    0  0.30751895898E+02  0.21106170873E+02 -0.56408787074E+01  0.37722262165E+02  0.00000000000E+00 0.  1.
</event>
<event>
 7    1  0.1193961E-011  0.5930200E+02  0.7816164E-02  0.1266605E+00
        -11   -1    0    0    0    0  0.00000000000E+00  0.00000000000E+00  0.45593999997E+02  0.45594000000E+02  0.51100000000E-03 0.  1.
         11   -1    0    0    0    0 -0.00000000000E+00 -0.00000000000E+00 -0.45593999997E+02  0.45594000000E+02  0.51100000000E-03 0. -1.
    9900012    2    1    2    0    0  0.14649682876E+02  0.20543973150E+02  0.19494848221E+02  0.59301997611E+02  0.50000097724E+02 0.  0.
         12    1    1    2    0    0 -0.14649682876E+02 -0.20543973150E+02 -0.19494848221E+02  0.31886002389E+02  0.00000000000E+00 0. -1.
         11    1    3    3    0    0  0.47428393564E+01  0.76273343485E+01 -0.74080461669E+01  0.11642590034E+02  0.51100000000E-03 0. -1.
        -11    1    3    3    0    0 -0.11628095301E+02  0.13384761252E+02  0.10738143078E+02  0.20728534707E+02  0.51100000000E-03 0.  1.
         12    1    3    3    0    0  0.21534938820E+02 -0.46812245040E+00  0.16164751310E+02  0.26930872870E+02  0.00000000000E+00 0. -1.
</event>
<event>
 7    1  0.1193961E-011  0.5930195E+02  0.7816164E-02  0.1266605E+00
        -11   -1    0    0    0    0  0.00000000000E+00  0.00000000000E+00  0.45593999997E+02  0.45594000000E+02  0.51100000000E-03 0.  1.
         11   -1    0    0    0    0 -0.00000000000E+00 -0.00000000000E+00 -0.45593999997E+02  0.45594000000E+02  0.51100000000E-03 0. -1.
    9900012    2    1    2    0    0  0.25408372119E+02 -0.13930882527E+02  0.13306601078E+02  0.59301945149E+02  0.50000002046E+02 0.  0.
         12    1    1    2    0    0 -0.25408372119E+02  0.13930882527E+02 -0.13306601078E+02  0.31886054851E+02  0.00000000000E+00 0. -1.
         11    1    3    3    0    0 -0.19053379672E+01  0.20417042060E+01  0.34499697214E+00  0.28138749095E+01  0.51100000000E-03 0. -1.
        -11    1    3    3    0    0  0.26989754897E+02 -0.37451089808E+00 -0.99509795681E+01  0.28768196371E+02  0.51100000000E-03 0.  1.
        -12    1    3    3    0    0  0.32395518882E+00 -0.15598075834E+02  0.22912583674E+02  0.27719873869E+02  0.00000000000E+00 0.  1.
</event>
<event>
 7    1  0.1193961E-011  0.5930196E+02  0.7816164E-02  0.1266605E+00
        -11   -1    0    0    0    0  0.00000000000E+00  0.00000000000E+00  0.45593999997E+02  0.45594000000E+02  0.51100000000E-03 0. -1.
         11   -1    0    0    0    0 -0.00000000000E+00 -0.00000000000E+00 -0.45593999997E+02  0.45594000000E+02  0.51100000000E-03 0.  1.
    9900012    2    1    2    0    0 -0.18636308182E+02  0.99724802519E+01 -0.23873781500E+02  0.59301956217E+02  0.50000022230E+02 0.  0.
         12    1    1    2    0    0  0.18636308182E+02 -0.99724802519E+01  0.23873781500E+02  0.31886043783E+02  0.00000000000E+00 0. -1.
         11    1    3    3    0    0 -0.21553868107E+02 -0.29357673825E+01 -0.93181389173E+01  0.23664650296E+02  0.51100000000E-03 0. -1.
        -11    1    3    3    0    0 -0.10088788235E+02 -0.38302651935E+01 -0.80519094484E+01  0.13464316749E+02  0.51100000000E-03 0.  1.
         12    1    3    3    0    0  0.13006348160E+02  0.16738512828E+02 -0.65037331344E+01  0.22172989172E+02  0.00000000000E+00 0. -1.
</event>
<event>
 7    1  0.1193961E-011  0.5930191E+02  0.7816164E-02  0.1266605E+00
        -11   -1    0    0    0    0  0.00000000000E+00  0.00000000000E+00  0.45593999997E+02  0.45594000000E+02  0.51100000000E-03 0.  1.
         11   -1    0    0    0    0 -0.00000000000E+00 -0.00000000000E+00 -0.45593999997E+02  0.45594000000E+02  0.51100000000E-03 0. -1.
    9900012    2    1    2    0    0  0.27347584074E+02  0.98579295528E+01  0.13101657425E+02  0.59301912799E+02  0.49999943046E+02 0.  0.
         12    1    1    2    0    0 -0.27347584074E+02 -0.98579295528E+01 -0.13101657425E+02  0.31886087201E+02  0.00000000000E+00 0. -1.
         11    1    3    3    0    0  0.84721004014E+01  0.12043950101E+02 -0.74452468643E+01  0.16500452127E+02  0.51100000000E-03 0. -1.
        -11    1    3    3    0    0  0.11935856891E+02 -0.13857947118E+01 -0.73214991186E+01  0.14070872621E+02  0.51100000000E-03 0.  1.
        -12    1    3    3    0    0  0.69396267810E+01 -0.80022583652E+00  0.27868403408E+02  0.28730588051E+02  0.00000000000E+00 0.  1.
</event>
<event>
 7    1  0.1193961E-011  0.5930195E+02  0.7816164E-02  0.1266605E+00
        -11   -1    0    0    0    0  0.00000000000E+00  0.00000000000E+00  0.45593999997E+02  0.45594000000E+02  0.51100000000E-03 0.  1.
         11   -1    0    0    0    0 -0.00000000000E+00 -0.00000000000E+00 -0.45593999997E+02  0.45594000000E+02  0.51100000000E-03 0. -1.
    9900012    2    1    2    0    0 -0.12077458680E+02  0.23869226048E+02  0.17352670031E+02  0.59301951052E+02  0.50000012811E+02 0.  0.
         12    1    1    2    0    0  0.12077458680E+02 -0.23869226048E+02 -0.17352670031E+02  0.31886048948E+02  0.00000000000E+00 0. -1.
         11    1    3    3    0    0 -0.26762245929E+01 -0.38514546730E+01  0.77623530711E+01  0.90691789392E+01  0.51100000000E-03 0. -1.
        -11    1    3    3    0    0 -0.22293579875E+02  0.19523217560E+02 -0.38521143014E+01  0.29883080705E+02  0.51100000000E-03 0.  1.
         12    1    3    3    0    0  0.12892345788E+02  0.81974631610E+01  0.13442431261E+02  0.20349691408E+02  0.00000000000E+00 0. -1.
</event>
<event>
 7    1  0.1193961E-011  0.5930195E+02  0.7816164E-02  0.1266605E+00
        -11   -1    0    0    0    0  0.00000000000E+00  0.00000000000E+00  0.45593999997E+02  0.45594000000E+02  0.51100000000E-03 0.  1.
         11   -1    0    0    0    0 -0.00000000000E+00 -0.00000000000E+00 -0.45593999997E+02  0.45594000000E+02  0.51100000000E-03 0. -1.
    9900012    2    1    2    0    0 -0.17488487353E+02 -0.25304463153E+02  0.83998198012E+01  0.59301952612E+02  0.50000015655E+02 0.  0.
         12    1    1    2    0    0  0.17488487353E+02  0.25304463153E+02 -0.83998198012E+01  0.31886047388E+02  0.00000000000E+00 0. -1.
         11    1    3    3    0    0 -0.11974014028E+02 -0.44648106535E+01 -0.82874186719E+01  0.15231311652E+02  0.51100000000E-03 0. -1.
        -11    1    3    3    0    0 -0.15906400557E+02 -0.23400383449E+02  0.17611522686E+02  0.33328025082E+02  0.51100000000E-03 0.  1.
         12    1    3    3    0    0  0.10391927232E+02  0.25607309500E+01 -0.92428421324E+00  0.10742615878E+02  0.00000000000E+00 0. -1.
</event>
<event>
 7    1  0.1193961E-011  0.5930193E+02  0.7816164E-02  0.1266605E+00
        -11   -1    0    0    0    0  0.00000000000E+00  0.00000000000E+00  0.45593999997E+02  0.45594000000E+02  0.51100000000E-03 0.  1.
         11   -1    0    0    0    0 -0.00000000000E+00 -0.00000000000E+00 -0.45593999997E+02  0.45594000000E+02  0.51100000000E-03 0. -1.
    9900012    2    1    2    0    0 -0.15319724186E+02  0.11024264403E+02  0.25700065555E+02  0.59301925856E+02  0.49999966860E+02 0.  0.
         12    1    1    2    0    0  0.15319724186E+02 -0.11024264403E+02 -0.25700065555E+02  0.31886074144E+02  0.00000000000E+00 0. -1.
         11    1    3    3    0    0 -0.91409233819E+01  0.21260058015E+01  0.17785372568E+02  0.20109596182E+02  0.51100000000E-03 0. -1.
        -11    1    3    3    0    0 -0.14232541610E+02 -0.81257375543E+00  0.18056224005E+02  0.23005493744E+02  0.51100000000E-03 0.  1.
         12    1    3    3    0    0  0.80537408063E+01  0.97108323569E+01 -0.10141531019E+02  0.16186835931E+02  0.00000000000E+00 0. -1.
</event>
<event>
 7    1  0.1193961E-011  0.5930197E+02  0.7816164E-02  0.1266605E+00
        -11   -1    0    0    0    0  0.00000000000E+00  0.00000000000E+00  0.45593999997E+02  0.45594000000E+02  0.51100000000E-03 0.  1.
         11   -1    0    0    0    0 -0.00000000000E+00 -0.00000000000E+00 -0.45593999997E+02  0.45594000000E+02  0.51100000000E-03 0. -1.
    9900012    2    1    2    0    0  0.13963877213E+02 -0.30965313233E+01  0.28498082162E+02  0.59301967636E+02  0.50000043055E+02 0.  0.
         12    1    1    2    0    0 -0.13963877213E+02  0.30965313233E+01 -0.28498082162E+02  0.31886032364E+02  0.00000000000E+00 0. -1.
         11    1    3    3    0    0  0.68159532163E+01 -0.87187422659E+01 -0.67093214605E+01  0.12941741756E+02  0.51100000000E-03 0. -1.
        -11    1    3    3    0    0  0.14769654272E+02 -0.23971068595E+01  0.79514252178E+01  0.16944437786E+02  0.51100000000E-03 0.  1.
        -12    1    3    3    0    0 -0.76217302763E+01  0.80193178021E+01  0.27255978405E+02  0.29415788094E+02  0.00000000000E+00 0.  1.
</event>
<event>
 7    1  0.1193961E-011  0.5930167E+02  0.7816164E-02  0.1266606E+00
        -11   -1    0    0    0    0  0.00000000000E+00  0.00000000000E+00  0.45593999997E+02  0.45594000000E+02  0.51100000000E-03 0. -1.
         11   -1    0    0    0    0 -0.00000000000E+00 -0.00000000000E+00 -0.45593999997E+02  0.45594000000E+02  0.51100000000E-03 0.  1.
    9900012    2    1    2    0    0  0.26092474642E+02 -0.14465035234E+02 -0.11255380754E+02  0.59301669493E+02  0.49999499312E+02 0.  0.
         12    1    1    2    0    0 -0.26092474642E+02  0.14465035234E+02  0.11255380754E+02  0.31886330507E+02  0.00000000000E+00 0. -1.
         11    1    3    3    0    0  0.77506943990E+01  0.70446521406E+01  0.29365358205E+00  0.10477911058E+02  0.51100000000E-03 0. -1.
        -11    1    3    3    0    0  0.14084191765E+02  0.77590929172E+01 -0.10546209192E+02  0.19229937836E+02  0.51100000000E-03 0.  1.
         12    1    3    3    0    0  0.42575884776E+01 -0.29268780292E+02 -0.10028251442E+01  0.29593820600E+02  0.00000000000E+00 0. -1.
</event>
<event>
 7    1  0.1193961E-011  0.5930193E+02  0.7816164E-02  0.1266605E+00
        -11   -1    0    0    0    0  0.00000000000E+00  0.00000000000E+00  0.45593999997E+02  0.45594000000E+02  0.51100000000E-03 0. -1.
         11   -1    0    0    0    0 -0.00000000000E+00 -0.00000000000E+00 -0.45593999997E+02  0.45594000000E+02  0.51100000000E-03 0.  1.
    9900012    2    1    2    0    0 -0.19140733770E+02  0.10420140755E+02 -0.23276044960E+02  0.59301932642E+02  0.49999979235E+02 0.  0.
         12    1    1    2    0    0  0.19140733770E+02 -0.10420140755E+02  0.23276044960E+02  0.31886067358E+02  0.00000000000E+00 0. -1.
         11    1    3    3    0    0 -0.81707803077E+01  0.12089500756E+02  0.97909050088E+00  0.14624510174E+02  0.51100000000E-03 0. -1.
        -11    1    3    3    0    0 -0.19043270306E+02  0.58303470370E+01 -0.26778875271E+02  0.33372852014E+02  0.51100000000E-03 0.  1.
        -12    1    3    3    0    0  0.80733168439E+01 -0.74997070377E+01  0.25237398104E+01  0.11304570454E+02  0.00000000000E+00 0.  1.
</event>
<event>
 7    1  0.1193961E-011  0.5930196E+02  0.7816164E-02  0.1266605E+00
        -11   -1    0    0    0    0  0.00000000000E+00  0.00000000000E+00  0.45593999997E+02  0.45594000000E+02  0.51100000000E-03 0.  1.
         11   -1    0    0    0    0 -0.00000000000E+00 -0.00000000000E+00 -0.45593999997E+02  0.45594000000E+02  0.51100000000E-03 0. -1.
    9900012    2    1    2    0    0 -0.68430424101E+00 -0.30080159640E+02 -0.10556293462E+02  0.59301959042E+02  0.50000027383E+02 0.  0.
         12    1    1    2    0    0  0.68430424101E+00  0.30080159640E+02  0.10556293462E+02  0.31886040958E+02  0.00000000000E+00 0. -1.
         11    1    3    3    0    0 -0.18552348905E+01 -0.29235449771E+02  0.53411842743E+01  0.29777200499E+02  0.51100000000E-03 0. -1.
        -11    1    3    3    0    0 -0.17175905204E+01 -0.97768331802E+01  0.12208459805E+01  0.10001352379E+02  0.51100000000E-03 0.  1.
         12    1    3    3    0    0  0.28885211699E+01  0.89321233114E+01 -0.17118323717E+02  0.19523406165E+02  0.00000000000E+00 0. -1.
</event>
<event>
 7    1  0.1193961E-011  0.5930195E+02  0.7816164E-02  0.1266605E+00
        -11   -1    0    0    0    0  0.00000000000E+00  0.00000000000E+00  0.45593999997E+02  0.45594000000E+02  0.51100000000E-03 0. -1.
         11   -1    0    0    0    0 -0.00000000000E+00 -0.00000000000E+00 -0.45593999997E+02  0.45594000000E+02  0.51100000000E-03 0.  1.
    9900012    2    1    2    0    0  0.12541444476E+02  0.10485034993E+02 -0.27376932098E+02  0.59301949767E+02  0.50000010467E+02 0.  0.
         12    1    1    2    0    0 -0.12541444476E+02 -0.10485034993E+02  0.27376932098E+02  0.31886050233E+02  0.00000000000E+00 0. -1.
         11    1    3    3    0    0  0.18707957362E+02  0.98250623746E+00 -0.17969450494E+02  0.25958700632E+02  0.51100000000E-03 0. -1.
        -11    1    3    3    0    0  0.75719794996E+01 -0.45156287608E+01  0.38887425093E+01  0.96357716459E+01  0.51100000000E-03 0.  1.
        -12    1    3    3    0    0 -0.13738492386E+02  0.14018157517E+02 -0.13296224114E+02  0.23707477489E+02  0.00000000000E+00 0.  1.
</event>
<event>
 7    1  0.1193961E-011  0.5930195E+02  0.7816164E-02  0.1266605E+00
        -11   -1    0    0    0    0  0.00000000000E+00  0.00000000000E+00  0.45593999997E+02  0.45594000000E+02  0.51100000000E-03 0. -1.
         11   -1    0    0    0    0 -0.00000000000E+00 -0.00000000000E+00 -0.45593999997E+02  0.45594000000E+02  0.51100000000E-03 0.  1.
    9900012    2    1    2    0    0  0.27281889845E+02  0.12925252017E+02 -0.10264331540E+02  0.59301950462E+02  0.50000011734E+02 0.  0.
         12    1    1    2    0    0 -0.27281889845E+02 -0.12925252017E+02  0.10264331540E+02  0.31886049538E+02  0.00000000000E+00 0. -1.
         11    1    3    3    0    0  0.15442568244E+02 -0.98793527319E+01 -0.86185001090E+01  0.20257173267E+02  0.51100000000E-03 0. -1.
        -11    1    3    3    0    0  0.16352949149E+02  0.77690220611E+01 -0.10592750658E+02  0.20975772129E+02  0.51100000000E-03 0.  1.
         12    1    3    3    0    0 -0.45136275483E+01  0.15035582688E+02  0.89469192272E+01  0.18069005066E+02  0.00000000000E+00 0. -1.
</event>
<event>
 7    1  0.1193961E-011  0.5930197E+02  0.7816164E-02  0.1266605E+00
        -11   -1    0    0    0    0  0.00000000000E+00  0.00000000000E+00  0.45593999997E+02  0.45594000000E+02  0.51100000000E-03 0.  1.
         11   -1    0    0    0    0 -0.00000000000E+00 -0.00000000000E+00 -0.45593999997E+02  0.45594000000E+02  0.51100000000E-03 0. -1.
    9900012    2    1    2    0    0 -0.17254583747E+02  0.96712171923E+01  0.25009316963E+02  0.59301967992E+02  0.50000043705E+02 0.  0.
         12    1    1    2    0    0  0.17254583747E+02 -0.96712171923E+01 -0.25009316963E+02  0.31886032008E+02  0.00000000000E+00 0. -1.
         11    1    3    3    0    0  0.75004855930E+01 -0.27420641580E+01  0.17907085646E+01  0.81843043321E+01  0.51100000000E-03 0. -1.
        -11    1    3    3    0    0 -0.14386170929E+02 -0.29596779281E+01  0.28305822621E+02  0.31889515549E+02  0.51100000000E-03 0.  1.
        -12    1    3    3    0    0 -0.10368898411E+02  0.15372959278E+02 -0.50872142230E+01  0.19228148111E+02  0.00000000000E+00 0.  1.
</event>
<event>
 7    1  0.1193961E-011  0.5930196E+02  0.7816164E-02  0.1266605E+00
        -11   -1    0    0    0    0  0.00000000000E+00  0.00000000000E+00  0.45593999997E+02  0.45594000000E+02  0.51100000000E-03 0. -1.
         11   -1    0    0    0    0 -0.00000000000E+00 -0.00000000000E+00 -0.45593999997E+02  0.45594000000E+02  0.51100000000E-03 0.  1.
    9900012    2    1    2    0    0 -0.21637570205E+02 -0.17630493542E+02  0.15417551532E+02  0.59301958506E+02  0.50000026404E+02 0.  0.
         12    1    1    2    0    0  0.21637570205E+02  0.17630493542E+02 -0.15417551532E+02  0.31886041494E+02  0.00000000000E+00 0. -1.
         11    1    3    3    0    0 -0.22017718756E+02 -0.22796683558E+02  0.73808230214E+01  0.32541439261E+02  0.51100000000E-03 0. -1.
        -11    1    3    3    0    0 -0.12257695225E+02  0.14030273174E+01  0.37520561363E+01  0.12895638929E+02  0.51100000000E-03 0.  1.
         12    1    3    3    0    0  0.12637843776E+02  0.37631626978E+01  0.42846723745E+01  0.13864880315E+02  0.00000000000E+00 0. -1.
</event>
<event>
 7    1  0.1193961E-011  0.5930196E+02  0.7816164E-02  0.1266605E+00
        -11   -1    0    0    0    0  0.00000000000E+00  0.00000000000E+00  0.45593999997E+02  0.45594000000E+02  0.51100000000E-03 0.  1.
         11   -1    0    0    0    0 -0.00000000000E+00 -0.00000000000E+00 -0.45593999997E+02  0.45594000000E+02  0.51100000000E-03 0. -1.
    9900012    2    1    2    0    0  0.26949314578E+02  0.10069620417E+02  0.13749786051E+02  0.59301961864E+02  0.50000032530E+02 0.  0.
         12    1    1    2    0    0 -0.26949314578E+02 -0.10069620417E+02 -0.13749786051E+02  0.31886038136E+02  0.00000000000E+00 0. -1.
         11    1    3    3    0    0  0.10848873456E+02  0.26147710603E+01 -0.50475058809E+01  0.12247954884E+02  0.51100000000E-03 0. -1.
        -11    1    3    3    0    0  0.96030575222E+01 -0.57674111307E+01 -0.98008576593E+01  0.14884171325E+02  0.51100000000E-03 0.  1.
        -12    1    3    3    0    0  0.64973835998E+01  0.13222260487E+02  0.28598149591E+02  0.32169835655E+02  0.00000000000E+00 0.  1.
</event>
<event>
 7    1  0.1193961E-011  0.5930194E+02  0.7816164E-02  0.1266605E+00
        -11   -1    0    0    0    0  0.00000000000E+00  0.00000000000E+00  0.45593999997E+02  0.45594000000E+02  0.51100000000E-03 0.  1.
         11   -1    0    0    0    0 -0.00000000000E+00 -0.00000000000E+00 -0.45593999997E+02  0.45594000000E+02  0.51100000000E-03 0. -1.
    9900012    2    1    2    0    0 -0.70731014294E+01 -0.55324093290E+01  0.30595500154E+02  0.59301938053E+02  0.49999989104E+02 0.  0.
         12    1    1    2    0    0  0.70731014294E+01  0.55324093290E+01 -0.30595500154E+02  0.31886061947E+02  0.00000000000E+00 0. -1.
         11    1    3    3    0    0 -0.70295162763E+01 -0.67730717997E+01 -0.28036236434E+01  0.10156225011E+02  0.51100000000E-03 0. -1.
        -11    1    3    3    0    0 -0.98862507854E+01  0.71815499617E+00 -0.38355813379E+01  0.10628517566E+02  0.51100000000E-03 0.  1.
        -12    1    3    3    0    0  0.98426656323E+01  0.52250747448E+00  0.37234705135E+02  0.38517195476E+02  0.00000000000E+00 0.  1.
</event>
<event>
 7    1  0.1193961E-011  0.5930194E+02  0.7816164E-02  0.1266605E+00
        -11   -1    0    0    0    0  0.00000000000E+00  0.00000000000E+00  0.45593999997E+02  0.45594000000E+02  0.51100000000E-03 0.  1.
         11   -1    0    0    0    0 -0.00000000000E+00 -0.00000000000E+00 -0.45593999997E+02  0.45594000000E+02  0.51100000000E-03 0. -1.
    9900012    2    1    2    0    0 -0.42489035521E+01 -0.31491487994E+02 -0.26369579246E+01  0.59301944356E+02  0.50000000598E+02 0.  0.
         12    1    1    2    0    0  0.42489035521E+01  0.31491487994E+02  0.26369579246E+01  0.31886055644E+02  0.00000000000E+00 0. -1.
         11    1    3    3    0    0  0.10642904415E+02 -0.38399481995E+02  0.40648084660E+01  0.40053892445E+02  0.51100000000E-03 0. -1.
        -11    1    3    3    0    0  0.96225431256E-03 -0.91965965837E+00  0.37832491980E+00  0.99443693578E+00  0.51100000000E-03 0.  1.
         12    1    3    3    0    0 -0.14892770222E+02  0.78276536591E+01 -0.70800913104E+01  0.18253614975E+02  0.00000000000E+00 0. -1.
</event>
<event>
 7    1  0.1193961E-011  0.5930198E+02  0.7816164E-02  0.1266605E+00
        -11   -1    0    0    0    0  0.00000000000E+00  0.00000000000E+00  0.45593999997E+02  0.45594000000E+02  0.51100000000E-03 0.  1.
         11   -1    0    0    0    0 -0.00000000000E+00 -0.00000000000E+00 -0.45593999997E+02  0.45594000000E+02  0.51100000000E-03 0. -1.
    9900012    2    1    2    0    0 -0.16594140234E+02  0.13059501927E+02  0.23891461571E+02  0.59301983995E+02  0.50000072890E+02 0.  0.
         12    1    1    2    0    0  0.16594140234E+02 -0.13059501927E+02 -0.23891461571E+02  0.31886016005E+02  0.00000000000E+00 0. -1.
         11    1    3    3    0    0 -0.13808703150E+01 -0.29074151977E+01 -0.13818795522E+01  0.35027785138E+01  0.51100000000E-03 0. -1.
        -11    1    3    3    0    0 -0.19839842656E+02  0.18660041180E+02  0.35208522302E+02  0.44513554524E+02  0.51100000000E-03 0.  1.
         12    1    3    3    0    0  0.46265727367E+01 -0.26931240554E+01 -0.99351811783E+01  0.11285650956E+02  0.00000000000E+00 0. -1.
</event>
<event>
 7    1  0.1193961E-011  0.5930195E+02  0.7816164E-02  0.1266605E+00
        -11   -1    0    0    0    0  0.00000000000E+00  0.00000000000E+00  0.45593999997E+02  0.45594000000E+02  0.51100000000E-03 0. -1.
         11   -1    0    0    0    0 -0.00000000000E+00 -0.00000000000E+00 -0.45593999997E+02  0.45594000000E+02  0.51100000000E-03 0.  1.
    9900012    2    1    2    0    0  0.25746909876E+02 -0.11746400530E+02 -0.14691465874E+02  0.59301945633E+02  0.50000002928E+02 0.  0.
         12    1    1    2    0    0 -0.25746909876E+02  0.11746400530E+02  0.14691465874E+02  0.31886054367E+02  0.00000000000E+00 0. -1.
         11    1    3    3    0    0  0.73965153023E+00 -0.13149351443E+02 -0.23755997896E+02  0.27162473452E+02  0.51100000000E-03 0. -1.
        -11    1    3    3    0    0  0.70197347640E+01  0.88153118596E+01  0.20201114342E+01  0.11448460587E+02  0.51100000000E-03 0.  1.
        -12    1    3    3    0    0  0.17987523582E+02 -0.74123609466E+01  0.70444205878E+01  0.20691011595E+02  0.00000000000E+00 0.  1.
</event>
<event>
 7    1  0.1193961E-011  0.5930199E+02  0.7816164E-02  0.1266605E+00
        -11   -1    0    0    0    0  0.00000000000E+00  0.00000000000E+00  0.45593999997E+02  0.45594000000E+02  0.51100000000E-03 0.  1.
         11   -1    0    0    0    0 -0.00000000000E+00 -0.00000000000E+00 -0.45593999997E+02  0.45594000000E+02  0.51100000000E-03 0. -1.
    9900012    2    1    2    0    0  0.28377877269E+02 -0.11884354402E+02  0.83771117948E+01  0.59301987395E+02  0.50000079091E+02 0.  0.
         12    1    1    2    0    0 -0.28377877269E+02  0.11884354402E+02 -0.83771117948E+01  0.31886012605E+02  0.00000000000E+00 0. -1.
         11    1    3    3    0    0  0.83271387763E+00 -0.89973136695E+01 -0.58572858505E+01  0.10768141133E+02  0.51100000000E-03 0. -1.
        -11    1    3    3    0    0  0.31346696006E+02 -0.10814477669E+02  0.19319636966E+02  0.38377293423E+02  0.51100000000E-03 0.  1.
         12    1    3    3    0    0 -0.38015326147E+01  0.79274369364E+01 -0.50852393211E+01  0.10156552838E+02  0.00000000000E+00 0. -1.
</event>
<event>
 7    1  0.1193961E-011  0.5930193E+02  0.7816164E-02  0.1266605E+00
        -11   -1    0    0    0    0  0.00000000000E+00  0.00000000000E+00  0.45593999997E+02  0.45594000000E+02  0.51100000000E-03 0.  1.
         11   -1    0    0    0    0 -0.00000000000E+00 -0.00000000000E+00 -0.45593999997E+02  0.45594000000E+02  0.51100000000E-03 0. -1.
    9900012    2    1    2    0    0  0.23470004852E+02  0.20119392270E+02 -0.78160521812E+01  0.59301925535E+02  0.49999966274E+02 0.  0.
         12    1    1    2    0    0 -0.23470004852E+02 -0.20119392270E+02  0.78160521812E+01  0.31886074465E+02  0.00000000000E+00 0. -1.
         11    1    3    3    0    0  0.78983162791E+01  0.61503033316E+01 -0.16180261638E+02  0.19026573471E+02  0.51100000000E-03 0. -1.
        -11    1    3    3    0    0  0.60014402226E+01  0.17007772198E+02 -0.90460894610E+01  0.20177049702E+02  0.51100000000E-03 0.  1.
        -12    1    3    3    0    0  0.95702483504E+01 -0.30386832602E+01  0.17410298917E+02  0.20098302362E+02  0.00000000000E+00 0.  1.
</event>
<event>
 7    1  0.1193961E-011  0.5930188E+02  0.7816164E-02  0.1266605E+00
        -11   -1    0    0    0    0  0.00000000000E+00  0.00000000000E+00  0.45593999997E+02  0.45594000000E+02  0.51100000000E-03 0.  1.
         11   -1    0    0    0    0 -0.00000000000E+00 -0.00000000000E+00 -0.45593999997E+02  0.45594000000E+02  0.51100000000E-03 0. -1.
    9900012    2    1    2    0    0 -0.59587351573E+01 -0.10250704024E+02 -0.29599678022E+02  0.59301883952E+02  0.49999890435E+02 0.  0.
         12    1    1    2    0    0  0.59587351573E+01  0.10250704024E+02  0.29599678022E+02  0.31886116048E+02  0.00000000000E+00 0. -1.
         11    1    3    3    0    0  0.11441843940E+02  0.10104166868E+02 -0.49857154346E+01  0.16058248332E+02  0.51100000000E-03 0. -1.
        -11    1    3    3    0    0 -0.59645924497E+01 -0.62572971949E+00  0.35778522289E+01  0.69834753244E+01  0.51100000000E-03 0.  1.
        -12    1    3    3    0    0 -0.11435986648E+02 -0.19729141172E+02 -0.28191814816E+02  0.36260160295E+02  0.00000000000E+00 0.  1.
</event>
<event>
 7    1  0.1193961E-011  0.5930196E+02  0.7816164E-02  0.1266605E+00
        -11   -1    0    0    0    0  0.00000000000E+00  0.00000000000E+00  0.45593999997E+02  0.45594000000E+02  0.51100000000E-03 0.  1.
         11   -1    0    0    0    0 -0.00000000000E+00 -0.00000000000E+00 -0.45593999997E+02  0.45594000000E+02  0.51100000000E-03 0. -1.
    9900012    2    1    2    0    0  0.19377869613E+02  0.10848529813E+02  0.22880715766E+02  0.59301959421E+02  0.50000028073E+02 0.  0.
         12    1    1    2    0    0 -0.19377869613E+02 -0.10848529813E+02 -0.22880715766E+02  0.31886040579E+02  0.00000000000E+00 0. -1.
         11    1    3    3    0    0 -0.31624506537E+01 -0.20706034804E+01  0.62115525903E+01  0.72713051616E+01  0.51100000000E-03 0. -1.
        -11    1    3    3    0    0  0.23097307496E+02 -0.66060970993E+01 -0.31197261620E+01  0.24225169227E+02  0.51100000000E-03 0.  1.
         12    1    3    3    0    0 -0.55698722937E+00  0.19525230393E+02  0.19788889338E+02  0.27805485033E+02  0.00000000000E+00 0. -1.
</event>
<event>
 7    1  0.1193961E-011  0.5930193E+02  0.7816164E-02  0.1266605E+00
        -11   -1    0    0    0    0  0.00000000000E+00  0.00000000000E+00  0.45593999997E+02  0.45594000000E+02  0.51100000000E-03 0.  1.
         11   -1    0    0    0    0 -0.00000000000E+00 -0.00000000000E+00 -0.45593999997E+02  0.45594000000E+02  0.51100000000E-03 0. -1.
    9900012    2    1    2    0    0 -0.29928286078E+02 -0.10639063751E+02 -0.27981026627E+01  0.59301931513E+02  0.49999977176E+02 0.  0.
         12    1    1    2    0    0  0.29928286078E+02  0.10639063751E+02  0.27981026627E+01  0.31886068487E+02  0.00000000000E+00 0. -1.
         11    1    3    3    0    0 -0.21122850478E+02  0.34278267340E+01  0.75376696008E+01  0.22687910254E+02  0.51100000000E-03 0. -1.
        -11    1    3    3    0    0 -0.12716213409E+02  0.60145615685E+01 -0.93237456705E+00  0.14097742972E+02  0.51100000000E-03 0.  1.
         12    1    3    3    0    0  0.39107778089E+01 -0.20081452053E+02 -0.94033976964E+01  0.22516278287E+02  0.00000000000E+00 0. -1.
</event>
<event>
 7    1  0.1193961E-011  0.5930196E+02  0.7816164E-02  0.1266605E+00
        -11   -1    0    0    0    0  0.00000000000E+00  0.00000000000E+00  0.45593999997E+02  0.45594000000E+02  0.51100000000E-03 0.  1.
         11   -1    0    0    0    0 -0.00000000000E+00 -0.00000000000E+00 -0.45593999997E+02  0.45594000000E+02  0.51100000000E-03 0. -1.
    9900012    2    1    2    0    0  0.29071215489E+02 -0.16206511363E+01  0.12998370463E+02  0.59301957367E+02  0.50000024328E+02 0.  0.
         12    1    1    2    0    0 -0.29071215489E+02  0.16206511363E+01 -0.12998370463E+02  0.31886042633E+02  0.00000000000E+00 0. -1.
         11    1    3    3    0    0 -0.72681185538E+01  0.29268678561E+01 -0.51540410119E+01  0.93784989083E+01  0.51100000000E-03 0. -1.
        -11    1    3    3    0    0  0.16528627239E+02 -0.16046275514E+02  0.52260360260E+01  0.23621810452E+02  0.51100000000E-03 0.  1.
        -12    1    3    3    0    0  0.19810706804E+02  0.11498756521E+02  0.12926375449E+02  0.26301648006E+02  0.00000000000E+00 0.  1.
</event>
<event>
 7    1  0.1193961E-011  0.5930223E+02  0.7816164E-02  0.1266604E+00
        -11   -1    0    0    0    0  0.00000000000E+00  0.00000000000E+00  0.45593999997E+02  0.45594000000E+02  0.51100000000E-03 0.  1.
         11   -1    0    0    0    0 -0.00000000000E+00 -0.00000000000E+00 -0.45593999997E+02  0.45594000000E+02  0.51100000000E-03 0. -1.
    9900012    2    1    2    0    0 -0.16197288697E+02  0.24027783828E+02  0.13304727272E+02  0.59302230061E+02  0.50000521654E+02 0.  0.
         12    1    1    2    0    0  0.16197288697E+02 -0.24027783828E+02 -0.13304727272E+02  0.31885769939E+02  0.00000000000E+00 0. -1.
         11    1    3    3    0    0 -0.61804857262E+01  0.20281278605E+01  0.11792766507E+02  0.13467778160E+02  0.51100000000E-03 0. -1.
        -11    1    3    3    0    0 -0.20416220408E+02  0.92700108570E+01  0.12871183968E+02  0.25853868841E+02  0.51100000000E-03 0.  1.
         12    1    3    3    0    0  0.10399417437E+02  0.12729645110E+02 -0.11359223203E+02  0.19980583061E+02  0.00000000000E+00 0. -1.
</event>
<event>
 7    1  0.1193961E-011  0.5930194E+02  0.7816164E-02  0.1266605E+00
        -11   -1    0    0    0    0  0.00000000000E+00  0.00000000000E+00  0.45593999997E+02  0.45594000000E+02  0.51100000000E-03 0. -1.
         11   -1    0    0    0    0 -0.00000000000E+00 -0.00000000000E+00 -0.45593999997E+02  0.45594000000E+02  0.51100000000E-03 0.  1.
    9900012    2    1    2    0    0 -0.10550394667E+02 -0.14005588758E+02 -0.26631810589E+02  0.59301942242E+02  0.49999996743E+02 0.  0.
         12    1    1    2    0    0  0.10550394667E+02  0.14005588758E+02  0.26631810589E+02  0.31886057758E+02  0.00000000000E+00 0. -1.
         11    1    3    3    0    0 -0.16749747655E+02 -0.94461113713E+01 -0.22383485899E+01  0.19359578281E+02  0.51100000000E-03 0. -1.
        -11    1    3    3    0    0 -0.40861429977E+01 -0.73689542252E+01  0.42078486807E+01  0.94182823143E+01  0.51100000000E-03 0.  1.
        -12    1    3    3    0    0  0.10285495985E+02  0.28094768384E+01 -0.28601310680E+02  0.30524081647E+02  0.00000000000E+00 0.  1.
</event>
<event>
 7    1  0.1193961E-011  0.5930194E+02  0.7816164E-02  0.1266605E+00
        -11   -1    0    0    0    0  0.00000000000E+00  0.00000000000E+00  0.45593999997E+02  0.45594000000E+02  0.51100000000E-03 0. -1.
         11   -1    0    0    0    0 -0.00000000000E+00 -0.00000000000E+00 -0.45593999997E+02  0.45594000000E+02  0.51100000000E-03 0.  1.
    9900012    2    1    2    0    0  0.20869186735E+02  0.21235371129E+02 -0.11413015774E+02  0.59301939237E+02  0.49999991262E+02 0.  0.
         12    1    1    2    0    0 -0.20869186735E+02 -0.21235371129E+02  0.11413015774E+02  0.31886060763E+02  0.00000000000E+00 0. -1.
         11    1    3    3    0    0  0.60953394939E+01 -0.11009112822E+02 -0.57957771777E+01  0.13854413089E+02  0.51100000000E-03 0. -1.
        -11    1    3    3    0    0  0.22431810982E+02  0.21916076580E+02 -0.80134718184E+01  0.32368445861E+02  0.51100000000E-03 0.  1.
         12    1    3    3    0    0 -0.76579637416E+01  0.10328407371E+02  0.23962332220E+01  0.13079080286E+02  0.00000000000E+00 0. -1.
</event>
<event>
 7    1  0.1193961E-011  0.5930197E+02  0.7816164E-02  0.1266605E+00
        -11   -1    0    0    0    0  0.00000000000E+00  0.00000000000E+00  0.45593999997E+02  0.45594000000E+02  0.51100000000E-03 0.  1.
         11   -1    0    0    0    0 -0.00000000000E+00 -0.00000000000E+00 -0.45593999997E+02  0.45594000000E+02  0.51100000000E-03 0. -1.
    9900012    2    1    2    0    0  0.25125618918E+00 -0.13182626363E+02  0.29032293687E+02  0.59301971018E+02  0.50000049225E+02 0.  0.
         12    1    1    2    0    0 -0.25125618918E+00  0.13182626363E+02 -0.29032293687E+02  0.31886028982E+02  0.00000000000E+00 0. -1.
         11    1    3    3    0    0 -0.25591863776E+01 -0.10467116515E+02 -0.19776129909E+01  0.10955405810E+02  0.51100000000E-03 0. -1.
        -11    1    3    3    0    0 -0.15961265613E+02 -0.46621498999E+01  0.76162938159E+01  0.18289493525E+02  0.51100000000E-03 0.  1.
        -12    1    3    3    0    0  0.18771708180E+02  0.19466400515E+01  0.23393612862E+02  0.30057071684E+02  0.00000000000E+00 0.  1.
</event>
<event>
 7    1  0.1193961E-011  0.5930196E+02  0.7816164E-02  0.1266605E+00
        -11   -1    0    0    0    0  0.00000000000E+00  0.00000000000E+00  0.45593999997E+02  0.45594000000E+02  0.51100000000E-03 0.  1.
         11   -1    0    0    0    0 -0.00000000000E+00 -0.00000000000E+00 -0.45593999997E+02  0.45594000000E+02  0.51100000000E-03 0. -1.
    9900012    2    1    2    0    0 -0.50110100185E-01 -0.28569812247E+02  0.14159196645E+02  0.59301960225E+02  0.50000029541E+02 0.  0.
         12    1    1    2    0    0  0.50110100185E-01  0.28569812247E+02 -0.14159196645E+02  0.31886039775E+02  0.00000000000E+00 0. -1.
         11    1    3    3    0    0 -0.65417360017E+01 -0.25934366671E+02  0.13098879326E+02  0.29781979860E+02  0.51100000000E-03 0. -1.
        -11    1    3    3    0    0  0.55308648079E+01 -0.13971243369E+02 -0.59452032675E+01  0.16159565246E+02  0.51100000000E-03 0.  1.
         12    1    3    3    0    0  0.96076109363E+00  0.11335797792E+02  0.70055205865E+01  0.13360415119E+02  0.00000000000E+00 0. -1.
</event>
<event>
 7    1  0.1193961E-011  0.5930192E+02  0.7816164E-02  0.1266605E+00
        -11   -1    0    0    0    0  0.00000000000E+00  0.00000000000E+00  0.45593999997E+02  0.45594000000E+02  0.51100000000E-03 0. -1.
         11   -1    0    0    0    0 -0.00000000000E+00 -0.00000000000E+00 -0.45593999997E+02  0.45594000000E+02  0.51100000000E-03 0.  1.
    9900012    2    1    2    0    0 -0.30723158019E+02 -0.11076179218E+01 -0.84606832153E+01  0.59301915001E+02  0.49999947062E+02 0.  0.
         12    1    1    2    0    0  0.30723158019E+02  0.11076179218E+01  0.84606832153E+01  0.31886084999E+02  0.00000000000E+00 0. -1.
         11    1    3    3    0    0  0.49691236223E+01  0.12146258431E+02  0.91690721559E+00  0.13155398228E+02  0.51100000000E-03 0. -1.
        -11    1    3    3    0    0 -0.11542283068E+02  0.66323951641E+01 -0.62509157277E+01  0.14706696152E+02  0.51100000000E-03 0.  1.
        -12    1    3    3    0    0 -0.24149998573E+02 -0.19886271517E+02 -0.31266747033E+01  0.31439820620E+02  0.00000000000E+00 0.  1.
</event>
<event>
 7    1  0.1193961E-011  0.5930194E+02  0.7816164E-02  0.1266605E+00
        -11   -1    0    0    0    0  0.00000000000E+00  0.00000000000E+00  0.45593999997E+02  0.45594000000E+02  0.51100000000E-03 0.  1.
         11   -1    0    0    0    0 -0.00000000000E+00 -0.00000000000E+00 -0.45593999997E+02  0.45594000000E+02  0.51100000000E-03 0. -1.
    9900012    2    1    2    0    0  0.99760497398E+01 -0.29999729454E+02  0.41491482210E+01  0.59301940872E+02  0.49999994245E+02 0.  0.
         12    1    1    2    0    0 -0.99760497398E+01  0.29999729454E+02 -0.41491482210E+01  0.31886059128E+02  0.00000000000E+00 0. -1.
         11    1    3    3    0    0  0.16630753097E+01 -0.23272051596E+01  0.12243696493E+02  0.12573376930E+02  0.51100000000E-03 0. -1.
        -11    1    3    3    0    0  0.43406371025E+01 -0.54191179725E+01  0.13680465144E+02  0.15341548060E+02  0.51100000000E-03 0.  1.
         12    1    3    3    0    0  0.39723373276E+01 -0.22253406322E+02 -0.21775013416E+02  0.31387015883E+02  0.00000000000E+00 0. -1.
</event>
<event>
 7    1  0.1193961E-011  0.5930195E+02  0.7816164E-02  0.1266605E+00
        -11   -1    0    0    0    0  0.00000000000E+00  0.00000000000E+00  0.45593999997E+02  0.45594000000E+02  0.51100000000E-03 0.  1.
         11   -1    0    0    0    0 -0.00000000000E+00 -0.00000000000E+00 -0.45593999997E+02  0.45594000000E+02  0.51100000000E-03 0. -1.
    9900012    2    1    2    0    0 -0.93977679796E+01 -0.19015518952E+02  0.23807813213E+02  0.59301953302E+02  0.50000016914E+02 0.  0.
         12    1    1    2    0    0  0.93977679796E+01  0.19015518952E+02 -0.23807813213E+02  0.31886046698E+02  0.00000000000E+00 0. -1.
         11    1    3    3    0    0  0.13438382645E+02 -0.98364302414E+01  0.10281964357E+02  0.19572027981E+02  0.51100000000E-03 0. -1.
        -11    1    3    3    0    0 -0.15233689216E+02 -0.60733470677E+01  0.22320190717E+02  0.27697323799E+02  0.51100000000E-03 0.  1.
         12    1    3    3    0    0 -0.76024614082E+01 -0.31057416431E+01 -0.87943418605E+01  0.12032601522E+02  0.00000000000E+00 0. -1.
</event>
<event>
 7    1  0.1193961E-011  0.5930196E+02  0.7816164E-02  0.1266605E+00
        -11   -1    0    0    0    0  0.00000000000E+00  0.00000000000E+00  0.45593999997E+02  0.45594000000E+02  0.51100000000E-03 0.  1.
         11   -1    0    0    0    0 -0.00000000000E+00 -0.00000000000E+00 -0.45593999997E+02  0.45594000000E+02  0.51100000000E-03 0. -1.
    9900012    2    1    2    0    0  0.27200051736E+02  0.72918358528E+01  0.14956804652E+02  0.59301957757E+02  0.50000025038E+02 0.  0.
         12    1    1    2    0    0 -0.27200051736E+02 -0.72918358528E+01 -0.14956804652E+02  0.31886042243E+02  0.00000000000E+00 0. -1.
         11    1    3    3    0    0  0.21615597666E+02  0.45175804991E+00  0.18665762843E+01  0.21700743192E+02  0.51100000000E-03 0. -1.
        -11    1    3    3    0    0  0.13076923319E+02  0.13725476639E+02  0.18142606823E+02  0.26240213701E+02  0.51100000000E-03 0.  1.
         12    1    3    3    0    0 -0.74924692490E+01 -0.68853988361E+01 -0.50523784554E+01  0.11361000864E+02  0.00000000000E+00 0. -1.
</event>
<event>
 7    1  0.1193961E-011  0.5930183E+02  0.7816164E-02  0.1266605E+00
        -11   -1    0    0    0    0  0.00000000000E+00  0.00000000000E+00  0.45593999997E+02  0.45594000000E+02  0.51100000000E-03 0. -1.
         11   -1    0    0    0    0 -0.00000000000E+00 -0.00000000000E+00 -0.45593999997E+02  0.45594000000E+02  0.51100000000E-03 0.  1.
    9900012    2    1    2    0    0 -0.16288697754E+02  0.26540911761E+02 -0.68546387263E+01  0.59301831467E+02  0.49999794716E+02 0.  0.
         12    1    1    2    0    0  0.16288697754E+02 -0.26540911761E+02  0.68546387263E+01  0.31886168533E+02  0.00000000000E+00 0. -1.
         11    1    3    3    0    0  0.33515153424E-01  0.65126198175E+01 -0.85198891870E+01  0.10723984902E+02  0.51100000000E-03 0. -1.
        -11    1    3    3    0    0  0.92762522675E+01  0.20406626129E+02  0.43566951546E+01  0.22835499536E+02  0.51100000000E-03 0.  1.
         12    1    3    3    0    0 -0.25598465175E+02 -0.37833418537E+00 -0.26914446939E+01  0.25742347030E+02  0.00000000000E+00 0. -1.
</event>
<event>
 7    1  0.1193961E-011  0.5930195E+02  0.7816164E-02  0.1266605E+00
        -11   -1    0    0    0    0  0.00000000000E+00  0.00000000000E+00  0.45593999997E+02  0.45594000000E+02  0.51100000000E-03 0. -1.
         11   -1    0    0    0    0 -0.00000000000E+00 -0.00000000000E+00 -0.45593999997E+02  0.45594000000E+02  0.51100000000E-03 0.  1.
    9900012    2    1    2    0    0 -0.39599705077E+01 -0.30350119089E+02 -0.89391718040E+01  0.59301954656E+02  0.50000019383E+02 0.  0.
         12    1    1    2    0    0  0.39599705077E+01  0.30350119089E+02  0.89391718040E+01  0.31886045344E+02  0.00000000000E+00 0. -1.
         11    1    3    3    0    0  0.42237042202E+01  0.10348417215E+01 -0.54332272821E+01  0.69592049609E+01  0.51100000000E-03 0. -1.
        -11    1    3    3    0    0  0.74679045366E+01 -0.20662087490E+02 -0.18052447110E+02  0.28435581664E+02  0.51100000000E-03 0.  1.
         12    1    3    3    0    0 -0.15651579265E+02 -0.10722873320E+02  0.14546502588E+02  0.23907168031E+02  0.00000000000E+00 0. -1.
</event>
<event>
 7    1  0.1193961E-011  0.5930195E+02  0.7816164E-02  0.1266605E+00
        -11   -1    0    0    0    0  0.00000000000E+00  0.00000000000E+00  0.45593999997E+02  0.45594000000E+02  0.51100000000E-03 0.  1.
         11   -1    0    0    0    0 -0.00000000000E+00 -0.00000000000E+00 -0.45593999997E+02  0.45594000000E+02  0.51100000000E-03 0. -1.
    9900012    2    1    2    0    0  0.12157579043E+02  0.16962344490E+02  0.24107930888E+02  0.59301949908E+02  0.50000010724E+02 0.  0.
         12    1    1    2    0    0 -0.12157579043E+02 -0.16962344490E+02 -0.24107930888E+02  0.31886050092E+02  0.00000000000E+00 0. -1.
         11    1    3    3    0    0  0.74108423388E+00 -0.54694887894E+01  0.12253931829E+02  0.13439619005E+02  0.51100000000E-03 0. -1.
        -11    1    3    3    0    0  0.18412790192E+02  0.50487562394E+01  0.17901734325E+02  0.26172368528E+02  0.51100000000E-03 0.  1.
         12    1    3    3    0    0 -0.69962953838E+01  0.17383077040E+02 -0.60477352669E+01  0.19689962375E+02  0.00000000000E+00 0. -1.
</event>
<event>
 7    1  0.1193961E-011  0.5930193E+02  0.7816164E-02  0.1266605E+00
        -11   -1    0    0    0    0  0.00000000000E+00  0.00000000000E+00  0.45593999997E+02  0.45594000000E+02  0.51100000000E-03 0.  1.
         11   -1    0    0    0    0 -0.00000000000E+00 -0.00000000000E+00 -0.45593999997E+02  0.45594000000E+02  0.51100000000E-03 0. -1.
    9900012    2    1    2    0    0  0.18220637263E+02 -0.18197665950E+02  0.18803578382E+02  0.59301933634E+02  0.49999981045E+02 0.  0.
         12    1    1    2    0    0 -0.18220637263E+02  0.18197665950E+02 -0.18803578382E+02  0.31886066366E+02  0.00000000000E+00 0. -1.
         11    1    3    3    0    0  0.19434332666E+01  0.39950230166E+01 -0.96688472798E+01  0.10640664911E+02  0.51100000000E-03 0. -1.
        -11    1    3    3    0    0  0.91722089855E+01 -0.51747643813E+01 -0.40426270051E+01  0.11280533562E+02  0.51100000000E-03 0.  1.
         12    1    3    3    0    0  0.71049950112E+01 -0.17017924585E+02  0.32515052667E+02  0.37380735162E+02  0.00000000000E+00 0. -1.
</event>
<event>
 7    1  0.1193961E-011  0.5930195E+02  0.7816164E-02  0.1266605E+00
        -11   -1    0    0    0    0  0.00000000000E+00  0.00000000000E+00  0.45593999997E+02  0.45594000000E+02  0.51100000000E-03 0.  1.
         11   -1    0    0    0    0 -0.00000000000E+00 -0.00000000000E+00 -0.45593999997E+02  0.45594000000E+02  0.51100000000E-03 0. -1.
    9900012    2    1    2    0    0  0.29408158949E+02 -0.12310056418E+02  0.58574570204E+00  0.59301946625E+02  0.50000004737E+02 0.  0.
         12    1    1    2    0    0 -0.29408158949E+02  0.12310056418E+02 -0.58574570204E+00  0.31886053375E+02  0.00000000000E+00 0. -1.
         11    1    3    3    0    0 -0.80437497054E+01 -0.15667008886E+02 -0.49006558320E+01  0.18280413141E+02  0.51100000000E-03 0. -1.
        -11    1    3    3    0    0  0.51621802442E+01  0.57730719616E+01  0.37248416574E+01  0.85936552398E+01  0.51100000000E-03 0.  1.
        -12    1    3    3    0    0  0.32289728411E+02 -0.24161194933E+01  0.17615598767E+01  0.32427878244E+02  0.00000000000E+00 0.  1.
</event>
<event>
 7    1  0.1193961E-011  0.5930191E+02  0.7816164E-02  0.1266605E+00
        -11   -1    0    0    0    0  0.00000000000E+00  0.00000000000E+00  0.45593999997E+02  0.45594000000E+02  0.51100000000E-03 0. -1.
         11   -1    0    0    0    0 -0.00000000000E+00 -0.00000000000E+00 -0.45593999997E+02  0.45594000000E+02  0.51100000000E-03 0.  1.
    9900012    2    1    2    0    0 -0.15539764132E+01  0.13148881789E+01 -0.31821041167E+02  0.59301914719E+02  0.49999946548E+02 0.  0.
         12    1    1    2    0    0  0.15539764132E+01 -0.13148881789E+01  0.31821041167E+02  0.31886085281E+02  0.00000000000E+00 0. -1.
         11    1    3    3    0    0  0.11867083564E+02  0.17693265406E+01 -0.13956801451E+01  0.12079160237E+02  0.51100000000E-03 0. -1.
        -11    1    3    3    0    0  0.11022072251E+02  0.91623696729E+00 -0.57587157377E+01  0.12469497749E+02  0.51100000000E-03 0.  1.
        -12    1    3    3    0    0 -0.24443132228E+02 -0.13706753290E+01 -0.24666645284E+02  0.34753256733E+02  0.00000000000E+00 0.  1.
</event>
<event>
 7    1  0.1193961E-011  0.5930193E+02  0.7816164E-02  0.1266605E+00
        -11   -1    0    0    0    0  0.00000000000E+00  0.00000000000E+00  0.45593999997E+02  0.45594000000E+02  0.51100000000E-03 0. -1.
         11   -1    0    0    0    0 -0.00000000000E+00 -0.00000000000E+00 -0.45593999997E+02  0.45594000000E+02  0.51100000000E-03 0.  1.
    9900012    2    1    2    0    0 -0.28734528970E+01  0.16629947153E+02 -0.27053831791E+02  0.59301926419E+02  0.49999967886E+02 0.  0.
         12    1    1    2    0    0  0.28734528970E+01 -0.16629947153E+02  0.27053831791E+02  0.31886073581E+02  0.00000000000E+00 0. -1.
         11    1    3    3    0    0  0.88677168515E+01 -0.11233913683E+01 -0.20867323295E+02  0.22701180412E+02  0.51100000000E-03 0. -1.
        -11    1    3    3    0    0  0.44068008728E+01  0.14193432849E+02 -0.11969963882E+02  0.19082805495E+02  0.51100000000E-03 0.  1.
         12    1    3    3    0    0 -0.16147970621E+02  0.35599056727E+01  0.57834553865E+01  0.17517940512E+02  0.00000000000E+00 0. -1.
</event>
<event>
 7    1  0.1193961E-011  0.5930199E+02  0.7816164E-02  0.1266605E+00
        -11   -1    0    0    0    0  0.00000000000E+00  0.00000000000E+00  0.45593999997E+02  0.45594000000E+02  0.51100000000E-03 0.  1.
         11   -1    0    0    0    0 -0.00000000000E+00 -0.00000000000E+00 -0.45593999997E+02  0.45594000000E+02  0.51100000000E-03 0. -1.
    9900012    2    1    2    0    0  0.29974611154E+02  0.72528587307E+01  0.81016074395E+01  0.59301994971E+02  0.50000092908E+02 0.  0.
         12    1    1    2    0    0 -0.29974611154E+02 -0.72528587307E+01 -0.81016074395E+01  0.31886005029E+02  0.00000000000E+00 0. -1.
         11    1    3    3    0    0  0.28278042904E+01 -0.67053762734E+01  0.44806109515E+01  0.85460179518E+01  0.51100000000E-03 0. -1.
        -11    1    3    3    0    0 -0.10476369062E+02  0.55509365797E+01 -0.11456413971E+01  0.11911326547E+02  0.51100000000E-03 0.  1.
        -12    1    3    3    0    0  0.37623175926E+02  0.84072984244E+01  0.47666378851E+01  0.38844650472E+02  0.00000000000E+00 0.  1.
</event>
<event>
 7    1  0.1193961E-011  0.5930196E+02  0.7816164E-02  0.1266605E+00
        -11   -1    0    0    0    0  0.00000000000E+00  0.00000000000E+00  0.45593999997E+02  0.45594000000E+02  0.51100000000E-03 0.  1.
         11   -1    0    0    0    0 -0.00000000000E+00 -0.00000000000E+00 -0.45593999997E+02  0.45594000000E+02  0.51100000000E-03 0. -1.
    9900012    2    1    2    0    0 -0.12581370339E+02  0.96083443005E+01  0.27678667787E+02  0.59301955870E+02  0.50000021598E+02 0.  0.
         12    1    1    2    0    0  0.12581370339E+02 -0.96083443005E+01 -0.27678667787E+02  0.31886044130E+02  0.00000000000E+00 0. -1.
         11    1    3    3    0    0  0.18187695620E+01 -0.36990713520E+01  0.28204673899E+01  0.49946059049E+01  0.51100000000E-03 0. -1.
        -11    1    3    3    0    0 -0.25112244746E+01 -0.12947748067E+02  0.21591825307E+02  0.25301330967E+02  0.51100000000E-03 0.  1.
         12    1    3    3    0    0 -0.11888915426E+02  0.26255163719E+02  0.32663750903E+01  0.29006018999E+02  0.00000000000E+00 0. -1.
</event>
<event>
 7    1  0.1193961E-011  0.5930198E+02  0.7816164E-02  0.1266605E+00
        -11   -1    0    0    0    0  0.00000000000E+00  0.00000000000E+00  0.45593999997E+02  0.45594000000E+02  0.51100000000E-03 0.  1.
         11   -1    0    0    0    0 -0.00000000000E+00 -0.00000000000E+00 -0.45593999997E+02  0.45594000000E+02  0.51100000000E-03 0. -1.
    9900012    2    1    2    0    0  0.29482221164E+02  0.72826642296E+01  0.97200533824E+01  0.59301984244E+02  0.50000073345E+02 0.  0.
         12    1    1    2    0    0 -0.29482221164E+02 -0.72826642296E+01 -0.97200533824E+01  0.31886015756E+02  0.00000000000E+00 0. -1.
         11    1    3    3    0    0  0.23354127590E+02  0.58692801636E+01  0.53772047423E+01  0.24673428141E+02  0.51100000000E-03 0. -1.
        -11    1    3    3    0    0 -0.50370320783E+01  0.14794526496E+02  0.67720878423E+01  0.17032641615E+02  0.51100000000E-03 0.  1.
         12    1    3    3    0    0  0.11165125652E+02 -0.13381142430E+02 -0.24292392022E+01  0.17595914488E+02  0.00000000000E+00 0. -1.
</event>
<event>
 7    1  0.1193961E-011  0.5930193E+02  0.7816164E-02  0.1266605E+00
        -11   -1    0    0    0    0  0.00000000000E+00  0.00000000000E+00  0.45593999997E+02  0.45594000000E+02  0.51100000000E-03 0. -1.
         11   -1    0    0    0    0 -0.00000000000E+00 -0.00000000000E+00 -0.45593999997E+02  0.45594000000E+02  0.51100000000E-03 0.  1.
    9900012    2    1    2    0    0  0.18709525229E+02  0.24271746960E+02 -0.88066811211E+01  0.59301926752E+02  0.49999968494E+02 0.  0.
         12    1    1    2    0    0 -0.18709525229E+02 -0.24271746960E+02  0.88066811211E+01  0.31886073248E+02  0.00000000000E+00 0. -1.
         11    1    3    3    0    0  0.33885721594E+01  0.94474988328E+01  0.13750486668E+02  0.17023910812E+02  0.51100000000E-03 0.  1.
        -11    1    3    3    0    0 -0.84152349794E+01  0.31469567909E+01 -0.33555140146E+01  0.95905678334E+01  0.51100000000E-03 0. -1.
        -12    1    3    3    0    0  0.23736188049E+02  0.11677291336E+02 -0.19201653774E+02  0.32687448107E+02  0.00000000000E+00 0.  1.
</event>
<event>
 7    1  0.1193961E-011  0.5930197E+02  0.7816164E-02  0.1266605E+00
        -11   -1    0    0    0    0  0.00000000000E+00  0.00000000000E+00  0.45593999997E+02  0.45594000000E+02  0.51100000000E-03 0.  1.
         11   -1    0    0    0    0 -0.00000000000E+00 -0.00000000000E+00 -0.45593999997E+02  0.45594000000E+02  0.51100000000E-03 0. -1.
    9900012    2    1    2    0    0  0.11622634382E+02 -0.71634052048E+01  0.28815249598E+02  0.59301974636E+02  0.50000055822E+02 0.  0.
         12    1    1    2    0    0 -0.11622634382E+02  0.71634052048E+01 -0.28815249598E+02  0.31886025364E+02  0.00000000000E+00 0. -1.
         11    1    3    3    0    0  0.19756563588E+01  0.27131567160E+01 -0.39872462256E+01  0.52117722646E+01  0.51100000000E-03 0. -1.
        -11    1    3    3    0    0  0.16286560442E+01  0.50881554885E+01 -0.81574115986E+01  0.97511645989E+01  0.51100000000E-03 0.  1.
        -12    1    3    3    0    0  0.80183219791E+01 -0.14964717409E+02  0.40959907423E+02  0.44339037772E+02  0.00000000000E+00 0.  1.
</event>
<event>
 7    1  0.1193961E-011  0.5930197E+02  0.7816164E-02  0.1266605E+00
        -11   -1    0    0    0    0  0.00000000000E+00  0.00000000000E+00  0.45593999997E+02  0.45594000000E+02  0.51100000000E-03 0.  1.
         11   -1    0    0    0    0 -0.00000000000E+00 -0.00000000000E+00 -0.45593999997E+02  0.45594000000E+02  0.51100000000E-03 0. -1.
    9900012    2    1    2    0    0  0.36222479680E+00 -0.31167956839E+02  0.67190718176E+01  0.59301973806E+02  0.50000054308E+02 0.  0.
         12    1    1    2    0    0 -0.36222479680E+00  0.31167956839E+02 -0.67190718176E+01  0.31886026194E+02  0.00000000000E+00 0. -1.
         11    1    3    3    0    0 -0.17014081725E+02 -0.53859121129E+01  0.38213154211E+01  0.18250739109E+02  0.51100000000E-03 0. -1.
        -11    1    3    3    0    0  0.33099340615E+01 -0.16123069386E+02 -0.10355104075E+02  0.19445750451E+02  0.51100000000E-03 0.  1.
        -12    1    3    3    0    0  0.14066372460E+02 -0.96589753401E+01  0.13252860472E+02  0.21605484246E+02  0.00000000000E+00 0.  1.
</event>
<event>
 7    1  0.1193961E-011  0.5930194E+02  0.7816164E-02  0.1266605E+00
        -11   -1    0    0    0    0  0.00000000000E+00  0.00000000000E+00  0.45593999997E+02  0.45594000000E+02  0.51100000000E-03 0.  1.
         11   -1    0    0    0    0 -0.00000000000E+00 -0.00000000000E+00 -0.45593999997E+02  0.45594000000E+02  0.51100000000E-03 0. -1.
    9900012    2    1    2    0    0  0.12954841801E+01  0.31436715593E+02  0.51744819498E+01  0.59301943016E+02  0.49999998155E+02 0.  0.
         12    1    1    2    0    0 -0.12954841801E+01 -0.31436715593E+02 -0.51744819498E+01  0.31886056984E+02  0.00000000000E+00 0. -1.
         11    1    3    3    0    0  0.10201858299E+02 -0.14107944678E+01 -0.34565543544E+01  0.10863517940E+02  0.51100000000E-03 0.  1.
        -11    1    3    3    0    0 -0.16416537830E+02  0.31402719898E+01  0.56882339829E+01  0.17655594824E+02  0.51100000000E-03 0. -1.
        -12    1    3    3    0    0  0.75101637111E+01  0.29707238071E+02  0.29428023214E+01  0.30782830251E+02  0.00000000000E+00 0.  1.
</event>
<event>
 7    1  0.1193961E-011  0.5930197E+02  0.7816164E-02  0.1266605E+00
        -11   -1    0    0    0    0  0.00000000000E+00  0.00000000000E+00  0.45593999997E+02  0.45594000000E+02  0.51100000000E-03 0.  1.
         11   -1    0    0    0    0 -0.00000000000E+00 -0.00000000000E+00 -0.45593999997E+02  0.45594000000E+02  0.51100000000E-03 0. -1.
    9900012    2    1    2    0    0  0.88990789267E+01 -0.27521154948E+02  0.13420564455E+02  0.59301966605E+02  0.50000041175E+02 0.  0.
         12    1    1    2    0    0 -0.88990789267E+01  0.27521154948E+02 -0.13420564455E+02  0.31886033395E+02  0.00000000000E+00 0. -1.
         11    1    3    3    0    0  0.56735379581E+01 -0.31122522832E+00 -0.98668501088E+00  0.57670999364E+01  0.51100000000E-03 0. -1.
        -11    1    3    3    0    0  0.51114689124E+01 -0.61361599548E+01 -0.15184878788E+02  0.17156926225E+02  0.51100000000E-03 0.  1.
        -12    1    3    3    0    0 -0.18859279438E+01 -0.21073769765E+02  0.29592128253E+02  0.36377940443E+02  0.00000000000E+00 0.  1.
</event>
<event>
 7    1  0.1193961E-011  0.5930192E+02  0.7816164E-02  0.1266605E+00
        -11   -1    0    0    0    0  0.00000000000E+00  0.00000000000E+00  0.45593999997E+02  0.45594000000E+02  0.51100000000E-03 0. -1.
         11   -1    0    0    0    0 -0.00000000000E+00 -0.00000000000E+00 -0.45593999997E+02  0.45594000000E+02  0.51100000000E-03 0.  1.
    9900012    2    1    2    0    0 -0.13606593010E+02  0.22075551461E+02 -0.18554055119E+02  0.59301916719E+02  0.49999950196E+02 0.  0.
         12    1    1    2    0    0  0.13606593010E+02 -0.22075551461E+02  0.18554055119E+02  0.31886083281E+02  0.00000000000E+00 0. -1.
         11    1    3    3    0    0  0.50824165012E+01 -0.85846707734E+01 -0.75627405217E+01  0.12518888698E+02  0.51100000000E-03 0. -1.
        -11    1    3    3    0    0 -0.14850417273E+02  0.42562268431E+01 -0.12768876701E+02  0.20042319541E+02  0.51100000000E-03 0.  1.
        -12    1    3    3    0    0 -0.38385922377E+01  0.26403995391E+02  0.17775621034E+01  0.26740708480E+02  0.00000000000E+00 0.  1.
</event>
<event>
 7    1  0.1193961E-011  0.5930195E+02  0.7816164E-02  0.1266605E+00
        -11   -1    0    0    0    0  0.00000000000E+00  0.00000000000E+00  0.45593999997E+02  0.45594000000E+02  0.51100000000E-03 0.  1.
         11   -1    0    0    0    0 -0.00000000000E+00 -0.00000000000E+00 -0.45593999997E+02  0.45594000000E+02  0.51100000000E-03 0. -1.
    9900012    2    1    2    0    0  0.20040929967E+02  0.13248840084E+02  0.20965440584E+02  0.59301947620E+02  0.50000006551E+02 0.  0.
         12    1    1    2    0    0 -0.20040929967E+02 -0.13248840084E+02 -0.20965440584E+02  0.31886052380E+02  0.00000000000E+00 0. -1.
         11    1    3    3    0    0 -0.17506329016E+01 -0.75920955905E+01  0.12618929563E+01  0.78928451844E+01  0.51100000000E-03 0. -1.
        -11    1    3    3    0    0 -0.72065674335E+01 -0.45828068284E+01  0.11640934317E+01  0.86192718010E+01  0.51100000000E-03 0.  1.
         12    1    3    3    0    0  0.28998130302E+02  0.25423742503E+02  0.18539454196E+02  0.42789830635E+02  0.00000000000E+00 0. -1.
</event>
<event>
 7    1  0.1193961E-011  0.5930193E+02  0.7816164E-02  0.1266605E+00
        -11   -1    0    0    0    0  0.00000000000E+00  0.00000000000E+00  0.45593999997E+02  0.45594000000E+02  0.51100000000E-03 0.  1.
         11   -1    0    0    0    0 -0.00000000000E+00 -0.00000000000E+00 -0.45593999997E+02  0.45594000000E+02  0.51100000000E-03 0. -1.
    9900012    2    1    2    0    0  0.21147046999E+02 -0.87106793963E+01  0.22218195751E+02  0.59301925379E+02  0.49999965988E+02 0.  0.
         12    1    1    2    0    0 -0.21147046999E+02  0.87106793963E+01 -0.22218195751E+02  0.31886074621E+02  0.00000000000E+00 0. -1.
         11    1    3    3    0    0  0.69943472293E+01 -0.24321316868E+01  0.15134939642E+02  0.16849408178E+02  0.51100000000E-03 0. -1.
        -11    1    3    3    0    0  0.64846491939E+01 -0.11797766341E+01  0.23075612836E+02  0.23998467786E+02  0.51100000000E-03 0.  1.
         12    1    3    3    0    0  0.76680505759E+01 -0.50987710754E+01 -0.15992356727E+02  0.18454049415E+02  0.00000000000E+00 0. -1.
</event>
<event>
 7    1  0.1193961E-011  0.5930193E+02  0.7816164E-02  0.1266605E+00
        -11   -1    0    0    0    0  0.00000000000E+00  0.00000000000E+00  0.45593999997E+02  0.45594000000E+02  0.51100000000E-03 0.  1.
         11   -1    0    0    0    0 -0.00000000000E+00 -0.00000000000E+00 -0.45593999997E+02  0.45594000000E+02  0.51100000000E-03 0. -1.
    9900012    2    1    2    0    0  0.25852845985E+02 -0.79611623932E+01  0.16881098884E+02  0.59301933268E+02  0.49999980376E+02 0.  0.
         12    1    1    2    0    0 -0.25852845985E+02  0.79611623932E+01 -0.16881098884E+02  0.31886066732E+02  0.00000000000E+00 0. -1.
         11    1    3    3    0    0  0.76552345905E+01 -0.90725355153E+01 -0.94714182981E+01  0.15186220140E+02  0.51100000000E-03 0. -1.
        -11    1    3    3    0    0 -0.26589705511E+00 -0.58669851817E+01 -0.45624324887E+01  0.74369353124E+01  0.51100000000E-03 0.  1.
         12    1    3    3    0    0  0.18463508449E+02  0.69783583038E+01  0.30914949670E+02  0.36678777815E+02  0.00000000000E+00 0. -1.
</event>
<event>
 7    1  0.1193961E-011  0.5930193E+02  0.7816164E-02  0.1266605E+00
        -11   -1    0    0    0    0  0.00000000000E+00  0.00000000000E+00  0.45593999997E+02  0.45594000000E+02  0.51100000000E-03 0. -1.
         11   -1    0    0    0    0 -0.00000000000E+00 -0.00000000000E+00 -0.45593999997E+02  0.45594000000E+02  0.51100000000E-03 0.  1.
    9900012    2    1    2    0    0  0.19830577895E+02 -0.14564152690E+02 -0.20281883914E+02  0.59301934418E+02  0.49999982474E+02 0.  0.
         12    1    1    2    0    0 -0.19830577895E+02  0.14564152690E+02  0.20281883914E+02  0.31886065582E+02  0.00000000000E+00 0. -1.
         11    1    3    3    0    0  0.16638873970E+01 -0.16526169640E+02 -0.22657438518E+02  0.28093456973E+02  0.51100000000E-03 0. -1.
        -11    1    3    3    0    0  0.11132297182E+02 -0.91460370221E+01 -0.60133837413E+01  0.15612136883E+02  0.51100000000E-03 0.  1.
         12    1    3    3    0    0  0.70343933153E+01  0.11108053972E+02  0.83889383460E+01  0.15596340562E+02  0.00000000000E+00 0. -1.
</event>
<event>
 7    1  0.1193961E-011  0.5930196E+02  0.7816164E-02  0.1266605E+00
        -11   -1    0    0    0    0  0.00000000000E+00  0.00000000000E+00  0.45593999997E+02  0.45594000000E+02  0.51100000000E-03 0.  1.
         11   -1    0    0    0    0 -0.00000000000E+00 -0.00000000000E+00 -0.45593999997E+02  0.45594000000E+02  0.51100000000E-03 0. -1.
    9900012    2    1    2    0    0  0.48543560158E+01 -0.48907571477E+01  0.31132543889E+02  0.59301959687E+02  0.50000028559E+02 0.  0.
         12    1    1    2    0    0 -0.48543560158E+01  0.48907571477E+01 -0.31132543889E+02  0.31886040313E+02  0.00000000000E+00 0. -1.
         11    1    3    3    0    0  0.23526046061E+00  0.25271002010E+01 -0.10090791048E+02  0.10405077950E+02  0.51100000000E-03 0. -1.
        -11    1    3    3    0    0  0.32913110050E+00  0.86750961970E+01  0.83500384501E+01  0.12045279726E+02  0.51100000000E-03 0.  1.
        -12    1    3    3    0    0  0.42899644547E+01 -0.16092953546E+02  0.32873296487E+02  0.36851602011E+02  0.00000000000E+00 0.  1.
</event>
<event>
 7    1  0.1193961E-011  0.5930192E+02  0.7816164E-02  0.1266605E+00
        -11   -1    0    0    0    0  0.00000000000E+00  0.00000000000E+00  0.45593999997E+02  0.45594000000E+02  0.51100000000E-03 0.  1.
         11   -1    0    0    0    0 -0.00000000000E+00 -0.00000000000E+00 -0.45593999997E+02  0.45594000000E+02  0.51100000000E-03 0. -1.
    9900012    2    1    2    0    0 -0.33263712207E+01  0.23920048822E+02 -0.20820395682E+02  0.59301915927E+02  0.49999948751E+02 0.  0.
         12    1    1    2    0    0  0.33263712207E+01 -0.23920048822E+02  0.20820395682E+02  0.31886084073E+02  0.00000000000E+00 0. -1.
         11    1    3    3    0    0 -0.58806425714E+01 -0.15625275831E+01 -0.13236252375E+02  0.14567835347E+02  0.51100000000E-03 0. -1.
        -11    1    3    3    0    0  0.99023045420E+01 -0.54848925502E+01 -0.61310979938E+01  0.12873618155E+02  0.51100000000E-03 0.  1.
        -12    1    3    3    0    0 -0.73480331914E+01  0.30967468955E+02 -0.14530453136E+01  0.31860462426E+02  0.00000000000E+00 0.  1.
</event>
<event>
 7    1  0.1193961E-011  0.5930189E+02  0.7816164E-02  0.1266605E+00
        -11   -1    0    0    0    0  0.00000000000E+00  0.00000000000E+00  0.45593999997E+02  0.45594000000E+02  0.51100000000E-03 0.  1.
         11   -1    0    0    0    0 -0.00000000000E+00 -0.00000000000E+00 -0.45593999997E+02  0.45594000000E+02  0.51100000000E-03 0. -1.
    9900012    2    1    2    0    0  0.14015476698E+02 -0.26003139875E+02  0.12005297028E+02  0.59301889746E+02  0.49999901003E+02 0.  0.
         12    1    1    2    0    0 -0.14015476698E+02  0.26003139875E+02 -0.12005297028E+02  0.31886110254E+02  0.00000000000E+00 0. -1.
         11    1    3    3    0    0  0.44099528080E+01 -0.97209071155E+01 -0.11552108768E+02  0.15728793220E+02  0.51100000000E-03 0. -1.
        -11    1    3    3    0    0  0.16053637521E+02 -0.20344803889E+02  0.24777757056E+02  0.35854812340E+02  0.51100000000E-03 0.  1.
         12    1    3    3    0    0 -0.64481136304E+01  0.40625711299E+01 -0.12203512606E+01  0.77182841860E+01  0.00000000000E+00 0. -1.
</event>
<event>
 7    1  0.1193961E-011  0.5930195E+02  0.7816164E-02  0.1266605E+00
        -11   -1    0    0    0    0  0.00000000000E+00  0.00000000000E+00  0.45593999997E+02  0.45594000000E+02  0.51100000000E-03 0. -1.
         11   -1    0    0    0    0 -0.00000000000E+00 -0.00000000000E+00 -0.45593999997E+02  0.45594000000E+02  0.51100000000E-03 0.  1.
    9900012    2    1    2    0    0  0.21348804489E+02 -0.21670319747E+02 -0.95575246436E+01  0.59301945237E+02  0.50000002205E+02 0.  0.
         12    1    1    2    0    0 -0.21348804489E+02  0.21670319747E+02  0.95575246436E+01  0.31886054763E+02  0.00000000000E+00 0. -1.
         11    1    3    3    0    0  0.75533170629E+01  0.11672636044E+01 -0.11157051068E+02  0.13523863789E+02  0.51100000000E-03 0. -1.
        -11    1    3    3    0    0  0.17214306218E+02 -0.27028145915E+02 -0.95067451100E+01  0.33425008796E+02  0.51100000000E-03 0.  1.
         12    1    3    3    0    0 -0.34188187924E+01  0.41905625630E+01  0.11106271535E+02  0.12353072652E+02  0.00000000000E+00 0. -1.
</event>
<event>
 7    1  0.1196050E-011  0.5930190E+02  0.7816164E-02  0.1266605E+00
        -11   -1    0    0    0    0  0.00000000000E+00  0.00000000000E+00  0.45593999997E+02  0.45594000000E+02  0.51100000000E-03 0. -1.
         11   -1    0    0    0    0 -0.00000000000E+00 -0.00000000000E+00 -0.45593999997E+02  0.45594000000E+02  0.51100000000E-03 0.  1.
    9900012    2    1    2    0    0  0.10037258084E+02 -0.14757690999E+01 -0.30229102228E+02  0.59301904820E+02  0.49999928495E+02 0.  0.
         12    1    1    2    0    0 -0.10037258084E+02  0.14757690999E+01  0.30229102228E+02  0.31886095180E+02  0.00000000000E+00 0. -1.
         11    1    3    3    0    0  0.68394940283E+01 -0.35452402929E+01  0.51534603969E+01  0.92685253207E+01  0.51100000000E-03 0. -1.
        -11    1    3    3    0    0  0.95685273705E+01  0.16201593333E+02 -0.13255158512E+02  0.23016245784E+02  0.51100000000E-03 0.  1.
         12    1    3    3    0    0 -0.63707633153E+01 -0.14132122140E+02 -0.22127404113E+02  0.27017133715E+02  0.00000000000E+00 0. -1.
</event>
<event>
 7    1  0.1193961E-011  0.5930196E+02  0.7816164E-02  0.1266605E+00
        -11   -1    0    0    0    0  0.00000000000E+00  0.00000000000E+00  0.45593999997E+02  0.45594000000E+02  0.51100000000E-03 0.  1.
         11   -1    0    0    0    0 -0.00000000000E+00 -0.00000000000E+00 -0.45593999997E+02  0.45594000000E+02  0.51100000000E-03 0. -1.
    9900012    2    1    2    0    0 -0.30681487839E+02  0.40623535812E+00  0.86718520740E+01  0.59301956947E+02  0.50000023561E+02 0.  0.
         12    1    1    2    0    0  0.30681487839E+02 -0.40623535812E+00 -0.86718520740E+01  0.31886043053E+02  0.00000000000E+00 0. -1.
         11    1    3    3    0    0 -0.78571696684E+01  0.89834086827E+01  0.10281286396E+02  0.15752510815E+02  0.51100000000E-03 0. -1.
        -11    1    3    3    0    0 -0.25734870886E+02  0.64443706720E+01 -0.68087520285E+01  0.27389278875E+02  0.51100000000E-03 0.  1.
         12    1    3    3    0    0  0.29105527146E+01 -0.15021543997E+02  0.51993177063E+01  0.16160167256E+02  0.00000000000E+00 0. -1.
</event>
<event>
 7    1  0.1193961E-011  0.5930195E+02  0.7816164E-02  0.1266605E+00
        -11   -1    0    0    0    0  0.00000000000E+00  0.00000000000E+00  0.45593999997E+02  0.45594000000E+02  0.51100000000E-03 0.  1.
         11   -1    0    0    0    0 -0.00000000000E+00 -0.00000000000E+00 -0.45593999997E+02  0.45594000000E+02  0.51100000000E-03 0. -1.
    9900012    2    1    2    0    0 -0.93075659025E+01  0.12927047436E+02  0.27622110601E+02  0.59301947681E+02  0.50000006662E+02 0.  0.
         12    1    1    2    0    0  0.93075659025E+01 -0.12927047436E+02 -0.27622110601E+02  0.31886052319E+02  0.00000000000E+00 0. -1.
         11    1    3    3    0    0  0.16137260767E+02  0.78065012152E+00  0.83018046691E+01  0.18164266038E+02  0.51100000000E-03 0. -1.
        -11    1    3    3    0    0 -0.55822467426E+01  0.14384794259E+02  0.39624779448E+01  0.15930631384E+02  0.51100000000E-03 0.  1.
        -12    1    3    3    0    0 -0.19862579927E+02 -0.22383969441E+01  0.15357827987E+02  0.25207050259E+02  0.00000000000E+00 0.  1.
</event>
<event>
 7    1  0.1193961E-011  0.5930195E+02  0.7816164E-02  0.1266605E+00
        -11   -1    0    0    0    0  0.00000000000E+00  0.00000000000E+00  0.45593999997E+02  0.45594000000E+02  0.51100000000E-03 0.  1.
         11   -1    0    0    0    0 -0.00000000000E+00 -0.00000000000E+00 -0.45593999997E+02  0.45594000000E+02  0.51100000000E-03 0. -1.
    9900012    2    1    2    0    0  0.11379267801E+02 -0.22097259740E+02  0.19973572400E+02  0.59301949475E+02  0.50000009934E+02 0.  0.
         12    1    1    2    0    0 -0.11379267801E+02  0.22097259740E+02 -0.19973572400E+02  0.31886050525E+02  0.00000000000E+00 0. -1.
         11    1    3    3    0    0  0.25641422987E+01 -0.16893507884E+02 -0.50555471871E+01  0.17819202899E+02  0.51100000000E-03 0. -1.
        -11    1    3    3    0    0 -0.32583943966E+01 -0.16266793782E+02  0.10863003909E+02  0.19830042062E+02  0.51100000000E-03 0.  1.
        -12    1    3    3    0    0  0.12073519898E+02  0.11063041925E+02  0.14166115678E+02  0.21652704514E+02  0.00000000000E+00 0.  1.
</event>
<event>
 7    1  0.1193961E-011  0.5930194E+02  0.7816164E-02  0.1266605E+00
        -11   -1    0    0    0    0  0.00000000000E+00  0.00000000000E+00  0.45593999997E+02  0.45594000000E+02  0.51100000000E-03 0. -1.
         11   -1    0    0    0    0 -0.00000000000E+00 -0.00000000000E+00 -0.45593999997E+02  0.45594000000E+02  0.51100000000E-03 0.  1.
    9900012    2    1    2    0    0 -0.78281155763E+01  0.24263274838E+02 -0.19150322804E+02  0.59301940933E+02  0.49999994356E+02 0.  0.
         12    1    1    2    0    0  0.78281155763E+01 -0.24263274838E+02  0.19150322804E+02  0.31886059067E+02  0.00000000000E+00 0. -1.
         11    1    3    3    0    0  0.69143199257E+01  0.17048546281E+02 -0.11023605438E+02  0.21447158960E+02  0.51100000000E-03 0. -1.
        -11    1    3    3    0    0 -0.16129626394E+02  0.36036871121E-02 -0.18880964483E+02  0.24832552843E+02  0.51100000000E-03 0.  1.
         12    1    3    3    0    0  0.13871908922E+01  0.72111248697E+01  0.10754247117E+02  0.13022229130E+02  0.00000000000E+00 0. -1.
</event>
<event>
 7    1  0.1193961E-011  0.5930194E+02  0.7816164E-02  0.1266605E+00
        -11   -1    0    0    0    0  0.00000000000E+00  0.00000000000E+00  0.45593999997E+02  0.45594000000E+02  0.51100000000E-03 0.  1.
         11   -1    0    0    0    0 -0.00000000000E+00 -0.00000000000E+00 -0.45593999997E+02  0.45594000000E+02  0.51100000000E-03 0. -1.
    9900012    2    1    2    0    0  0.83854093310E+01  0.30757660421E+02 -0.60995572745E+00  0.59301940190E+02  0.49999993000E+02 0.  0.
         12    1    1    2    0    0 -0.83854093310E+01 -0.30757660421E+02  0.60995572745E+00  0.31886059810E+02  0.00000000000E+00 0. -1.
         11    1    3    3    0    0 -0.59349845030E+01  0.67080316551E+01  0.77239676672E+01  0.11827147015E+02  0.51100000000E-03 0. -1.
        -11    1    3    3    0    0 -0.56752316227E+01  0.54134471704E+01  0.11346370260E+02  0.13793251342E+02  0.51100000000E-03 0.  1.
         12    1    3    3    0    0  0.19995625457E+02  0.18636181596E+02 -0.19680293655E+02  0.33681541832E+02  0.00000000000E+00 0. -1.
</event>
<event>
 7    1  0.1193961E-011  0.5930195E+02  0.7816164E-02  0.1266605E+00
        -11   -1    0    0    0    0  0.00000000000E+00  0.00000000000E+00  0.45593999997E+02  0.45594000000E+02  0.51100000000E-03 0. -1.
         11   -1    0    0    0    0 -0.00000000000E+00 -0.00000000000E+00 -0.45593999997E+02  0.45594000000E+02  0.51100000000E-03 0.  1.
    9900012    2    1    2    0    0 -0.17701011264E+02 -0.18067906055E+02  0.19415081545E+02  0.59301946303E+02  0.50000004149E+02 0.  0.
         12    1    1    2    0    0  0.17701011264E+02  0.18067906055E+02 -0.19415081545E+02  0.31886053697E+02  0.00000000000E+00 0. -1.
         11    1    3    3    0    0 -0.19618133838E+02 -0.48653382128E+01  0.32424680880E+02  0.38208672074E+02  0.51100000000E-03 0. -1.
        -11    1    3    3    0    0  0.27019479470E+01 -0.17120894691E+01  0.61044269091E+00  0.32564418617E+01  0.51100000000E-03 0.  1.
        -12    1    3    3    0    0 -0.78482537272E+00 -0.11490478373E+02 -0.13620042026E+02  0.17836832367E+02  0.00000000000E+00 0.  1.
</event>
<event>
 7    1  0.1193961E-011  0.5930191E+02  0.7816164E-02  0.1266605E+00
        -11   -1    0    0    0    0  0.00000000000E+00  0.00000000000E+00  0.45593999997E+02  0.45594000000E+02  0.51100000000E-03 0. -1.
         11   -1    0    0    0    0 -0.00000000000E+00 -0.00000000000E+00 -0.45593999997E+02  0.45594000000E+02  0.51100000000E-03 0.  1.
    9900012    2    1    2    0    0  0.24375870144E+02  0.86803104712E+01  0.18633080124E+02  0.59301913535E+02  0.49999944389E+02 0.  0.
         12    1    1    2    0    0 -0.24375870144E+02 -0.86803104712E+01 -0.18633080124E+02  0.31886086465E+02  0.00000000000E+00 0. -1.
         11    1    3    3    0    0  0.18041506620E+02  0.19584188259E+02  0.10056556760E+02  0.28463498116E+02  0.51100000000E-03 0. -1.
        -11    1    3    3    0    0  0.84265292914E+01 -0.26427601220E+01 -0.81811456424E+01  0.12038343792E+02  0.51100000000E-03 0.  1.
        -12    1    3    3    0    0 -0.20921657674E+01 -0.82611176653E+01  0.16757669007E+02  0.18800071628E+02  0.00000000000E+00 0.  1.
</event>
<event>
 7    1  0.1193961E-011  0.5930193E+02  0.7816164E-02  0.1266605E+00
        -11   -1    0    0    0    0  0.00000000000E+00  0.00000000000E+00  0.45593999997E+02  0.45594000000E+02  0.51100000000E-03 0.  1.
         11   -1    0    0    0    0 -0.00000000000E+00 -0.00000000000E+00 -0.45593999997E+02  0.45594000000E+02  0.51100000000E-03 0. -1.
    9900012    2    1    2    0    0  0.16881446452E+02  0.23738194719E+02 -0.12970597926E+02  0.59301928850E+02  0.49999972319E+02 0.  0.
         12    1    1    2    0    0 -0.16881446452E+02 -0.23738194719E+02  0.12970597926E+02  0.31886071150E+02  0.00000000000E+00 0. -1.
         11    1    3    3    0    0  0.92033307006E+01  0.21002616855E+01 -0.10161593357E+02  0.13869764776E+02  0.51100000000E-03 0. -1.
        -11    1    3    3    0    0  0.41023630812E+01 -0.47129744656E+01 -0.14947080676E+02  0.16200516416E+02  0.51100000000E-03 0.  1.
        -12    1    3    3    0    0  0.35757526706E+01  0.26350907499E+02  0.12138076107E+02  0.29231647657E+02  0.00000000000E+00 0.  1.
</event>
<event>
 7    1  0.1193961E-011  0.5930195E+02  0.7816164E-02  0.1266605E+00
        -11   -1    0    0    0    0  0.00000000000E+00  0.00000000000E+00  0.45593999997E+02  0.45594000000E+02  0.51100000000E-03 0.  1.
         11   -1    0    0    0    0 -0.00000000000E+00 -0.00000000000E+00 -0.45593999997E+02  0.45594000000E+02  0.51100000000E-03 0. -1.
    9900012    2    1    2    0    0 -0.28444182772E+02  0.13563114957E+02  0.48672855592E+01  0.59301951490E+02  0.50000013609E+02 0.  0.
         12    1    1    2    0    0  0.28444182772E+02 -0.13563114957E+02 -0.48672855592E+01  0.31886048510E+02  0.00000000000E+00 0. -1.
         11    1    3    3    0    0 -0.59728073987E+01  0.23801330553E+02  0.11902773347E+01  0.24568160792E+02  0.51100000000E-03 0. -1.
        -11    1    3    3    0    0 -0.49238817944E+01  0.75884098299E+01  0.35551162851E+01  0.97194355666E+01  0.51100000000E-03 0.  1.
         12    1    3    3    0    0 -0.17547493579E+02 -0.17826625426E+02  0.12189193941E+00  0.25014355131E+02  0.00000000000E+00 0. -1.
</event>
<event>
 7    1  0.1193961E-011  0.5930194E+02  0.7816164E-02  0.1266605E+00
        -11   -1    0    0    0    0  0.00000000000E+00  0.00000000000E+00  0.45593999997E+02  0.45594000000E+02  0.51100000000E-03 0. -1.
         11   -1    0    0    0    0 -0.00000000000E+00 -0.00000000000E+00 -0.45593999997E+02  0.45594000000E+02  0.51100000000E-03 0.  1.
    9900012    2    1    2    0    0  0.12574530724E+02 -0.28167904984E+02  0.80728527426E+01  0.59301942772E+02  0.49999997710E+02 0.  0.
         12    1    1    2    0    0 -0.12574530724E+02  0.28167904984E+02 -0.80728527426E+01  0.31886057228E+02  0.00000000000E+00 0. -1.
         11    1    3    3    0    0 -0.20964324107E+01  0.30267531909E+01 -0.31786310632E+01  0.48641504323E+01  0.51100000000E-03 0. -1.
        -11    1    3    3    0    0  0.28531334653E+02 -0.16378859764E+02  0.55473749134E+01  0.33362815722E+02  0.51100000000E-03 0.  1.
         12    1    3    3    0    0 -0.13860371517E+02 -0.14815798411E+02  0.57041088923E+01  0.21074976617E+02  0.00000000000E+00 0. -1.
</event>
<event>
 7    1  0.1193961E-011  0.5930193E+02  0.7816164E-02  0.1266605E+00
        -11   -1    0    0    0    0  0.00000000000E+00  0.00000000000E+00  0.45593999997E+02  0.45594000000E+02  0.51100000000E-03 0.  1.
         11   -1    0    0    0    0 -0.00000000000E+00 -0.00000000000E+00 -0.45593999997E+02  0.45594000000E+02  0.51100000000E-03 0. -1.
    9900012    2    1    2    0    0 -0.94519538511E+01 -0.24055548798E+02  0.18673853901E+02  0.59301926566E+02  0.49999968153E+02 0.  0.
         12    1    1    2    0    0  0.94519538511E+01  0.24055548798E+02 -0.18673853901E+02  0.31886073434E+02  0.00000000000E+00 0. -1.
         11    1    3    3    0    0 -0.89535055050E+01 -0.22525041532E+02 -0.27008199217E+01  0.24389284232E+02  0.51100000000E-03 0. -1.
        -11    1    3    3    0    0  0.61770751321E+01 -0.11549879087E+02  0.18268715568E+02  0.22478921969E+02  0.51100000000E-03 0.  1.
        -12    1    3    3    0    0 -0.66755234782E+01  0.10019371822E+02  0.31059582539E+01  0.12433720364E+02  0.00000000000E+00 0.  1.
</event>
<event>
 7    1  0.1193961E-011  0.5930194E+02  0.7816164E-02  0.1266605E+00
        -11   -1    0    0    0    0  0.00000000000E+00  0.00000000000E+00  0.45593999997E+02  0.45594000000E+02  0.51100000000E-03 0.  1.
         11   -1    0    0    0    0 -0.00000000000E+00 -0.00000000000E+00 -0.45593999997E+02  0.45594000000E+02  0.51100000000E-03 0. -1.
    9900012    2    1    2    0    0 -0.10178258885E+02  0.90531911162E+01  0.28829905685E+02  0.59301942152E+02  0.49999996579E+02 0.  0.
         12    1    1    2    0    0  0.10178258885E+02 -0.90531911162E+01 -0.28829905685E+02  0.31886057848E+02  0.00000000000E+00 0. -1.
         11    1    3    3    0    0 -0.20761894536E+00  0.95935342807E+01 -0.29289889648E+00  0.96002497700E+01  0.51100000000E-03 0. -1.
        -11    1    3    3    0    0  0.11998604704E+02 -0.10019909642E+02  0.16181345505E+02  0.22498912122E+02  0.51100000000E-03 0.  1.
         12    1    3    3    0    0 -0.21969244644E+02  0.94795664777E+01  0.12941459076E+02  0.27202780259E+02  0.00000000000E+00 0. -1.
</event>
<event>
 7    1  0.1193961E-011  0.5930193E+02  0.7816164E-02  0.1266605E+00
        -11   -1    0    0    0    0  0.00000000000E+00  0.00000000000E+00  0.45593999997E+02  0.45594000000E+02  0.51100000000E-03 0.  1.
         11   -1    0    0    0    0 -0.00000000000E+00 -0.00000000000E+00 -0.45593999997E+02  0.45594000000E+02  0.51100000000E-03 0. -1.
    9900012    2    1    2    0    0 -0.14846301079E+02 -0.24265426532E+02  0.14404792214E+02  0.59301927504E+02  0.49999969864E+02 0.  0.
         12    1    1    2    0    0  0.14846301079E+02  0.24265426532E+02 -0.14404792214E+02  0.31886072496E+02  0.00000000000E+00 0. -1.
         11    1    3    3    0    0 -0.68844080975E+01 -0.14310088794E+02  0.28513410264E+01  0.16133935107E+02  0.51100000000E-03 0. -1.
        -11    1    3    3    0    0 -0.57620393050E+01 -0.24888930756E+02  0.11637596495E+02  0.28073005247E+02  0.51100000000E-03 0.  1.
         12    1    3    3    0    0 -0.21998536764E+01  0.14933593018E+02 -0.84145307693E-01  0.15094987150E+02  0.00000000000E+00 0. -1.
</event>
<event>
 7    1  0.1193961E-011  0.5930194E+02  0.7816164E-02  0.1266605E+00
        -11   -1    0    0    0    0  0.00000000000E+00  0.00000000000E+00  0.45593999997E+02  0.45594000000E+02  0.51100000000E-03 0.  1.
         11   -1    0    0    0    0 -0.00000000000E+00 -0.00000000000E+00 -0.45593999997E+02  0.45594000000E+02  0.51100000000E-03 0. -1.
    9900012    2    1    2    0    0 -0.28461102831E+02 -0.62614800772E+01  0.12941430297E+02  0.59301935249E+02  0.49999983990E+02 0.  0.
         12    1    1    2    0    0  0.28461102831E+02  0.62614800772E+01 -0.12941430297E+02  0.31886064751E+02  0.00000000000E+00 0. -1.
         11    1    3    3    0    0 -0.21356012231E+02 -0.14483400715E+01 -0.38455679072E+01  0.21747766325E+02  0.51100000000E-03 0. -1.
        -11    1    3    3    0    0 -0.18591719100E+02 -0.70942055360E+01  0.41542381039E+01  0.20328243056E+02  0.51100000000E-03 0.  1.
         12    1    3    3    0    0  0.11486628499E+02  0.22810655303E+01  0.12632760101E+02  0.17225925867E+02  0.00000000000E+00 0. -1.
</event>
<event>
 7    1  0.1193961E-011  0.5930194E+02  0.7816164E-02  0.1266605E+00
        -11   -1    0    0    0    0  0.00000000000E+00  0.00000000000E+00  0.45593999997E+02  0.45594000000E+02  0.51100000000E-03 0.  1.
         11   -1    0    0    0    0 -0.00000000000E+00 -0.00000000000E+00 -0.45593999997E+02  0.45594000000E+02  0.51100000000E-03 0. -1.
    9900012    2    1    2    0    0  0.19375586182E+02  0.29874114297E+01  0.25147223779E+02  0.59301939868E+02  0.49999992414E+02 0.  0.
         12    1    1    2    0    0 -0.19375586182E+02 -0.29874114297E+01 -0.25147223779E+02  0.31886060132E+02  0.00000000000E+00 0. -1.
         11    1    3    3    0    0  0.18445633004E+02  0.18363275513E+02  0.28868076606E+01  0.26187495551E+02  0.51100000000E-03 0.  1.
        -11    1    3    3    0    0  0.48034224582E+01 -0.10300080212E-01 -0.10606272189E+01  0.49191364855E+01  0.51100000000E-03 0. -1.
        -12    1    3    3    0    0 -0.38734692808E+01 -0.15365564003E+02  0.23321043337E+02  0.28195307832E+02  0.00000000000E+00 0.  1.
</event>
<event>
 7    1  0.1193961E-011  0.5930196E+02  0.7816164E-02  0.1266605E+00
        -11   -1    0    0    0    0  0.00000000000E+00  0.00000000000E+00  0.45593999997E+02  0.45594000000E+02  0.51100000000E-03 0. -1.
         11   -1    0    0    0    0 -0.00000000000E+00 -0.00000000000E+00 -0.45593999997E+02  0.45594000000E+02  0.51100000000E-03 0.  1.
    9900012    2    1    2    0    0  0.16378768727E+02 -0.13996094097E+02 -0.23506701285E+02  0.59301957281E+02  0.50000024171E+02 0.  0.
         12    1    1    2    0    0 -0.16378768727E+02  0.13996094097E+02  0.23506701285E+02  0.31886042719E+02  0.00000000000E+00 0. -1.
         11    1    3    3    0    0 -0.22839221266E-01 -0.22876626421E+02 -0.16395486304E+02  0.28145204377E+02  0.51100000000E-03 0. -1.
        -11    1    3    3    0    0  0.13531513630E+02 -0.62703693600E+01 -0.35636154738E+01  0.15333582378E+02  0.51100000000E-03 0.  1.
         12    1    3    3    0    0  0.28700943182E+01  0.15150901684E+02 -0.35475995068E+01  0.15823170526E+02  0.00000000000E+00 0. -1.
</event>
<event>
 7    1  0.1193961E-011  0.5930193E+02  0.7816164E-02  0.1266605E+00
        -11   -1    0    0    0    0  0.00000000000E+00  0.00000000000E+00  0.45593999997E+02  0.45594000000E+02  0.51100000000E-03 0. -1.
         11   -1    0    0    0    0 -0.00000000000E+00 -0.00000000000E+00 -0.45593999997E+02  0.45594000000E+02  0.51100000000E-03 0.  1.
    9900012    2    1    2    0    0  0.15889436017E+02 -0.11908592714E+02 -0.24948600303E+02  0.59301930715E+02  0.49999975721E+02 0.  0.
         12    1    1    2    0    0 -0.15889436017E+02  0.11908592714E+02  0.24948600303E+02  0.31886069285E+02  0.00000000000E+00 0. -1.
         11    1    3    3    0    0  0.15291850603E+02  0.11207100522E+02 -0.19792823490E+02  0.27407948828E+02  0.51100000000E-03 0. -1.
        -11    1    3    3    0    0 -0.28052411325E+00  0.22479319287E+01  0.42599208475E+01  0.48248127033E+01  0.51100000000E-03 0.  1.
        -12    1    3    3    0    0  0.87810952715E+00 -0.25363625165E+02 -0.94156976598E+01  0.27069169184E+02  0.00000000000E+00 0.  1.
</event>
<event>
 7    1  0.1193961E-011  0.5930194E+02  0.7816164E-02  0.1266605E+00
        -11   -1    0    0    0    0  0.00000000000E+00  0.00000000000E+00  0.45593999997E+02  0.45594000000E+02  0.51100000000E-03 0.  1.
         11   -1    0    0    0    0 -0.00000000000E+00 -0.00000000000E+00 -0.45593999997E+02  0.45594000000E+02  0.51100000000E-03 0. -1.
    9900012    2    1    2    0    0  0.11160676888E+02  0.29781297241E+02  0.22878457655E+01  0.59301943295E+02  0.49999998664E+02 0.  0.
         12    1    1    2    0    0 -0.11160676888E+02 -0.29781297241E+02 -0.22878457655E+01  0.31886056705E+02  0.00000000000E+00 0. -1.
         11    1    3    3    0    0  0.89200459674E+01  0.74749966052E+01 -0.57360063062E+01  0.12974766391E+02  0.51100000000E-03 0. -1.
        -11    1    3    3    0    0  0.10610264780E+02  0.63871214353E+01  0.20840418861E+02  0.24242444132E+02  0.51100000000E-03 0.  1.
         12    1    3    3    0    0 -0.83696338589E+01  0.15919179200E+02 -0.12816566789E+02  0.22084732772E+02  0.00000000000E+00 0. -1.
</event>
<event>
 7    1  0.1193961E-011  0.5930191E+02  0.7816164E-02  0.1266605E+00
        -11   -1    0    0    0    0  0.00000000000E+00  0.00000000000E+00  0.45593999997E+02  0.45594000000E+02  0.51100000000E-03 0.  1.
         11   -1    0    0    0    0 -0.00000000000E+00 -0.00000000000E+00 -0.45593999997E+02  0.45594000000E+02  0.51100000000E-03 0. -1.
    9900012    2    1    2    0    0 -0.35465074389E+01  0.22710616713E+01  0.31606756443E+02  0.59301913866E+02  0.49999944992E+02 0.  0.
         12    1    1    2    0    0  0.35465074389E+01 -0.22710616713E+01 -0.31606756443E+02  0.31886086134E+02  0.00000000000E+00 0. -1.
         11    1    3    3    0    0 -0.15029895879E+02  0.13600418568E+02  0.11901459964E+01  0.20304817239E+02  0.51100000000E-03 0. -1.
        -11    1    3    3    0    0  0.74248937948E+01  0.14594566519E+01  0.24085004256E+01  0.79410286578E+01  0.51100000000E-03 0.  1.
        -12    1    3    3    0    0  0.40584946454E+01 -0.12788813549E+02  0.28008110021E+02  0.31056067969E+02  0.00000000000E+00 0.  1.
</event>
<event>
 7    1  0.1193961E-011  0.5930194E+02  0.7816164E-02  0.1266605E+00
        -11   -1    0    0    0    0  0.00000000000E+00  0.00000000000E+00  0.45593999997E+02  0.45594000000E+02  0.51100000000E-03 0. -1.
         11   -1    0    0    0    0 -0.00000000000E+00 -0.00000000000E+00 -0.45593999997E+02  0.45594000000E+02  0.51100000000E-03 0.  1.
    9900012    2    1    2    0    0  0.75151685450E+01  0.20440310921E+02 -0.23290271747E+02  0.59301939929E+02  0.49999992526E+02 0.  0.
         12    1    1    2    0    0 -0.75151685450E+01 -0.20440310921E+02  0.23290271747E+02  0.31886060071E+02  0.00000000000E+00 0. -1.
         11    1    3    3    0    0  0.12040100026E+02  0.99581031059E+01 -0.10119716583E+02  0.18615490595E+02  0.51100000000E-03 0.  1.
        -11    1    3    3    0    0  0.12886822300E+02 -0.61678056889E+01 -0.33763160194E+01  0.14680310832E+02  0.51100000000E-03 0. -1.
         12    1    3    3    0    0 -0.17411753781E+02  0.16650013504E+02 -0.97942391444E+01  0.26006138503E+02  0.00000000000E+00 0. -1.
</event>
<event>
 7    1  0.1193961E-011  0.5930196E+02  0.7816164E-02  0.1266605E+00
        -11   -1    0    0    0    0  0.00000000000E+00  0.00000000000E+00  0.45593999997E+02  0.45594000000E+02  0.51100000000E-03 0. -1.
         11   -1    0    0    0    0 -0.00000000000E+00 -0.00000000000E+00 -0.45593999997E+02  0.45594000000E+02  0.51100000000E-03 0.  1.
    9900012    2    1    2    0    0 -0.20279367567E+02  0.19732839438E+02 -0.14699721165E+02  0.59301960680E+02  0.50000030370E+02 0.  0.
         12    1    1    2    0    0  0.20279367567E+02 -0.19732839438E+02  0.14699721165E+02  0.31886039320E+02  0.00000000000E+00 0. -1.
         11    1    3    3    0    0 -0.37185674734E+01  0.13805798805E+01  0.46545701878E+01  0.61154532747E+01  0.51100000000E-03 0. -1.
        -11    1    3    3    0    0 -0.14069959098E+02  0.15703230076E+02  0.10191079768E+02  0.23418225615E+02  0.51100000000E-03 0.  1.
        -12    1    3    3    0    0 -0.24908409950E+01  0.26490294816E+01 -0.29545371121E+02  0.29768281790E+02  0.00000000000E+00 0.  1.
</event>
<event>
 7    1  0.1193961E-011  0.5930194E+02  0.7816164E-02  0.1266605E+00
        -11   -1    0    0    0    0  0.00000000000E+00  0.00000000000E+00  0.45593999997E+02  0.45594000000E+02  0.51100000000E-03 0.  1.
         11   -1    0    0    0    0 -0.00000000000E+00 -0.00000000000E+00 -0.45593999997E+02  0.45594000000E+02  0.51100000000E-03 0. -1.
    9900012    2    1    2    0    0  0.28482304089E+02 -0.86653350372E+01  0.11418904570E+02  0.59301936287E+02  0.49999985882E+02 0.  0.
         12    1    1    2    0    0 -0.28482304089E+02  0.86653350372E+01 -0.11418904570E+02  0.31886063713E+02  0.00000000000E+00 0. -1.
         11    1    3    3    0    0  0.18183798673E+02  0.16324831411E+01 -0.16089991584E+02  0.24335228884E+02  0.51100000000E-03 0. -1.
        -11    1    3    3    0    0  0.11268832550E+01  0.41001110423E+01  0.34992146849E+01  0.55068393932E+01  0.51100000000E-03 0.  1.
        -12    1    3    3    0    0  0.91716221610E+01 -0.14397929221E+02  0.24009681469E+02  0.29459868010E+02  0.00000000000E+00 0.  1.
</event>
<event>
 7    1  0.1193961E-011  0.5930198E+02  0.7816164E-02  0.1266605E+00
        -11   -1    0    0    0    0  0.00000000000E+00  0.00000000000E+00  0.45593999997E+02  0.45594000000E+02  0.51100000000E-03 0. -1.
         11   -1    0    0    0    0 -0.00000000000E+00 -0.00000000000E+00 -0.45593999997E+02  0.45594000000E+02  0.51100000000E-03 0.  1.
    9900012    2    1    2    0    0 -0.13027849757E+02 -0.17262126930E+02 -0.23431018465E+02  0.59301976075E+02  0.50000058446E+02 0.  0.
         12    1    1    2    0    0  0.13027849757E+02  0.17262126930E+02  0.23431018465E+02  0.31886023925E+02  0.00000000000E+00 0. -1.
         11    1    3    3    0    0 -0.86108179582E+01 -0.64737821723E+01 -0.11747007033E+02  0.15938890050E+02  0.51100000000E-03 0. -1.
        -11    1    3    3    0    0 -0.57272557110E+01 -0.19173563709E+02 -0.22175017595E+02  0.29869020889E+02  0.51100000000E-03 0.  1.
         12    1    3    3    0    0  0.13102239124E+01  0.83852189511E+01  0.10491006163E+02  0.13494065135E+02  0.00000000000E+00 0. -1.
</event>
<event>
 7    1  0.1193961E-011  0.5930195E+02  0.7816164E-02  0.1266605E+00
        -11   -1    0    0    0    0  0.00000000000E+00  0.00000000000E+00  0.45593999997E+02  0.45594000000E+02  0.51100000000E-03 0.  1.
         11   -1    0    0    0    0 -0.00000000000E+00 -0.00000000000E+00 -0.45593999997E+02  0.45594000000E+02  0.51100000000E-03 0. -1.
    9900012    2    1    2    0    0 -0.28032433751E+02 -0.10421196287E+02  0.11058991440E+02  0.59301953432E+02  0.50000017152E+02 0.  0.
         12    1    1    2    0    0  0.28032433751E+02  0.10421196287E+02 -0.11058991440E+02  0.31886046568E+02  0.00000000000E+00 0. -1.
         11    1    3    3    0    0 -0.23205897860E+02 -0.47216267179E+01  0.63105543658E+01  0.24507765117E+02  0.51100000000E-03 0. -1.
        -11    1    3    3    0    0 -0.48352439676E+00 -0.14817428951E+01  0.19128391524E+02  0.19191787838E+02  0.51100000000E-03 0.  1.
         12    1    3    3    0    0 -0.43430114940E+01 -0.42178266742E+01 -0.14379954450E+02  0.15602400478E+02  0.00000000000E+00 0. -1.
</event>
<event>
 7    1  0.1193961E-011  0.5930194E+02  0.7816164E-02  0.1266605E+00
        -11   -1    0    0    0    0  0.00000000000E+00  0.00000000000E+00  0.45593999997E+02  0.45594000000E+02  0.51100000000E-03 0.  1.
         11   -1    0    0    0    0 -0.00000000000E+00 -0.00000000000E+00 -0.45593999997E+02  0.45594000000E+02  0.51100000000E-03 0. -1.
    9900012    2    1    2    0    0 -0.15011540322E+02 -0.27424927540E+02 -0.62648054743E+01  0.59301940647E+02  0.49999993834E+02 0.  0.
         12    1    1    2    0    0  0.15011540322E+02  0.27424927540E+02  0.62648054743E+01  0.31886059353E+02  0.00000000000E+00 0. -1.
         11    1    3    3    0    0 -0.12793263627E+02 -0.10828186857E+02 -0.11802315208E+02  0.20499069963E+02  0.51100000000E-03 0. -1.
        -11    1    3    3    0    0 -0.10540562881E+02 -0.10041857022E+02 -0.11627679452E+02  0.18631835336E+02  0.51100000000E-03 0.  1.
         12    1    3    3    0    0  0.83222861849E+01 -0.65548836620E+01  0.17165189186E+02  0.20171035347E+02  0.00000000000E+00 0. -1.
</event>
<event>
 7    1  0.1193961E-011  0.5930196E+02  0.7816164E-02  0.1266605E+00
        -11   -1    0    0    0    0  0.00000000000E+00  0.00000000000E+00  0.45593999997E+02  0.45594000000E+02  0.51100000000E-03 0.  1.
         11   -1    0    0    0    0 -0.00000000000E+00 -0.00000000000E+00 -0.45593999997E+02  0.45594000000E+02  0.51100000000E-03 0. -1.
    9900012    2    1    2    0    0 -0.30697238256E+02  0.12847787269E+01 -0.85292658004E+01  0.59301961237E+02  0.50000031385E+02 0.  0.
         12    1    1    2    0    0  0.30697238256E+02 -0.12847787269E+01  0.85292658004E+01  0.31886038763E+02  0.00000000000E+00 0. -1.
         11    1    3    3    0    0 -0.73449050091E+01  0.53513877453E+01 -0.83967497315E+01  0.12372970004E+02  0.51100000000E-03 0. -1.
        -11    1    3    3    0    0 -0.33871691076E+02 -0.11986404326E+01 -0.61937588931E+01  0.34454184720E+02  0.51100000000E-03 0.  1.
         12    1    3    3    0    0  0.10519357830E+02 -0.28679685858E+01  0.60612428242E+01  0.12474806513E+02  0.00000000000E+00 0. -1.
</event>
<event>
 7    1  0.1193961E-011  0.5930197E+02  0.7816164E-02  0.1266605E+00
        -11   -1    0    0    0    0  0.00000000000E+00  0.00000000000E+00  0.45593999997E+02  0.45594000000E+02  0.51100000000E-03 0. -1.
         11   -1    0    0    0    0 -0.00000000000E+00 -0.00000000000E+00 -0.45593999997E+02  0.45594000000E+02  0.51100000000E-03 0.  1.
    9900012    2    1    2    0    0  0.21939704359E+02 -0.63111903433E+01 -0.22260664155E+02  0.59301969837E+02  0.50000047071E+02 0.  0.
         12    1    1    2    0    0 -0.21939704359E+02  0.63111903433E+01  0.22260664155E+02  0.31886030163E+02  0.00000000000E+00 0. -1.
         11    1    3    3    0    0  0.27516855314E+02 -0.10009525504E+02  0.52185291889E+00  0.29285495692E+02  0.51100000000E-03 0. -1.
        -11    1    3    3    0    0 -0.29538344318E+01 -0.68652297187E+01 -0.44556531650E+01  0.87011127064E+01  0.51100000000E-03 0.  1.
        -12    1    3    3    0    0 -0.26233165236E+01  0.10563564879E+02 -0.18326863909E+02  0.21315361439E+02  0.00000000000E+00 0.  1.
</event>
<event>
 7    1  0.1193961E-011  0.5930196E+02  0.7816164E-02  0.1266605E+00
        -11   -1    0    0    0    0  0.00000000000E+00  0.00000000000E+00  0.45593999997E+02  0.45594000000E+02  0.51100000000E-03 0. -1.
         11   -1    0    0    0    0 -0.00000000000E+00 -0.00000000000E+00 -0.45593999997E+02  0.45594000000E+02  0.51100000000E-03 0.  1.
    9900012    2    1    2    0    0 -0.32839994992E+01 -0.38117957329E+01 -0.31486587215E+02  0.59301958950E+02  0.50000027215E+02 0.  0.
         12    1    1    2    0    0  0.32839994992E+01  0.38117957329E+01  0.31486587215E+02  0.31886041050E+02  0.00000000000E+00 0. -1.
         11    1    3    3    0    0  0.96510787895E+01 -0.75111803132E+01 -0.45018540928E+01  0.13031801181E+02  0.51100000000E-03 0. -1.
        -11    1    3    3    0    0 -0.63791402975E+01 -0.15647263660E+02 -0.14947337272E+02  0.22559990753E+02  0.51100000000E-03 0.  1.
        -12    1    3    3    0    0 -0.65559379912E+01  0.19346648240E+02 -0.12037395850E+02  0.23710167016E+02  0.00000000000E+00 0.  1.
</event>
<event>
 7    1  0.1193961E-011  0.5930196E+02  0.7816164E-02  0.1266605E+00
        -11   -1    0    0    0    0  0.00000000000E+00  0.00000000000E+00  0.45593999997E+02  0.45594000000E+02  0.51100000000E-03 0. -1.
         11   -1    0    0    0    0 -0.00000000000E+00 -0.00000000000E+00 -0.45593999997E+02  0.45594000000E+02  0.51100000000E-03 0.  1.
    9900012    2    1    2    0    0 -0.11991853598E+02 -0.60958196740E+01 -0.28909441589E+02  0.59301962567E+02  0.50000033810E+02 0.  0.
         12    1    1    2    0    0  0.11991853598E+02  0.60958196740E+01  0.28909441589E+02  0.31886037433E+02  0.00000000000E+00 0. -1.
         11    1    3    3    0    0  0.58626429750E+01  0.64120429506E+01 -0.23858594206E+02  0.25391285812E+02  0.51100000000E-03 0. -1.
        -11    1    3    3    0    0  0.38096112048E+01 -0.10492618404E+02 -0.48013997408E+01  0.12151609697E+02  0.51100000000E-03 0.  1.
         12    1    3    3    0    0 -0.21664107778E+02 -0.20152442206E+01 -0.24944764242E+00  0.21759067057E+02  0.00000000000E+00 0. -1.
</event>
<event>
 7    1  0.1193961E-011  0.5930193E+02  0.7816164E-02  0.1266605E+00
        -11   -1    0    0    0    0  0.00000000000E+00  0.00000000000E+00  0.45593999997E+02  0.45594000000E+02  0.51100000000E-03 0.  1.
         11   -1    0    0    0    0 -0.00000000000E+00 -0.00000000000E+00 -0.45593999997E+02  0.45594000000E+02  0.51100000000E-03 0. -1.
    9900012    2    1    2    0    0  0.29396143922E+02 -0.11318278218E+02 -0.49481778324E+01  0.59301934655E+02  0.49999982907E+02 0.  0.
         12    1    1    2    0    0 -0.29396143922E+02  0.11318278218E+02  0.49481778324E+01  0.31886065345E+02  0.00000000000E+00 0. -1.
         11    1    3    3    0    0  0.19006066059E+02  0.13495194064E+02 -0.44334384963E+01  0.23727751411E+02  0.51100000000E-03 0. -1.
        -11    1    3    3    0    0  0.65613306272E+01  0.26511892033E+01  0.28731833174E+01  0.76377383058E+01  0.51100000000E-03 0.  1.
         12    1    3    3    0    0  0.38287472354E+01 -0.27464661485E+02 -0.33879226535E+01  0.27936444938E+02  0.00000000000E+00 0. -1.
</event>
<event>
 7    1  0.1193961E-011  0.5930189E+02  0.7816164E-02  0.1266605E+00
        -11   -1    0    0    0    0  0.00000000000E+00  0.00000000000E+00  0.45593999997E+02  0.45594000000E+02  0.51100000000E-03 0.  1.
         11   -1    0    0    0    0 -0.00000000000E+00 -0.00000000000E+00 -0.45593999997E+02  0.45594000000E+02  0.51100000000E-03 0. -1.
    9900012    2    1    2    0    0 -0.11095270764E+02 -0.29307545995E+02  0.58895649881E+01  0.59301886073E+02  0.49999894305E+02 0.  0.
         12    1    1    2    0    0  0.11095270764E+02  0.29307545995E+02 -0.58895649881E+01  0.31886113927E+02  0.00000000000E+00 0. -1.
         11    1    3    3    0    0  0.64432732733E+01 -0.15516144372E+01 -0.74416118024E+01  0.99649819024E+01  0.51100000000E-03 0. -1.
        -11    1    3    3    0    0 -0.13505189820E+02  0.78159829589E-01 -0.64358143076E+01  0.14960480176E+02  0.51100000000E-03 0.  1.
        -12    1    3    3    0    0 -0.40333542177E+01 -0.27834091388E+02  0.19766991098E+02  0.34376423995E+02  0.00000000000E+00 0.  1.
</event>
<event>
 7    1  0.1193961E-011  0.5930194E+02  0.7816164E-02  0.1266605E+00
        -11   -1    0    0    0    0  0.00000000000E+00  0.00000000000E+00  0.45593999997E+02  0.45594000000E+02  0.51100000000E-03 0. -1.
         11   -1    0    0    0    0 -0.00000000000E+00 -0.00000000000E+00 -0.45593999997E+02  0.45594000000E+02  0.51100000000E-03 0.  1.
    9900012    2    1    2    0    0 -0.12619318817E+02  0.13848106037E+02 -0.25801232588E+02  0.59301939546E+02  0.49999991826E+02 0.  0.
         12    1    1    2    0    0  0.12619318817E+02 -0.13848106037E+02  0.25801232588E+02  0.31886060454E+02  0.00000000000E+00 0. -1.
         11    1    3    3    0    0 -0.10122155569E+02  0.86567604853E+01  0.88690223870E+01  0.16001784083E+02  0.51100000000E-03 0. -1.
        -11    1    3    3    0    0 -0.13709083996E+02  0.47604658879E+01 -0.22228762088E+02  0.26546541841E+02  0.51100000000E-03 0.  1.
         12    1    3    3    0    0  0.11211920748E+02  0.43087966359E+00 -0.12441492887E+02  0.16753613622E+02  0.00000000000E+00 0. -1.
</event>
<event>
 7    1  0.1193961E-011  0.5930194E+02  0.7816164E-02  0.1266605E+00
        -11   -1    0    0    0    0  0.00000000000E+00  0.00000000000E+00  0.45593999997E+02  0.45594000000E+02  0.51100000000E-03 0.  1.
         11   -1    0    0    0    0 -0.00000000000E+00 -0.00000000000E+00 -0.45593999997E+02  0.45594000000E+02  0.51100000000E-03 0. -1.
    9900012    2    1    2    0    0 -0.21132166588E+02  0.66840300981E+01  0.22923263710E+02  0.59301941257E+02  0.49999994947E+02 0.  0.
         12    1    1    2    0    0  0.21132166588E+02 -0.66840300981E+01 -0.22923263710E+02  0.31886058743E+02  0.00000000000E+00 0. -1.
         11    1    3    3    0    0  0.14009738921E+01  0.47560352498E+01 -0.22285458898E+01  0.54359006786E+01  0.51100000000E-03 0. -1.
        -11    1    3    3    0    0 -0.12621834512E+02  0.19377195544E+02  0.24639526197E+02  0.33791902360E+02  0.51100000000E-03 0.  1.
        -12    1    3    3    0    0 -0.99113059680E+01 -0.17449200696E+02  0.51228340191E+00  0.20074138218E+02  0.00000000000E+00 0.  1.
</event>
<event>
 7    1  0.1193961E-011  0.5930197E+02  0.7816164E-02  0.1266605E+00
        -11   -1    0    0    0    0  0.00000000000E+00  0.00000000000E+00  0.45593999997E+02  0.45594000000E+02  0.51100000000E-03 0.  1.
         11   -1    0    0    0    0 -0.00000000000E+00 -0.00000000000E+00 -0.45593999997E+02  0.45594000000E+02  0.51100000000E-03 0. -1.
    9900012    2    1    2    0    0 -0.76208383846E+01  0.27737302765E+02  0.13758054035E+02  0.59301965546E+02  0.50000039244E+02 0.  0.
         12    1    1    2    0    0  0.76208383846E+01 -0.27737302765E+02 -0.13758054035E+02  0.31886034454E+02  0.00000000000E+00 0. -1.
         11    1    3    3    0    0  0.55745871316E+01 -0.58032388253E+01  0.10425616389E+02  0.13169930899E+02  0.51100000000E-03 0. -1.
        -11    1    3    3    0    0  0.38473624071E+01 -0.17212908634E+01  0.54744910561E+01  0.69090587139E+01  0.51100000000E-03 0.  1.
         12    1    3    3    0    0 -0.17042787923E+02  0.35261832454E+02 -0.21420534101E+01  0.39222975933E+02  0.00000000000E+00 0. -1.
</event>
<event>
 7    1  0.1193961E-011  0.5930192E+02  0.7816164E-02  0.1266605E+00
        -11   -1    0    0    0    0  0.00000000000E+00  0.00000000000E+00  0.45593999997E+02  0.45594000000E+02  0.51100000000E-03 0. -1.
         11   -1    0    0    0    0 -0.00000000000E+00 -0.00000000000E+00 -0.45593999997E+02  0.45594000000E+02  0.51100000000E-03 0.  1.
    9900012    2    1    2    0    0  0.15445772738E+01  0.14405527723E+02 -0.28404524349E+02  0.59301922295E+02  0.49999960364E+02 0.  0.
         12    1    1    2    0    0 -0.15445772738E+01 -0.14405527723E+02  0.28404524349E+02  0.31886077705E+02  0.00000000000E+00 0. -1.
         11    1    3    3    0    0  0.65379278608E+00 -0.85696162747E+01  0.78815145726E+01  0.11661219504E+02  0.51100000000E-03 0. -1.
        -11    1    3    3    0    0  0.57775613649E+01 -0.13971270503E+01 -0.83063877585E+01  0.10214120480E+02  0.51100000000E-03 0.  1.
        -12    1    3    3    0    0 -0.48867768772E+01  0.24372271048E+02 -0.27979651163E+02  0.37426582311E+02  0.00000000000E+00 0.  1.
</event>
<event>
 7    1  0.1193961E-011  0.5930193E+02  0.7816164E-02  0.1266605E+00
        -11   -1    0    0    0    0  0.00000000000E+00  0.00000000000E+00  0.45593999997E+02  0.45594000000E+02  0.51100000000E-03 0. -1.
         11   -1    0    0    0    0 -0.00000000000E+00 -0.00000000000E+00 -0.45593999997E+02  0.45594000000E+02  0.51100000000E-03 0.  1.
    9900012    2    1    2    0    0  0.25427769960E+02 -0.17370112793E+02 -0.82721764436E+01  0.59301933972E+02  0.49999981661E+02 0.  0.
         12    1    1    2    0    0 -0.25427769960E+02  0.17370112793E+02  0.82721764436E+01  0.31886066028E+02  0.00000000000E+00 0. -1.
         11    1    3    3    0    0  0.43831423987E+00  0.24955993160E+01  0.78053471044E+01  0.82063133623E+01  0.51100000000E-03 0. -1.
        -11    1    3    3    0    0  0.32976046769E+02 -0.76638570927E+01 -0.10042660168E+02  0.35313020114E+02  0.51100000000E-03 0.  1.
         12    1    3    3    0    0 -0.79865910483E+01 -0.12201855016E+02 -0.60348633797E+01  0.15782600496E+02  0.00000000000E+00 0. -1.
</event>
<event>
 7    1  0.1193961E-011  0.5930193E+02  0.7816164E-02  0.1266605E+00
        -11   -1    0    0    0    0  0.00000000000E+00  0.00000000000E+00  0.45593999997E+02  0.45594000000E+02  0.51100000000E-03 0. -1.
         11   -1    0    0    0    0 -0.00000000000E+00 -0.00000000000E+00 -0.45593999997E+02  0.45594000000E+02  0.51100000000E-03 0.  1.
    9900012    2    1    2    0    0  0.16171860447E+02 -0.24218304881E+02 -0.12987139335E+02  0.59301934866E+02  0.49999983291E+02 0.  0.
         12    1    1    2    0    0 -0.16171860447E+02  0.24218304881E+02  0.12987139335E+02  0.31886065134E+02  0.00000000000E+00 0. -1.
         11    1    3    3    0    0 -0.39267399906E+01  0.97051521400E+00 -0.33212065046E+00  0.40585084849E+01  0.51100000000E-03 0. -1.
        -11    1    3    3    0    0 -0.51056504270E+01  0.72531782894E+01 -0.10996389787E+02  0.14127874936E+02  0.51100000000E-03 0.  1.
        -12    1    3    3    0    0  0.25204250865E+02 -0.32441998384E+02 -0.16586288974E+01  0.41115551445E+02  0.00000000000E+00 0.  1.
</event>
<event>
 7    1  0.1193961E-011  0.5930192E+02  0.7816164E-02  0.1266605E+00
        -11   -1    0    0    0    0  0.00000000000E+00  0.00000000000E+00  0.45593999997E+02  0.45594000000E+02  0.51100000000E-03 0.  1.
         11   -1    0    0    0    0 -0.00000000000E+00 -0.00000000000E+00 -0.45593999997E+02  0.45594000000E+02  0.51100000000E-03 0. -1.
    9900012    2    1    2    0    0 -0.18263979590E+02  0.17125107356E+02  0.19745371842E+02  0.59301922135E+02  0.49999960072E+02 0.  0.
         12    1    1    2    0    0  0.18263979590E+02 -0.17125107356E+02 -0.19745371842E+02  0.31886077865E+02  0.00000000000E+00 0. -1.
         11    1    3    3    0    0 -0.23826306192E+01  0.91995359210E+01 -0.60558779917E+01  0.11268631165E+02  0.51100000000E-03 0. -1.
        -11    1    3    3    0    0  0.76186681620E+01  0.14140217233E+02  0.12274816169E+02  0.20215364459E+02  0.51100000000E-03 0.  1.
        -12    1    3    3    0    0 -0.23500017133E+02 -0.62146457979E+01  0.13526433665E+02  0.27817926511E+02  0.00000000000E+00 0.  1.
</event>
<event>
 7    1  0.1193961E-011  0.5930196E+02  0.7816164E-02  0.1266605E+00
        -11   -1    0    0    0    0  0.00000000000E+00  0.00000000000E+00  0.45593999997E+02  0.45594000000E+02  0.51100000000E-03 0. -1.
         11   -1    0    0    0    0 -0.00000000000E+00 -0.00000000000E+00 -0.45593999997E+02  0.45594000000E+02  0.51100000000E-03 0.  1.
    9900012    2    1    2    0    0 -0.31404028569E+01  0.84164187202E+01 -0.30594463096E+02  0.59301962204E+02  0.50000033150E+02 0.  0.
         12    1    1    2    0    0  0.31404028569E+01 -0.84164187202E+01  0.30594463096E+02  0.31886037796E+02  0.00000000000E+00 0. -1.
         11    1    3    3    0    0  0.15543986711E+02  0.11157673367E+02 -0.10248374278E+01  0.19161406259E+02  0.51100000000E-03 0. -1.
        -11    1    3    3    0    0  0.30314511850E+01 -0.23193712272E+01 -0.49514186977E+00  0.38489407515E+01  0.51100000000E-03 0.  1.
        -12    1    3    3    0    0 -0.21715840753E+02 -0.42188341940E+00 -0.29074483798E+02  0.36291615193E+02  0.00000000000E+00 0.  1.
</event>
<event>
 7    1  0.1193961E-011  0.5930190E+02  0.7816164E-02  0.1266605E+00
        -11   -1    0    0    0    0  0.00000000000E+00  0.00000000000E+00  0.45593999997E+02  0.45594000000E+02  0.51100000000E-03 0. -1.
         11   -1    0    0    0    0 -0.00000000000E+00 -0.00000000000E+00 -0.45593999997E+02  0.45594000000E+02  0.51100000000E-03 0.  1.
    9900012    2    1    2    0    0  0.23665443528E+02 -0.19925476642E+02  0.77230597406E+01  0.59301898192E+02  0.49999916406E+02 0.  0.
         12    1    1    2    0    0 -0.23665443528E+02  0.19925476642E+02 -0.77230597406E+01  0.31886101808E+02  0.00000000000E+00 0. -1.
         11    1    3    3    0    0  0.11513441485E+02 -0.17297475255E+02 -0.25174526453E+01  0.20930827818E+02  0.51100000000E-03 0. -1.
        -11    1    3    3    0    0  0.21147451486E+02 -0.51017558314E+01 -0.32224769425E+01  0.21991520521E+02  0.51100000000E-03 0.  1.
        -12    1    3    3    0    0 -0.89954494433E+01  0.24737544450E+01  0.13462989328E+02  0.16379549853E+02  0.00000000000E+00 0.  1.
</event>
<event>
 7    1  0.1193961E-011  0.5930194E+02  0.7816164E-02  0.1266605E+00
        -11   -1    0    0    0    0  0.00000000000E+00  0.00000000000E+00  0.45593999997E+02  0.45594000000E+02  0.51100000000E-03 0.  1.
         11   -1    0    0    0    0 -0.00000000000E+00 -0.00000000000E+00 -0.45593999997E+02  0.45594000000E+02  0.51100000000E-03 0. -1.
    9900012    2    1    2    0    0  0.84560181595E+01 -0.28967926262E+02  0.10299307375E+02  0.59301941488E+02  0.49999995368E+02 0.  0.
         12    1    1    2    0    0 -0.84560181595E+01  0.28967926262E+02 -0.10299307375E+02  0.31886058512E+02  0.00000000000E+00 0. -1.
         11    1    3    3    0    0  0.13264869148E+02  0.77885582718E+00 -0.11204363378E+02  0.17381056610E+02  0.51100000000E-03 0. -1.
        -11    1    3    3    0    0  0.70619749684E+01 -0.55908194061E+01  0.64869533408E+01  0.11099969189E+02  0.51100000000E-03 0.  1.
         12    1    3    3    0    0 -0.11870825957E+02 -0.24155962683E+02  0.15016717413E+02  0.30820915689E+02  0.00000000000E+00 0. -1.
</event>
<event>
 7    1  0.1193961E-011  0.5930196E+02  0.7816164E-02  0.1266605E+00
        -11   -1    0    0    0    0  0.00000000000E+00  0.00000000000E+00  0.45593999997E+02  0.45594000000E+02  0.51100000000E-03 0. -1.
         11   -1    0    0    0    0 -0.00000000000E+00 -0.00000000000E+00 -0.45593999997E+02  0.45594000000E+02  0.51100000000E-03 0.  1.
    9900012    2    1    2    0    0  0.18181193441E+01  0.19276212137E+02 -0.25334599534E+02  0.59301955312E+02  0.50000020580E+02 0.  0.
         12    1    1    2    0    0 -0.18181193441E+01 -0.19276212137E+02  0.25334599534E+02  0.31886044688E+02  0.00000000000E+00 0. -1.
         11    1    3    3    0    0 -0.40841520823E+01 -0.71073293141E+01  0.38342973553E+00  0.82061834512E+01  0.51100000000E-03 0. -1.
        -11    1    3    3    0    0  0.56479708816E+01  0.12744211696E+02  0.70358142267E+01  0.15614646615E+02  0.51100000000E-03 0.  1.
        -12    1    3    3    0    0  0.25430054480E+00  0.13639329756E+02 -0.32753843496E+02  0.35481125246E+02  0.00000000000E+00 0.  1.
</event>
<event>
 7    1  0.1193961E-011  0.5930178E+02  0.7816164E-02  0.1266605E+00
        -11   -1    0    0    0    0  0.00000000000E+00  0.00000000000E+00  0.45593999997E+02  0.45594000000E+02  0.51100000000E-03 0.  1.
         11   -1    0    0    0    0 -0.00000000000E+00 -0.00000000000E+00 -0.45593999997E+02  0.45594000000E+02  0.51100000000E-03 0. -1.
    9900012    2    1    2    0    0  0.86062060875E+01 -0.15963415189E+02 -0.26226581397E+02  0.59301780727E+02  0.49999702178E+02 0.  0.
         12    1    1    2    0    0 -0.86062060875E+01  0.15963415189E+02  0.26226581397E+02  0.31886219273E+02  0.00000000000E+00 0. -1.
         11    1    3    3    0    0 -0.19667109404E+01 -0.11218816267E+02 -0.31838297528E+02  0.33814301414E+02  0.51100000000E-03 0. -1.
        -11    1    3    3    0    0  0.12456492857E+02 -0.86445777009E+01 -0.33555478456E+01  0.15529090106E+02  0.51100000000E-03 0.  1.
        -12    1    3    3    0    0 -0.18835758289E+01  0.38999787790E+01  0.89672639765E+01  0.99583892073E+01  0.00000000000E+00 0.  1.
</event>
<event>
 7    1  0.1193961E-011  0.5930193E+02  0.7816164E-02  0.1266605E+00
        -11   -1    0    0    0    0  0.00000000000E+00  0.00000000000E+00  0.45593999997E+02  0.45594000000E+02  0.51100000000E-03 0.  1.
         11   -1    0    0    0    0 -0.00000000000E+00 -0.00000000000E+00 -0.45593999997E+02  0.45594000000E+02  0.51100000000E-03 0. -1.
    9900012    2    1    2    0    0  0.30552692548E+02 -0.75555177695E+01 -0.51155366661E+01  0.59301928024E+02  0.49999970813E+02 0.  0.
         12    1    1    2    0    0 -0.30552692548E+02  0.75555177695E+01  0.51155366661E+01  0.31886071976E+02  0.00000000000E+00 0. -1.
         11    1    3    3    0    0  0.10401750769E+02 -0.52089425539E+01 -0.13661808942E+02  0.17943648610E+02  0.51100000000E-03 0. -1.
        -11    1    3    3    0    0  0.77292889217E+01 -0.12724870830E+02 -0.90708729836E+01  0.17434017949E+02  0.51100000000E-03 0.  1.
        -12    1    3    3    0    0  0.12421652857E+02  0.10378295615E+02  0.17617145260E+02  0.23924261465E+02  0.00000000000E+00 0.  1.
</event>
<event>
 7    1  0.1193961E-011  0.5930195E+02  0.7816164E-02  0.1266605E+00
        -11   -1    0    0    0    0  0.00000000000E+00  0.00000000000E+00  0.45593999997E+02  0.45594000000E+02  0.51100000000E-03 0.  1.
         11   -1    0    0    0    0 -0.00000000000E+00 -0.00000000000E+00 -0.45593999997E+02  0.45594000000E+02  0.51100000000E-03 0. -1.
    9900012    2    1    2    0    0  0.90934267130E+00  0.31806276374E+02 -0.20625588511E+01  0.59301948663E+02  0.50000008454E+02 0.  0.
         12    1    1    2    0    0 -0.90934267130E+00 -0.31806276374E+02  0.20625588511E+01  0.31886051337E+02  0.00000000000E+00 0. -1.
         11    1    3    3    0    0 -0.14202015283E+02  0.72974940426E+01  0.37731471467E+01  0.16406928325E+02  0.51100000000E-03 0. -1.
        -11    1    3    3    0    0 -0.70439626252E+01  0.12501733712E+02 -0.98119801204E+01  0.17383489564E+02  0.51100000000E-03 0.  1.
        -12    1    3    3    0    0  0.22155320580E+02  0.12007048619E+02  0.39762741227E+01  0.25511530774E+02  0.00000000000E+00 0.  1.
</event>
<event>
 7    1  0.1193961E-011  0.5930194E+02  0.7816164E-02  0.1266605E+00
        -11   -1    0    0    0    0  0.00000000000E+00  0.00000000000E+00  0.45593999997E+02  0.45594000000E+02  0.51100000000E-03 0.  1.
         11   -1    0    0    0    0 -0.00000000000E+00 -0.00000000000E+00 -0.45593999997E+02  0.45594000000E+02  0.51100000000E-03 0. -1.
    9900012    2    1    2    0    0 -0.17472177039E+02  0.25305701434E+02 -0.84300118448E+01  0.59301943560E+02  0.49999999147E+02 0.  0.
         12    1    1    2    0    0  0.17472177039E+02 -0.25305701434E+02  0.84300118448E+01  0.31886056440E+02  0.00000000000E+00 0. -1.
         11    1    3    3    0    0 -0.36656296161E+01  0.60332707518E+01 -0.15299845275E+02  0.16849998877E+02  0.51100000000E-03 0. -1.
        -11    1    3    3    0    0  0.85794513673E+01 -0.21590824049E+01 -0.38650335808E+01  0.96543828097E+01  0.51100000000E-03 0.  1.
        -12    1    3    3    0    0 -0.22385998791E+02  0.21431513088E+02  0.10734867011E+02  0.32797561873E+02  0.00000000000E+00 0.  1.
</event>
<event>
 7    1  0.1193961E-011  0.5930182E+02  0.7816164E-02  0.1266605E+00
        -11   -1    0    0    0    0  0.00000000000E+00  0.00000000000E+00  0.45593999997E+02  0.45594000000E+02  0.51100000000E-03 0.  1.
         11   -1    0    0    0    0 -0.00000000000E+00 -0.00000000000E+00 -0.45593999997E+02  0.45594000000E+02  0.51100000000E-03 0. -1.
    9900012    2    1    2    0    0  0.28572940214E+02  0.10232644593E+02 -0.97779607144E+01  0.59301820492E+02  0.49999774701E+02 0.  0.
         12    1    1    2    0    0 -0.28572940214E+02 -0.10232644593E+02  0.97779607144E+01  0.31886179508E+02  0.00000000000E+00 0. -1.
         11    1    3    3    0    0  0.17196860868E+02  0.28089110080E+02 -0.85171187806E+01  0.34018692529E+02  0.51100000000E-03 0. -1.
        -11    1    3    3    0    0  0.17022728576E+01 -0.74306876818E+01 -0.66081377163E+01  0.10088624120E+02  0.51100000000E-03 0.  1.
        -12    1    3    3    0    0  0.96738064889E+01 -0.10425777806E+02  0.53472957825E+01  0.15194503843E+02  0.00000000000E+00 0.  1.
</event>
<event>
 7    1  0.1193961E-011  0.5930191E+02  0.7816164E-02  0.1266605E+00
        -11   -1    0    0    0    0  0.00000000000E+00  0.00000000000E+00  0.45593999997E+02  0.45594000000E+02  0.51100000000E-03 0. -1.
         11   -1    0    0    0    0 -0.00000000000E+00 -0.00000000000E+00 -0.45593999997E+02  0.45594000000E+02  0.51100000000E-03 0.  1.
    9900012    2    1    2    0    0 -0.26228076060E+02 -0.18099837097E+02  0.10985482451E+01  0.59301907656E+02  0.49999933666E+02 0.  0.
         12    1    1    2    0    0  0.26228076060E+02  0.18099837097E+02 -0.10985482451E+01  0.31886092344E+02  0.00000000000E+00 0. -1.
         11    1    3    3    0    0  0.11343492634E+02 -0.27507234093E+01  0.30046210118E+01  0.12052761182E+02  0.51100000000E-03 0. -1.
        -11    1    3    3    0    0  0.14719457553E+01 -0.16332012715E+01  0.48439980863E+01  0.53196135593E+01  0.51100000000E-03 0.  1.
        -12    1    3    3    0    0 -0.39043514449E+02 -0.13715912417E+02 -0.67500708530E+01  0.41929532915E+02  0.00000000000E+00 0.  1.
</event>
<event>
 7    1  0.1193961E-011  0.5930195E+02  0.7816164E-02  0.1266605E+00
        -11   -1    0    0    0    0  0.00000000000E+00  0.00000000000E+00  0.45593999997E+02  0.45594000000E+02  0.51100000000E-03 0.  1.
         11   -1    0    0    0    0 -0.00000000000E+00 -0.00000000000E+00 -0.45593999997E+02  0.45594000000E+02  0.51100000000E-03 0. -1.
    9900012    2    1    2    0    0  0.13904505450E+02  0.18648435125E+02  0.21808737011E+02  0.59301946396E+02  0.50000004319E+02 0.  0.
         12    1    1    2    0    0 -0.13904505450E+02 -0.18648435125E+02 -0.21808737011E+02  0.31886053604E+02  0.00000000000E+00 0. -1.
         11    1    3    3    0    0  0.16901486641E+02  0.42596152656E+01 -0.51820748757E+01  0.18184016970E+02  0.51100000000E-03 0. -1.
        -11    1    3    3    0    0  0.86155156327E+01 -0.38117445278E+01  0.86418992480E+01  0.12784323558E+02  0.51100000000E-03 0.  1.
        -12    1    3    3    0    0 -0.11612496823E+02  0.18200564387E+02  0.18348912638E+02  0.28333605868E+02  0.00000000000E+00 0.  1.
</event>
<event>
 7    1  0.1193961E-011  0.5930195E+02  0.7816164E-02  0.1266605E+00
        -11   -1    0    0    0    0  0.00000000000E+00  0.00000000000E+00  0.45593999997E+02  0.45594000000E+02  0.51100000000E-03 0.  1.
         11   -1    0    0    0    0 -0.00000000000E+00 -0.00000000000E+00 -0.45593999997E+02  0.45594000000E+02  0.51100000000E-03 0. -1.
    9900012    2    1    2    0    0  0.20369503371E+02  0.41611234176E+01  0.24176194217E+02  0.59301953169E+02  0.50000016671E+02 0.  0.
         12    1    1    2    0    0 -0.20369503371E+02 -0.41611234176E+01 -0.24176194217E+02  0.31886046831E+02  0.00000000000E+00 0. -1.
         11    1    3    3    0    0  0.83915860175E+00  0.44103876886E+01 -0.77560987368E+01  0.89617394851E+01  0.51100000000E-03 0. -1.
        -11    1    3    3    0    0 -0.63847998044E+01  0.22575351161E+01 -0.24592655795E+01  0.72048678540E+01  0.51100000000E-03 0.  1.
        -12    1    3    3    0    0  0.25915144574E+02 -0.25067993870E+01  0.34391558534E+02  0.43135345830E+02  0.00000000000E+00 0.  1.
</event>
<event>
 7    1  0.1193961E-011  0.5930196E+02  0.7816164E-02  0.1266605E+00
        -11   -1    0    0    0    0  0.00000000000E+00  0.00000000000E+00  0.45593999997E+02  0.45594000000E+02  0.51100000000E-03 0. -1.
         11   -1    0    0    0    0 -0.00000000000E+00 -0.00000000000E+00 -0.45593999997E+02  0.45594000000E+02  0.51100000000E-03 0.  1.
    9900012    2    1    2    0    0 -0.18471420893E+02 -0.42720366676E+01 -0.25637390122E+02  0.59301961372E+02  0.50000031632E+02 0.  0.
         12    1    1    2    0    0  0.18471420893E+02  0.42720366676E+01  0.25637390122E+02  0.31886038628E+02  0.00000000000E+00 0. -1.
         11    1    3    3    0    0  0.52014310438E+01 -0.17732579015E+00  0.70351962853E+01  0.87510180192E+01  0.51100000000E-03 0. -1.
        -11    1    3    3    0    0 -0.23293765104E+02  0.35320621173E+01 -0.82505321917E+01  0.24962897213E+02  0.51100000000E-03 0.  1.
         12    1    3    3    0    0 -0.37908683261E+00 -0.76267729948E+01 -0.24422054216E+02  0.25588046140E+02  0.00000000000E+00 0. -1.
</event>
<event>
 7    1  0.1193961E-011  0.5930195E+02  0.7816164E-02  0.1266605E+00
        -11   -1    0    0    0    0  0.00000000000E+00  0.00000000000E+00  0.45593999997E+02  0.45594000000E+02  0.51100000000E-03 0.  1.
         11   -1    0    0    0    0 -0.00000000000E+00 -0.00000000000E+00 -0.45593999997E+02  0.45594000000E+02  0.51100000000E-03 0. -1.
    9900012    2    1    2    0    0  0.98878888117E+01  0.30706047002E+01  0.30158267934E+02  0.59301951591E+02  0.50000013793E+02 0.  0.
         12    1    1    2    0    0 -0.98878888117E+01 -0.30706047002E+01 -0.30158267934E+02  0.31886048409E+02  0.00000000000E+00 0. -1.
         11    1    3    3    0    0  0.77213571335E+01 -0.14503410025E+02  0.20098732786E+02  0.25960110135E+02  0.51100000000E-03 0.  1.
        -11    1    3    3    0    0 -0.73613794918E+01  0.43158079345E+01 -0.60070803660E+01  0.10435569986E+02  0.51100000000E-03 0. -1.
         12    1    3    3    0    0  0.95279111700E+01  0.13258206791E+02  0.16066615514E+02  0.22906271470E+02  0.00000000000E+00 0. -1.
</event>
<event>
 7    1  0.1193961E-011  0.5930194E+02  0.7816164E-02  0.1266605E+00
        -11   -1    0    0    0    0  0.00000000000E+00  0.00000000000E+00  0.45593999997E+02  0.45594000000E+02  0.51100000000E-03 0. -1.
         11   -1    0    0    0    0 -0.00000000000E+00 -0.00000000000E+00 -0.45593999997E+02  0.45594000000E+02  0.51100000000E-03 0.  1.
    9900012    2    1    2    0    0  0.22223355467E+02 -0.58761636438E+01 -0.22097820990E+02  0.59301944743E+02  0.50000001304E+02 0.  0.
         12    1    1    2    0    0 -0.22223355467E+02  0.58761636438E+01  0.22097820990E+02  0.31886055257E+02  0.00000000000E+00 0. -1.
         11    1    3    3    0    0  0.13284028309E+02 -0.88387360114E+01 -0.18958704672E+02  0.24779450065E+02  0.51100000000E-03 0.  1.
        -11    1    3    3    0    0 -0.82132641138E+01  0.11264675724E+02  0.34461638349E+01  0.14360594417E+02  0.51100000000E-03 0. -1.
         12    1    3    3    0    0  0.17152591271E+02 -0.83021033561E+01 -0.65852801524E+01  0.20161900261E+02  0.00000000000E+00 0. -1.
</event>
<event>
 7    1  0.1193961E-011  0.5930193E+02  0.7816164E-02  0.1266605E+00
        -11   -1    0    0    0    0  0.00000000000E+00  0.00000000000E+00  0.45593999997E+02  0.45594000000E+02  0.51100000000E-03 0.  1.
         11   -1    0    0    0    0 -0.00000000000E+00 -0.00000000000E+00 -0.45593999997E+02  0.45594000000E+02  0.51100000000E-03 0. -1.
    9900012    2    1    2    0    0  0.14385449238E+02  0.20765451451E+02  0.19457035757E+02  0.59301931503E+02  0.49999977158E+02 0.  0.
         12    1    1    2    0    0 -0.14385449238E+02 -0.20765451451E+02 -0.19457035757E+02  0.31886068497E+02  0.00000000000E+00 0. -1.
         11    1    3    3    0    0  0.59896418436E+01  0.13205744926E+02 -0.72912931857E+01  0.16230541120E+02  0.51100000000E-03 0. -1.
        -11    1    3    3    0    0  0.72331890929E+00 -0.92220664332E+01 -0.14588475552E+01  0.93647176142E+01  0.51100000000E-03 0.  1.
        -12    1    3    3    0    0  0.76724884851E+01  0.16781772959E+02  0.28207176497E+02  0.33706672769E+02  0.00000000000E+00 0.  1.
</event>
<event>
 7    1  0.1193961E-011  0.5930194E+02  0.7816164E-02  0.1266605E+00
        -11   -1    0    0    0    0  0.00000000000E+00  0.00000000000E+00  0.45593999997E+02  0.45594000000E+02  0.51100000000E-03 0. -1.
         11   -1    0    0    0    0 -0.00000000000E+00 -0.00000000000E+00 -0.45593999997E+02  0.45594000000E+02  0.51100000000E-03 0.  1.
    9900012    2    1    2    0    0  0.19803960327E+02 -0.11511152997E+02 -0.22181460496E+02  0.59301942268E+02  0.49999996791E+02 0.  0.
         12    1    1    2    0    0 -0.19803960327E+02  0.11511152997E+02  0.22181460496E+02  0.31886057732E+02  0.00000000000E+00 0. -1.
         11    1    3    3    0    0 -0.10888249364E+02  0.67085210656E+01 -0.20318711446E+01  0.12949391094E+02  0.51100000000E-03 0. -1.
        -11    1    3    3    0    0  0.26545385946E+01 -0.85796112477E+01 -0.13090637826E+02  0.15875172543E+02  0.51100000000E-03 0.  1.
         12    1    3    3    0    0  0.28037671096E+02 -0.96400628150E+01 -0.70589515246E+01  0.30477378631E+02  0.00000000000E+00 0. -1.
</event>
<event>
 7    1  0.1193961E-011  0.5930189E+02  0.7816164E-02  0.1266605E+00
        -11   -1    0    0    0    0  0.00000000000E+00  0.00000000000E+00  0.45593999997E+02  0.45594000000E+02  0.51100000000E-03 0.  1.
         11   -1    0    0    0    0 -0.00000000000E+00 -0.00000000000E+00 -0.45593999997E+02  0.45594000000E+02  0.51100000000E-03 0. -1.
    9900012    2    1    2    0    0  0.13773315670E+01  0.12593896673E+02  0.29261251971E+02  0.59301887936E+02  0.49999897703E+02 0.  0.
         12    1    1    2    0    0 -0.13773315670E+01 -0.12593896673E+02 -0.29261251971E+02  0.31886112064E+02  0.00000000000E+00 0. -1.
         11    1    3    3    0    0 -0.50635595555E+01 -0.62025327815E+01  0.92772652973E+00  0.80605040198E+01  0.51100000000E-03 0. -1.
        -11    1    3    3    0    0 -0.11501927046E+02  0.14401282032E+02  0.12704524595E+01  0.18474449915E+02  0.51100000000E-03 0.  1.
        -12    1    3    3    0    0  0.17942818169E+02  0.43951474224E+01  0.27063072981E+02  0.32766934002E+02  0.00000000000E+00 0.  1.
</event>
<event>
 7    1  0.1193961E-011  0.5930195E+02  0.7816164E-02  0.1266605E+00
        -11   -1    0    0    0    0  0.00000000000E+00  0.00000000000E+00  0.45593999997E+02  0.45594000000E+02  0.51100000000E-03 0. -1.
         11   -1    0    0    0    0 -0.00000000000E+00 -0.00000000000E+00 -0.45593999997E+02  0.45594000000E+02  0.51100000000E-03 0.  1.
    9900012    2    1    2    0    0 -0.15067694170E+02  0.21194798203E+02 -0.18451698020E+02  0.59301952294E+02  0.50000015075E+02 0.  0.
         12    1    1    2    0    0  0.15067694170E+02 -0.21194798203E+02  0.18451698020E+02  0.31886047706E+02  0.00000000000E+00 0. -1.
         11    1    3    3    0    0 -0.12422631754E+02 -0.20078672682E+01 -0.15819309307E+02  0.20213952060E+02  0.51100000000E-03 0. -1.
        -11    1    3    3    0    0 -0.12532930914E+02  0.31011696297E+01 -0.90714267431E+01  0.15779175954E+02  0.51100000000E-03 0.  1.
         12    1    3    3    0    0  0.98878684985E+01  0.20101495842E+02  0.64390380303E+01  0.23308824279E+02  0.00000000000E+00 0. -1.
</event>
<event>
 7    1  0.1193961E-011  0.5930187E+02  0.7816164E-02  0.1266605E+00
        -11   -1    0    0    0    0  0.00000000000E+00  0.00000000000E+00  0.45593999997E+02  0.45594000000E+02  0.51100000000E-03 0.  1.
         11   -1    0    0    0    0 -0.00000000000E+00 -0.00000000000E+00 -0.45593999997E+02  0.45594000000E+02  0.51100000000E-03 0. -1.
    9900012    2    1    2    0    0  0.11861745052E+01  0.30242346081E+02  0.10035859108E+02  0.59301874891E+02  0.49999873911E+02 0.  0.
         12    1    1    2    0    0 -0.11861745052E+01 -0.30242346081E+02 -0.10035859108E+02  0.31886125109E+02  0.00000000000E+00 0. -1.
         11    1    3    3    0    0  0.75232154433E+01  0.23260562727E+02 -0.86848573987E+01  0.25943771840E+02  0.51100000000E-03 0. -1.
        -11    1    3    3    0    0 -0.78868860593E+01  0.54184372840E+01 -0.41152874438E+01  0.10416238540E+02  0.51100000000E-03 0.  1.
        -12    1    3    3    0    0  0.15498451212E+01  0.15633460703E+01  0.22836003950E+02  0.22941864511E+02  0.00000000000E+00 0.  1.
</event>
<event>
 7    1  0.1193961E-011  0.5930196E+02  0.7816164E-02  0.1266605E+00
        -11   -1    0    0    0    0  0.00000000000E+00  0.00000000000E+00  0.45593999997E+02  0.45594000000E+02  0.51100000000E-03 0.  1.
         11   -1    0    0    0    0 -0.00000000000E+00 -0.00000000000E+00 -0.45593999997E+02  0.45594000000E+02  0.51100000000E-03 0. -1.
    9900012    2    1    2    0    0  0.17396692468E+02  0.20917859657E+02  0.16628828890E+02  0.59301957416E+02  0.50000024417E+02 0.  0.
         12    1    1    2    0    0 -0.17396692468E+02 -0.20917859657E+02 -0.16628828890E+02  0.31886042584E+02  0.00000000000E+00 0. -1.
         11    1    3    3    0    0 -0.51336702623E+01  0.11403660643E+02  0.13138461405E+02  0.18138831681E+02  0.51100000000E-03 0. -1.
        -11    1    3    3    0    0  0.78670485412E+00 -0.10632994768E+02  0.43316693089E+01  0.11508381360E+02  0.51100000000E-03 0.  1.
        -12    1    3    3    0    0  0.21743657876E+02  0.20147193782E+02 -0.84130182421E+00  0.29654744374E+02  0.00000000000E+00 0.  1.
</event>
<event>
 7    1  0.1193961E-011  0.5930194E+02  0.7816164E-02  0.1266605E+00
        -11   -1    0    0    0    0  0.00000000000E+00  0.00000000000E+00  0.45593999997E+02  0.45594000000E+02  0.51100000000E-03 0.  1.
         11   -1    0    0    0    0 -0.00000000000E+00 -0.00000000000E+00 -0.45593999997E+02  0.45594000000E+02  0.51100000000E-03 0. -1.
    9900012    2    1    2    0    0  0.77650724491E+01 -0.15228099931E+02  0.26917084820E+02  0.59301939835E+02  0.49999992353E+02 0.  0.
         12    1    1    2    0    0 -0.77650724491E+01  0.15228099931E+02 -0.26917084820E+02  0.31886060165E+02  0.00000000000E+00 0. -1.
         11    1    3    3    0    0  0.10510495072E+02 -0.19940576217E+02  0.22286337396E+02  0.31698232148E+02  0.51100000000E-03 0. -1.
        -11    1    3    3    0    0  0.70696639400E+01 -0.56602512838E+01  0.89012453758E+01  0.12698455116E+02  0.51100000000E-03 0.  1.
         12    1    3    3    0    0 -0.98150865633E+01  0.10372727569E+02 -0.42704979517E+01  0.14905252572E+02  0.00000000000E+00 0. -1.
</event>
<event>
 7    1  0.1193961E-011  0.5930193E+02  0.7816164E-02  0.1266605E+00
        -11   -1    0    0    0    0  0.00000000000E+00  0.00000000000E+00  0.45593999997E+02  0.45594000000E+02  0.51100000000E-03 0. -1.
         11   -1    0    0    0    0 -0.00000000000E+00 -0.00000000000E+00 -0.45593999997E+02  0.45594000000E+02  0.51100000000E-03 0.  1.
    9900012    2    1    2    0    0  0.16460191001E+02  0.23218004437E+02 -0.14377333099E+02  0.59301932120E+02  0.49999978283E+02 0.  0.
         12    1    1    2    0    0 -0.16460191001E+02 -0.23218004437E+02  0.14377333099E+02  0.31886067880E+02  0.00000000000E+00 0. -1.
         11    1    3    3    0    0  0.13690136973E+02 -0.44043509946E+01 -0.16404306205E+02  0.21815577470E+02  0.51100000000E-03 0. -1.
        -11    1    3    3    0    0  0.67154589673E+01  0.24743864775E+01 -0.74436727226E+01  0.10326095169E+02  0.51100000000E-03 0.  1.
         12    1    3    3    0    0 -0.39454049401E+01  0.25147968954E+02  0.94706458286E+01  0.27160259480E+02  0.00000000000E+00 0. -1.
</event>
<event>
 7    1  0.1193961E-011  0.5930207E+02  0.7816164E-02  0.1266604E+00
        -11   -1    0    0    0    0  0.00000000000E+00  0.00000000000E+00  0.45593999997E+02  0.45594000000E+02  0.51100000000E-03 0.  1.
         11   -1    0    0    0    0 -0.00000000000E+00 -0.00000000000E+00 -0.45593999997E+02  0.45594000000E+02  0.51100000000E-03 0. -1.
    9900012    2    1    2    0    0  0.31314861981E+02 -0.54296654312E+01  0.25711331606E+01  0.59302069352E+02  0.50000228561E+02 0.  0.
         12    1    1    2    0    0 -0.31314861981E+02  0.54296654312E+01 -0.25711331606E+01  0.31885930648E+02  0.00000000000E+00 0. -1.
         11    1    3    3    0    0  0.69215170600E+01 -0.45209137676E+01 -0.33618244872E+01  0.89245685526E+01  0.51100000000E-03 0. -1.
        -11    1    3    3    0    0 -0.12354766310E+02 -0.42439616878E+01  0.26782692953E+01  0.13335088604E+02  0.51100000000E-03 0.  1.
        -12    1    3    3    0    0  0.36748111231E+02  0.33352100243E+01  0.32546883524E+01  0.37042412195E+02  0.00000000000E+00 0.  1.
</event>
<event>
 7    1  0.1193961E-011  0.5930194E+02  0.7816164E-02  0.1266605E+00
        -11   -1    0    0    0    0  0.00000000000E+00  0.00000000000E+00  0.45593999997E+02  0.45594000000E+02  0.51100000000E-03 0.  1.
         11   -1    0    0    0    0 -0.00000000000E+00 -0.00000000000E+00 -0.45593999997E+02  0.45594000000E+02  0.51100000000E-03 0. -1.
    9900012    2    1    2    0    0  0.26001501919E+02  0.15943489076E+02  0.92977429023E+01  0.59301937700E+02  0.49999988459E+02 0.  0.
         12    1    1    2    0    0 -0.26001501919E+02 -0.15943489076E+02 -0.92977429023E+01  0.31886062300E+02  0.00000000000E+00 0. -1.
         11    1    3    3    0    0  0.10665212365E+01 -0.34742188767E+01  0.52332963873E+01  0.63714249340E+01  0.51100000000E-03 0. -1.
        -11    1    3    3    0    0 -0.68924171100E+01 -0.46015745482E+01  0.95912448829E+01  0.12675641231E+02  0.51100000000E-03 0.  1.
        -12    1    3    3    0    0  0.31827397792E+02  0.24019282501E+02 -0.55267983679E+01  0.40254871535E+02  0.00000000000E+00 0.  1.
</event>
<event>
 7    1  0.1193961E-011  0.5930196E+02  0.7816164E-02  0.1266605E+00
        -11   -1    0    0    0    0  0.00000000000E+00  0.00000000000E+00  0.45593999997E+02  0.45594000000E+02  0.51100000000E-03 0. -1.
         11   -1    0    0    0    0 -0.00000000000E+00 -0.00000000000E+00 -0.45593999997E+02  0.45594000000E+02  0.51100000000E-03 0.  1.
    9900012    2    1    2    0    0  0.22471999024E+02 -0.18770805947E+02 -0.12624811866E+02  0.59301956491E+02  0.50000022729E+02 0.  0.
         12    1    1    2    0    0 -0.22471999024E+02  0.18770805947E+02  0.12624811866E+02  0.31886043509E+02  0.00000000000E+00 0. -1.
         11    1    3    3    0    0  0.11235748517E+02  0.10193174171E+02 -0.11069226546E+02  0.18779526645E+02  0.51100000000E-03 0. -1.
        -11    1    3    3    0    0 -0.72636019191E+01 -0.43440528915E+01 -0.45012091924E+01  0.95860102659E+01  0.51100000000E-03 0.  1.
        -12    1    3    3    0    0  0.18499852426E+02 -0.24619927226E+02  0.29456238728E+01  0.30936419580E+02  0.00000000000E+00 0.  1.
</event>
<event>
 7    1  0.1193961E-011  0.5930191E+02  0.7816164E-02  0.1266605E+00
        -11   -1    0    0    0    0  0.00000000000E+00  0.00000000000E+00  0.45593999997E+02  0.45594000000E+02  0.51100000000E-03 0.  1.
         11   -1    0    0    0    0 -0.00000000000E+00 -0.00000000000E+00 -0.45593999997E+02  0.45594000000E+02  0.51100000000E-03 0. -1.
    9900012    2    1    2    0    0  0.15444112669E+02 -0.27535611898E+02  0.44712537897E+01  0.59301911354E+02  0.49999940411E+02 0.  0.
         12    1    1    2    0    0 -0.15444112669E+02  0.27535611898E+02 -0.44712537897E+01  0.31886088646E+02  0.00000000000E+00 0. -1.
         11    1    3    3    0    0  0.37868748125E+01 -0.19230839355E+02 -0.59323543168E+01  0.20478242873E+02  0.51100000000E-03 0. -1.
        -11    1    3    3    0    0  0.23160396679E+02 -0.10816821219E+02  0.60307596800E+01  0.26263618528E+02  0.51100000000E-03 0.  1.
        -12    1    3    3    0    0 -0.11503158823E+02  0.25120486768E+01  0.43728484265E+01  0.12560049953E+02  0.00000000000E+00 0.  1.
</event>
<event>
 7    1  0.1193961E-011  0.5930196E+02  0.7816164E-02  0.1266605E+00
        -11   -1    0    0    0    0  0.00000000000E+00  0.00000000000E+00  0.45593999997E+02  0.45594000000E+02  0.51100000000E-03 0. -1.
         11   -1    0    0    0    0 -0.00000000000E+00 -0.00000000000E+00 -0.45593999997E+02  0.45594000000E+02  0.51100000000E-03 0.  1.
    9900012    2    1    2    0    0 -0.65038235139E+01 -0.29946951907E+02  0.88090884699E+01  0.59301957779E+02  0.50000025079E+02 0.  0.
         12    1    1    2    0    0  0.65038235139E+01  0.29946951907E+02 -0.88090884699E+01  0.31886042221E+02  0.00000000000E+00 0. -1.
         11    1    3    3    0    0  0.61573408344E+01  0.48157013442E+01 -0.67873740663E+01  0.10352404192E+02  0.51100000000E-03 0.  1.
        -11    1    3    3    0    0 -0.80898016900E+01  0.27908830931E+01  0.32724656798E+01  0.91620386219E+01  0.51100000000E-03 0. -1.
        -12    1    3    3    0    0 -0.45713626583E+01 -0.37553536345E+02  0.12323996856E+02  0.39787514965E+02  0.00000000000E+00 0.  1.
</event>
<event>
 7    1  0.1193961E-011  0.5930196E+02  0.7816164E-02  0.1266605E+00
        -11   -1    0    0    0    0  0.00000000000E+00  0.00000000000E+00  0.45593999997E+02  0.45594000000E+02  0.51100000000E-03 0. -1.
         11   -1    0    0    0    0 -0.00000000000E+00 -0.00000000000E+00 -0.45593999997E+02  0.45594000000E+02  0.51100000000E-03 0.  1.
    9900012    2    1    2    0    0  0.26227634425E+02 -0.15882093615E+02  0.87515784524E+01  0.59301955552E+02  0.50000021018E+02 0.  0.
         12    1    1    2    0    0 -0.26227634425E+02  0.15882093615E+02 -0.87515784524E+01  0.31886044448E+02  0.00000000000E+00 0. -1.
         11    1    3    3    0    0  0.25191645259E+02 -0.23100264248E+02 -0.42779158449E+01  0.34446215517E+02  0.51100000000E-03 0. -1.
        -11    1    3    3    0    0  0.79154801214E+01  0.19821315830E+01 -0.11579943605E+01  0.82416395435E+01  0.51100000000E-03 0.  1.
         12    1    3    3    0    0 -0.68794909549E+01  0.52360390507E+01  0.14187488658E+02  0.16614100492E+02  0.00000000000E+00 0. -1.
</event>
<event>
 7    1  0.1193961E-011  0.5930196E+02  0.7816164E-02  0.1266605E+00
        -11   -1    0    0    0    0  0.00000000000E+00  0.00000000000E+00  0.45593999997E+02  0.45594000000E+02  0.51100000000E-03 0.  1.
         11   -1    0    0    0    0 -0.00000000000E+00 -0.00000000000E+00 -0.45593999997E+02  0.45594000000E+02  0.51100000000E-03 0. -1.
    9900012    2    1    2    0    0  0.14725170821E+01 -0.31262756883E+02  0.60984733083E+01  0.59301958364E+02  0.50000026146E+02 0.  0.
         12    1    1    2    0    0 -0.14725170821E+01  0.31262756883E+02 -0.60984733083E+01  0.31886041636E+02  0.00000000000E+00 0. -1.
         11    1    3    3    0    0 -0.12058652110E+02 -0.90102225277E+01 -0.17240362816E+01  0.15151485144E+02  0.51100000000E-03 0. -1.
        -11    1    3    3    0    0 -0.93786830695E+01 -0.90356605065E+01 -0.59642597828E+01  0.14323939819E+02  0.51100000000E-03 0.  1.
        -12    1    3    3    0    0  0.22909852262E+02 -0.13216873849E+02  0.13786769373E+02  0.29826533401E+02  0.00000000000E+00 0.  1.
</event>
<event>
 7    1  0.1193961E-011  0.5930196E+02  0.7816164E-02  0.1266605E+00
        -11   -1    0    0    0    0  0.00000000000E+00  0.00000000000E+00  0.45593999997E+02  0.45594000000E+02  0.51100000000E-03 0.  1.
         11   -1    0    0    0    0 -0.00000000000E+00 -0.00000000000E+00 -0.45593999997E+02  0.45594000000E+02  0.51100000000E-03 0. -1.
    9900012    2    1    2    0    0  0.10635270216E+02  0.26102266711E+02  0.14909139664E+02  0.59301956885E+02  0.50000023448E+02 0.  0.
         12    1    1    2    0    0 -0.10635270216E+02 -0.26102266711E+02 -0.14909139664E+02  0.31886043115E+02  0.00000000000E+00 0. -1.
         11    1    3    3    0    0  0.55244125856E+01  0.65328590788E+01 -0.94745966258E+01  0.12765788798E+02  0.51100000000E-03 0. -1.
        -11    1    3    3    0    0 -0.57207401950E+01  0.12472104326E+02 -0.48573682803E+01  0.14555901950E+02  0.51100000000E-03 0.  1.
        -12    1    3    3    0    0  0.10831597826E+02  0.70973033060E+01  0.29241104570E+02  0.31980266137E+02  0.00000000000E+00 0.  1.
</event>
<event>
 7    1  0.1193961E-011  0.5930191E+02  0.7816164E-02  0.1266605E+00
        -11   -1    0    0    0    0  0.00000000000E+00  0.00000000000E+00  0.45593999997E+02  0.45594000000E+02  0.51100000000E-03 0. -1.
         11   -1    0    0    0    0 -0.00000000000E+00 -0.00000000000E+00 -0.45593999997E+02  0.45594000000E+02  0.51100000000E-03 0.  1.
    9900012    2    1    2    0    0  0.23601582637E+02  0.11209541469E+02 -0.18276605062E+02  0.59301908746E+02  0.49999935654E+02 0.  0.
         12    1    1    2    0    0 -0.23601582637E+02 -0.11209541469E+02  0.18276605062E+02  0.31886091254E+02  0.00000000000E+00 0. -1.
         11    1    3    3    0    0 -0.61980956460E+01  0.97993141699E+00  0.54899009200E+01  0.83376056270E+01  0.51100000000E-03 0. -1.
        -11    1    3    3    0    0  0.39713567373E+01 -0.57174560512E+01 -0.19003126998E+02  0.20238078318E+02  0.51100000000E-03 0.  1.
        -12    1    3    3    0    0  0.25828321546E+02  0.15947066103E+02 -0.47633789836E+01  0.30726224801E+02  0.00000000000E+00 0.  1.
</event>
<event>
 7    1  0.1193961E-011  0.5930195E+02  0.7816164E-02  0.1266605E+00
        -11   -1    0    0    0    0  0.00000000000E+00  0.00000000000E+00  0.45593999997E+02  0.45594000000E+02  0.51100000000E-03 0. -1.
         11   -1    0    0    0    0 -0.00000000000E+00 -0.00000000000E+00 -0.45593999997E+02  0.45594000000E+02  0.51100000000E-03 0.  1.
    9900012    2    1    2    0    0  0.26891387295E+02 -0.16253226736E+02  0.54227214539E+01  0.59301952927E+02  0.50000016231E+02 0.  0.
         12    1    1    2    0    0 -0.26891387295E+02  0.16253226736E+02 -0.54227214539E+01  0.31886047073E+02  0.00000000000E+00 0. -1.
         11    1    3    3    0    0  0.30413588936E+01 -0.94544613167E+01  0.16775416922E+02  0.19494904869E+02  0.51100000000E-03 0. -1.
        -11    1    3    3    0    0  0.17331128324E+02 -0.14699627339E+02 -0.16747799937E+02  0.28230052354E+02  0.51100000000E-03 0.  1.
         12    1    3    3    0    0  0.65189000772E+01  0.79008619204E+01  0.53951044695E+01  0.11576995704E+02  0.00000000000E+00 0. -1.
</event>
<event>
 7    1  0.1193961E-011  0.5930196E+02  0.7816164E-02  0.1266605E+00
        -11   -1    0    0    0    0  0.00000000000E+00  0.00000000000E+00  0.45593999997E+02  0.45594000000E+02  0.51100000000E-03 0.  1.
         11   -1    0    0    0    0 -0.00000000000E+00 -0.00000000000E+00 -0.45593999997E+02  0.45594000000E+02  0.51100000000E-03 0. -1.
    9900012    2    1    2    0    0  0.25502917081E+02 -0.11220090920E+01  0.19106595776E+02  0.59301957815E+02  0.50000025145E+02 0.  0.
         12    1    1    2    0    0 -0.25502917081E+02  0.11220090920E+01 -0.19106595776E+02  0.31886042185E+02  0.00000000000E+00 0. -1.
         11    1    3    3    0    0 -0.59974029337E+01 -0.98650868368E+00  0.14798482643E+02  0.15998035196E+02  0.51100000000E-03 0. -1.
        -11    1    3    3    0    0 -0.30741185033E+01  0.71203998091E+01  0.10494128838E+01  0.78263379479E+01  0.51100000000E-03 0.  1.
         12    1    3    3    0    0  0.34574438518E+02 -0.72559002174E+01  0.32587002497E+01  0.35477584672E+02  0.00000000000E+00 0. -1.
</event>
<event>
 7    1  0.1193961E-011  0.5930196E+02  0.7816164E-02  0.1266605E+00
        -11   -1    0    0    0    0  0.00000000000E+00  0.00000000000E+00  0.45593999997E+02  0.45594000000E+02  0.51100000000E-03 0.  1.
         11   -1    0    0    0    0 -0.00000000000E+00 -0.00000000000E+00 -0.45593999997E+02  0.45594000000E+02  0.51100000000E-03 0. -1.
    9900012    2    1    2    0    0  0.26346036310E+01  0.17029968520E+02  0.26828315588E+02  0.59301961027E+02  0.50000031002E+02 0.  0.
         12    1    1    2    0    0 -0.26346036310E+01 -0.17029968520E+02 -0.26828315588E+02  0.31886038973E+02  0.00000000000E+00 0. -1.
         11    1    3    3    0    0 -0.18265588381E+01  0.16843088071E+02  0.55414736617E+01  0.17825090843E+02  0.51100000000E-03 0. -1.
        -11    1    3    3    0    0 -0.11038872483E+02  0.11367765583E+02  0.13583626697E+02  0.20870977805E+02  0.51100000000E-03 0.  1.
         12    1    3    3    0    0  0.15500034952E+02 -0.11180885133E+02  0.77032152299E+01  0.20605892379E+02  0.00000000000E+00 0. -1.
</event>
<event>
 7    1  0.1193961E-011  0.5930195E+02  0.7816164E-02  0.1266605E+00
        -11   -1    0    0    0    0  0.00000000000E+00  0.00000000000E+00  0.45593999997E+02  0.45594000000E+02  0.51100000000E-03 0.  1.
         11   -1    0    0    0    0 -0.00000000000E+00 -0.00000000000E+00 -0.45593999997E+02  0.45594000000E+02  0.51100000000E-03 0. -1.
    9900012    2    1    2    0    0 -0.18990188516E+02 -0.25613768800E+02  0.16700048700E+00  0.59301948172E+02  0.50000007558E+02 0.  0.
         12    1    1    2    0    0  0.18990188516E+02  0.25613768800E+02 -0.16700048700E+00  0.31886051828E+02  0.00000000000E+00 0. -1.
         11    1    3    3    0    0  0.72971241922E+01 -0.10253911746E+02  0.86261217117E+01  0.15257807956E+02  0.51100000000E-03 0. -1.
        -11    1    3    3    0    0  0.88854220829E+00 -0.14715451917E+02 -0.81791654585E+01  0.16859204614E+02  0.51100000000E-03 0.  1.
        -12    1    3    3    0    0 -0.27175854917E+02 -0.64440513679E+00 -0.27995576617E+00  0.27184935601E+02  0.00000000000E+00 0.  1.
</event>
<event>
 7    1  0.1193961E-011  0.5930195E+02  0.7816164E-02  0.1266605E+00
        -11   -1    0    0    0    0  0.00000000000E+00  0.00000000000E+00  0.45593999997E+02  0.45594000000E+02  0.51100000000E-03 0. -1.
         11   -1    0    0    0    0 -0.00000000000E+00 -0.00000000000E+00 -0.45593999997E+02  0.45594000000E+02  0.51100000000E-03 0.  1.
    9900012    2    1    2    0    0 -0.89059281820E+01 -0.10019580480E+01 -0.30600663912E+02  0.59301951192E+02  0.50000013067E+02 0.  0.
         12    1    1    2    0    0  0.89059281820E+01  0.10019580480E+01  0.30600663912E+02  0.31886048808E+02  0.00000000000E+00 0. -1.
         11    1    3    3    0    0 -0.68384307743E+01  0.69444723654E+00  0.47947969813E+01  0.83807201822E+01  0.51100000000E-03 0. -1.
        -11    1    3    3    0    0 -0.54490672071E+01 -0.18072535621E+02 -0.12781315869E+02  0.22796291646E+02  0.51100000000E-03 0.  1.
         12    1    3    3    0    0  0.33815697994E+01  0.16376130336E+02 -0.22614145024E+02  0.28124939364E+02  0.00000000000E+00 0. -1.
</event>
<event>
 7    1  0.1193961E-011  0.5930196E+02  0.7816164E-02  0.1266605E+00
        -11   -1    0    0    0    0  0.00000000000E+00  0.00000000000E+00  0.45593999997E+02  0.45594000000E+02  0.51100000000E-03 0.  1.
         11   -1    0    0    0    0 -0.00000000000E+00 -0.00000000000E+00 -0.45593999997E+02  0.45594000000E+02  0.51100000000E-03 0. -1.
    9900012    2    1    2    0    0  0.36400741144E+01 -0.19323274292E+02  0.25101410014E+02  0.59301955191E+02  0.50000020359E+02 0.  0.
         12    1    1    2    0    0 -0.36400741144E+01  0.19323274292E+02 -0.25101410014E+02  0.31886044809E+02  0.00000000000E+00 0. -1.
         11    1    3    3    0    0 -0.48603893787E+01  0.70403389285E+01 -0.72443092675E+01  0.11210253082E+02  0.51100000000E-03 0. -1.
        -11    1    3    3    0    0  0.23108741845E+01  0.30801546595E+01  0.96939327845E+01  0.10430715475E+02  0.51100000000E-03 0.  1.
         12    1    3    3    0    0  0.61895893086E+01 -0.29443767880E+02  0.22651786497E+02  0.37660986634E+02  0.00000000000E+00 0. -1.
</event>
<event>
 7    1  0.1193961E-011  0.5930194E+02  0.7816164E-02  0.1266605E+00
        -11   -1    0    0    0    0  0.00000000000E+00  0.00000000000E+00  0.45593999997E+02  0.45594000000E+02  0.51100000000E-03 0.  1.
         11   -1    0    0    0    0 -0.00000000000E+00 -0.00000000000E+00 -0.45593999997E+02  0.45594000000E+02  0.51100000000E-03 0. -1.
    9900012    2    1    2    0    0 -0.14457127716E+02  0.26800669456E+02  0.94570806031E+01  0.59301940371E+02  0.49999993332E+02 0.  0.
         12    1    1    2    0    0  0.14457127716E+02 -0.26800669456E+02 -0.94570806031E+01  0.31886059629E+02  0.00000000000E+00 0. -1.
         11    1    3    3    0    0 -0.20473453214E+02  0.87376695061E+01  0.16304899140E+01  0.22319669633E+02  0.51100000000E-03 0. -1.
        -11    1    3    3    0    0  0.54931285253E+00  0.25117084461E+00  0.16443243866E+02  0.16454333791E+02  0.51100000000E-03 0.  1.
         12    1    3    3    0    0  0.54670126455E+01  0.17811829106E+02 -0.86166531766E+01  0.20527936947E+02  0.00000000000E+00 0. -1.
</event>
<event>
 7    1  0.1193961E-011  0.5930195E+02  0.7816164E-02  0.1266605E+00
        -11   -1    0    0    0    0  0.00000000000E+00  0.00000000000E+00  0.45593999997E+02  0.45594000000E+02  0.51100000000E-03 0. -1.
         11   -1    0    0    0    0 -0.00000000000E+00 -0.00000000000E+00 -0.45593999997E+02  0.45594000000E+02  0.51100000000E-03 0.  1.
    9900012    2    1    2    0    0 -0.24612296218E+02 -0.16726292514E+02 -0.11453665519E+02  0.59301945991E+02  0.50000003581E+02 0.  0.
         12    1    1    2    0    0  0.24612296218E+02  0.16726292514E+02  0.11453665519E+02  0.31886054009E+02  0.00000000000E+00 0. -1.
         11    1    3    3    0    0 -0.55522233083E+01 -0.24667636601E+02 -0.40893862057E+01  0.25613327760E+02  0.51100000000E-03 0. -1.
        -11    1    3    3    0    0 -0.16837647177E+02 -0.61778010478E+01 -0.78050839773E+00  0.17952180421E+02  0.51100000000E-03 0.  1.
        -12    1    3    3    0    0 -0.22224257330E+01  0.14119145135E+02 -0.65837709160E+01  0.15736437810E+02  0.00000000000E+00 0.  1.
</event>
<event>
 7    1  0.1193961E-011  0.5930194E+02  0.7816164E-02  0.1266605E+00
        -11   -1    0    0    0    0  0.00000000000E+00  0.00000000000E+00  0.45593999997E+02  0.45594000000E+02  0.51100000000E-03 0.  1.
         11   -1    0    0    0    0 -0.00000000000E+00 -0.00000000000E+00 -0.45593999997E+02  0.45594000000E+02  0.51100000000E-03 0. -1.
    9900012    2    1    2    0    0 -0.14713451168E+02 -0.51619118598E+01  0.27813484508E+02  0.59301938785E+02  0.49999990438E+02 0.  0.
         12    1    1    2    0    0  0.14713451168E+02  0.51619118598E+01 -0.27813484508E+02  0.31886061215E+02  0.00000000000E+00 0. -1.
         11    1    3    3    0    0  0.26206973852E+01  0.44253061472E+01  0.13201224635E+02  0.14167699933E+02  0.51100000000E-03 0. -1.
        -11    1    3    3    0    0 -0.16489909409E+02  0.48901197321E+01  0.22738372147E+02  0.28510769044E+02  0.51100000000E-03 0.  1.
         12    1    3    3    0    0 -0.84423914397E+00 -0.14477337739E+02 -0.81261122739E+01  0.16623469807E+02  0.00000000000E+00 0. -1.
</event>
<event>
 7    1  0.1193961E-011  0.5930194E+02  0.7816164E-02  0.1266605E+00
        -11   -1    0    0    0    0  0.00000000000E+00  0.00000000000E+00  0.45593999997E+02  0.45594000000E+02  0.51100000000E-03 0.  1.
         11   -1    0    0    0    0 -0.00000000000E+00 -0.00000000000E+00 -0.45593999997E+02  0.45594000000E+02  0.51100000000E-03 0. -1.
    9900012    2    1    2    0    0 -0.19482644956E+02 -0.91431224901E+01  0.23527653771E+02  0.59301942932E+02  0.49999998002E+02 0.  0.
         12    1    1    2    0    0  0.19482644956E+02  0.91431224901E+01 -0.23527653771E+02  0.31886057068E+02  0.00000000000E+00 0. -1.
         11    1    3    3    0    0 -0.17229123912E+02 -0.13009905790E+02  0.11464518455E+02  0.24444540149E+02  0.51100000000E-03 0. -1.
        -11    1    3    3    0    0 -0.12544106451E+02 -0.59018488523E+01  0.14938669509E+02  0.20380144099E+02  0.51100000000E-03 0.  1.
         12    1    3    3    0    0  0.10290585406E+02  0.97686321520E+01 -0.28755341930E+01  0.14477258685E+02  0.00000000000E+00 0. -1.
</event>
<event>
 7    1  0.1193961E-011  0.5930193E+02  0.7816164E-02  0.1266605E+00
        -11   -1    0    0    0    0  0.00000000000E+00  0.00000000000E+00  0.45593999997E+02  0.45594000000E+02  0.51100000000E-03 0. -1.
         11   -1    0    0    0    0 -0.00000000000E+00 -0.00000000000E+00 -0.45593999997E+02  0.45594000000E+02  0.51100000000E-03 0.  1.
    9900012    2    1    2    0    0 -0.84560954148E+01  0.20524853484E+02  0.22889871368E+02  0.59301931389E+02  0.49999976951E+02 0.  0.
         12    1    1    2    0    0  0.84560954148E+01 -0.20524853484E+02 -0.22889871368E+02  0.31886068611E+02  0.00000000000E+00 0. -1.
         11    1    3    3    0    0 -0.22700692289E+02  0.80365134411E+01  0.32597296443E+00  0.24083463981E+02  0.51100000000E-03 0. -1.
        -11    1    3    3    0    0 -0.48520409624E+01  0.19835011837E+01  0.41417381858E+01  0.66806117914E+01  0.51100000000E-03 0.  1.
        -12    1    3    3    0    0  0.19096637837E+02  0.10504838859E+02  0.18422160218E+02  0.28537855617E+02  0.00000000000E+00 0.  1.
</event>
<event>
 7    1  0.1193961E-011  0.5930195E+02  0.7816164E-02  0.1266605E+00
        -11   -1    0    0    0    0  0.00000000000E+00  0.00000000000E+00  0.45593999997E+02  0.45594000000E+02  0.51100000000E-03 0. -1.
         11   -1    0    0    0    0 -0.00000000000E+00 -0.00000000000E+00 -0.45593999997E+02  0.45594000000E+02  0.51100000000E-03 0.  1.
    9900012    2    1    2    0    0  0.16639958827E+02  0.12259769745E+02  0.24280235066E+02  0.59301952913E+02  0.50000016205E+02 0.  0.
         12    1    1    2    0    0 -0.16639958827E+02 -0.12259769745E+02 -0.24280235066E+02  0.31886047087E+02  0.00000000000E+00 0. -1.
         11    1    3    3    0    0 -0.35068777157E+01 -0.96368742000E+01 -0.38560688398E+01  0.10956130832E+02  0.51100000000E-03 0. -1.
        -11    1    3    3    0    0  0.10671712895E+02 -0.41915835082E+01  0.67325673058E+01  0.13295950181E+02  0.51100000000E-03 0.  1.
         12    1    3    3    0    0  0.94751236480E+01  0.26088227453E+02  0.21403736600E+02  0.35049871900E+02  0.00000000000E+00 0. -1.
</event>
<event>
 7    1  0.1193961E-011  0.5930194E+02  0.7816164E-02  0.1266605E+00
        -11   -1    0    0    0    0  0.00000000000E+00  0.00000000000E+00  0.45593999997E+02  0.45594000000E+02  0.51100000000E-03 0.  1.
         11   -1    0    0    0    0 -0.00000000000E+00 -0.00000000000E+00 -0.45593999997E+02  0.45594000000E+02  0.51100000000E-03 0. -1.
    9900012    2    1    2    0    0  0.96772047112E+01  0.19879428799E+02  0.22975653293E+02  0.59301943100E+02  0.49999998308E+02 0.  0.
         12    1    1    2    0    0 -0.96772047112E+01 -0.19879428799E+02 -0.22975653293E+02  0.31886056900E+02  0.00000000000E+00 0. -1.
         11    1    3    3    0    0  0.68258516556E+01  0.16735376853E+02 -0.60191515240E+01  0.19049810355E+02  0.51100000000E-03 0. -1.
        -11    1    3    3    0    0 -0.73278610556E+00  0.72827606803E+01 -0.29130983817E+01  0.78779261894E+01  0.51100000000E-03 0.  1.
        -12    1    3    3    0    0  0.35841391611E+01 -0.41387087345E+01  0.31907903199E+02  0.32374206555E+02  0.00000000000E+00 0.  1.
</event>
<event>
 7    1  0.1193961E-011  0.5930195E+02  0.7816164E-02  0.1266605E+00
        -11   -1    0    0    0    0  0.00000000000E+00  0.00000000000E+00  0.45593999997E+02  0.45594000000E+02  0.51100000000E-03 0. -1.
         11   -1    0    0    0    0 -0.00000000000E+00 -0.00000000000E+00 -0.45593999997E+02  0.45594000000E+02  0.51100000000E-03 0.  1.
    9900012    2    1    2    0    0  0.27951468886E+02 -0.13430064150E+02 -0.74208414314E+01  0.59301950958E+02  0.50000012640E+02 0.  0.
         12    1    1    2    0    0 -0.27951468886E+02  0.13430064150E+02  0.74208414314E+01  0.31886049042E+02  0.00000000000E+00 0. -1.
         11    1    3    3    0    0 -0.18747262350E+01 -0.11893907778E+02  0.58849710357E+01  0.13401959746E+02  0.51100000000E-03 0. -1.
        -11    1    3    3    0    0  0.26487700188E+02 -0.13696809937E+02 -0.37011477264E+01  0.30048283786E+02  0.51100000000E-03 0.  1.
         12    1    3    3    0    0  0.33384949326E+01  0.12160653565E+02 -0.96046647407E+01  0.15851707426E+02  0.00000000000E+00 0. -1.
</event>
<event>
 7    1  0.1193961E-011  0.5930181E+02  0.7816164E-02  0.1266605E+00
        -11   -1    0    0    0    0  0.00000000000E+00  0.00000000000E+00  0.45593999997E+02  0.45594000000E+02  0.51100000000E-03 0.  1.
         11   -1    0    0    0    0 -0.00000000000E+00 -0.00000000000E+00 -0.45593999997E+02  0.45594000000E+02  0.51100000000E-03 0. -1.
    9900012    2    1    2    0    0  0.28701893627E+02  0.26237495278E+00  0.13887461861E+02  0.59301809645E+02  0.49999754918E+02 0.  0.
         12    1    1    2    0    0 -0.28701893627E+02 -0.26237495278E+00 -0.13887461861E+02  0.31886190355E+02  0.00000000000E+00 0. -1.
         11    1    3    3    0    0  0.15983152318E+02 -0.37907726923E+01  0.11015003755E+02  0.19777801284E+02  0.51100000000E-03 0. -1.
        -11    1    3    3    0    0  0.16667500782E+02  0.16581759821E+02  0.88112863834E+01  0.25107749980E+02  0.51100000000E-03 0.  1.
         12    1    3    3    0    0 -0.39487594735E+01 -0.12528612175E+02 -0.59388282772E+01  0.14416258382E+02  0.00000000000E+00 0. -1.
</event>
<event>
 7    1  0.1193961E-011  0.5930196E+02  0.7816164E-02  0.1266605E+00
        -11   -1    0    0    0    0  0.00000000000E+00  0.00000000000E+00  0.45593999997E+02  0.45594000000E+02  0.51100000000E-03 0.  1.
         11   -1    0    0    0    0 -0.00000000000E+00 -0.00000000000E+00 -0.45593999997E+02  0.45594000000E+02  0.51100000000E-03 0. -1.
    9900012    2    1    2    0    0 -0.60428806626E+01 -0.19714827053E+02  0.24321359673E+02  0.59301963107E+02  0.50000034796E+02 0.  0.
         12    1    1    2    0    0  0.60428806626E+01  0.19714827053E+02 -0.24321359673E+02  0.31886036893E+02  0.00000000000E+00 0. -1.
         11    1    3    3    0    0  0.87305258978E+01 -0.59135587047E+01 -0.32328610801E+01  0.11029218015E+02  0.51100000000E-03 0. -1.
        -11    1    3    3    0    0  0.10649093967E+02 -0.10469030177E+01  0.42927235229E+01  0.11529383494E+02  0.51100000000E-03 0.  1.
        -12    1    3    3    0    0 -0.25422500528E+02 -0.12754365330E+02  0.23261497230E+02  0.36743361597E+02  0.00000000000E+00 0.  1.
</event>
<event>
 7    1  0.1193961E-011  0.5930195E+02  0.7816164E-02  0.1266605E+00
        -11   -1    0    0    0    0  0.00000000000E+00  0.00000000000E+00  0.45593999997E+02  0.45594000000E+02  0.51100000000E-03 0.  1.
         11   -1    0    0    0    0 -0.00000000000E+00 -0.00000000000E+00 -0.45593999997E+02  0.45594000000E+02  0.51100000000E-03 0. -1.
    9900012    2    1    2    0    0 -0.39836069973E+01 -0.37424793371E+01  0.31414091463E+02  0.59301946329E+02  0.50000004196E+02 0.  0.
         12    1    1    2    0    0  0.39836069973E+01  0.37424793371E+01 -0.31414091463E+02  0.31886053671E+02  0.00000000000E+00 0. -1.
         11    1    3    3    0    0  0.34964445270E+01 -0.36971343668E+01  0.25224206583E+01  0.56794835236E+01  0.51100000000E-03 0. -1.
        -11    1    3    3    0    0  0.17365127587E+02 -0.63578762010E+01  0.17880055005E+02  0.25722881121E+02  0.51100000000E-03 0.  1.
        -12    1    3    3    0    0 -0.24845179112E+02  0.63125312307E+01  0.11011615799E+02  0.27899581684E+02  0.00000000000E+00 0.  1.
</event>
<event>
 7    1  0.1193961E-011  0.5930194E+02  0.7816164E-02  0.1266605E+00
        -11   -1    0    0    0    0  0.00000000000E+00  0.00000000000E+00  0.45593999997E+02  0.45594000000E+02  0.51100000000E-03 0.  1.
         11   -1    0    0    0    0 -0.00000000000E+00 -0.00000000000E+00 -0.45593999997E+02  0.45594000000E+02  0.51100000000E-03 0. -1.
    9900012    2    1    2    0    0 -0.28622522412E+02 -0.11851955269E+02  0.75500496238E+01  0.59301939061E+02  0.49999990941E+02 0.  0.
         12    1    1    2    0    0  0.28622522412E+02  0.11851955269E+02 -0.75500496238E+01  0.31886060939E+02  0.00000000000E+00 0. -1.
         11    1    3    3    0    0 -0.14223596134E+02  0.69395161442E+01  0.14776212614E+02  0.21651882846E+02  0.51100000000E-03 0. -1.
        -11    1    3    3    0    0  0.35720388860E+01 -0.94209228227E+01  0.75314245977E+01  0.12579173477E+02  0.51100000000E-03 0.  1.
         12    1    3    3    0    0 -0.17970965164E+02 -0.93705485902E+01 -0.14757587588E+02  0.25070882737E+02  0.00000000000E+00 0. -1.
</event>
<event>
 7    1  0.1193961E-011  0.5930191E+02  0.7816164E-02  0.1266605E+00
        -11   -1    0    0    0    0  0.00000000000E+00  0.00000000000E+00  0.45593999997E+02  0.45594000000E+02  0.51100000000E-03 0. -1.
         11   -1    0    0    0    0 -0.00000000000E+00 -0.00000000000E+00 -0.45593999997E+02  0.45594000000E+02  0.51100000000E-03 0.  1.
    9900012    2    1    2    0    0  0.28227260169E+02  0.11207448276E+02 -0.97127445696E+01  0.59301913370E+02  0.49999944088E+02 0.  0.
         12    1    1    2    0    0 -0.28227260169E+02 -0.11207448276E+02  0.97127445696E+01  0.31886086630E+02  0.00000000000E+00 0. -1.
         11    1    3    3    0    0  0.20647004822E+02  0.18205762939E+02  0.39005297677E+01  0.27802207557E+02  0.51100000000E-03 0. -1.
        -11    1    3    3    0    0 -0.62963039044E+00  0.96640115976E+01 -0.62047131469E+01  0.11501652928E+02  0.51100000000E-03 0.  1.
        -12    1    3    3    0    0  0.82098857375E+01 -0.16662326261E+02 -0.74085611904E+01  0.19998052885E+02  0.00000000000E+00 0.  1.
</event>
<event>
 7    1  0.1193961E-011  0.5930190E+02  0.7816164E-02  0.1266605E+00
        -11   -1    0    0    0    0  0.00000000000E+00  0.00000000000E+00  0.45593999997E+02  0.45594000000E+02  0.51100000000E-03 0.  1.
         11   -1    0    0    0    0 -0.00000000000E+00 -0.00000000000E+00 -0.45593999997E+02  0.45594000000E+02  0.51100000000E-03 0. -1.
    9900012    2    1    2    0    0  0.18599494512E+02 -0.15936106017E+02  0.20416241874E+02  0.59301896391E+02  0.49999913123E+02 0.  0.
         12    1    1    2    0    0 -0.18599494512E+02  0.15936106017E+02 -0.20416241874E+02  0.31886103609E+02  0.00000000000E+00 0. -1.
         11    1    3    3    0    0  0.81533007297E+01 -0.93689304758E+01  0.26169860432E+01  0.12692587887E+02  0.51100000000E-03 0. -1.
        -11    1    3    3    0    0  0.21492670844E+02 -0.50671043559E+01  0.24986266270E+02  0.33345523672E+02  0.51100000000E-03 0.  1.
        -12    1    3    3    0    0 -0.11046477062E+02 -0.15000711848E+01 -0.71870104394E+01  0.13263784833E+02  0.00000000000E+00 0.  1.
</event>
<event>
 7    1  0.1193961E-011  0.5930195E+02  0.7816164E-02  0.1266605E+00
        -11   -1    0    0    0    0  0.00000000000E+00  0.00000000000E+00  0.45593999997E+02  0.45594000000E+02  0.51100000000E-03 0.  1.
         11   -1    0    0    0    0 -0.00000000000E+00 -0.00000000000E+00 -0.45593999997E+02  0.45594000000E+02  0.51100000000E-03 0. -1.
    9900012    2    1    2    0    0 -0.26389138618E+02  0.12089789566E+02 -0.13197376308E+02  0.59301946777E+02  0.50000005014E+02 0.  0.
         12    1    1    2    0    0  0.26389138618E+02 -0.12089789566E+02  0.13197376308E+02  0.31886053223E+02  0.00000000000E+00 0. -1.
         11    1    3    3    0    0 -0.21445330655E+02  0.10589902688E+02 -0.28409040852E+02  0.37136529836E+02  0.51100000000E-03 0. -1.
        -11    1    3    3    0    0 -0.84232951279E+01  0.40898724304E+01  0.40715112387E+01  0.10210590646E+02  0.51100000000E-03 0.  1.
        -12    1    3    3    0    0  0.34794871657E+01 -0.25899855530E+01  0.11140153305E+02  0.11954826295E+02  0.00000000000E+00 0.  1.
</event>
<event>
 7    1  0.1193961E-011  0.5930193E+02  0.7816164E-02  0.1266605E+00
        -11   -1    0    0    0    0  0.00000000000E+00  0.00000000000E+00  0.45593999997E+02  0.45594000000E+02  0.51100000000E-03 0. -1.
         11   -1    0    0    0    0 -0.00000000000E+00 -0.00000000000E+00 -0.45593999997E+02  0.45594000000E+02  0.51100000000E-03 0.  1.
    9900012    2    1    2    0    0  0.16914388392E+02  0.19619458511E+02 -0.18593058391E+02  0.59301929259E+02  0.49999973066E+02 0.  0.
         12    1    1    2    0    0 -0.16914388392E+02 -0.19619458511E+02  0.18593058391E+02  0.31886070741E+02  0.00000000000E+00 0. -1.
         11    1    3    3    0    0  0.14016260867E+02  0.50196776691E+01  0.12850552698E+02  0.19666963098E+02  0.51100000000E-03 0. -1.
        -11    1    3    3    0    0  0.88082502418E+01  0.34950457715E+01 -0.59029988932E+01  0.11164497905E+02  0.51100000000E-03 0.  1.
         12    1    3    3    0    0 -0.59101227161E+01  0.11104735070E+02 -0.25540612195E+02  0.28470468257E+02  0.00000000000E+00 0. -1.
</event>
<event>
 7    1  0.1193961E-011  0.5930195E+02  0.7816164E-02  0.1266605E+00
        -11   -1    0    0    0    0  0.00000000000E+00  0.00000000000E+00  0.45593999997E+02  0.45594000000E+02  0.51100000000E-03 0.  1.
         11   -1    0    0    0    0 -0.00000000000E+00 -0.00000000000E+00 -0.45593999997E+02  0.45594000000E+02  0.51100000000E-03 0. -1.
    9900012    2    1    2    0    0  0.25761165682E+02  0.68390089500E+01  0.17501734455E+02  0.59301946471E+02  0.50000004456E+02 0.  0.
         12    1    1    2    0    0 -0.25761165682E+02 -0.68390089500E+01 -0.17501734455E+02  0.31886053529E+02  0.00000000000E+00 0. -1.
         11    1    3    3    0    0 -0.80473557100E+01  0.22712650615E+01  0.12087420822E+02  0.14697765861E+02  0.51100000000E-03 0. -1.
        -11    1    3    3    0    0  0.12752775034E+01  0.10993188432E+02  0.22358379452E+01  0.11290504692E+02  0.51100000000E-03 0.  1.
        -12    1    3    3    0    0  0.32533243889E+02 -0.64254445435E+01  0.31784756878E+01  0.33313675918E+02  0.00000000000E+00 0.  1.
</event>
<event>
 7    1  0.1193961E-011  0.5930195E+02  0.7816164E-02  0.1266605E+00
        -11   -1    0    0    0    0  0.00000000000E+00  0.00000000000E+00  0.45593999997E+02  0.45594000000E+02  0.51100000000E-03 0.  1.
         11   -1    0    0    0    0 -0.00000000000E+00 -0.00000000000E+00 -0.45593999997E+02  0.45594000000E+02  0.51100000000E-03 0. -1.
    9900012    2    1    2    0    0  0.29717638206E+02  0.11525027203E+02  0.86959592386E+00  0.59301945530E+02  0.50000002739E+02 0.  0.
         12    1    1    2    0    0 -0.29717638206E+02 -0.11525027203E+02 -0.86959592386E+00  0.31886054470E+02  0.00000000000E+00 0. -1.
         11    1    3    3    0    0  0.29289695568E+02  0.15776293276E+02  0.66470185141E+01  0.33925809517E+02  0.51100000000E-03 0. -1.
        -11    1    3    3    0    0  0.10047248657E+02  0.34579285198E+01  0.19835504367E+01  0.10809206623E+02  0.51100000000E-03 0.  1.
         12    1    3    3    0    0 -0.96193060180E+01 -0.77091945924E+01 -0.77609730270E+01  0.14566929390E+02  0.00000000000E+00 0. -1.
</event>
<event>
 7    1  0.1193961E-011  0.5930192E+02  0.7816164E-02  0.1266605E+00
        -11   -1    0    0    0    0  0.00000000000E+00  0.00000000000E+00  0.45593999997E+02  0.45594000000E+02  0.51100000000E-03 0.  1.
         11   -1    0    0    0    0 -0.00000000000E+00 -0.00000000000E+00 -0.45593999997E+02  0.45594000000E+02  0.51100000000E-03 0. -1.
    9900012    2    1    2    0    0  0.23583400443E+02  0.12671550544E+00  0.21459939549E+02  0.59301924062E+02  0.49999963587E+02 0.  0.
         12    1    1    2    0    0 -0.23583400443E+02 -0.12671550544E+00 -0.21459939549E+02  0.31886075938E+02  0.00000000000E+00 0. -1.
         11    1    3    3    0    0  0.41953205955E+01  0.12703759407E+02  0.16445286093E+02  0.21199850304E+02  0.51100000000E-03 0. -1.
        -11    1    3    3    0    0 -0.26851241037E+01 -0.12795425533E+02  0.87250595901E+01  0.15718125560E+02  0.51100000000E-03 0.  1.
         12    1    3    3    0    0  0.22073203952E+02  0.21838163127E+00 -0.37104061347E+01  0.22383948198E+02  0.00000000000E+00 0. -1.
</event>
<event>
 7    1  0.1193961E-011  0.5930194E+02  0.7816164E-02  0.1266605E+00
        -11   -1    0    0    0    0  0.00000000000E+00  0.00000000000E+00  0.45593999997E+02  0.45594000000E+02  0.51100000000E-03 0.  1.
         11   -1    0    0    0    0 -0.00000000000E+00 -0.00000000000E+00 -0.45593999997E+02  0.45594000000E+02  0.51100000000E-03 0. -1.
    9900012    2    1    2    0    0 -0.22993818366E+02 -0.71521249823E+00  0.22079253284E+02  0.59301942898E+02  0.49999997940E+02 0.  0.
         12    1    1    2    0    0  0.22993818366E+02  0.71521249823E+00 -0.22079253284E+02  0.31886057102E+02  0.00000000000E+00 0. -1.
         11    1    3    3    0    0 -0.27725737014E+01 -0.80875079416E+01  0.27784962589E+01  0.89897158663E+01  0.51100000000E-03 0. -1.
        -11    1    3    3    0    0  0.25598437036E+01  0.60881130677E+01 -0.10728117849E+02  0.12598032916E+02  0.51100000000E-03 0.  1.
        -12    1    3    3    0    0 -0.22781088368E+02  0.12841823757E+01  0.30028874874E+02  0.37714194116E+02  0.00000000000E+00 0.  1.
</event>
<event>
 7    1  0.1193961E-011  0.5930191E+02  0.7816164E-02  0.1266605E+00
        -11   -1    0    0    0    0  0.00000000000E+00  0.00000000000E+00  0.45593999997E+02  0.45594000000E+02  0.51100000000E-03 0. -1.
         11   -1    0    0    0    0 -0.00000000000E+00 -0.00000000000E+00 -0.45593999997E+02  0.45594000000E+02  0.51100000000E-03 0.  1.
    9900012    2    1    2    0    0 -0.22336078653E+02  0.12077068961E+02 -0.19286435191E+02  0.59301912334E+02  0.49999942198E+02 0.  0.
         12    1    1    2    0    0  0.22336078653E+02 -0.12077068961E+02  0.19286435191E+02  0.31886087666E+02  0.00000000000E+00 0. -1.
         11    1    3    3    0    0 -0.10042963134E+02  0.10209210401E+02 -0.17170146723E+02  0.22358511226E+02  0.51100000000E-03 0. -1.
        -11    1    3    3    0    0  0.86188023949E+01  0.40529773651E+01 -0.10618157832E+02  0.14263788286E+02  0.51100000000E-03 0.  1.
         12    1    3    3    0    0 -0.20911917915E+02 -0.21851188049E+01  0.85018693644E+01  0.22679612822E+02  0.00000000000E+00 0. -1.
</event>
<event>
 7    1  0.1193961E-011  0.5930206E+02  0.7816164E-02  0.1266604E+00
        -11   -1    0    0    0    0  0.00000000000E+00  0.00000000000E+00  0.45593999997E+02  0.45594000000E+02  0.51100000000E-03 0.  1.
         11   -1    0    0    0    0 -0.00000000000E+00 -0.00000000000E+00 -0.45593999997E+02  0.45594000000E+02  0.51100000000E-03 0. -1.
    9900012    2    1    2    0    0  0.48764290069E+01  0.10075703554E+02  0.29856549829E+02  0.59302063764E+02  0.50000218369E+02 0.  0.
         12    1    1    2    0    0 -0.48764290069E+01 -0.10075703554E+02 -0.29856549829E+02  0.31885936236E+02  0.00000000000E+00 0. -1.
         11    1    3    3    0    0  0.21612282082E+02  0.11842623122E+02  0.12125773738E+02  0.27465848762E+02  0.51100000000E-03 0. -1.
        -11    1    3    3    0    0 -0.11495003025E+01  0.31584442745E+01 -0.36244859581E+01  0.49430779786E+01  0.51100000000E-03 0.  1.
        -12    1    3    3    0    0 -0.15586352773E+02 -0.49253638422E+01  0.21355262050E+02  0.26893137023E+02  0.00000000000E+00 0.  1.
</event>
<event>
 7    1  0.1193961E-011  0.5930194E+02  0.7816164E-02  0.1266605E+00
        -11   -1    0    0    0    0  0.00000000000E+00  0.00000000000E+00  0.45593999997E+02  0.45594000000E+02  0.51100000000E-03 0.  1.
         11   -1    0    0    0    0 -0.00000000000E+00 -0.00000000000E+00 -0.45593999997E+02  0.45594000000E+02  0.51100000000E-03 0. -1.
    9900012    2    1    2    0    0 -0.10723057240E+02  0.57761771189E+01  0.29468163922E+02  0.59301939353E+02  0.49999991474E+02 0.  0.
         12    1    1    2    0    0  0.10723057240E+02 -0.57761771189E+01 -0.29468163922E+02  0.31886060647E+02  0.00000000000E+00 0. -1.
         11    1    3    3    0    0  0.17491208048E+02  0.37704435427E+01  0.81892293893E+01  0.19677959288E+02  0.51100000000E-03 0. -1.
        -11    1    3    3    0    0 -0.15728794505E+02  0.27793908160E+01  0.12653529337E+01  0.16022518785E+02  0.51100000000E-03 0.  1.
        -12    1    3    3    0    0 -0.12485470782E+02 -0.77365723978E+00  0.20013581599E+02  0.23601461281E+02  0.00000000000E+00 0.  1.
</event>
<event>
 7    1  0.1193961E-011  0.5930188E+02  0.7816164E-02  0.1266605E+00
        -11   -1    0    0    0    0  0.00000000000E+00  0.00000000000E+00  0.45593999997E+02  0.45594000000E+02  0.51100000000E-03 0.  1.
         11   -1    0    0    0    0 -0.00000000000E+00 -0.00000000000E+00 -0.45593999997E+02  0.45594000000E+02  0.51100000000E-03 0. -1.
    9900012    2    1    2    0    0  0.13613688301E+02 -0.21170588851E+02  0.19575446428E+02  0.59301883204E+02  0.49999889072E+02 0.  0.
         12    1    1    2    0    0 -0.13613688301E+02  0.21170588851E+02 -0.19575446428E+02  0.31886116796E+02  0.00000000000E+00 0. -1.
         11    1    3    3    0    0  0.18228053018E+01  0.31516599815E+01  0.24641961112E+01  0.43963442248E+01  0.51100000000E-03 0. -1.
        -11    1    3    3    0    0  0.54314756723E+00  0.38089292435E+01  0.23608735429E+02  0.23920186874E+02  0.51100000000E-03 0.  1.
        -12    1    3    3    0    0  0.11247735432E+02 -0.28131178076E+02 -0.64974851123E+01  0.30985352105E+02  0.00000000000E+00 0.  1.
</event>
<event>
 7    1  0.1193961E-011  0.5930214E+02  0.7816164E-02  0.1266604E+00
        -11   -1    0    0    0    0  0.00000000000E+00  0.00000000000E+00  0.45593999997E+02  0.45594000000E+02  0.51100000000E-03 0.  1.
         11   -1    0    0    0    0 -0.00000000000E+00 -0.00000000000E+00 -0.45593999997E+02  0.45594000000E+02  0.51100000000E-03 0. -1.
    9900012    2    1    2    0    0 -0.24803993427E+02  0.19761695315E+02 -0.33083729189E+01  0.59302140705E+02  0.50000358691E+02 0.  0.
         12    1    1    2    0    0  0.24803993427E+02 -0.19761695315E+02  0.33083729189E+01  0.31885859295E+02  0.00000000000E+00 0. -1.
         11    1    3    3    0    0 -0.15945010965E+02  0.84800925321E+01  0.13422425454E+02  0.22501485492E+02  0.51100000000E-03 0. -1.
        -11    1    3    3    0    0 -0.44689291709E+01  0.14248655247E+02  0.39542744264E+01  0.15447711507E+02  0.51100000000E-03 0.  1.
         12    1    3    3    0    0 -0.43900532908E+01 -0.29670524649E+01 -0.20685072799E+02  0.21352943706E+02  0.00000000000E+00 0. -1.
</event>
<event>
 7    1  0.1193961E-011  0.5930191E+02  0.7816164E-02  0.1266605E+00
        -11   -1    0    0    0    0  0.00000000000E+00  0.00000000000E+00  0.45593999997E+02  0.45594000000E+02  0.51100000000E-03 0.  1.
         11   -1    0    0    0    0 -0.00000000000E+00 -0.00000000000E+00 -0.45593999997E+02  0.45594000000E+02  0.51100000000E-03 0. -1.
    9900012    2    1    2    0    0 -0.29555997195E+02 -0.94377886695E+01 -0.73548398811E+01  0.59301913773E+02  0.49999944823E+02 0.  0.
         12    1    1    2    0    0  0.29555997195E+02  0.94377886695E+01  0.73548398811E+01  0.31886086227E+02  0.00000000000E+00 0. -1.
         11    1    3    3    0    0 -0.16280068064E+01  0.74107267167E+00  0.13499886040E+01  0.22409962870E+01  0.51100000000E-03 0. -1.
        -11    1    3    3    0    0 -0.23695986974E+02  0.40398036692E+01  0.15549928035E+02  0.28629007571E+02  0.51100000000E-03 0.  1.
         12    1    3    3    0    0 -0.42320034146E+01 -0.14218665010E+02 -0.24254756520E+02  0.28431909915E+02  0.00000000000E+00 0. -1.
</event>
<event>
 7    1  0.1193961E-011  0.5930193E+02  0.7816164E-02  0.1266605E+00
        -11   -1    0    0    0    0  0.00000000000E+00  0.00000000000E+00  0.45593999997E+02  0.45594000000E+02  0.51100000000E-03 0. -1.
         11   -1    0    0    0    0 -0.00000000000E+00 -0.00000000000E+00 -0.45593999997E+02  0.45594000000E+02  0.51100000000E-03 0.  1.
    9900012    2    1    2    0    0  0.19185587413E+02 -0.18071513091E+02 -0.17945898004E+02  0.59301927728E+02  0.49999970273E+02 0.  0.
         12    1    1    2    0    0 -0.19185587413E+02  0.18071513091E+02  0.17945898004E+02  0.31886072272E+02  0.00000000000E+00 0. -1.
         11    1    3    3    0    0  0.77679239748E+01 -0.43962891709E+01 -0.25560955204E+02  0.27074534761E+02  0.51100000000E-03 0. -1.
        -11    1    3    3    0    0  0.36959984975E+01 -0.17434737397E+02 -0.35186224301E+01  0.18166209760E+02  0.51100000000E-03 0.  1.
        -12    1    3    3    0    0  0.77216649409E+01  0.37595134768E+01  0.11133679630E+02  0.14061183206E+02  0.00000000000E+00 0.  1.
</event>
<event>
 7    1  0.1193961E-011  0.5930193E+02  0.7816164E-02  0.1266605E+00
        -11   -1    0    0    0    0  0.00000000000E+00  0.00000000000E+00  0.45593999997E+02  0.45594000000E+02  0.51100000000E-03 0.  1.
         11   -1    0    0    0    0 -0.00000000000E+00 -0.00000000000E+00 -0.45593999997E+02  0.45594000000E+02  0.51100000000E-03 0. -1.
    9900012    2    1    2    0    0  0.21770918292E+02  0.88109483163E+01  0.21566542861E+02  0.59301929930E+02  0.49999974289E+02 0.  0.
         12    1    1    2    0    0 -0.21770918292E+02 -0.88109483163E+01 -0.21566542861E+02  0.31886070070E+02  0.00000000000E+00 0. -1.
         11    1    3    3    0    0 -0.37500865412E+01 -0.41416334929E+01  0.10595869086E+02  0.11978677682E+02  0.51100000000E-03 0. -1.
        -11    1    3    3    0    0  0.27546583579E+01 -0.26043126909E+01  0.18383476754E+02  0.18770263852E+02  0.51100000000E-03 0.  1.
         12    1    3    3    0    0  0.22766346475E+02  0.15556894500E+02 -0.74128029789E+01  0.28552988396E+02  0.00000000000E+00 0. -1.
</event>
<event>
 7    1  0.1193961E-011  0.5930194E+02  0.7816164E-02  0.1266605E+00
        -11   -1    0    0    0    0  0.00000000000E+00  0.00000000000E+00  0.45593999997E+02  0.45594000000E+02  0.51100000000E-03 0.  1.
         11   -1    0    0    0    0 -0.00000000000E+00 -0.00000000000E+00 -0.45593999997E+02  0.45594000000E+02  0.51100000000E-03 0. -1.
    9900012    2    1    2    0    0 -0.12941823002E+02  0.27580663136E+02 -0.94094035541E+01  0.59301942908E+02  0.49999997957E+02 0.  0.
         12    1    1    2    0    0  0.12941823002E+02 -0.27580663136E+02  0.94094035541E+01  0.31886057092E+02  0.00000000000E+00 0. -1.
         11    1    3    3    0    0  0.12106516860E+02  0.48004214116E+01 -0.16875905343E+02  0.21316847272E+02  0.51100000000E-03 0. -1.
        -11    1    3    3    0    0  0.13399264596E+01  0.16608873572E+01  0.33006202228E+01  0.39303999602E+01  0.51100000000E-03 0.  1.
         12    1    3    3    0    0 -0.26388266322E+02  0.21119354367E+02  0.41658815658E+01  0.34054695676E+02  0.00000000000E+00 0. -1.
</event>
<event>
 7    1  0.1193961E-011  0.5930197E+02  0.7816164E-02  0.1266605E+00
        -11   -1    0    0    0    0  0.00000000000E+00  0.00000000000E+00  0.45593999997E+02  0.45594000000E+02  0.51100000000E-03 0.  1.
         11   -1    0    0    0    0 -0.00000000000E+00 -0.00000000000E+00 -0.45593999997E+02  0.45594000000E+02  0.51100000000E-03 0. -1.
    9900012    2    1    2    0    0 -0.14485189516E+02  0.21683295302E+02  0.18350286741E+02  0.59301968043E+02  0.50000043798E+02 0.  0.
         12    1    1    2    0    0  0.14485189516E+02 -0.21683295302E+02 -0.18350286741E+02  0.31886031957E+02  0.00000000000E+00 0. -1.
         11    1    3    3    0    0 -0.12255571029E+01 -0.98910184861E+01 -0.19280813222E+01  0.10151440033E+02  0.51100000000E-03 0. -1.
        -11    1    3    3    0    0 -0.51312388003E+01 -0.31347223364E+01 -0.28527471090E+01  0.66553934581E+01  0.51100000000E-03 0.  1.
        -12    1    3    3    0    0 -0.81283936125E+01  0.34709036125E+02  0.23131115172E+02  0.42495134552E+02  0.00000000000E+00 0.  1.
</event>
<event>
 7    1  0.1193961E-011  0.5930195E+02  0.7816164E-02  0.1266605E+00
        -11   -1    0    0    0    0  0.00000000000E+00  0.00000000000E+00  0.45593999997E+02  0.45594000000E+02  0.51100000000E-03 0. -1.
         11   -1    0    0    0    0 -0.00000000000E+00 -0.00000000000E+00 -0.45593999997E+02  0.45594000000E+02  0.51100000000E-03 0.  1.
    9900012    2    1    2    0    0 -0.40528489002E+00  0.28088196324E+02 -0.15086727213E+02  0.59301947146E+02  0.50000005688E+02 0.  0.
         12    1    1    2    0    0  0.40528489002E+00 -0.28088196324E+02  0.15086727213E+02  0.31886052854E+02  0.00000000000E+00 0. -1.
         11    1    3    3    0    0 -0.66195879229E+01 -0.75154193892E+00  0.21310220360E+01  0.69946418589E+01  0.51100000000E-03 0. -1.
        -11    1    3    3    0    0  0.12434138473E+02 -0.52921692023E+01 -0.10149768214E+02  0.16900670090E+02  0.51100000000E-03 0.  1.
        -12    1    3    3    0    0 -0.62198354400E+01  0.34131907465E+02 -0.70679810351E+01  0.35406635198E+02  0.00000000000E+00 0.  1.
</event>
<event>
 7    1  0.1193961E-011  0.5930194E+02  0.7816164E-02  0.1266605E+00
        -11   -1    0    0    0    0  0.00000000000E+00  0.00000000000E+00  0.45593999997E+02  0.45594000000E+02  0.51100000000E-03 0.  1.
         11   -1    0    0    0    0 -0.00000000000E+00 -0.00000000000E+00 -0.45593999997E+02  0.45594000000E+02  0.51100000000E-03 0. -1.
    9900012    2    1    2    0    0  0.25118568298E+02 -0.16327946900E+02  0.10916789205E+02  0.59301943331E+02  0.49999998730E+02 0.  0.
         12    1    1    2    0    0 -0.25118568298E+02  0.16327946900E+02 -0.10916789205E+02  0.31886056669E+02  0.00000000000E+00 0. -1.
         11    1    3    3    0    0  0.73263577385E+01 -0.19250221300E+01  0.50752417202E+01  0.91180758219E+01  0.51100000000E-03 0. -1.
        -11    1    3    3    0    0  0.21293563243E+01 -0.15830343244E+02  0.22292554778E+02  0.27424294419E+02  0.51100000000E-03 0.  1.
         12    1    3    3    0    0  0.15662854235E+02  0.14274184742E+01 -0.16451007293E+02  0.22759573091E+02  0.00000000000E+00 0. -1.
</event>
<event>
 7    1  0.1193961E-011  0.5930197E+02  0.7816164E-02  0.1266605E+00
        -11   -1    0    0    0    0  0.00000000000E+00  0.00000000000E+00  0.45593999997E+02  0.45594000000E+02  0.51100000000E-03 0.  1.
         11   -1    0    0    0    0 -0.00000000000E+00 -0.00000000000E+00 -0.45593999997E+02  0.45594000000E+02  0.51100000000E-03 0. -1.
    9900012    2    1    2    0    0  0.97891011474E+01  0.69491398788E+01  0.29539833162E+02  0.59301971875E+02  0.50000050787E+02 0.  0.
         12    1    1    2    0    0 -0.97891011474E+01 -0.69491398788E+01 -0.29539833162E+02  0.31886028125E+02  0.00000000000E+00 0. -1.
         11    1    3    3    0    0 -0.77593825800E+00 -0.23940211267E+01  0.28834301708E+02  0.28943917713E+02  0.51100000000E-03 0. -1.
        -11    1    3    3    0    0  0.47966421561E+01  0.13488478156E+02  0.10857629501E+02  0.17967608010E+02  0.51100000000E-03 0.  1.
         12    1    3    3    0    0  0.57683972493E+01 -0.41453171505E+01 -0.10152098047E+02  0.12390446152E+02  0.00000000000E+00 0. -1.
</event>
<event>
 7    1  0.1193961E-011  0.5930202E+02  0.7816164E-02  0.1266604E+00
        -11   -1    0    0    0    0  0.00000000000E+00  0.00000000000E+00  0.45593999997E+02  0.45594000000E+02  0.51100000000E-03 0.  1.
         11   -1    0    0    0    0 -0.00000000000E+00 -0.00000000000E+00 -0.45593999997E+02  0.45594000000E+02  0.51100000000E-03 0. -1.
    9900012    2    1    2    0    0  0.67238655165E+00  0.31331076288E+02 -0.58844856995E+01  0.59302021624E+02  0.50000141516E+02 0.  0.
         12    1    1    2    0    0 -0.67238655165E+00 -0.31331076288E+02  0.58844856995E+01  0.31885978376E+02  0.00000000000E+00 0. -1.
         11    1    3    3    0    0 -0.13686211730E+02  0.43605651540E+01 -0.96163077056E+01  0.17285840857E+02  0.51100000000E-03 0. -1.
        -11    1    3    3    0    0  0.31108341271E+01  0.12172443214E+02  0.15548883229E+02  0.19990333482E+02  0.51100000000E-03 0.  1.
        -12    1    3    3    0    0  0.11247764155E+02  0.14798067920E+02 -0.11817061223E+02  0.22025847285E+02  0.00000000000E+00 0.  1.
</event>
<event>
 7    1  0.1193961E-011  0.5930194E+02  0.7816164E-02  0.1266605E+00
        -11   -1    0    0    0    0  0.00000000000E+00  0.00000000000E+00  0.45593999997E+02  0.45594000000E+02  0.51100000000E-03 0. -1.
         11   -1    0    0    0    0 -0.00000000000E+00 -0.00000000000E+00 -0.45593999997E+02  0.45594000000E+02  0.51100000000E-03 0.  1.
    9900012    2    1    2    0    0  0.31810295585E+02 -0.70153665596E+00 -0.20817943488E+01  0.59301938365E+02  0.49999989672E+02 0.  0.
         12    1    1    2    0    0 -0.31810295585E+02  0.70153665596E+00  0.20817943488E+01  0.31886061635E+02  0.00000000000E+00 0. -1.
         11    1    3    3    0    0  0.64608058172E+01 -0.41843732246E+01 -0.24618086109E+01  0.80815526348E+01  0.51100000000E-03 0. -1.
        -11    1    3    3    0    0  0.14148701815E+02 -0.16163650956E+02 -0.12838499081E+02  0.25025515663E+02  0.51100000000E-03 0.  1.
         12    1    3    3    0    0  0.11200787953E+02  0.19646487525E+02  0.13218513343E+02  0.26194870067E+02  0.00000000000E+00 0. -1.
</event>
<event>
 7    1  0.1193961E-011  0.5930197E+02  0.7816164E-02  0.1266605E+00
        -11   -1    0    0    0    0  0.00000000000E+00  0.00000000000E+00  0.45593999997E+02  0.45594000000E+02  0.51100000000E-03 0.  1.
         11   -1    0    0    0    0 -0.00000000000E+00 -0.00000000000E+00 -0.45593999997E+02  0.45594000000E+02  0.51100000000E-03 0. -1.
    9900012    2    1    2    0    0  0.30091569541E+02 -0.95261107253E+01  0.45243500053E+01  0.59301967227E+02  0.50000042310E+02 0.  0.
         12    1    1    2    0    0 -0.30091569541E+02  0.95261107253E+01 -0.45243500053E+01  0.31886032773E+02  0.00000000000E+00 0. -1.
         11    1    3    3    0    0  0.43788694442E+01 -0.17640696982E+01 -0.15614290240E+02  0.16312341937E+02  0.51100000000E-03 0. -1.
        -11    1    3    3    0    0  0.21044103754E+02 -0.92413737217E+01  0.75431916431E+00  0.22996223358E+02  0.51100000000E-03 0.  1.
        -12    1    3    3    0    0  0.46685963434E+01  0.14793326946E+01  0.19384321081E+02  0.19993401932E+02  0.00000000000E+00 0.  1.
</event>
<event>
 7    1  0.1193961E-011  0.5930193E+02  0.7816164E-02  0.1266605E+00
        -11   -1    0    0    0    0  0.00000000000E+00  0.00000000000E+00  0.45593999997E+02  0.45594000000E+02  0.51100000000E-03 0.  1.
         11   -1    0    0    0    0 -0.00000000000E+00 -0.00000000000E+00 -0.45593999997E+02  0.45594000000E+02  0.51100000000E-03 0. -1.
    9900012    2    1    2    0    0 -0.63064249899E+01 -0.94013078489E+01  0.29808825194E+02  0.59301927102E+02  0.49999969132E+02 0.  0.
         12    1    1    2    0    0  0.63064249899E+01  0.94013078489E+01 -0.29808825194E+02  0.31886072898E+02  0.00000000000E+00 0. -1.
         11    1    3    3    0    0  0.57766702387E+01 -0.38791806684E+01 -0.93561793637E+01  0.11660019479E+02  0.51100000000E-03 0. -1.
        -11    1    3    3    0    0  0.40559260952E+01  0.51601779701E+01  0.45586809906E+01  0.79912167915E+01  0.51100000000E-03 0.  1.
        -12    1    3    3    0    0 -0.16139021324E+02 -0.10682305151E+02  0.34606323567E+02  0.39650690832E+02  0.00000000000E+00 0.  1.
</event>
<event>
 7    1  0.1193961E-011  0.5930195E+02  0.7816164E-02  0.1266605E+00
        -11   -1    0    0    0    0  0.00000000000E+00  0.00000000000E+00  0.45593999997E+02  0.45594000000E+02  0.51100000000E-03 0.  1.
         11   -1    0    0    0    0 -0.00000000000E+00 -0.00000000000E+00 -0.45593999997E+02  0.45594000000E+02  0.51100000000E-03 0. -1.
    9900012    2    1    2    0    0  0.95313541938E+01 -0.30408386982E+02 -0.10970672662E+01  0.59301948689E+02  0.50000008502E+02 0.  0.
         12    1    1    2    0    0 -0.95313541938E+01  0.30408386982E+02  0.10970672662E+01  0.31886051311E+02  0.00000000000E+00 0. -1.
         11    1    3    3    0    0  0.85766910490E+01 -0.20976538483E+02 -0.58490826561E+01  0.23404840616E+02  0.51100000000E-03 0. -1.
        -11    1    3    3    0    0  0.16400481723E+00 -0.18722414924E+02  0.13522917186E+02  0.23095995489E+02  0.51100000000E-03 0.  1.
        -12    1    3    3    0    0  0.79065832759E+00  0.92905664249E+01 -0.87709017958E+01  0.12801112584E+02  0.00000000000E+00 0.  1.
</event>
<event>
 7    1  0.1193961E-011  0.5930194E+02  0.7816164E-02  0.1266605E+00
        -11   -1    0    0    0    0  0.00000000000E+00  0.00000000000E+00  0.45593999997E+02  0.45594000000E+02  0.51100000000E-03 0. -1.
         11   -1    0    0    0    0 -0.00000000000E+00 -0.00000000000E+00 -0.45593999997E+02  0.45594000000E+02  0.51100000000E-03 0.  1.
    9900012    2    1    2    0    0 -0.11164488046E+02 -0.29670507206E+02 -0.34257783310E+01  0.59301941159E+02  0.49999994769E+02 0.  0.
         12    1    1    2    0    0  0.11164488046E+02  0.29670507206E+02  0.34257783310E+01  0.31886058841E+02  0.00000000000E+00 0. -1.
         11    1    3    3    0    0  0.52664159711E+01 -0.13559724920E+02  0.19165040333E+01  0.14672227678E+02  0.51100000000E-03 0. -1.
        -11    1    3    3    0    0  0.11770239088E+00 -0.43618799778E+01  0.15163428386E+02  0.15778764573E+02  0.51100000000E-03 0.  1.
        -12    1    3    3    0    0 -0.16548606408E+02 -0.11748902309E+02 -0.20505710750E+02  0.28850948908E+02  0.00000000000E+00 0.  1.
</event>
<event>
 7    1  0.1193961E-011  0.5930193E+02  0.7816164E-02  0.1266605E+00
        -11   -1    0    0    0    0  0.00000000000E+00  0.00000000000E+00  0.45593999997E+02  0.45594000000E+02  0.51100000000E-03 0. -1.
         11   -1    0    0    0    0 -0.00000000000E+00 -0.00000000000E+00 -0.45593999997E+02  0.45594000000E+02  0.51100000000E-03 0.  1.
    9900012    2    1    2    0    0 -0.10825234658E+02  0.27870561100E+02 -0.11080053909E+02  0.59301929748E+02  0.49999973958E+02 0.  0.
         12    1    1    2    0    0  0.10825234658E+02 -0.27870561100E+02  0.11080053909E+02  0.31886070252E+02  0.00000000000E+00 0. -1.
         11    1    3    3    0    0  0.80640749983E+01 -0.44056108400E+01  0.30373629649E+01  0.96780311270E+01  0.51100000000E-03 0. -1.
        -11    1    3    3    0    0 -0.11746982733E+02  0.18014413961E+02 -0.22900202478E+02  0.31415441864E+02  0.51100000000E-03 0.  1.
         12    1    3    3    0    0 -0.71423269237E+01  0.14261757979E+02  0.87827856040E+01  0.18208456758E+02  0.00000000000E+00 0. -1.
</event>
<event>
 7    1  0.1193961E-011  0.5930194E+02  0.7816164E-02  0.1266605E+00
        -11   -1    0    0    0    0  0.00000000000E+00  0.00000000000E+00  0.45593999997E+02  0.45594000000E+02  0.51100000000E-03 0.  1.
         11   -1    0    0    0    0 -0.00000000000E+00 -0.00000000000E+00 -0.45593999997E+02  0.45594000000E+02  0.51100000000E-03 0. -1.
    9900012    2    1    2    0    0  0.33294059578E+01 -0.13158892162E+01  0.31684449132E+02  0.59301939954E+02  0.49999992571E+02 0.  0.
         12    1    1    2    0    0 -0.33294059578E+01  0.13158892162E+01 -0.31684449132E+02  0.31886060046E+02  0.00000000000E+00 0. -1.
         11    1    3    3    0    0  0.13128490936E+02  0.11372456053E+02  0.20405698695E+02  0.26797062720E+02  0.51100000000E-03 0. -1.
        -11    1    3    3    0    0  0.14841600952E+01  0.69480533728E+01 -0.21470092223E+00  0.71080428815E+01  0.51100000000E-03 0.  1.
        -12    1    3    3    0    0 -0.11283245073E+02 -0.19636398642E+02  0.11493451358E+02  0.25396834353E+02  0.00000000000E+00 0.  1.
</event>
<event>
 7    1  0.1193961E-011  0.5930197E+02  0.7816164E-02  0.1266605E+00
        -11   -1    0    0    0    0  0.00000000000E+00  0.00000000000E+00  0.45593999997E+02  0.45594000000E+02  0.51100000000E-03 0.  1.
         11   -1    0    0    0    0 -0.00000000000E+00 -0.00000000000E+00 -0.45593999997E+02  0.45594000000E+02  0.51100000000E-03 0. -1.
    9900012    2    1    2    0    0 -0.24925606225E+02 -0.31374184477E+01 -0.19636436778E+02  0.59301970308E+02  0.50000047929E+02 0.  0.
         12    1    1    2    0    0  0.24925606225E+02  0.31374184477E+01  0.19636436778E+02  0.31886029692E+02  0.00000000000E+00 0. -1.
         11    1    3    3    0    0 -0.12444843844E+02 -0.58315496071E+01 -0.89923566674E+00  0.13772789629E+02  0.51100000000E-03 0.  1.
        -11    1    3    3    0    0  0.14490716515E+00  0.16382076695E+02  0.32645469497E+01  0.16704810743E+02  0.51100000000E-03 0. -1.
         12    1    3    3    0    0 -0.12625669545E+02 -0.13687945535E+02 -0.22001748061E+02  0.28824369936E+02  0.00000000000E+00 0. -1.
</event>
<event>
 7    1  0.1193961E-011  0.5930196E+02  0.7816164E-02  0.1266605E+00
        -11   -1    0    0    0    0  0.00000000000E+00  0.00000000000E+00  0.45593999997E+02  0.45594000000E+02  0.51100000000E-03 0.  1.
         11   -1    0    0    0    0 -0.00000000000E+00 -0.00000000000E+00 -0.45593999997E+02  0.45594000000E+02  0.51100000000E-03 0. -1.
    9900012    2    1    2    0    0 -0.30171918794E+02 -0.10014225310E+02  0.24678403856E+01  0.59301958721E+02  0.50000026797E+02 0.  0.
         12    1    1    2    0    0  0.30171918794E+02  0.10014225310E+02 -0.24678403856E+01  0.31886041279E+02  0.00000000000E+00 0. -1.
         11    1    3    3    0    0 -0.12166684179E+02  0.10371207532E+02 -0.91304241113E+01  0.18410724980E+02  0.51100000000E-03 0. -1.
        -11    1    3    3    0    0  0.61802085360E+01 -0.65734402141E+01 -0.29195124650E+01  0.94830716064E+01  0.51100000000E-03 0.  1.
        -12    1    3    3    0    0 -0.24185443152E+02 -0.13811992627E+02  0.14517776962E+02  0.31408162135E+02  0.00000000000E+00 0.  1.
</event>
<event>
 7    1  0.1193961E-011  0.5930196E+02  0.7816164E-02  0.1266605E+00
        -11   -1    0    0    0    0  0.00000000000E+00  0.00000000000E+00  0.45593999997E+02  0.45594000000E+02  0.51100000000E-03 0.  1.
         11   -1    0    0    0    0 -0.00000000000E+00 -0.00000000000E+00 -0.45593999997E+02  0.45594000000E+02  0.51100000000E-03 0. -1.
    9900012    2    1    2    0    0 -0.63817435845E+01 -0.41986708705E+01  0.30957456901E+02  0.59301958759E+02  0.50000026867E+02 0.  0.
         12    1    1    2    0    0  0.63817435845E+01  0.41986708705E+01 -0.30957456901E+02  0.31886041241E+02  0.00000000000E+00 0. -1.
         11    1    3    3    0    0 -0.34406708758E+01 -0.37124783991E+01  0.60158230173E+01  0.78619869484E+01  0.51100000000E-03 0. -1.
        -11    1    3    3    0    0  0.11904092946E+02  0.53852725559E+01  0.31560537516E+02  0.34158104719E+02  0.51100000000E-03 0.  1.
         12    1    3    3    0    0 -0.14845165655E+02 -0.58714650273E+01 -0.66189036332E+01  0.17281867092E+02  0.00000000000E+00 0. -1.
</event>
<event>
 7    1  0.1193961E-011  0.5930215E+02  0.7816164E-02  0.1266604E+00
        -11   -1    0    0    0    0  0.00000000000E+00  0.00000000000E+00  0.45593999997E+02  0.45594000000E+02  0.51100000000E-03 0. -1.
         11   -1    0    0    0    0 -0.00000000000E+00 -0.00000000000E+00 -0.45593999997E+02  0.45594000000E+02  0.51100000000E-03 0.  1.
    9900012    2    1    2    0    0 -0.64561080272E+01  0.13200826385E+02 -0.28297778071E+02  0.59302150602E+02  0.50000376740E+02 0.  0.
         12    1    1    2    0    0  0.64561080272E+01 -0.13200826385E+02  0.28297778071E+02  0.31885849398E+02  0.00000000000E+00 0. -1.
         11    1    3    3    0    0 -0.39599771103E+01  0.69557140594E+01 -0.12200520334E+02  0.14591643961E+02  0.51100000000E-03 0.  1.
        -11    1    3    3    0    0 -0.87058581662E+01  0.15914027449E+02 -0.24493132880E+02  0.30478874563E+02  0.51100000000E-03 0. -1.
         12    1    3    3    0    0  0.62097272493E+01 -0.96689151240E+01  0.83958751434E+01  0.14231632078E+02  0.00000000000E+00 0. -1.
</event>
<event>
 7    1  0.1193961E-011  0.5930193E+02  0.7816164E-02  0.1266605E+00
        -11   -1    0    0    0    0  0.00000000000E+00  0.00000000000E+00  0.45593999997E+02  0.45594000000E+02  0.51100000000E-03 0.  1.
         11   -1    0    0    0    0 -0.00000000000E+00 -0.00000000000E+00 -0.45593999997E+02  0.45594000000E+02  0.51100000000E-03 0. -1.
    9900012    2    1    2    0    0 -0.34982084514E+01 -0.15185906015E+02  0.27818560097E+02  0.59301929534E+02  0.49999973568E+02 0.  0.
         12    1    1    2    0    0  0.34982084514E+01  0.15185906015E+02 -0.27818560097E+02  0.31886070466E+02  0.00000000000E+00 0. -1.
         11    1    3    3    0    0 -0.51433798699E+01 -0.34392887708E+01 -0.74928898156E+01  0.97173279138E+01  0.51100000000E-03 0. -1.
        -11    1    3    3    0    0  0.15689763469E+02  0.77960006602E+00  0.12955453338E+02  0.20362225454E+02  0.51100000000E-03 0.  1.
        -12    1    3    3    0    0 -0.14044592051E+02 -0.12526217310E+02  0.22355996575E+02  0.29222376167E+02  0.00000000000E+00 0.  1.
</event>
<event>
 7    1  0.1193961E-011  0.5930194E+02  0.7816164E-02  0.1266605E+00
        -11   -1    0    0    0    0  0.00000000000E+00  0.00000000000E+00  0.45593999997E+02  0.45594000000E+02  0.51100000000E-03 0.  1.
         11   -1    0    0    0    0 -0.00000000000E+00 -0.00000000000E+00 -0.45593999997E+02  0.45594000000E+02  0.51100000000E-03 0. -1.
    9900012    2    1    2    0    0 -0.18388614994E+01  0.16507781946E+02  0.27218242065E+02  0.59301937567E+02  0.49999988216E+02 0.  0.
         12    1    1    2    0    0  0.18388614994E+01 -0.16507781946E+02 -0.27218242065E+02  0.31886062433E+02  0.00000000000E+00 0. -1.
         11    1    3    3    0    0 -0.19688193025E+01  0.47058429956E+01  0.43490118573E+01  0.67033657323E+01  0.51100000000E-03 0. -1.
        -11    1    3    3    0    0  0.12699847158E+02  0.19970856863E+02  0.28083914030E+02  0.36726386552E+02  0.51100000000E-03 0.  1.
         12    1    3    3    0    0 -0.12569889355E+02 -0.81689179132E+01 -0.52146838217E+01  0.15872185282E+02  0.00000000000E+00 0. -1.
</event>
<event>
 7    1  0.1193961E-011  0.5930180E+02  0.7816164E-02  0.1266605E+00
        -11   -1    0    0    0    0  0.00000000000E+00  0.00000000000E+00  0.45593999997E+02  0.45594000000E+02  0.51100000000E-03 0. -1.
         11   -1    0    0    0    0 -0.00000000000E+00 -0.00000000000E+00 -0.45593999997E+02  0.45594000000E+02  0.51100000000E-03 0.  1.
    9900012    2    1    2    0    0  0.12315444804E+02 -0.55525697358E+01 -0.28883010772E+02  0.59301803572E+02  0.49999743842E+02 0.  0.
         12    1    1    2    0    0 -0.12315444804E+02  0.55525697358E+01  0.28883010772E+02  0.31886196428E+02  0.00000000000E+00 0. -1.
         11    1    3    3    0    0  0.12807327074E+02  0.52459109409E+01  0.43631059997E+01  0.14511509316E+02  0.51100000000E-03 0. -1.
        -11    1    3    3    0    0  0.94918261484E+01 -0.25274707754E+01 -0.29797515296E+02  0.31374747652E+02  0.51100000000E-03 0.  1.
        -12    1    3    3    0    0 -0.99837084185E+01 -0.82710099013E+01 -0.34486014756E+01  0.13415546605E+02  0.00000000000E+00 0.  1.
</event>
<event>
 7    1  0.1193961E-011  0.5930193E+02  0.7816164E-02  0.1266605E+00
        -11   -1    0    0    0    0  0.00000000000E+00  0.00000000000E+00  0.45593999997E+02  0.45594000000E+02  0.51100000000E-03 0.  1.
         11   -1    0    0    0    0 -0.00000000000E+00 -0.00000000000E+00 -0.45593999997E+02  0.45594000000E+02  0.51100000000E-03 0. -1.
    9900012    2    1    2    0    0  0.89382310273E+01 -0.11701264392E+01  0.30585296501E+02  0.59301928875E+02  0.49999972364E+02 0.  0.
         12    1    1    2    0    0 -0.89382310273E+01  0.11701264392E+01 -0.30585296501E+02  0.31886071125E+02  0.00000000000E+00 0. -1.
         11    1    3    3    0    0  0.16207792683E+02 -0.42206795762E+01  0.42342906553E+01  0.17275297316E+02  0.51100000000E-03 0. -1.
        -11    1    3    3    0    0  0.56224341751E+01  0.25395700351E+01  0.28311963965E+02  0.28976343555E+02  0.51100000000E-03 0.  1.
         12    1    3    3    0    0 -0.12891995831E+02  0.51098310190E+00 -0.19609581198E+01  0.13050288004E+02  0.00000000000E+00 0. -1.
</event>
<event>
 7    1  0.1193961E-011  0.5930195E+02  0.7816164E-02  0.1266605E+00
        -11   -1    0    0    0    0  0.00000000000E+00  0.00000000000E+00  0.45593999997E+02  0.45594000000E+02  0.51100000000E-03 0.  1.
         11   -1    0    0    0    0 -0.00000000000E+00 -0.00000000000E+00 -0.45593999997E+02  0.45594000000E+02  0.51100000000E-03 0. -1.
    9900012    2    1    2    0    0 -0.42840630567E+01 -0.45431771037E+01  0.31268616837E+02  0.59301952058E+02  0.50000014645E+02 0.  0.
         12    1    1    2    0    0  0.42840630567E+01  0.45431771037E+01 -0.31268616837E+02  0.31886047942E+02  0.00000000000E+00 0. -1.
         11    1    3    3    0    0  0.92676664274E+00  0.59940778974E+01  0.25956388501E+02  0.26655617992E+02  0.51100000000E-03 0. -1.
        -11    1    3    3    0    0 -0.11107453193E+02 -0.98930322742E+01  0.15103661001E+02  0.21198306062E+02  0.51100000000E-03 0.  1.
         12    1    3    3    0    0  0.58966234935E+01 -0.64422272688E+00 -0.97914326647E+01  0.11448028004E+02  0.00000000000E+00 0. -1.
</event>
<event>
 7    1  0.1193961E-011  0.5930194E+02  0.7816164E-02  0.1266605E+00
        -11   -1    0    0    0    0  0.00000000000E+00  0.00000000000E+00  0.45593999997E+02  0.45594000000E+02  0.51100000000E-03 0.  1.
         11   -1    0    0    0    0 -0.00000000000E+00 -0.00000000000E+00 -0.45593999997E+02  0.45594000000E+02  0.51100000000E-03 0. -1.
    9900012    2    1    2    0    0  0.45654947430E+01 -0.27392194096E+02  0.15669874937E+02  0.59301936897E+02  0.49999986996E+02 0.  0.
         12    1    1    2    0    0 -0.45654947430E+01  0.27392194096E+02 -0.15669874937E+02  0.31886063103E+02  0.00000000000E+00 0. -1.
         11    1    3    3    0    0  0.12488792732E+02 -0.27030013381E+01  0.47781734801E+01  0.13642107689E+02  0.51100000000E-03 0. -1.
        -11    1    3    3    0    0  0.14375450333E+02 -0.94101109957E+01  0.25424653277E+01  0.17368589219E+02  0.51100000000E-03 0.  1.
        -12    1    3    3    0    0 -0.22298748322E+02 -0.15279081762E+02  0.83492361294E+01  0.28291239990E+02  0.00000000000E+00 0.  1.
</event>
<event>
 7    1  0.1193961E-011  0.5930197E+02  0.7816164E-02  0.1266605E+00
        -11   -1    0    0    0    0  0.00000000000E+00  0.00000000000E+00  0.45593999997E+02  0.45594000000E+02  0.51100000000E-03 0. -1.
         11   -1    0    0    0    0 -0.00000000000E+00 -0.00000000000E+00 -0.45593999997E+02  0.45594000000E+02  0.51100000000E-03 0.  1.
    9900012    2    1    2    0    0 -0.70914261299E+01  0.26383174157E+02  0.16442592932E+02  0.59301967549E+02  0.50000042897E+02 0.  0.
         12    1    1    2    0    0  0.70914261299E+01 -0.26383174157E+02 -0.16442592932E+02  0.31886032451E+02  0.00000000000E+00 0. -1.
         11    1    3    3    0    0  0.92872424508E+01  0.23005820274E+02  0.60460960002E+00  0.24817054455E+02  0.51100000000E-03 0. -1.
        -11    1    3    3    0    0  0.54642010440E+01  0.65825835117E+01  0.42980886948E+01  0.95739994478E+01  0.51100000000E-03 0.  1.
        -12    1    3    3    0    0 -0.21842869625E+02 -0.32052296285E+01  0.11539894638E+02  0.24910913646E+02  0.00000000000E+00 0.  1.
</event>
<event>
 7    1  0.1193961E-011  0.5930191E+02  0.7816164E-02  0.1266605E+00
        -11   -1    0    0    0    0  0.00000000000E+00  0.00000000000E+00  0.45593999997E+02  0.45594000000E+02  0.51100000000E-03 0.  1.
         11   -1    0    0    0    0 -0.00000000000E+00 -0.00000000000E+00 -0.45593999997E+02  0.45594000000E+02  0.51100000000E-03 0. -1.
    9900012    2    1    2    0    0  0.10484149732E+02 -0.26764367267E+02  0.13801225291E+02  0.59301912590E+02  0.49999942665E+02 0.  0.
         12    1    1    2    0    0 -0.10484149732E+02  0.26764367267E+02 -0.13801225291E+02  0.31886087410E+02  0.00000000000E+00 0. -1.
         11    1    3    3    0    0 -0.11370840583E+02 -0.63597945638E+01 -0.28307184909E+01  0.13332515513E+02  0.51100000000E-03 0. -1.
        -11    1    3    3    0    0 -0.76068863606E+01 -0.51029462547E+01  0.81680362770E+00  0.91963008329E+01  0.51100000000E-03 0.  1.
        -12    1    3    3    0    0  0.29461876676E+02 -0.15301626448E+02  0.15815140154E+02  0.36773096244E+02  0.00000000000E+00 0.  1.
</event>
<event>
 7    1  0.1193961E-011  0.5930195E+02  0.7816164E-02  0.1266605E+00
        -11   -1    0    0    0    0  0.00000000000E+00  0.00000000000E+00  0.45593999997E+02  0.45594000000E+02  0.51100000000E-03 0.  1.
         11   -1    0    0    0    0 -0.00000000000E+00 -0.00000000000E+00 -0.45593999997E+02  0.45594000000E+02  0.51100000000E-03 0. -1.
    9900012    2    1    2    0    0 -0.30721695911E+02 -0.78357497656E+01  0.33909437058E+01  0.59301951746E+02  0.50000014076E+02 0.  0.
         12    1    1    2    0    0  0.30721695911E+02  0.78357497656E+01 -0.33909437058E+01  0.31886048254E+02  0.00000000000E+00 0. -1.
         11    1    3    3    0    0 -0.37390768811E+01  0.50094913932E+01 -0.68228733585E+00  0.62881806758E+01  0.51100000000E-03 0. -1.
        -11    1    3    3    0    0 -0.24329160408E+02 -0.10638498646E+02 -0.17085580719E+02  0.31575350645E+02  0.51100000000E-03 0.  1.
         12    1    3    3    0    0 -0.26534586223E+01 -0.22067425125E+01  0.21158811761E+02  0.21438420425E+02  0.00000000000E+00 0. -1.
</event>
<event>
 7    1  0.1193961E-011  0.5930206E+02  0.7816164E-02  0.1266604E+00
        -11   -1    0    0    0    0  0.00000000000E+00  0.00000000000E+00  0.45593999997E+02  0.45594000000E+02  0.51100000000E-03 0.  1.
         11   -1    0    0    0    0 -0.00000000000E+00 -0.00000000000E+00 -0.45593999997E+02  0.45594000000E+02  0.51100000000E-03 0. -1.
    9900012    2    1    2    0    0  0.29169698092E+02  0.39498437349E+01  0.12257280036E+02  0.59302055350E+02  0.50000203026E+02 0.  0.
         12    1    1    2    0    0 -0.29169698092E+02 -0.39498437349E+01 -0.12257280036E+02  0.31885944650E+02  0.00000000000E+00 0. -1.
         11    1    3    3    0    0  0.13193988115E+02 -0.19475520398E+01 -0.26082442191E+01  0.13589599681E+02  0.51100000000E-03 0. -1.
        -11    1    3    3    0    0  0.26220537736E+02 -0.58100976454E+01  0.50772913571E+01  0.27332265212E+02  0.51100000000E-03 0.  1.
        -12    1    3    3    0    0 -0.10244827759E+02  0.11707493420E+02  0.97882328982E+01  0.18380190458E+02  0.00000000000E+00 0.  1.
</event>
<event>
 7    1  0.1193961E-011  0.5930194E+02  0.7816164E-02  0.1266605E+00
        -11   -1    0    0    0    0  0.00000000000E+00  0.00000000000E+00  0.45593999997E+02  0.45594000000E+02  0.51100000000E-03 0.  1.
         11   -1    0    0    0    0 -0.00000000000E+00 -0.00000000000E+00 -0.45593999997E+02  0.45594000000E+02  0.51100000000E-03 0. -1.
    9900012    2    1    2    0    0 -0.42087778103E+01 -0.30010761012E+02  0.99177141663E+01  0.59301942836E+02  0.49999997826E+02 0.  0.
         12    1    1    2    0    0  0.42087778103E+01  0.30010761012E+02 -0.99177141663E+01  0.31886057164E+02  0.00000000000E+00 0. -1.
         11    1    3    3    0    0  0.54728633003E+01 -0.23685231871E+02  0.44522345461E+01  0.24713656836E+02  0.51100000000E-03 0. -1.
        -11    1    3    3    0    0  0.32977097852E+01 -0.16601918607E+02  0.61766276431E+01  0.18018027655E+02  0.51100000000E-03 0.  1.
         12    1    3    3    0    0 -0.12979350896E+02  0.10276389465E+02 -0.71114802286E+00  0.16570258345E+02  0.00000000000E+00 0. -1.
</event>
<event>
 7    1  0.1193961E-011  0.5930190E+02  0.7816164E-02  0.1266605E+00
        -11   -1    0    0    0    0  0.00000000000E+00  0.00000000000E+00  0.45593999997E+02  0.45594000000E+02  0.51100000000E-03 0.  1.
         11   -1    0    0    0    0 -0.00000000000E+00 -0.00000000000E+00 -0.45593999997E+02  0.45594000000E+02  0.51100000000E-03 0. -1.
    9900012    2    1    2    0    0 -0.28758252372E+02  0.68625240644E+01  0.11941198209E+02  0.59301897530E+02  0.49999915200E+02 0.  0.
         12    1    1    2    0    0  0.28758252372E+02 -0.68625240644E+01 -0.11941198209E+02  0.31886102470E+02  0.00000000000E+00 0. -1.
         11    1    3    3    0    0  0.20833264573E+00  0.13301725575E+02 -0.61146285457E+01  0.14641311016E+02  0.51100000000E-03 0. -1.
        -11    1    3    3    0    0 -0.86600363397E+01  0.10895901577E+02  0.84677922867E+01  0.16291728179E+02  0.51100000000E-03 0.  1.
         12    1    3    3    0    0 -0.20306548678E+02 -0.17335103088E+02  0.95880344680E+01  0.28368858335E+02  0.00000000000E+00 0. -1.
</event>
<event>
 7    1  0.1193961E-011  0.5930195E+02  0.7816164E-02  0.1266605E+00
        -11   -1    0    0    0    0  0.00000000000E+00  0.00000000000E+00  0.45593999997E+02  0.45594000000E+02  0.51100000000E-03 0.  1.
         11   -1    0    0    0    0 -0.00000000000E+00 -0.00000000000E+00 -0.45593999997E+02  0.45594000000E+02  0.51100000000E-03 0. -1.
    9900012    2    1    2    0    0  0.48256386096E+00  0.20718618965E+01  0.31815009297E+02  0.59301948251E+02  0.50000007702E+02 0.  0.
         12    1    1    2    0    0 -0.48256386096E+00 -0.20718618965E+01 -0.31815009297E+02  0.31886051749E+02  0.00000000000E+00 0. -1.
         11    1    3    3    0    0  0.96493824241E+01 -0.65920017247E+01  0.42974516410E+01  0.12451231215E+02  0.51100000000E-03 0. -1.
        -11    1    3    3    0    0  0.25130118160E-01  0.61331952112E+01  0.34495174210E+02  0.35036177860E+02  0.51100000000E-03 0.  1.
         12    1    3    3    0    0 -0.91919486813E+01  0.25306684100E+01 -0.69776165542E+01  0.11814539176E+02  0.00000000000E+00 0. -1.
</event>
<event>
 7    1  0.1193961E-011  0.5930195E+02  0.7816164E-02  0.1266605E+00
        -11   -1    0    0    0    0  0.00000000000E+00  0.00000000000E+00  0.45593999997E+02  0.45594000000E+02  0.51100000000E-03 0. -1.
         11   -1    0    0    0    0 -0.00000000000E+00 -0.00000000000E+00 -0.45593999997E+02  0.45594000000E+02  0.51100000000E-03 0.  1.
    9900012    2    1    2    0    0  0.28319126776E+02  0.86216045911E+01  0.11849688573E+02  0.59301950913E+02  0.50000012558E+02 0.  0.
         12    1    1    2    0    0 -0.28319126776E+02 -0.86216045911E+01 -0.11849688573E+02  0.31886049087E+02  0.00000000000E+00 0. -1.
         11    1    3    3    0    0 -0.54295641083E+01  0.47244094042E+01 -0.49451714279E+01  0.87324069613E+01  0.51100000000E-03 0. -1.
        -11    1    3    3    0    0 -0.16224811792E+01 -0.35095767302E+01  0.13772605047E+02  0.14305041910E+02  0.51100000000E-03 0.  1.
        -12    1    3    3    0    0  0.35371172064E+02  0.74067719171E+01  0.30222549536E+01  0.36264502042E+02  0.00000000000E+00 0.  1.
</event>
<event>
 7    1  0.1193961E-011  0.5930194E+02  0.7816164E-02  0.1266605E+00
        -11   -1    0    0    0    0  0.00000000000E+00  0.00000000000E+00  0.45593999997E+02  0.45594000000E+02  0.51100000000E-03 0.  1.
         11   -1    0    0    0    0 -0.00000000000E+00 -0.00000000000E+00 -0.45593999997E+02  0.45594000000E+02  0.51100000000E-03 0. -1.
    9900012    2    1    2    0    0 -0.54661491349E+01  0.11584456095E+02  0.29200041912E+02  0.59301939455E+02  0.49999991661E+02 0.  0.
         12    1    1    2    0    0  0.54661491349E+01 -0.11584456095E+02 -0.29200041912E+02  0.31886060545E+02  0.00000000000E+00 0. -1.
         11    1    3    3    0    0 -0.99646206695E+01 -0.19598771616E+01 -0.10959778347E+01  0.10214497112E+02  0.51100000000E-03 0. -1.
        -11    1    3    3    0    0  0.90051818532E-01  0.24487047166E+02  0.11880280818E+02  0.27216992134E+02  0.51100000000E-03 0.  1.
         12    1    3    3    0    0  0.44084197161E+01 -0.10942713909E+02  0.18415738929E+02  0.21870450209E+02  0.00000000000E+00 0. -1.
</event>
<event>
 7    1  0.1193961E-011  0.5930196E+02  0.7816164E-02  0.1266605E+00
        -11   -1    0    0    0    0  0.00000000000E+00  0.00000000000E+00  0.45593999997E+02  0.45594000000E+02  0.51100000000E-03 0.  1.
         11   -1    0    0    0    0 -0.00000000000E+00 -0.00000000000E+00 -0.45593999997E+02  0.45594000000E+02  0.51100000000E-03 0. -1.
    9900012    2    1    2    0    0 -0.67586501659E+00 -0.63315950653E+01  0.31243778400E+02  0.59301959508E+02  0.50000028232E+02 0.  0.
         12    1    1    2    0    0  0.67586501659E+00  0.63315950653E+01 -0.31243778400E+02  0.31886040492E+02  0.00000000000E+00 0. -1.
         11    1    3    3    0    0  0.23386578751E+01  0.17828838721E+02  0.10426227154E+02  0.20785644655E+02  0.51100000000E-03 0. -1.
        -11    1    3    3    0    0 -0.14430355389E+01  0.27851356463E+01  0.80857206397E+01  0.86728432857E+01  0.51100000000E-03 0.  1.
         12    1    3    3    0    0 -0.15714873529E+01 -0.26945569433E+02  0.12731830606E+02  0.29843471567E+02  0.00000000000E+00 0. -1.
</event>
<event>
 7    1  0.1193961E-011  0.5930194E+02  0.7816164E-02  0.1266605E+00
        -11   -1    0    0    0    0  0.00000000000E+00  0.00000000000E+00  0.45593999997E+02  0.45594000000E+02  0.51100000000E-03 0. -1.
         11   -1    0    0    0    0 -0.00000000000E+00 -0.00000000000E+00 -0.45593999997E+02  0.45594000000E+02  0.51100000000E-03 0.  1.
    9900012    2    1    2    0    0 -0.29759014262E+02  0.79934123203E+01 -0.81992189748E+01  0.59301940943E+02  0.49999994374E+02 0.  0.
         12    1    1    2    0    0  0.29759014262E+02 -0.79934123203E+01  0.81992189748E+01  0.31886059057E+02  0.00000000000E+00 0. -1.
         11    1    3    3    0    0 -0.26717849477E+02  0.16313528226E+02 -0.69620182574E+01  0.32069368287E+02  0.51100000000E-03 0. -1.
        -11    1    3    3    0    0 -0.11060559032E+02  0.46077802381E+01 -0.89851348425E+00  0.12015611993E+02  0.51100000000E-03 0.  1.
         12    1    3    3    0    0  0.80193942466E+01 -0.12927896143E+02 -0.33868723311E+00  0.15216960663E+02  0.00000000000E+00 0. -1.
</event>
<event>
 7    1  0.1193961E-011  0.5930198E+02  0.7816164E-02  0.1266605E+00
        -11   -1    0    0    0    0  0.00000000000E+00  0.00000000000E+00  0.45593999997E+02  0.45594000000E+02  0.51100000000E-03 0. -1.
         11   -1    0    0    0    0 -0.00000000000E+00 -0.00000000000E+00 -0.45593999997E+02  0.45594000000E+02  0.51100000000E-03 0.  1.
    9900012    2    1    2    0    0  0.20819881644E+02 -0.49920820966E+01  0.23629008413E+02  0.59301978080E+02  0.50000062103E+02 0.  0.
         12    1    1    2    0    0 -0.20819881644E+02  0.49920820966E+01 -0.23629008413E+02  0.31886021920E+02  0.00000000000E+00 0. -1.
         11    1    3    3    0    0 -0.34701922598E+01  0.31530976313E+01  0.57784531495E+01  0.74414232547E+01  0.51100000000E-03 0. -1.
        -11    1    3    3    0    0  0.18589614995E+02  0.15462746167E+02  0.11397250236E+02  0.26731397605E+02  0.51100000000E-03 0.  1.
         12    1    3    3    0    0  0.57004589086E+01 -0.23607925895E+02  0.64533050270E+01  0.25129157220E+02  0.00000000000E+00 0. -1.
</event>
<event>
 7    1  0.1193961E-011  0.5930202E+02  0.7816164E-02  0.1266604E+00
        -11   -1    0    0    0    0  0.00000000000E+00  0.00000000000E+00  0.45593999997E+02  0.45594000000E+02  0.51100000000E-03 0. -1.
         11   -1    0    0    0    0 -0.00000000000E+00 -0.00000000000E+00 -0.45593999997E+02  0.45594000000E+02  0.51100000000E-03 0.  1.
    9900012    2    1    2    0    0  0.94890345743E+01 -0.29568083837E+02 -0.72389382031E+01  0.59302022122E+02  0.50000142424E+02 0.  0.
         12    1    1    2    0    0 -0.94890345743E+01  0.29568083837E+02  0.72389382031E+01  0.31885977878E+02  0.00000000000E+00 0. -1.
         11    1    3    3    0    0  0.13128338973E+02 -0.14303172475E+02  0.14508111105E+02  0.24236734828E+02  0.51100000000E-03 0. -1.
        -11    1    3    3    0    0 -0.45383326462E+01 -0.16741680682E+02 -0.47554505883E+01  0.17985956906E+02  0.51100000000E-03 0.  1.
        -12    1    3    3    0    0  0.89902824708E+00  0.14767693200E+01 -0.16991598720E+02  0.17079330387E+02  0.00000000000E+00 0.  1.
</event>
<event>
 7    1  0.1193961E-011  0.5930196E+02  0.7816164E-02  0.1266605E+00
        -11   -1    0    0    0    0  0.00000000000E+00  0.00000000000E+00  0.45593999997E+02  0.45594000000E+02  0.51100000000E-03 0. -1.
         11   -1    0    0    0    0 -0.00000000000E+00 -0.00000000000E+00 -0.45593999997E+02  0.45594000000E+02  0.51100000000E-03 0.  1.
    9900012    2    1    2    0    0  0.21683172517E+02  0.16037264218E+02 -0.17010749852E+02  0.59301961919E+02  0.50000032629E+02 0.  0.
         12    1    1    2    0    0 -0.21683172517E+02 -0.16037264218E+02  0.17010749852E+02  0.31886038081E+02  0.00000000000E+00 0. -1.
         11    1    3    3    0    0 -0.44606928681E+01  0.17504469182E+01 -0.28454316953E+01  0.55729998269E+01  0.51100000000E-03 0. -1.
        -11    1    3    3    0    0  0.25082352331E+02  0.28095993308E+02 -0.76903225757E+01  0.38440217221E+02  0.51100000000E-03 0.  1.
         12    1    3    3    0    0  0.10615130540E+01 -0.13809176007E+02 -0.64749955807E+01  0.15288744871E+02  0.00000000000E+00 0. -1.
</event>
<event>
 7    1  0.1193961E-011  0.5930195E+02  0.7816164E-02  0.1266605E+00
        -11   -1    0    0    0    0  0.00000000000E+00  0.00000000000E+00  0.45593999997E+02  0.45594000000E+02  0.51100000000E-03 0.  1.
         11   -1    0    0    0    0 -0.00000000000E+00 -0.00000000000E+00 -0.45593999997E+02  0.45594000000E+02  0.51100000000E-03 0. -1.
    9900012    2    1    2    0    0  0.16273376369E+02  0.21561294146E+02 -0.16941308661E+02  0.59301950969E+02  0.50000012659E+02 0.  0.
         12    1    1    2    0    0 -0.16273376369E+02 -0.21561294146E+02  0.16941308661E+02  0.31886049031E+02  0.00000000000E+00 0. -1.
         11    1    3    3    0    0  0.93104495790E+01 -0.63033407726E+01 -0.13195147369E+02  0.17335757572E+02  0.51100000000E-03 0. -1.
        -11    1    3    3    0    0  0.64308787570E+01  0.72693518375E+00 -0.11967634246E+02  0.13605473386E+02  0.51100000000E-03 0.  1.
        -12    1    3    3    0    0  0.53204803324E+00  0.27137699734E+02  0.82214729542E+01  0.28360720011E+02  0.00000000000E+00 0.  1.
</event>
<event>
 7    1  0.1193961E-011  0.5930194E+02  0.7816164E-02  0.1266605E+00
        -11   -1    0    0    0    0  0.00000000000E+00  0.00000000000E+00  0.45593999997E+02  0.45594000000E+02  0.51100000000E-03 0.  1.
         11   -1    0    0    0    0 -0.00000000000E+00 -0.00000000000E+00 -0.45593999997E+02  0.45594000000E+02  0.51100000000E-03 0. -1.
    9900012    2    1    2    0    0  0.14161077041E+02 -0.26288645861E+02  0.11184445554E+02  0.59301939934E+02  0.49999992535E+02 0.  0.
         12    1    1    2    0    0 -0.14161077041E+02  0.26288645861E+02 -0.11184445554E+02  0.31886060066E+02  0.00000000000E+00 0. -1.
         11    1    3    3    0    0  0.20297793451E+02 -0.14199715782E+02 -0.10105882156E+02  0.26753713792E+02  0.51100000000E-03 0. -1.
        -11    1    3    3    0    0 -0.25419451562E+01  0.58141985478E+01  0.59630420060E+01  0.87077126822E+01  0.51100000000E-03 0.  1.
        -12    1    3    3    0    0 -0.35947712534E+01 -0.17903128626E+02  0.15327285704E+02  0.23840513460E+02  0.00000000000E+00 0.  1.
</event>
<event>
 7    1  0.1193961E-011  0.5930195E+02  0.7816164E-02  0.1266605E+00
        -11   -1    0    0    0    0  0.00000000000E+00  0.00000000000E+00  0.45593999997E+02  0.45594000000E+02  0.51100000000E-03 0.  1.
         11   -1    0    0    0    0 -0.00000000000E+00 -0.00000000000E+00 -0.45593999997E+02  0.45594000000E+02  0.51100000000E-03 0. -1.
    9900012    2    1    2    0    0  0.15760308755E+02 -0.22853011999E+02  0.15686694672E+02  0.59301954789E+02  0.50000019625E+02 0.  0.
         12    1    1    2    0    0 -0.15760308755E+02  0.22853011999E+02 -0.15686694672E+02  0.31886045211E+02  0.00000000000E+00 0. -1.
         11    1    3    3    0    0  0.21472418631E+02 -0.14602371919E+02 -0.87447712184E+01  0.27400092180E+02  0.51100000000E-03 0. -1.
        -11    1    3    3    0    0 -0.60573894325E+01  0.39575531893E+01  0.44834920761E+01  0.85121028800E+01  0.51100000000E-03 0.  1.
        -12    1    3    3    0    0  0.34527955688E+00 -0.12208193269E+02  0.19947973814E+02  0.23389759729E+02  0.00000000000E+00 0.  1.
</event>
<event>
 7    1  0.1193961E-011  0.5930196E+02  0.7816164E-02  0.1266605E+00
        -11   -1    0    0    0    0  0.00000000000E+00  0.00000000000E+00  0.45593999997E+02  0.45594000000E+02  0.51100000000E-03 0.  1.
         11   -1    0    0    0    0 -0.00000000000E+00 -0.00000000000E+00 -0.45593999997E+02  0.45594000000E+02  0.51100000000E-03 0. -1.
    9900012    2    1    2    0    0  0.40454200088E+01 -0.15676939847E+02  0.27469754083E+02  0.59301964571E+02  0.50000037466E+02 0.  0.
         12    1    1    2    0    0 -0.40454200088E+01  0.15676939847E+02 -0.27469754083E+02  0.31886035429E+02  0.00000000000E+00 0. -1.
         11    1    3    3    0    0 -0.30586948840E+01 -0.27273957510E+01  0.18322942104E+01  0.44890538324E+01  0.51100000000E-03 0. -1.
        -11    1    3    3    0    0  0.17941251850E+02  0.11241154971E+02  0.65970521398E+01  0.22175959511E+02  0.51100000000E-03 0.  1.
         12    1    3    3    0    0 -0.10837136958E+02 -0.24190699067E+02  0.19040407733E+02  0.32636951227E+02  0.00000000000E+00 0. -1.
</event>
<event>
 7    1  0.1193961E-011  0.5930195E+02  0.7816164E-02  0.1266605E+00
        -11   -1    0    0    0    0  0.00000000000E+00  0.00000000000E+00  0.45593999997E+02  0.45594000000E+02  0.51100000000E-03 0. -1.
         11   -1    0    0    0    0 -0.00000000000E+00 -0.00000000000E+00 -0.45593999997E+02  0.45594000000E+02  0.51100000000E-03 0.  1.
    9900012    2    1    2    0    0 -0.16832194288E+01  0.30017530592E+02 -0.10622369421E+02  0.59301951286E+02  0.50000013237E+02 0.  0.
         12    1    1    2    0    0  0.16832194288E+01 -0.30017530592E+02  0.10622369421E+02  0.31886048714E+02  0.00000000000E+00 0. -1.
         11    1    3    3    0    0 -0.18999515296E+00 -0.33909764864E+01  0.81654937893E+01  0.88436479336E+01  0.51100000000E-03 0. -1.
        -11    1    3    3    0    0 -0.16538044437E+02  0.11109008707E+02 -0.75562425443E+01  0.21307599346E+02  0.51100000000E-03 0.  1.
        -12    1    3    3    0    0  0.15044820161E+02  0.22299498371E+02 -0.11231620666E+02  0.29150704006E+02  0.00000000000E+00 0.  1.
</event>
<event>
 7    1  0.1193961E-011  0.5930195E+02  0.7816164E-02  0.1266605E+00
        -11   -1    0    0    0    0  0.00000000000E+00  0.00000000000E+00  0.45593999997E+02  0.45594000000E+02  0.51100000000E-03 0. -1.
         11   -1    0    0    0    0 -0.00000000000E+00 -0.00000000000E+00 -0.45593999997E+02  0.45594000000E+02  0.51100000000E-03 0.  1.
    9900012    2    1    2    0    0  0.23336660813E+02 -0.27254362618E+01 -0.21556728559E+02  0.59301948396E+02  0.50000007966E+02 0.  0.
         12    1    1    2    0    0 -0.23336660813E+02  0.27254362618E+01  0.21556728559E+02  0.31886051604E+02  0.00000000000E+00 0. -1.
         11    1    3    3    0    0  0.19390971293E+02  0.35838808964E+00 -0.34952719618E+01  0.19706728193E+02  0.51100000000E-03 0. -1.
        -11    1    3    3    0    0 -0.82044261413E+01  0.19000524992E+01  0.72287702909E+01  0.11098555221E+02  0.51100000000E-03 0.  1.
        -12    1    3    3    0    0  0.12150115662E+02 -0.49838768507E+01 -0.25290226888E+02  0.28496664982E+02  0.00000000000E+00 0.  1.
</event>
<event>
 7    1  0.1193961E-011  0.5930193E+02  0.7816164E-02  0.1266605E+00
        -11   -1    0    0    0    0  0.00000000000E+00  0.00000000000E+00  0.45593999997E+02  0.45594000000E+02  0.51100000000E-03 0.  1.
         11   -1    0    0    0    0 -0.00000000000E+00 -0.00000000000E+00 -0.45593999997E+02  0.45594000000E+02  0.51100000000E-03 0. -1.
    9900012    2    1    2    0    0  0.79578024776E+01 -0.26233366374E+02 -0.16285127023E+02  0.59301929472E+02  0.49999973454E+02 0.  0.
         12    1    1    2    0    0 -0.79578024776E+01  0.26233366374E+02  0.16285127023E+02  0.31886070528E+02  0.00000000000E+00 0. -1.
         11    1    3    3    0    0 -0.63142253227E+01 -0.96348509275E+01 -0.57538139778E+01  0.12876574443E+02  0.51100000000E-03 0. -1.
        -11    1    3    3    0    0 -0.70237863306E+01 -0.81153998452E+01  0.10718147385E+02  0.15168123572E+02  0.51100000000E-03 0.  1.
        -12    1    3    3    0    0  0.21295814131E+02 -0.84831156010E+01 -0.21249460430E+02  0.31257231457E+02  0.00000000000E+00 0.  1.
</event>
<event>
 7    1  0.1193961E-011  0.5930193E+02  0.7816164E-02  0.1266605E+00
        -11   -1    0    0    0    0  0.00000000000E+00  0.00000000000E+00  0.45593999997E+02  0.45594000000E+02  0.51100000000E-03 0.  1.
         11   -1    0    0    0    0 -0.00000000000E+00 -0.00000000000E+00 -0.45593999997E+02  0.45594000000E+02  0.51100000000E-03 0. -1.
    9900012    2    1    2    0    0  0.46175154768E+01  0.28441216653E+02  0.13656391658E+02  0.59301932714E+02  0.49999979366E+02 0.  0.
         12    1    1    2    0    0 -0.46175154768E+01 -0.28441216653E+02 -0.13656391658E+02  0.31886067286E+02  0.00000000000E+00 0. -1.
         11    1    3    3    0    0  0.78380164887E+01  0.63594955313E+01  0.23668434091E+01  0.10367238488E+02  0.51100000000E-03 0. -1.
        -11    1    3    3    0    0  0.56727860390E+01  0.32364269620E+02  0.29594660779E+01  0.32990678823E+02  0.51100000000E-03 0.  1.
         12    1    3    3    0    0 -0.88932870508E+01 -0.10282548498E+02  0.83300821708E+01  0.15944015403E+02  0.00000000000E+00 0. -1.
</event>
<event>
 7    1  0.1193961E-011  0.5930203E+02  0.7816164E-02  0.1266604E+00
        -11   -1    0    0    0    0  0.00000000000E+00  0.00000000000E+00  0.45593999997E+02  0.45594000000E+02  0.51100000000E-03 0. -1.
         11   -1    0    0    0    0 -0.00000000000E+00 -0.00000000000E+00 -0.45593999997E+02  0.45594000000E+02  0.51100000000E-03 0.  1.
    9900012    2    1    2    0    0  0.16285752001E+02 -0.27024861487E+02 -0.45984824346E+01  0.59302032909E+02  0.50000162098E+02 0.  0.
         12    1    1    2    0    0 -0.16285752001E+02  0.27024861487E+02  0.45984824346E+01  0.31885967091E+02  0.00000000000E+00 0. -1.
         11    1    3    3    0    0 -0.69299163880E-01  0.18980157344E+01 -0.44360949702E+01  0.48255781983E+01  0.51100000000E-03 0. -1.
        -11    1    3    3    0    0  0.46235908883E+01 -0.90879944670E+01 -0.21040305926E+02  0.23380840657E+02  0.51100000000E-03 0.  1.
         12    1    3    3    0    0  0.11731460277E+02 -0.19834882754E+02  0.20877918461E+02  0.31095614054E+02  0.00000000000E+00 0. -1.
</event>
<event>
 7    1  0.1193961E-011  0.5930193E+02  0.7816164E-02  0.1266605E+00
        -11   -1    0    0    0    0  0.00000000000E+00  0.00000000000E+00  0.45593999997E+02  0.45594000000E+02  0.51100000000E-03 0.  1.
         11   -1    0    0    0    0 -0.00000000000E+00 -0.00000000000E+00 -0.45593999997E+02  0.45594000000E+02  0.51100000000E-03 0. -1.
    9900012    2    1    2    0    0 -0.29556231825E+02 -0.11954584895E+02 -0.48853889246E+00  0.59301927649E+02  0.49999970129E+02 0.  0.
         12    1    1    2    0    0  0.29556231825E+02  0.11954584895E+02  0.48853889246E+00  0.31886072351E+02  0.00000000000E+00 0. -1.
         11    1    3    3    0    0 -0.35018787190E+02 -0.51539523576E+01 -0.95459505404E+01  0.36660658111E+02  0.51100000000E-03 0. -1.
        -11    1    3    3    0    0 -0.68401322230E+01 -0.34477775173E+01  0.54123583564E+01  0.93791365208E+01  0.51100000000E-03 0.  1.
         12    1    3    3    0    0  0.12302687588E+02 -0.33528550201E+01  0.36450532915E+01  0.13262133017E+02  0.00000000000E+00 0. -1.
</event>
<event>
 7    1  0.1193961E-011  0.5930195E+02  0.7816164E-02  0.1266605E+00
        -11   -1    0    0    0    0  0.00000000000E+00  0.00000000000E+00  0.45593999997E+02  0.45594000000E+02  0.51100000000E-03 0. -1.
         11   -1    0    0    0    0 -0.00000000000E+00 -0.00000000000E+00 -0.45593999997E+02  0.45594000000E+02  0.51100000000E-03 0.  1.
    9900012    2    1    2    0    0  0.36082491022E+01  0.31152027237E+02  0.57664422228E+01  0.59301951037E+02  0.50000012783E+02 0.  0.
         12    1    1    2    0    0 -0.36082491022E+01 -0.31152027237E+02 -0.57664422228E+01  0.31886048963E+02  0.00000000000E+00 0. -1.
         11    1    3    3    0    0  0.19631036057E+01  0.77144398514E+00  0.91502289824E+01  0.93901859556E+01  0.51100000000E-03 0. -1.
        -11    1    3    3    0    0  0.17852647112E+02  0.25499309675E+02  0.41149847478E+01  0.31398485673E+02  0.51100000000E-03 0.  1.
        -12    1    3    3    0    0 -0.16207501615E+02  0.48812735765E+01 -0.74987715074E+01  0.18513279409E+02  0.00000000000E+00 0.  1.
</event>
<event>
 7    1  0.1193961E-011  0.5930194E+02  0.7816164E-02  0.1266605E+00
        -11   -1    0    0    0    0  0.00000000000E+00  0.00000000000E+00  0.45593999997E+02  0.45594000000E+02  0.51100000000E-03 0.  1.
         11   -1    0    0    0    0 -0.00000000000E+00 -0.00000000000E+00 -0.45593999997E+02  0.45594000000E+02  0.51100000000E-03 0. -1.
    9900012    2    1    2    0    0 -0.24759372705E+02  0.17376088968E+02  0.10087899590E+02  0.59301941562E+02  0.49999995504E+02 0.  0.
         12    1    1    2    0    0  0.24759372705E+02 -0.17376088968E+02 -0.10087899590E+02  0.31886058438E+02  0.00000000000E+00 0. -1.
         11    1    3    3    0    0 -0.10609934190E+02  0.22292519010E+02 -0.70801599828E+01  0.25683764774E+02  0.51100000000E-03 0. -1.
        -11    1    3    3    0    0  0.45618847408E+01  0.11161183250E+01  0.12582969523E+02  0.13430846391E+02  0.51100000000E-03 0.  1.
         12    1    3    3    0    0 -0.18711323256E+02 -0.60325483673E+01  0.45850900497E+01  0.20187330397E+02  0.00000000000E+00 0. -1.
</event>
<event>
 7    1  0.1193961E-011  0.5930194E+02  0.7816164E-02  0.1266605E+00
        -11   -1    0    0    0    0  0.00000000000E+00  0.00000000000E+00  0.45593999997E+02  0.45594000000E+02  0.51100000000E-03 0.  1.
         11   -1    0    0    0    0 -0.00000000000E+00 -0.00000000000E+00 -0.45593999997E+02  0.45594000000E+02  0.51100000000E-03 0. -1.
    9900012    2    1    2    0    0  0.63033081322E+01  0.16841589403E+02  0.26331543558E+02  0.59301937007E+02  0.49999987196E+02 0.  0.
         12    1    1    2    0    0 -0.63033081322E+01 -0.16841589403E+02 -0.26331543558E+02  0.31886062993E+02  0.00000000000E+00 0. -1.
         11    1    3    3    0    0  0.39036583561E+00 -0.92380844319E+01 -0.77396634826E+01  0.12058067032E+02  0.51100000000E-03 0. -1.
        -11    1    3    3    0    0 -0.27566496974E+01  0.21462439054E+02  0.16878108211E+02  0.27442775821E+02  0.51100000000E-03 0.  1.
        -12    1    3    3    0    0  0.86695919940E+01  0.46172347813E+01  0.17193098829E+02  0.19801094155E+02  0.00000000000E+00 0.  1.
</event>
<event>
 7    1  0.1193961E-011  0.5930192E+02  0.7816164E-02  0.1266605E+00
        -11   -1    0    0    0    0  0.00000000000E+00  0.00000000000E+00  0.45593999997E+02  0.45594000000E+02  0.51100000000E-03 0.  1.
         11   -1    0    0    0    0 -0.00000000000E+00 -0.00000000000E+00 -0.45593999997E+02  0.45594000000E+02  0.51100000000E-03 0. -1.
    9900012    2    1    2    0    0  0.73287569320E+01  0.28326619168E+02 -0.12673351730E+02  0.59301923481E+02  0.49999962528E+02 0.  0.
         12    1    1    2    0    0 -0.73287569320E+01 -0.28326619168E+02  0.12673351730E+02  0.31886076519E+02  0.00000000000E+00 0. -1.
         11    1    3    3    0    0  0.89202446451E+01  0.15858238732E+02 -0.16874353406E+02  0.24815283664E+02  0.51100000000E-03 0. -1.
        -11    1    3    3    0    0  0.55630755721E+01  0.21311456041E+02  0.63237175133E+01  0.22915395957E+02  0.51100000000E-03 0.  1.
        -12    1    3    3    0    0 -0.71545632851E+01 -0.88430756042E+01 -0.21227158373E+01  0.11571243860E+02  0.00000000000E+00 0.  1.
</event>
<event>
 7    1  0.1193961E-011  0.5930169E+02  0.7816164E-02  0.1266606E+00
        -11   -1    0    0    0    0  0.00000000000E+00  0.00000000000E+00  0.45593999997E+02  0.45594000000E+02  0.51100000000E-03 0.  1.
         11   -1    0    0    0    0 -0.00000000000E+00 -0.00000000000E+00 -0.45593999997E+02  0.45594000000E+02  0.51100000000E-03 0. -1.
    9900012    2    1    2    0    0  0.21500785311E+02  0.14690574111E+02  0.18402170405E+02  0.59301692401E+02  0.49999541091E+02 0.  0.
         12    1    1    2    0    0 -0.21500785311E+02 -0.14690574111E+02 -0.18402170405E+02  0.31886307599E+02  0.00000000000E+00 0. -1.
         11    1    3    3    0    0  0.56157854994E+01  0.17612207758E+02  0.97253951711E+01  0.20888040127E+02  0.51100000000E-03 0. -1.
        -11    1    3    3    0    0  0.40366627981E+01  0.95457329930E+01 -0.90172805081E+01  0.13737795054E+02  0.51100000000E-03 0.  1.
         12    1    3    3    0    0  0.11848337014E+02 -0.12467366640E+02  0.17694055742E+02  0.24675857220E+02  0.00000000000E+00 0. -1.
</event>
<event>
 7    1  0.1193961E-011  0.5930194E+02  0.7816164E-02  0.1266605E+00
        -11   -1    0    0    0    0  0.00000000000E+00  0.00000000000E+00  0.45593999997E+02  0.45594000000E+02  0.51100000000E-03 0.  1.
         11   -1    0    0    0    0 -0.00000000000E+00 -0.00000000000E+00 -0.45593999997E+02  0.45594000000E+02  0.51100000000E-03 0. -1.
    9900012    2    1    2    0    0  0.26324627506E+01 -0.31723710144E+02  0.18430651383E+01  0.59301944512E+02  0.50000000884E+02 0.  0.
         12    1    1    2    0    0 -0.26324627506E+01  0.31723710144E+02 -0.18430651383E+01  0.31886055488E+02  0.00000000000E+00 0. -1.
         11    1    3    3    0    0  0.33982408755E+01 -0.20196629002E+02  0.86470743328E+01  0.22231143895E+02  0.51100000000E-03 0. -1.
        -11    1    3    3    0    0  0.13808956566E+02 -0.38660401428E+01 -0.13119206162E+02  0.19435717594E+02  0.51100000000E-03 0.  1.
         12    1    3    3    0    0 -0.14574734691E+02 -0.76610409995E+01  0.63151969676E+01  0.17635083023E+02  0.00000000000E+00 0. -1.
</event>
<event>
 7    1  0.1193961E-011  0.5930177E+02  0.7816164E-02  0.1266605E+00
        -11   -1    0    0    0    0  0.00000000000E+00  0.00000000000E+00  0.45593999997E+02  0.45594000000E+02  0.51100000000E-03 0. -1.
         11   -1    0    0    0    0 -0.00000000000E+00 -0.00000000000E+00 -0.45593999997E+02  0.45594000000E+02  0.51100000000E-03 0.  1.
    9900012    2    1    2    0    0  0.28695582575E+02 -0.13349239428E+02  0.38849791189E+01  0.59301769188E+02  0.49999681133E+02 0.  0.
         12    1    1    2    0    0 -0.28695582575E+02  0.13349239428E+02 -0.38849791189E+01  0.31886230812E+02  0.00000000000E+00 0. -1.
         11    1    3    3    0    0  0.15679686845E+02 -0.13906224263E+02  0.18018885056E+02  0.27639028054E+02  0.51100000000E-03 0.  1.
        -11    1    3    3    0    0  0.20385361363E+01 -0.43326953266E+01  0.63265153971E+01  0.79342722227E+01  0.51100000000E-03 0. -1.
        -12    1    3    3    0    0  0.10977359593E+02  0.48896801612E+01 -0.20460421334E+02  0.23728468912E+02  0.00000000000E+00 0.  1.
</event>
<event>
 7    1  0.1193961E-011  0.5930195E+02  0.7816164E-02  0.1266605E+00
        -11   -1    0    0    0    0  0.00000000000E+00  0.00000000000E+00  0.45593999997E+02  0.45594000000E+02  0.51100000000E-03 0.  1.
         11   -1    0    0    0    0 -0.00000000000E+00 -0.00000000000E+00 -0.45593999997E+02  0.45594000000E+02  0.51100000000E-03 0. -1.
    9900012    2    1    2    0    0  0.58900316620E+01 -0.30449136126E+02  0.74079497168E+01  0.59301951596E+02  0.50000013802E+02 0.  0.
         12    1    1    2    0    0 -0.58900316620E+01  0.30449136126E+02 -0.74079497168E+01  0.31886048404E+02  0.00000000000E+00 0. -1.
         11    1    3    3    0    0  0.11240055593E+02 -0.14112892605E+02  0.21551439664E+01  0.18170229310E+02  0.51100000000E-03 0. -1.
        -11    1    3    3    0    0  0.10404979683E+02  0.20228988601E+01  0.12004733893E+02  0.16014660724E+02  0.51100000000E-03 0.  1.
        -12    1    3    3    0    0 -0.15755003613E+02 -0.18359142382E+02 -0.67519281428E+01  0.25117061562E+02  0.00000000000E+00 0.  1.
</event>
<event>
 7    1  0.1193961E-011  0.5930195E+02  0.7816164E-02  0.1266605E+00
        -11   -1    0    0    0    0  0.00000000000E+00  0.00000000000E+00  0.45593999997E+02  0.45594000000E+02  0.51100000000E-03 0. -1.
         11   -1    0    0    0    0 -0.00000000000E+00 -0.00000000000E+00 -0.45593999997E+02  0.45594000000E+02  0.51100000000E-03 0.  1.
    9900012    2    1    2    0    0 -0.30978175939E+02 -0.48031289634E+01 -0.58311996854E+01  0.59301947844E+02  0.50000006960E+02 0.  0.
         12    1    1    2    0    0  0.30978175939E+02  0.48031289634E+01  0.58311996854E+01  0.31886052156E+02  0.00000000000E+00 0. -1.
         11    1    3    3    0    0  0.71740595606E+00 -0.58429739750E+01 -0.29900537701E+01  0.66026841502E+01  0.51100000000E-03 0. -1.
        -11    1    3    3    0    0 -0.35432397373E+01 -0.67538578424E+01 -0.18173273758E+02  0.19708805720E+02  0.51100000000E-03 0.  1.
        -12    1    3    3    0    0 -0.28152342157E+02  0.77937028539E+01  0.15332127842E+02  0.32990457973E+02  0.00000000000E+00 0.  1.
</event>
<event>
 7    1  0.1193961E-011  0.5930196E+02  0.7816164E-02  0.1266605E+00
        -11   -1    0    0    0    0  0.00000000000E+00  0.00000000000E+00  0.45593999997E+02  0.45594000000E+02  0.51100000000E-03 0.  1.
         11   -1    0    0    0    0 -0.00000000000E+00 -0.00000000000E+00 -0.45593999997E+02  0.45594000000E+02  0.51100000000E-03 0. -1.
    9900012    2    1    2    0    0 -0.10441845099E+02 -0.30086651896E+02  0.15751065061E+01  0.59301957412E+02  0.50000024410E+02 0.  0.
         12    1    1    2    0    0  0.10441845099E+02  0.30086651896E+02 -0.15751065061E+01  0.31886042588E+02  0.00000000000E+00 0. -1.
         11    1    3    3    0    0 -0.42615840544E+01 -0.10213646546E+02  0.45085593519E+01  0.11950179167E+02  0.51100000000E-03 0. -1.
        -11    1    3    3    0    0  0.15017839015E+01 -0.31770981515E+02  0.31010496813E+01  0.31957270389E+02  0.51100000000E-03 0.  1.
        -12    1    3    3    0    0 -0.76820449462E+01  0.11897976166E+02 -0.60345025271E+01  0.15394507856E+02  0.00000000000E+00 0.  1.
</event>
<event>
 7    1  0.1193961E-011  0.5930194E+02  0.7816164E-02  0.1266605E+00
        -11   -1    0    0    0    0  0.00000000000E+00  0.00000000000E+00  0.45593999997E+02  0.45594000000E+02  0.51100000000E-03 0.  1.
         11   -1    0    0    0    0 -0.00000000000E+00 -0.00000000000E+00 -0.45593999997E+02  0.45594000000E+02  0.51100000000E-03 0. -1.
    9900012    2    1    2    0    0  0.15915903833E+01 -0.30600614632E+02 -0.88198605788E+01  0.59301941661E+02  0.49999995683E+02 0.  0.
         12    1    1    2    0    0 -0.15915903833E+01  0.30600614632E+02  0.88198605788E+01  0.31886058339E+02  0.00000000000E+00 0. -1.
         11    1    3    3    0    0  0.59406510124E+01  0.46746534846E+01  0.35227720444E+01  0.83398826604E+01  0.51100000000E-03 0. -1.
        -11    1    3    3    0    0  0.13575831524E+02 -0.14380281829E+02 -0.12566695533E+02  0.23431123403E+02  0.51100000000E-03 0.  1.
         12    1    3    3    0    0 -0.17924892154E+02 -0.20894986287E+02  0.22406290974E+00  0.27530935597E+02  0.00000000000E+00 0. -1.
</event>
<event>
 7    1  0.1193961E-011  0.5930195E+02  0.7816164E-02  0.1266605E+00
        -11   -1    0    0    0    0  0.00000000000E+00  0.00000000000E+00  0.45593999997E+02  0.45594000000E+02  0.51100000000E-03 0. -1.
         11   -1    0    0    0    0 -0.00000000000E+00 -0.00000000000E+00 -0.45593999997E+02  0.45594000000E+02  0.51100000000E-03 0.  1.
    9900012    2    1    2    0    0 -0.29846043263E+02 -0.11204889228E+02 -0.62011132613E+00  0.59301946949E+02  0.50000005328E+02 0.  0.
         12    1    1    2    0    0  0.29846043263E+02  0.11204889228E+02  0.62011132613E+00  0.31886053051E+02  0.00000000000E+00 0. -1.
         11    1    3    3    0    0 -0.16703039709E+02 -0.83909531379E+01 -0.68371704419E+01  0.19903430106E+02  0.51100000000E-03 0. -1.
        -11    1    3    3    0    0 -0.20447578426E+02 -0.11348120551E+02 -0.45661782965E+01  0.23827154425E+02  0.51100000000E-03 0.  1.
         12    1    3    3    0    0  0.73045748711E+01  0.85341844610E+01  0.10783237412E+02  0.15571362418E+02  0.00000000000E+00 0. -1.
</event>
<event>
 7    1  0.1193961E-011  0.5930195E+02  0.7816164E-02  0.1266605E+00
        -11   -1    0    0    0    0  0.00000000000E+00  0.00000000000E+00  0.45593999997E+02  0.45594000000E+02  0.51100000000E-03 0. -1.
         11   -1    0    0    0    0 -0.00000000000E+00 -0.00000000000E+00 -0.45593999997E+02  0.45594000000E+02  0.51100000000E-03 0.  1.
    9900012    2    1    2    0    0 -0.31554628038E+01  0.18187976398E+02 -0.25999247226E+02  0.59301948390E+02  0.50000007956E+02 0.  0.
         12    1    1    2    0    0  0.31554628038E+01 -0.18187976398E+02  0.25999247226E+02  0.31886051610E+02  0.00000000000E+00 0. -1.
         11    1    3    3    0    0  0.11309586243E+02 -0.13478836424E+02 -0.70710168657E+01  0.18962727971E+02  0.51100000000E-03 0. -1.
        -11    1    3    3    0    0 -0.48405489582E+01  0.10105265010E+02 -0.10240921304E+02  0.15179715563E+02  0.51100000000E-03 0.  1.
        -12    1    3    3    0    0 -0.96245000891E+01  0.21561547811E+02 -0.86873090561E+01  0.25159504856E+02  0.00000000000E+00 0.  1.
</event>
<event>
 7    1  0.1193961E-011  0.5930190E+02  0.7816164E-02  0.1266605E+00
        -11   -1    0    0    0    0  0.00000000000E+00  0.00000000000E+00  0.45593999997E+02  0.45594000000E+02  0.51100000000E-03 0.  1.
         11   -1    0    0    0    0 -0.00000000000E+00 -0.00000000000E+00 -0.45593999997E+02  0.45594000000E+02  0.51100000000E-03 0. -1.
    9900012    2    1    2    0    0 -0.57013617015E+01  0.41872616128E-01  0.31372217584E+02  0.59301900917E+02  0.49999921377E+02 0.  0.
         12    1    1    2    0    0  0.57013617015E+01 -0.41872616128E-01 -0.31372217584E+02  0.31886099083E+02  0.00000000000E+00 0. -1.
         11    1    3    3    0    0  0.32882422009E+01 -0.13486645972E+02  0.66648257478E+01  0.15398768096E+02  0.51100000000E-03 0. -1.
        -11    1    3    3    0    0  0.83179922211E+01 -0.52750120819E+01  0.11480939904E+02  0.15127019812E+02  0.51100000000E-03 0.  1.
        -12    1    3    3    0    0 -0.17307596123E+02  0.18803530670E+02  0.13226451933E+02  0.28776113010E+02  0.00000000000E+00 0.  1.
</event>
<event>
 7    1  0.1193961E-011  0.5930195E+02  0.7816164E-02  0.1266605E+00
        -11   -1    0    0    0    0  0.00000000000E+00  0.00000000000E+00  0.45593999997E+02  0.45594000000E+02  0.51100000000E-03 0.  1.
         11   -1    0    0    0    0 -0.00000000000E+00 -0.00000000000E+00 -0.45593999997E+02  0.45594000000E+02  0.51100000000E-03 0. -1.
    9900012    2    1    2    0    0 -0.88241711173E+01 -0.97456471903E+01  0.29049553739E+02  0.59301949641E+02  0.50000010238E+02 0.  0.
         12    1    1    2    0    0  0.88241711173E+01  0.97456471903E+01 -0.29049553739E+02  0.31886050359E+02  0.00000000000E+00 0. -1.
         11    1    3    3    0    0 -0.50915744316E+01 -0.17072732237E+02  0.63163505212E+01  0.18902343781E+02  0.51100000000E-03 0. -1.
        -11    1    3    3    0    0 -0.56845780534E+01 -0.35647910428E+01  0.27532440268E+02  0.28338267946E+02  0.51100000000E-03 0.  1.
         12    1    3    3    0    0  0.19519813676E+01  0.10891876090E+02 -0.47992370505E+01  0.12061337914E+02  0.00000000000E+00 0. -1.
</event>
<event>
 7    1  0.1193961E-011  0.5930200E+02  0.7816164E-02  0.1266605E+00
        -11   -1    0    0    0    0  0.00000000000E+00  0.00000000000E+00  0.45593999997E+02  0.45594000000E+02  0.51100000000E-03 0.  1.
         11   -1    0    0    0    0 -0.00000000000E+00 -0.00000000000E+00 -0.45593999997E+02  0.45594000000E+02  0.51100000000E-03 0. -1.
    9900012    2    1    2    0    0 -0.85190169640E+01 -0.14880041898E+02  0.26883590653E+02  0.59302003962E+02  0.50000109306E+02 0.  0.
         12    1    1    2    0    0  0.85190169640E+01  0.14880041898E+02 -0.26883590653E+02  0.31885996038E+02  0.00000000000E+00 0. -1.
         11    1    3    3    0    0 -0.22255681843E+01  0.30760669254E+00  0.11883210494E+02  0.12093736706E+02  0.51100000000E-03 0. -1.
        -11    1    3    3    0    0 -0.92961879110E+01 -0.28656213782E+02  0.14412879452E+02  0.33396538628E+02  0.51100000000E-03 0.  1.
         12    1    3    3    0    0  0.30027391313E+01  0.13468565191E+02  0.58750070727E+00  0.13811728628E+02  0.00000000000E+00 0. -1.
</event>
<event>
 7    1  0.1193961E-011  0.5930203E+02  0.7816164E-02  0.1266604E+00
        -11   -1    0    0    0    0  0.00000000000E+00  0.00000000000E+00  0.45593999997E+02  0.45594000000E+02  0.51100000000E-03 0.  1.
         11   -1    0    0    0    0 -0.00000000000E+00 -0.00000000000E+00 -0.45593999997E+02  0.45594000000E+02  0.51100000000E-03 0. -1.
    9900012    2    1    2    0    0 -0.10453044279E+02 -0.26977506326E+02  0.13403845019E+02  0.59302030616E+02  0.50000157916E+02 0.  0.
         12    1    1    2    0    0  0.10453044279E+02  0.26977506326E+02 -0.13403845019E+02  0.31885969384E+02  0.00000000000E+00 0. -1.
         11    1    3    3    0    0 -0.27544426102E+00 -0.62975488862E+01 -0.10661415109E+02  0.12385506203E+02  0.51100000000E-03 0. -1.
        -11    1    3    3    0    0 -0.15454585688E+02 -0.85891060269E+01 -0.19093770315E+01  0.17783775809E+02  0.51100000000E-03 0.  1.
        -12    1    3    3    0    0  0.52769856697E+01 -0.12090851413E+02  0.25974637159E+02  0.29132748604E+02  0.00000000000E+00 0.  1.
</event>
<event>
 7    1  0.1193961E-011  0.5930196E+02  0.7816164E-02  0.1266605E+00
        -11   -1    0    0    0    0  0.00000000000E+00  0.00000000000E+00  0.45593999997E+02  0.45594000000E+02  0.51100000000E-03 0.  1.
         11   -1    0    0    0    0 -0.00000000000E+00 -0.00000000000E+00 -0.45593999997E+02  0.45594000000E+02  0.51100000000E-03 0. -1.
    9900012    2    1    2    0    0 -0.27299570640E+02  0.15006254147E+02 -0.68018572113E+01  0.59301961015E+02  0.50000030980E+02 0.  0.
         12    1    1    2    0    0  0.27299570640E+02 -0.15006254147E+02  0.68018572113E+01  0.31886038985E+02  0.00000000000E+00 0. -1.
         11    1    3    3    0    0 -0.13661933528E+02  0.13216838840E+02  0.45020033169E+01  0.19534617754E+02  0.51100000000E-03 0. -1.
        -11    1    3    3    0    0 -0.30593646107E+01  0.13946453381E+02  0.65564659531E+01  0.15711477327E+02  0.51100000000E-03 0.  1.
         12    1    3    3    0    0 -0.10578272501E+02 -0.12157038074E+02 -0.17860326481E+02  0.24055865934E+02  0.00000000000E+00 0. -1.
</event>
<event>
 7    1  0.1193961E-011  0.5930196E+02  0.7816164E-02  0.1266605E+00
        -11   -1    0    0    0    0  0.00000000000E+00  0.00000000000E+00  0.45593999997E+02  0.45594000000E+02  0.51100000000E-03 0.  1.
         11   -1    0    0    0    0 -0.00000000000E+00 -0.00000000000E+00 -0.45593999997E+02  0.45594000000E+02  0.51100000000E-03 0. -1.
    9900012    2    1    2    0    0  0.19899967697E+02 -0.19325853948E+02  0.15723306143E+02  0.59301957580E+02  0.50000024716E+02 0.  0.
         12    1    1    2    0    0 -0.19899967697E+02  0.19325853948E+02 -0.15723306143E+02  0.31886042420E+02  0.00000000000E+00 0. -1.
         11    1    3    3    0    0 -0.56518973802E+01 -0.62094692725E+00  0.36727889238E+01  0.67689657868E+01  0.51100000000E-03 0. -1.
        -11    1    3    3    0    0  0.19253350578E+02  0.82370542587E+01 -0.28055901785E+01  0.21128462032E+02  0.51100000000E-03 0.  1.
        -12    1    3    3    0    0  0.62985144992E+01 -0.26941961279E+02  0.14856107398E+02  0.31404529760E+02  0.00000000000E+00 0.  1.
</event>
<event>
 7    1  0.1193961E-011  0.5930195E+02  0.7816164E-02  0.1266605E+00
        -11   -1    0    0    0    0  0.00000000000E+00  0.00000000000E+00  0.45593999997E+02  0.45594000000E+02  0.51100000000E-03 0.  1.
         11   -1    0    0    0    0 -0.00000000000E+00 -0.00000000000E+00 -0.45593999997E+02  0.45594000000E+02  0.51100000000E-03 0. -1.
    9900012    2    1    2    0    0  0.27252240229E+02  0.12945889195E+02 -0.10316950890E+02  0.59301951010E+02  0.50000012733E+02 0.  0.
         12    1    1    2    0    0 -0.27252240229E+02 -0.12945889195E+02  0.10316950890E+02  0.31886048990E+02  0.00000000000E+00 0. -1.
         11    1    3    3    0    0  0.89274373547E+01 -0.42385046790E+01 -0.11766890307E+02  0.15366319253E+02  0.51100000000E-03 0. -1.
        -11    1    3    3    0    0 -0.79676332152E+01  0.77579810903E+01 -0.88019008746E+01  0.14182485992E+02  0.51100000000E-03 0.  1.
        -12    1    3    3    0    0  0.26292436090E+02  0.94264127834E+01  0.10251840292E+02  0.29753145764E+02  0.00000000000E+00 0.  1.
</event>
<event>
 7    1  0.1193961E-011  0.5930210E+02  0.7816164E-02  0.1266604E+00
        -11   -1    0    0    0    0  0.00000000000E+00  0.00000000000E+00  0.45593999997E+02  0.45594000000E+02  0.51100000000E-03 0. -1.
         11   -1    0    0    0    0 -0.00000000000E+00 -0.00000000000E+00 -0.45593999997E+02  0.45594000000E+02  0.51100000000E-03 0.  1.
    9900012    2    1    2    0    0 -0.10779230104E+02  0.12318222517E+02 -0.27363853556E+02  0.59302095762E+02  0.50000276726E+02 0.  0.
         12    1    1    2    0    0  0.10779230104E+02 -0.12318222517E+02  0.27363853556E+02  0.31885904238E+02  0.00000000000E+00 0. -1.
         11    1    3    3    0    0 -0.97449814069E+01 -0.13581796768E+02 -0.13857723040E+02  0.21713275990E+02  0.51100000000E-03 0. -1.
        -11    1    3    3    0    0  0.11402521623E+00  0.12711396009E+02 -0.19322425109E+02  0.23128958096E+02  0.51100000000E-03 0.  1.
        -12    1    3    3    0    0 -0.11482739137E+01  0.13188623276E+02  0.58162945932E+01  0.14459861676E+02  0.00000000000E+00 0.  1.
</event>
<event>
 7    1  0.1193961E-011  0.5930201E+02  0.7816164E-02  0.1266605E+00
        -11   -1    0    0    0    0  0.00000000000E+00  0.00000000000E+00  0.45593999997E+02  0.45594000000E+02  0.51100000000E-03 0.  1.
         11   -1    0    0    0    0 -0.00000000000E+00 -0.00000000000E+00 -0.45593999997E+02  0.45594000000E+02  0.51100000000E-03 0. -1.
    9900012    2    1    2    0    0  0.28625832944E+02 -0.47057612539E+01  0.13233815556E+02  0.59302009740E+02  0.50000119843E+02 0.  0.
         12    1    1    2    0    0 -0.28625832944E+02  0.47057612539E+01 -0.13233815556E+02  0.31885990260E+02  0.00000000000E+00 0. -1.
         11    1    3    3    0    0  0.13526320700E+02 -0.10329308091E+02  0.49440412280E+01  0.17722852514E+02  0.51100000000E-03 0. -1.
        -11    1    3    3    0    0  0.21629781265E+02 -0.54978894202E+01  0.15147249210E+02  0.26972456035E+02  0.51100000000E-03 0.  1.
        -12    1    3    3    0    0 -0.65302690215E+01  0.11121436257E+02 -0.68574748816E+01  0.14606701191E+02  0.00000000000E+00 0.  1.
</event>
<event>
 7    1  0.1193961E-011  0.5930194E+02  0.7816164E-02  0.1266605E+00
        -11   -1    0    0    0    0  0.00000000000E+00  0.00000000000E+00  0.45593999997E+02  0.45594000000E+02  0.51100000000E-03 0.  1.
         11   -1    0    0    0    0 -0.00000000000E+00 -0.00000000000E+00 -0.45593999997E+02  0.45594000000E+02  0.51100000000E-03 0. -1.
    9900012    2    1    2    0    0  0.31393563644E+01 -0.38389497297E+01  0.31498058986E+02  0.59301940141E+02  0.49999992912E+02 0.  0.
         12    1    1    2    0    0 -0.31393563644E+01  0.38389497297E+01 -0.31498058986E+02  0.31886059859E+02  0.00000000000E+00 0. -1.
         11    1    3    3    0    0  0.12453545815E+02 -0.57568544365E+01  0.97696645187E+01  0.16842758724E+02  0.51100000000E-03 0. -1.
        -11    1    3    3    0    0  0.13158860049E+02  0.32327509975E+01  0.51245604621E+01  0.14486800785E+02  0.51100000000E-03 0.  1.
        -12    1    3    3    0    0 -0.22473049499E+02 -0.13148462907E+01  0.16603834006E+02  0.27972380632E+02  0.00000000000E+00 0.  1.
</event>
<event>
 7    1  0.1193961E-011  0.5930196E+02  0.7816164E-02  0.1266605E+00
        -11   -1    0    0    0    0  0.00000000000E+00  0.00000000000E+00  0.45593999997E+02  0.45594000000E+02  0.51100000000E-03 0.  1.
         11   -1    0    0    0    0 -0.00000000000E+00 -0.00000000000E+00 -0.45593999997E+02  0.45594000000E+02  0.51100000000E-03 0. -1.
    9900012    2    1    2    0    0  0.25102990093E+02 -0.79589893259E+01 -0.17978154428E+02  0.59301958237E+02  0.50000025913E+02 0.  0.
         12    1    1    2    0    0 -0.25102990093E+02  0.79589893259E+01  0.17978154428E+02  0.31886041763E+02  0.00000000000E+00 0. -1.
         11    1    3    3    0    0 -0.45651088531E+01 -0.25287623624E+01  0.61995132510E+01  0.81036302196E+01  0.51100000000E-03 0. -1.
        -11    1    3    3    0    0 -0.51774607774E+01 -0.61195623590E+01  0.11731455649E+01  0.81013217652E+01  0.51100000000E-03 0.  1.
         12    1    3    3    0    0  0.34845559724E+02  0.68933539548E+00 -0.25350813244E+02  0.43097006252E+02  0.00000000000E+00 0. -1.
</event>
<event>
 7    1  0.1193961E-011  0.5930196E+02  0.7816164E-02  0.1266605E+00
        -11   -1    0    0    0    0  0.00000000000E+00  0.00000000000E+00  0.45593999997E+02  0.45594000000E+02  0.51100000000E-03 0. -1.
         11   -1    0    0    0    0 -0.00000000000E+00 -0.00000000000E+00 -0.45593999997E+02  0.45594000000E+02  0.51100000000E-03 0.  1.
    9900012    2    1    2    0    0 -0.22403486698E+02  0.89560587805E+01 -0.20846875445E+02  0.59301961975E+02  0.50000032731E+02 0.  0.
         12    1    1    2    0    0  0.22403486698E+02 -0.89560587805E+01  0.20846875445E+02  0.31886038025E+02  0.00000000000E+00 0. -1.
         11    1    3    3    0    0 -0.21595085347E+02 -0.14260413700E+02 -0.15417010355E+02  0.30122936752E+02  0.51100000000E-03 0. -1.
        -11    1    3    3    0    0  0.48761531277E+01  0.22597368559E+01 -0.51789271954E+01  0.74635492320E+01  0.51100000000E-03 0.  1.
        -12    1    3    3    0    0 -0.56845544792E+01  0.20956735625E+02 -0.25093789521E+00  0.21715475991E+02  0.00000000000E+00 0.  1.
</event>
<event>
 7    1  0.1193961E-011  0.5930195E+02  0.7816164E-02  0.1266605E+00
        -11   -1    0    0    0    0  0.00000000000E+00  0.00000000000E+00  0.45593999997E+02  0.45594000000E+02  0.51100000000E-03 0.  1.
         11   -1    0    0    0    0 -0.00000000000E+00 -0.00000000000E+00 -0.45593999997E+02  0.45594000000E+02  0.51100000000E-03 0. -1.
    9900012    2    1    2    0    0 -0.13949479257E+02 -0.13938873791E+01  0.28638945121E+02  0.59301951779E+02  0.50000014136E+02 0.  0.
         12    1    1    2    0    0  0.13949479257E+02  0.13938873791E+01 -0.28638945121E+02  0.31886048221E+02  0.00000000000E+00 0. -1.
         11    1    3    3    0    0 -0.10073272060E+02  0.14453899821E+01  0.82247682524E+01  0.13084600692E+02  0.51100000000E-03 0. -1.
        -11    1    3    3    0    0 -0.16172187939E+02  0.50026147510E+01  0.25641173682E+02  0.30725162410E+02  0.51100000000E-03 0.  1.
         12    1    3    3    0    0  0.12295980742E+02 -0.78418921123E+01 -0.52269968136E+01  0.15492188677E+02  0.00000000000E+00 0. -1.
</event>
<event>
 7    1  0.1193961E-011  0.5930187E+02  0.7816164E-02  0.1266605E+00
        -11   -1    0    0    0    0  0.00000000000E+00  0.00000000000E+00  0.45593999997E+02  0.45594000000E+02  0.51100000000E-03 0.  1.
         11   -1    0    0    0    0 -0.00000000000E+00 -0.00000000000E+00 -0.45593999997E+02  0.45594000000E+02  0.51100000000E-03 0. -1.
    9900012    2    1    2    0    0 -0.22791376428E+02  0.21639446644E+02 -0.53863561899E+01  0.59301869417E+02  0.49999863928E+02 0.  0.
         12    1    1    2    0    0  0.22791376428E+02 -0.21639446644E+02  0.53863561899E+01  0.31886130583E+02  0.00000000000E+00 0. -1.
         11    1    3    3    0    0 -0.75868410911E+01 -0.25404984694E+01  0.33405809449E+01  0.86702809369E+01  0.51100000000E-03 0.  1.
        -11    1    3    3    0    0  0.68109281153E+01  0.40850212637E+01  0.11954344398E+02  0.14352090119E+02  0.51100000000E-03 0. -1.
         12    1    3    3    0    0 -0.22015463452E+02  0.20094923850E+02 -0.20681281533E+02  0.36279498362E+02  0.00000000000E+00 0. -1.
</event>
<event>
 7    1  0.1193961E-011  0.5930192E+02  0.7816164E-02  0.1266605E+00
        -11   -1    0    0    0    0  0.00000000000E+00  0.00000000000E+00  0.45593999997E+02  0.45594000000E+02  0.51100000000E-03 0. -1.
         11   -1    0    0    0    0 -0.00000000000E+00 -0.00000000000E+00 -0.45593999997E+02  0.45594000000E+02  0.51100000000E-03 0.  1.
    9900012    2    1    2    0    0 -0.24101864502E+02  0.18506681438E+02  0.96604943766E+01  0.59301917112E+02  0.49999950912E+02 0.  0.
         12    1    1    2    0    0  0.24101864502E+02 -0.18506681438E+02 -0.96604943766E+01  0.31886082888E+02  0.00000000000E+00 0. -1.
         11    1    3    3    0    0 -0.23782960171E+02  0.10362841283E+02 -0.63213200107E+01  0.26701624686E+02  0.51100000000E-03 0.  1.
        -11    1    3    3    0    0 -0.16500029963E+01  0.14914878587E+02 -0.20142914624E+00  0.15007221166E+02  0.51100000000E-03 0. -1.
         12    1    3    3    0    0  0.13310986653E+01 -0.67710384316E+01  0.16183243534E+02  0.17593071260E+02  0.00000000000E+00 0. -1.
</event>
<event>
 7    1  0.1193961E-011  0.5930193E+02  0.7816164E-02  0.1266605E+00
        -11   -1    0    0    0    0  0.00000000000E+00  0.00000000000E+00  0.45593999997E+02  0.45594000000E+02  0.51100000000E-03 0. -1.
         11   -1    0    0    0    0 -0.00000000000E+00 -0.00000000000E+00 -0.45593999997E+02  0.45594000000E+02  0.51100000000E-03 0.  1.
    9900012    2    1    2    0    0 -0.11905353848E+02  0.80865552577E+01 -0.28453321406E+02  0.59301932114E+02  0.49999978272E+02 0.  0.
         12    1    1    2    0    0  0.11905353848E+02 -0.80865552577E+01  0.28453321406E+02  0.31886067886E+02  0.00000000000E+00 0. -1.
         11    1    3    3    0    0 -0.57686438547E+01 -0.21095260373E+01 -0.39564858737E+01  0.73062393031E+01  0.51100000000E-03 0. -1.
        -11    1    3    3    0    0 -0.20069349469E+02  0.20242713004E+02 -0.13024902292E+02  0.31339979225E+02  0.51100000000E-03 0.  1.
         12    1    3    3    0    0  0.13932639475E+02 -0.10046631709E+02 -0.11471933241E+02  0.20655713585E+02  0.00000000000E+00 0. -1.
</event>
<event>
 7    1  0.1193961E-011  0.5930198E+02  0.7816164E-02  0.1266605E+00
        -11   -1    0    0    0    0  0.00000000000E+00  0.00000000000E+00  0.45593999997E+02  0.45594000000E+02  0.51100000000E-03 0. -1.
         11   -1    0    0    0    0 -0.00000000000E+00 -0.00000000000E+00 -0.45593999997E+02  0.45594000000E+02  0.51100000000E-03 0.  1.
    9900012    2    1    2    0    0 -0.98529441679E+01  0.30208063396E+02  0.26666402329E+01  0.59301975270E+02  0.50000056979E+02 0.  0.
         12    1    1    2    0    0  0.98529441679E+01 -0.30208063396E+02 -0.26666402329E+01  0.31886024730E+02  0.00000000000E+00 0. -1.
         11    1    3    3    0    0 -0.10797073749E+01  0.38275479810E+02  0.28478999074E+01  0.38396466724E+02  0.51100000000E-03 0. -1.
        -11    1    3    3    0    0 -0.15976371639E+01 -0.29075069020E+01 -0.82787400377E+01  0.89187206351E+01  0.51100000000E-03 0.  1.
        -12    1    3    3    0    0 -0.71755996291E+01 -0.51599095117E+01  0.80974803632E+01  0.11986787912E+02  0.00000000000E+00 0.  1.
</event>
<event>
 7    1  0.1193961E-011  0.5930193E+02  0.7816164E-02  0.1266605E+00
        -11   -1    0    0    0    0  0.00000000000E+00  0.00000000000E+00  0.45593999997E+02  0.45594000000E+02  0.51100000000E-03 0. -1.
         11   -1    0    0    0    0 -0.00000000000E+00 -0.00000000000E+00 -0.45593999997E+02  0.45594000000E+02  0.51100000000E-03 0.  1.
    9900012    2    1    2    0    0 -0.22560454547E+02  0.75801383273E+01  0.21220016603E+02  0.59301926064E+02  0.49999967238E+02 0.  0.
         12    1    1    2    0    0  0.22560454547E+02 -0.75801383273E+01 -0.21220016603E+02  0.31886073936E+02  0.00000000000E+00 0. -1.
         11    1    3    3    0    0 -0.17719968551E+02  0.44970173989E+01 -0.71516032442E+01  0.19630738146E+02  0.51100000000E-03 0. -1.
        -11    1    3    3    0    0 -0.12174356758E+02  0.95912456994E+01  0.89052945137E+01  0.17874876983E+02  0.51100000000E-03 0.  1.
         12    1    3    3    0    0  0.73338707617E+01 -0.65081247710E+01  0.19466325333E+02  0.21796310935E+02  0.00000000000E+00 0. -1.
</event>
<event>
 7    1  0.1193961E-011  0.5930192E+02  0.7816164E-02  0.1266605E+00
        -11   -1    0    0    0    0  0.00000000000E+00  0.00000000000E+00  0.45593999997E+02  0.45594000000E+02  0.51100000000E-03 0.  1.
         11   -1    0    0    0    0 -0.00000000000E+00 -0.00000000000E+00 -0.45593999997E+02  0.45594000000E+02  0.51100000000E-03 0. -1.
    9900012    2    1    2    0    0  0.85230922159E+01  0.78498709817E+01  0.29706206363E+02  0.59301917271E+02  0.49999951202E+02 0.  0.
         12    1    1    2    0    0 -0.85230922159E+01 -0.78498709817E+01 -0.29706206363E+02  0.31886082729E+02  0.00000000000E+00 0. -1.
         11    1    3    3    0    0  0.19611848497E+02 -0.71889113698E+01  0.10991306865E+02  0.23603259839E+02  0.51100000000E-03 0. -1.
        -11    1    3    3    0    0  0.66006164029E+01 -0.31969662768E+00  0.65400462911E+01  0.92974484986E+01  0.51100000000E-03 0.  1.
        -12    1    3    3    0    0 -0.17689372684E+02  0.15358478979E+02  0.12174853207E+02  0.26401208933E+02  0.00000000000E+00 0.  1.
</event>
<event>
 7    1  0.1193961E-011  0.5930193E+02  0.7816164E-02  0.1266605E+00
        -11   -1    0    0    0    0  0.00000000000E+00  0.00000000000E+00  0.45593999997E+02  0.45594000000E+02  0.51100000000E-03 0. -1.
         11   -1    0    0    0    0 -0.00000000000E+00 -0.00000000000E+00 -0.45593999997E+02  0.45594000000E+02  0.51100000000E-03 0.  1.
    9900012    2    1    2    0    0  0.43591112161E+01 -0.23695164087E+02 -0.20886813364E+02  0.59301927426E+02  0.49999969722E+02 0.  0.
         12    1    1    2    0    0 -0.43591112161E+01  0.23695164087E+02  0.20886813364E+02  0.31886072574E+02  0.00000000000E+00 0. -1.
         11    1    3    3    0    0  0.24056862639E+01 -0.10107713385E+02 -0.25962252427E+01  0.10709508955E+02  0.51100000000E-03 0. -1.
        -11    1    3    3    0    0  0.40521394388E+01 -0.25471743014E+02 -0.24009678570E+02  0.35237681415E+02  0.51100000000E-03 0.  1.
         12    1    3    3    0    0 -0.20987144866E+01  0.11884292313E+02  0.57190904483E+01  0.13354737056E+02  0.00000000000E+00 0. -1.
</event>
<event>
 7    1  0.1193961E-011  0.5930193E+02  0.7816164E-02  0.1266605E+00
        -11   -1    0    0    0    0  0.00000000000E+00  0.00000000000E+00  0.45593999997E+02  0.45594000000E+02  0.51100000000E-03 0.  1.
         11   -1    0    0    0    0 -0.00000000000E+00 -0.00000000000E+00 -0.45593999997E+02  0.45594000000E+02  0.51100000000E-03 0. -1.
    9900012    2    1    2    0    0  0.98687830683E+01  0.12692016775E+02  0.27536186090E+02  0.59301926026E+02  0.49999967170E+02 0.  0.
         12    1    1    2    0    0 -0.98687830683E+01 -0.12692016775E+02 -0.27536186090E+02  0.31886073974E+02  0.00000000000E+00 0. -1.
         11    1    3    3    0    0 -0.29491740343E+01 -0.42091738929E+01 -0.20597072902E+01  0.55368914318E+01  0.51100000000E-03 0. -1.
        -11    1    3    3    0    0 -0.13536374208E+02  0.11851375584E+02  0.13260114717E+02  0.22349925559E+02  0.51100000000E-03 0.  1.
         12    1    3    3    0    0  0.26354331310E+02  0.50498150843E+01  0.16335778663E+02  0.31415109036E+02  0.00000000000E+00 0. -1.
</event>
<event>
 7    1  0.1193961E-011  0.5930198E+02  0.7816164E-02  0.1266605E+00
        -11   -1    0    0    0    0  0.00000000000E+00  0.00000000000E+00  0.45593999997E+02  0.45594000000E+02  0.51100000000E-03 0. -1.
         11   -1    0    0    0    0 -0.00000000000E+00 -0.00000000000E+00 -0.45593999997E+02  0.45594000000E+02  0.51100000000E-03 0.  1.
    9900012    2    1    2    0    0  0.20129279674E+02  0.21826404887E+02 -0.11624915372E+02  0.59301976292E+02  0.50000058842E+02 0.  0.
         12    1    1    2    0    0 -0.20129279674E+02 -0.21826404887E+02  0.11624915372E+02  0.31886023708E+02  0.00000000000E+00 0. -1.
         11    1    3    3    0    0  0.15466638572E+02 -0.32015936828E+01 -0.91895179108E+01  0.18273323466E+02  0.51100000000E-03 0. -1.
        -11    1    3    3    0    0  0.14533724819E+02  0.52974337177E+00 -0.74514781941E+00  0.14562452770E+02  0.51100000000E-03 0.  1.
        -12    1    3    3    0    0 -0.98710837164E+01  0.24498255198E+02 -0.16902496419E+01  0.26466200055E+02  0.00000000000E+00 0.  1.
</event>
<event>
 7    1  0.1193961E-011  0.5930194E+02  0.7816164E-02  0.1266605E+00
        -11   -1    0    0    0    0  0.00000000000E+00  0.00000000000E+00  0.45593999997E+02  0.45594000000E+02  0.51100000000E-03 0.  1.
         11   -1    0    0    0    0 -0.00000000000E+00 -0.00000000000E+00 -0.45593999997E+02  0.45594000000E+02  0.51100000000E-03 0. -1.
    9900012    2    1    2    0    0  0.19761591404E+02  0.18823109074E+02  0.16489116544E+02  0.59301938869E+02  0.49999990593E+02 0.  0.
         12    1    1    2    0    0 -0.19761591404E+02 -0.18823109074E+02 -0.16489116544E+02  0.31886061131E+02  0.00000000000E+00 0. -1.
         11    1    3    3    0    0  0.18386906878E+02 -0.73331391411E+01  0.21519613332E+02  0.29239477294E+02  0.51100000000E-03 0. -1.
        -11    1    3    3    0    0  0.19044512078E+00  0.11352822324E+01  0.34341387745E+01  0.36219393251E+01  0.51100000000E-03 0.  1.
        -12    1    3    3    0    0  0.11842394057E+01  0.25020965983E+02 -0.84646355630E+01  0.26440522251E+02  0.00000000000E+00 0.  1.
</event>
<event>
 7    1  0.1193961E-011  0.5930194E+02  0.7816164E-02  0.1266605E+00
        -11   -1    0    0    0    0  0.00000000000E+00  0.00000000000E+00  0.45593999997E+02  0.45594000000E+02  0.51100000000E-03 0. -1.
         11   -1    0    0    0    0 -0.00000000000E+00 -0.00000000000E+00 -0.45593999997E+02  0.45594000000E+02  0.51100000000E-03 0.  1.
    9900012    2    1    2    0    0 -0.20411797892E+02  0.22643313732E+02 -0.93466556060E+01  0.59301935317E+02  0.49999984113E+02 0.  0.
         12    1    1    2    0    0  0.20411797892E+02 -0.22643313732E+02  0.93466556060E+01  0.31886064683E+02  0.00000000000E+00 0. -1.
         11    1    3    3    0    0  0.37939589123E+01 -0.41055165675E+00 -0.33091030125E+01  0.50510236487E+01  0.51100000000E-03 0. -1.
        -11    1    3    3    0    0 -0.76578807809E+01  0.20068500086E+02 -0.22226331275E+02  0.30909507210E+02  0.51100000000E-03 0.  1.
         12    1    3    3    0    0 -0.16547876024E+02  0.29853653026E+01  0.16188778681E+02  0.23341404458E+02  0.00000000000E+00 0. -1.
</event>
<event>
 7    1  0.1193961E-011  0.5930194E+02  0.7816164E-02  0.1266605E+00
        -11   -1    0    0    0    0  0.00000000000E+00  0.00000000000E+00  0.45593999997E+02  0.45594000000E+02  0.51100000000E-03 0. -1.
         11   -1    0    0    0    0 -0.00000000000E+00 -0.00000000000E+00 -0.45593999997E+02  0.45594000000E+02  0.51100000000E-03 0.  1.
    9900012    2    1    2    0    0  0.10176883528E+02  0.29837500907E+02 -0.47828385249E+01  0.59301937793E+02  0.49999988629E+02 0.  0.
         12    1    1    2    0    0 -0.10176883528E+02 -0.29837500907E+02  0.47828385249E+01  0.31886062207E+02  0.00000000000E+00 0. -1.
         11    1    3    3    0    0  0.13483572236E+01  0.19967257566E+02  0.17066063268E+02  0.26301329959E+02  0.51100000000E-03 0. -1.
        -11    1    3    3    0    0  0.36579870941E+00 -0.55307432346E+01 -0.83184423815E+00  0.56048991535E+01  0.51100000000E-03 0.  1.
        -12    1    3    3    0    0  0.84627275948E+01  0.15400986576E+02 -0.21017057554E+02  0.27395708680E+02  0.00000000000E+00 0.  1.
</event>
<event>
 7    1  0.1193961E-011  0.5930196E+02  0.7816164E-02  0.1266605E+00
        -11   -1    0    0    0    0  0.00000000000E+00  0.00000000000E+00  0.45593999997E+02  0.45594000000E+02  0.51100000000E-03 0.  1.
         11   -1    0    0    0    0 -0.00000000000E+00 -0.00000000000E+00 -0.45593999997E+02  0.45594000000E+02  0.51100000000E-03 0. -1.
    9900012    2    1    2    0    0  0.58415142270E+01  0.30120997473E+02 -0.86787989337E+01  0.59301963429E+02  0.50000035384E+02 0.  0.
         12    1    1    2    0    0 -0.58415142270E+01 -0.30120997473E+02  0.86787989337E+01  0.31886036571E+02  0.00000000000E+00 0. -1.
         11    1    3    3    0    0 -0.15045044777E+01 -0.48821055028E+01  0.65114850638E+01  0.82763473743E+01  0.51100000000E-03 0.  1.
        -11    1    3    3    0    0  0.42907949801E+01  0.21538938032E+00 -0.15518752719E+02  0.16102453241E+02  0.51100000000E-03 0. -1.
        -12    1    3    3    0    0  0.30552237246E+01  0.34787713596E+02  0.32846872196E+00  0.34923162814E+02  0.00000000000E+00 0.  1.
</event>
<event>
 7    1  0.1193961E-011  0.5930193E+02  0.7816164E-02  0.1266605E+00
        -11   -1    0    0    0    0  0.00000000000E+00  0.00000000000E+00  0.45593999997E+02  0.45594000000E+02  0.51100000000E-03 0.  1.
         11   -1    0    0    0    0 -0.00000000000E+00 -0.00000000000E+00 -0.45593999997E+02  0.45594000000E+02  0.51100000000E-03 0. -1.
    9900012    2    1    2    0    0 -0.37640687049E+01 -0.19619576006E+01  0.31602276690E+02  0.59301931211E+02  0.49999976625E+02 0.  0.
         12    1    1    2    0    0  0.37640687049E+01  0.19619576006E+01 -0.31602276690E+02  0.31886068789E+02  0.00000000000E+00 0. -1.
         11    1    3    3    0    0 -0.51425397562E+01 -0.16471224634E+01  0.53460631661E+01  0.75986261384E+01  0.51100000000E-03 0.  1.
        -11    1    3    3    0    0 -0.19964573111E+02 -0.84726209816E+01  0.12467171606E+02  0.25015991963E+02  0.51100000000E-03 0. -1.
        -12    1    3    3    0    0  0.21343044162E+02  0.81577858443E+01  0.13789041918E+02  0.26687313109E+02  0.00000000000E+00 0.  1.
</event>
<event>
 7    1  0.1193961E-011  0.5930196E+02  0.7816164E-02  0.1266605E+00
        -11   -1    0    0    0    0  0.00000000000E+00  0.00000000000E+00  0.45593999997E+02  0.45594000000E+02  0.51100000000E-03 0.  1.
         11   -1    0    0    0    0 -0.00000000000E+00 -0.00000000000E+00 -0.45593999997E+02  0.45594000000E+02  0.51100000000E-03 0. -1.
    9900012    2    1    2    0    0 -0.26243187352E+02  0.11796896645E+02 -0.13742191864E+02  0.59301960891E+02  0.50000030754E+02 0.  0.
         12    1    1    2    0    0  0.26243187352E+02 -0.11796896645E+02  0.13742191864E+02  0.31886039109E+02  0.00000000000E+00 0. -1.
         11    1    3    3    0    0 -0.42754846989E+01 -0.36425756566E+01 -0.14563076064E+02  0.15608693460E+02  0.51100000000E-03 0. -1.
        -11    1    3    3    0    0 -0.37017622841E+00 -0.10080035046E+02  0.18037017194E+01  0.10246827662E+02  0.51100000000E-03 0.  1.
        -12    1    3    3    0    0 -0.21597526424E+02  0.25519507348E+02 -0.98281751948E+00  0.33446439769E+02  0.00000000000E+00 0.  1.
</event>
<event>
 7    1  0.1537602E-011  0.5930223E+02  0.7816164E-02  0.1266604E+00
        -11   -1    0    0    0    0  0.00000000000E+00  0.00000000000E+00  0.45593999997E+02  0.45594000000E+02  0.51100000000E-03 0.  1.
         11   -1    0    0    0    0 -0.00000000000E+00 -0.00000000000E+00 -0.45593999997E+02  0.45594000000E+02  0.51100000000E-03 0. -1.
    9900012    2    1    2    0    0  0.11622396001E+02 -0.24371270624E+02  0.16960650625E+02  0.59302225896E+02  0.50000514057E+02 0.  0.
         12    1    1    2    0    0 -0.11622396001E+02  0.24371270624E+02 -0.16960650625E+02  0.31885774104E+02  0.00000000000E+00 0. -1.
         11    1    3    3    0    0  0.65918598401E+01  0.47701356614E+00 -0.58278305992E+01  0.88115701125E+01  0.51100000000E-03 0. -1.
        -11    1    3    3    0    0  0.14872225606E+02  0.20665246124E+01  0.21353428335E+01  0.15166189625E+02  0.51100000000E-03 0.  1.
        -12    1    3    3    0    0 -0.98416894453E+01 -0.26914808802E+02  0.20653138391E+02  0.35324466158E+02  0.00000000000E+00 0.  1.
</event>
<event>
 7    1  0.1193961E-011  0.5930192E+02  0.7816164E-02  0.1266605E+00
        -11   -1    0    0    0    0  0.00000000000E+00  0.00000000000E+00  0.45593999997E+02  0.45594000000E+02  0.51100000000E-03 0. -1.
         11   -1    0    0    0    0 -0.00000000000E+00 -0.00000000000E+00 -0.45593999997E+02  0.45594000000E+02  0.51100000000E-03 0.  1.
    9900012    2    1    2    0    0 -0.25774002749E+02  0.13499860206E+02 -0.13045188403E+02  0.59301915515E+02  0.49999948000E+02 0.  0.
         12    1    1    2    0    0  0.25774002749E+02 -0.13499860206E+02  0.13045188403E+02  0.31886084485E+02  0.00000000000E+00 0. -1.
         11    1    3    3    0    0 -0.23813150523E+02  0.23784408615E+02  0.30808248541E+01  0.33797273751E+02  0.51100000000E-03 0. -1.
        -11    1    3    3    0    0 -0.12913741676E+01  0.45542543875E+01 -0.54105868654E+01  0.71891119587E+01  0.51100000000E-03 0.  1.
         12    1    3    3    0    0 -0.66947805813E+00 -0.14838802796E+02 -0.10715426392E+02  0.18315529805E+02  0.00000000000E+00 0. -1.
</event>
<event>
 7    1  0.1193961E-011  0.5930195E+02  0.7816164E-02  0.1266605E+00
        -11   -1    0    0    0    0  0.00000000000E+00  0.00000000000E+00  0.45593999997E+02  0.45594000000E+02  0.51100000000E-03 0.  1.
         11   -1    0    0    0    0 -0.00000000000E+00 -0.00000000000E+00 -0.45593999997E+02  0.45594000000E+02  0.51100000000E-03 0. -1.
    9900012    2    1    2    0    0 -0.25643089632E+02  0.24553927557E+01  0.18791571262E+02  0.59301950544E+02  0.50000011884E+02 0.  0.
         12    1    1    2    0    0  0.25643089632E+02 -0.24553927557E+01 -0.18791571262E+02  0.31886049456E+02  0.00000000000E+00 0. -1.
         11    1    3    3    0    0 -0.35582837015E+01 -0.20497691102E+02  0.86199972910E+01  0.22519348947E+02  0.51100000000E-03 0.  1.
        -11    1    3    3    0    0 -0.11196768846E+02  0.10812544865E+02 -0.29610020981E+01  0.15844440436E+02  0.51100000000E-03 0. -1.
        -12    1    3    3    0    0 -0.10888037084E+02  0.12140538993E+02  0.13132576069E+02  0.20938161161E+02  0.00000000000E+00 0.  1.
</event>
<event>
 7    1  0.1193961E-011  0.5930157E+02  0.7816164E-02  0.1266606E+00
        -11   -1    0    0    0    0  0.00000000000E+00  0.00000000000E+00  0.45593999997E+02  0.45594000000E+02  0.51100000000E-03 0. -1.
         11   -1    0    0    0    0 -0.00000000000E+00 -0.00000000000E+00 -0.45593999997E+02  0.45594000000E+02  0.51100000000E-03 0.  1.
    9900012    2    1    2    0    0 -0.29491990915E+02 -0.10804236943E+02 -0.54986454687E+01  0.59301573953E+02  0.49999325069E+02 0.  0.
         12    1    1    2    0    0  0.29491990915E+02  0.10804236943E+02  0.54986454687E+01  0.31886426047E+02  0.00000000000E+00 0. -1.
         11    1    3    3    0    0  0.18260415336E+01  0.73269623300E+01 -0.51523764420E+01  0.91414324878E+01  0.51100000000E-03 0. -1.
        -11    1    3    3    0    0 -0.15861611228E+02  0.57490229116E+01  0.10323346506E+02  0.19779116727E+02  0.51100000000E-03 0.  1.
        -12    1    3    3    0    0 -0.15456421221E+02 -0.23880222184E+02 -0.10669615533E+02  0.30381024738E+02  0.00000000000E+00 0.  1.
</event>
<event>
 7    1  0.1193961E-011  0.5930195E+02  0.7816164E-02  0.1266605E+00
        -11   -1    0    0    0    0  0.00000000000E+00  0.00000000000E+00  0.45593999997E+02  0.45594000000E+02  0.51100000000E-03 0.  1.
         11   -1    0    0    0    0 -0.00000000000E+00 -0.00000000000E+00 -0.45593999997E+02  0.45594000000E+02  0.51100000000E-03 0. -1.
    9900012    2    1    2    0    0  0.26784549325E+02  0.15951682479E+02 -0.66971721276E+01  0.59301947077E+02  0.50000005562E+02 0.  0.
         12    1    1    2    0    0 -0.26784549325E+02 -0.15951682479E+02  0.66971721276E+01  0.31886052923E+02  0.00000000000E+00 0. -1.
         11    1    3    3    0    0  0.92230358538E+01  0.57232213100E+01 -0.94277149501E+01  0.14377115913E+02  0.51100000000E-03 0. -1.
        -11    1    3    3    0    0 -0.43238905496E+01  0.18522053641E+02 -0.60020235825E+01  0.19944592950E+02  0.51100000000E-03 0.  1.
        -12    1    3    3    0    0  0.21885404021E+02 -0.82935924720E+01  0.87325664050E+01  0.24980238215E+02  0.00000000000E+00 0.  1.
</event>
<event>
 7    1  0.1193961E-011  0.5930194E+02  0.7816164E-02  0.1266605E+00
        -11   -1    0    0    0    0  0.00000000000E+00  0.00000000000E+00  0.45593999997E+02  0.45594000000E+02  0.51100000000E-03 0.  1.
         11   -1    0    0    0    0 -0.00000000000E+00 -0.00000000000E+00 -0.45593999997E+02  0.45594000000E+02  0.51100000000E-03 0. -1.
    9900012    2    1    2    0    0  0.78581007932E+01  0.92534089924E+01  0.29484665641E+02  0.59301939817E+02  0.49999992321E+02 0.  0.
         12    1    1    2    0    0 -0.78581007932E+01 -0.92534089924E+01 -0.29484665641E+02  0.31886060183E+02  0.00000000000E+00 0. -1.
         11    1    3    3    0    0  0.11093749618E+02 -0.30238076443E+01 -0.36331252582E+01  0.12058784875E+02  0.51100000000E-03 0. -1.
        -11    1    3    3    0    0 -0.72782010232E+01  0.59225539424E+01  0.37413792257E+02  0.38572538245E+02  0.51100000000E-03 0.  1.
         12    1    3    3    0    0  0.40425521986E+01  0.63546626943E+01 -0.42960013585E+01  0.86706166971E+01  0.00000000000E+00 0. -1.
</event>
<event>
 7    1  0.1193961E-011  0.5930195E+02  0.7816164E-02  0.1266605E+00
        -11   -1    0    0    0    0  0.00000000000E+00  0.00000000000E+00  0.45593999997E+02  0.45594000000E+02  0.51100000000E-03 0. -1.
         11   -1    0    0    0    0 -0.00000000000E+00 -0.00000000000E+00 -0.45593999997E+02  0.45594000000E+02  0.51100000000E-03 0.  1.
    9900012    2    1    2    0    0 -0.69890310941E+01 -0.68497530770E+01 -0.30347230841E+02  0.59301951444E+02  0.50000013525E+02 0.  0.
         12    1    1    2    0    0  0.69890310941E+01  0.68497530770E+01  0.30347230841E+02  0.31886048556E+02  0.00000000000E+00 0. -1.
         11    1    3    3    0    0 -0.90616076564E+01 -0.12816602931E+02 -0.82736213722E+01  0.17743473586E+02  0.51100000000E-03 0. -1.
        -11    1    3    3    0    0 -0.15445748765E+02 -0.41235905289E+00 -0.15238265931E+02  0.21701288988E+02  0.51100000000E-03 0.  1.
         12    1    3    3    0    0  0.17518325327E+02  0.63792089069E+01 -0.68353435370E+01  0.19857188870E+02  0.00000000000E+00 0. -1.
</event>
<event>
 7    1  0.1193961E-011  0.5930192E+02  0.7816164E-02  0.1266605E+00
        -11   -1    0    0    0    0  0.00000000000E+00  0.00000000000E+00  0.45593999997E+02  0.45594000000E+02  0.51100000000E-03 0.  1.
         11   -1    0    0    0    0 -0.00000000000E+00 -0.00000000000E+00 -0.45593999997E+02  0.45594000000E+02  0.51100000000E-03 0. -1.
    9900012    2    1    2    0    0  0.22517189740E+02 -0.10303926974E+01  0.22552969678E+02  0.59301921781E+02  0.49999959427E+02 0.  0.
         12    1    1    2    0    0 -0.22517189740E+02  0.10303926974E+01 -0.22552969678E+02  0.31886078219E+02  0.00000000000E+00 0. -1.
         11    1    3    3    0    0 -0.22476888004E+01  0.60693397350E+01  0.10785950165E+02  0.12578780187E+02  0.51100000000E-03 0. -1.
        -11    1    3    3    0    0  0.44411309391E+01 -0.12945775839E+02  0.19826480179E+02  0.24091618307E+02  0.51100000000E-03 0.  1.
         12    1    3    3    0    0  0.20323747601E+02  0.58460434069E+01 -0.80594606659E+01  0.22631523287E+02  0.00000000000E+00 0. -1.
</event>
<event>
 7    1  0.1193961E-011  0.5930195E+02  0.7816164E-02  0.1266605E+00
        -11   -1    0    0    0    0  0.00000000000E+00  0.00000000000E+00  0.45593999997E+02  0.45594000000E+02  0.51100000000E-03 0. -1.
         11   -1    0    0    0    0 -0.00000000000E+00 -0.00000000000E+00 -0.45593999997E+02  0.45594000000E+02  0.51100000000E-03 0.  1.
    9900012    2    1    2    0    0 -0.13529570387E+02 -0.15736361488E+02 -0.24208219496E+02  0.59301949149E+02  0.50000009339E+02 0.  0.
         12    1    1    2    0    0  0.13529570387E+02  0.15736361488E+02  0.24208219496E+02  0.31886050851E+02  0.00000000000E+00 0. -1.
         11    1    3    3    0    0 -0.92512441757E+01  0.78490701080E+01 -0.62699438561E+01  0.13656705920E+02  0.51100000000E-03 0. -1.
        -11    1    3    3    0    0  0.76431467625E+01  0.54821903834E+01  0.12217554875E+00  0.94067545391E+01  0.51100000000E-03 0.  1.
         12    1    3    3    0    0 -0.11921472974E+02 -0.29067621979E+02 -0.18060451189E+02  0.36238488690E+02  0.00000000000E+00 0. -1.
</event>
<event>
 7    1  0.1193961E-011  0.5930199E+02  0.7816164E-02  0.1266605E+00
        -11   -1    0    0    0    0  0.00000000000E+00  0.00000000000E+00  0.45593999997E+02  0.45594000000E+02  0.51100000000E-03 0. -1.
         11   -1    0    0    0    0 -0.00000000000E+00 -0.00000000000E+00 -0.45593999997E+02  0.45594000000E+02  0.51100000000E-03 0.  1.
    9900012    2    1    2    0    0 -0.78003383573E+01  0.17486258143E+02 -0.25497115334E+02  0.59301993779E+02  0.50000090735E+02 0.  0.
         12    1    1    2    0    0  0.78003383573E+01 -0.17486258143E+02  0.25497115334E+02  0.31886006221E+02  0.00000000000E+00 0. -1.
         11    1    3    3    0    0  0.93635112850E+00  0.19191992598E+02 -0.11142456787E+01  0.19247100483E+02  0.51100000000E-03 0. -1.
        -11    1    3    3    0    0 -0.12144040782E+02  0.11939470648E+02 -0.91899057262E+01  0.19351564624E+02  0.51100000000E-03 0.  1.
         12    1    3    3    0    0  0.34073512961E+01 -0.13645205103E+02 -0.15192963929E+02  0.20703328672E+02  0.00000000000E+00 0. -1.
</event>
<event>
 7    1  0.1193961E-011  0.5930195E+02  0.7816164E-02  0.1266605E+00
        -11   -1    0    0    0    0  0.00000000000E+00  0.00000000000E+00  0.45593999997E+02  0.45594000000E+02  0.51100000000E-03 0.  1.
         11   -1    0    0    0    0 -0.00000000000E+00 -0.00000000000E+00 -0.45593999997E+02  0.45594000000E+02  0.51100000000E-03 0. -1.
    9900012    2    1    2    0    0 -0.40932436607E+01  0.28791556023E+02  0.13077142274E+02  0.59301953021E+02  0.50000016402E+02 0.  0.
         12    1    1    2    0    0  0.40932436607E+01 -0.28791556023E+02 -0.13077142274E+02  0.31886046979E+02  0.00000000000E+00 0. -1.
         11    1    3    3    0    0 -0.37030413001E+01 -0.75052137788E+00 -0.67157685692E+01  0.77056696624E+01  0.51100000000E-03 0. -1.
        -11    1    3    3    0    0 -0.21162859281E+00  0.28044913012E+02 -0.34922988613E+01  0.28262308542E+02  0.51100000000E-03 0.  1.
         12    1    3    3    0    0 -0.17857376775E+00  0.14971643882E+01  0.23285209704E+02  0.23333974817E+02  0.00000000000E+00 0. -1.
</event>
<event>
 7    1  0.1193961E-011  0.5930195E+02  0.7816164E-02  0.1266605E+00
        -11   -1    0    0    0    0  0.00000000000E+00  0.00000000000E+00  0.45593999997E+02  0.45594000000E+02  0.51100000000E-03 0. -1.
         11   -1    0    0    0    0 -0.00000000000E+00 -0.00000000000E+00 -0.45593999997E+02  0.45594000000E+02  0.51100000000E-03 0.  1.
    9900012    2    1    2    0    0 -0.10060199079E+02 -0.30180109212E+02 -0.21617767282E+01  0.59301954837E+02  0.50000019713E+02 0.  0.
         12    1    1    2    0    0  0.10060199079E+02  0.30180109212E+02  0.21617767282E+01  0.31886045163E+02  0.00000000000E+00 0. -1.
         11    1    3    3    0    0  0.10699538495E+02 -0.44467014599E+01 -0.12069776594E+02  0.16731191983E+02  0.51100000000E-03 0. -1.
        -11    1    3    3    0    0 -0.16069858804E+01 -0.13058596846E+01 -0.69470055509E+01  0.72490385239E+01  0.51100000000E-03 0.  1.
         12    1    3    3    0    0 -0.19152751694E+02 -0.24427548067E+02  0.16855005417E+02  0.35321724330E+02  0.00000000000E+00 0. -1.
</event>
<event>
 7    1  0.1193961E-011  0.5930215E+02  0.7816164E-02  0.1266604E+00
        -11   -1    0    0    0    0  0.00000000000E+00  0.00000000000E+00  0.45593999997E+02  0.45594000000E+02  0.51100000000E-03 0. -1.
         11   -1    0    0    0    0 -0.00000000000E+00 -0.00000000000E+00 -0.45593999997E+02  0.45594000000E+02  0.51100000000E-03 0.  1.
    9900012    2    1    2    0    0  0.94676534522E+01  0.28227277967E+02  0.11414546854E+02  0.59302147915E+02  0.50000371840E+02 0.  0.
         12    1    1    2    0    0 -0.94676534522E+01 -0.28227277967E+02 -0.11414546854E+02  0.31885852085E+02  0.00000000000E+00 0. -1.
         11    1    3    3    0    0  0.83453958922E+01  0.19800182024E+02 -0.48167724230E+01  0.22020311933E+02  0.51100000000E-03 0. -1.
        -11    1    3    3    0    0 -0.15357150457E+01  0.19528658521E+02  0.16865345956E+02  0.25848922972E+02  0.51100000000E-03 0.  1.
         12    1    3    3    0    0  0.26579726057E+01 -0.11101562579E+02 -0.63402667917E+00  0.11432913010E+02  0.00000000000E+00 0. -1.
</event>
