<event>
 8    1  0.7311878E-012  0.9118800E+02  0.7816164E-02  0.1184000E+00
        -11   -1    0    0    0    0  0.00000000000E+00  0.00000000000E+00  0.45593999997E+02  0.45594000000E+02  0.51100000000E-03 0. -1.
         11   -1    0    0    0    0 -0.00000000000E+00 -0.00000000000E+00 -0.45593999997E+02  0.45594000000E+02  0.51100000000E-03 0.  1.
         23    2    1    2    0    0  0.00000000000E+00  0.00000000000E+00  0.35527136788E-14  0.91188000000E+02  0.91188000000E+02 0.  0.
    9900012    2    3    3    0    0  0.24644962051E+02  0.24304970548E+02  0.21332127861E+02  0.50528862934E+02  0.30000009375E+02 0.  0.
        -12    1    3    3    0    0 -0.24644962051E+02 -0.24304970548E+02 -0.21332127861E+02  0.40659137066E+02  0.00000000000E+00 0.  1.
         11    1    4    4    0    0  0.84892156108E+01  0.12284596993E+02  0.18414767815E+02  0.23708263937E+02  0.51100000000E-03 0. -1.
        -11    1    4    4    0    0  0.63738583618E+00  0.41452894579E+01  0.77044188162E+01  0.87719869443E+01  0.51100000000E-03 0.  1.
        -12    1    4    4    0    0  0.15518360604E+02  0.78750840968E+01 -0.47870587700E+01  0.18048612053E+02  0.00000000000E+00 0.  1.
</event>
<event>
 8    1  0.7311878E-012  0.9118800E+02  0.7816164E-02  0.1184000E+00
        -11   -1    0    0    0    0  0.00000000000E+00  0.00000000000E+00  0.45593999997E+02  0.45594000000E+02  0.51100000000E-03 0. -1.
         11   -1    0    0    0    0 -0.00000000000E+00 -0.00000000000E+00 -0.45593999997E+02  0.45594000000E+02  0.51100000000E-03 0.  1.
         23    2    1    2    0    0 -0.17763568394E-14 -0.35527136788E-14  0.00000000000E+00  0.91188000000E+02  0.91188000000E+02 0.  0.
    9900012    2    3    3    0    0 -0.14974805723E+02  0.27680544892E+02  0.25743126338E+02  0.50528856802E+02  0.29999990735E+02 0.  0.
        -12    1    3    3    0    0  0.14974805723E+02 -0.27680544892E+02 -0.25743126338E+02  0.40659143198E+02  0.00000000000E+00 0.  1.
         11    1    4    4    0    0 -0.17956817229E+02  0.14917956005E+02  0.16956161510E+02  0.28853147311E+02  0.51100000000E-03 0. -1.
        -11    1    4    4    0    0 -0.35891187283E+01 -0.38227265014E+00 -0.13163003399E+01  0.38419464430E+01  0.51100000000E-03 0.  1.
         12    1    4    4    0    0  0.65711302339E+01  0.13144861538E+02  0.10103265167E+02  0.17833763048E+02  0.00000000000E+00 0. -1.
</event>
<event>
 8    1  0.7311878E-012  0.9118800E+02  0.7816164E-02  0.1184000E+00
        -11   -1    0    0    0    0  0.00000000000E+00  0.00000000000E+00  0.45593999997E+02  0.45594000000E+02  0.51100000000E-03 0. -1.
         11   -1    0    0    0    0 -0.00000000000E+00 -0.00000000000E+00 -0.45593999997E+02  0.45594000000E+02  0.51100000000E-03 0.  1.
         23    2    1    2    0    0  0.00000000000E+00  0.44408920985E-15  0.00000000000E+00  0.91188000000E+02  0.91188000000E+02 0.  0.
    9900012    2    3    3    0    0  0.21874597223E+02 -0.18425840217E+01 -0.34223841506E+02  0.50528874985E+02  0.30000046005E+02 0.  0.
         12    1    3    3    0    0 -0.21874597223E+02  0.18425840217E+01  0.34223841506E+02  0.40659125015E+02  0.00000000000E+00 0. -1.
         11    1    4    4    0    0  0.78522274470E+00 -0.93909467445E+01 -0.16505178999E+02  0.19005982994E+02  0.51100000000E-03 0.  1.
        -11    1    4    4    0    0  0.13172723773E+02 -0.20002992204E+01 -0.11719961467E+02  0.17744839972E+02  0.51100000000E-03 0. -1.
         12    1    4    4    0    0  0.79166507052E+01  0.95486619432E+01 -0.59987010400E+01  0.13778052020E+02  0.00000000000E+00 0. -1.
</event>
<event>
 8    1  0.7311878E-012  0.9118800E+02  0.7816164E-02  0.1184000E+00
        -11   -1    0    0    0    0  0.00000000000E+00  0.00000000000E+00  0.45593999997E+02  0.45594000000E+02  0.51100000000E-03 0. -1.
         11   -1    0    0    0    0 -0.00000000000E+00 -0.00000000000E+00 -0.45593999997E+02  0.45594000000E+02  0.51100000000E-03 0.  1.
         23    2    1    2    0    0 -0.17763568394E-14  0.17763568394E-14  0.00000000000E+00  0.91188000000E+02  0.91188000000E+02 0.  0.
    9900012    2    3    3    0    0  0.16366394162E+01  0.10936463394E+02 -0.39126461993E+02  0.50528870051E+02  0.30000031007E+02 0.  0.
         12    1    3    3    0    0 -0.16366394162E+01 -0.10936463394E+02  0.39126461993E+02  0.40659129949E+02  0.00000000000E+00 0. -1.
         11    1    4    4    0    0 -0.85162779318E+00  0.69321147486E+01 -0.80441008154E+01  0.10653029756E+02  0.51100000000E-03 0. -1.
        -11    1    4    4    0    0 -0.87545767734E+01 -0.36037587939E+01 -0.20776743654E+02  0.22832055734E+02  0.51100000000E-03 0.  1.
         12    1    4    4    0    0  0.11242843983E+02  0.76081074391E+01 -0.10305617523E+02  0.17043784561E+02  0.00000000000E+00 0. -1.
</event>
<event>
 8    1  0.7311878E-012  0.9118800E+02  0.7816164E-02  0.1184000E+00
        -11   -1    0    0    0    0  0.00000000000E+00  0.00000000000E+00  0.45593999997E+02  0.45594000000E+02  0.51100000000E-03 0. -1.
         11   -1    0    0    0    0 -0.00000000000E+00 -0.00000000000E+00 -0.45593999997E+02  0.45594000000E+02  0.51100000000E-03 0.  1.
         23    2    1    2    0    0  0.00000000000E+00 -0.91593399532E-15  0.00000000000E+00  0.91188000000E+02  0.91188000000E+02 0.  0.
    9900012    2    3    3    0    0  0.21112367734E+02 -0.20528629734E+00 -0.34747540199E+02  0.50528858793E+02  0.29999996787E+02 0.  0.
         12    1    3    3    0    0 -0.21112367734E+02  0.20528629734E+00  0.34747540199E+02  0.40659141207E+02  0.00000000000E+00 0. -1.
         11    1    4    4    0    0  0.10675966057E+02  0.36778160515E+01 -0.23841125770E+02  0.26379951865E+02  0.51100000000E-03 0. -1.
        -11    1    4    4    0    0  0.79851352854E+01  0.45347241471E+01 -0.12217697643E+02  0.15283921113E+02  0.51100000000E-03 0.  1.
         12    1    4    4    0    0  0.24512663910E+01 -0.84178264960E+01  0.13112832137E+01  0.88649858151E+01  0.00000000000E+00 0. -1.
</event>
<event>
 8    1  0.7311878E-012  0.9118800E+02  0.7816164E-02  0.1184000E+00
        -11   -1    0    0    0    0  0.00000000000E+00  0.00000000000E+00  0.45593999997E+02  0.45594000000E+02  0.51100000000E-03 0. -1.
         11   -1    0    0    0    0 -0.00000000000E+00 -0.00000000000E+00 -0.45593999997E+02  0.45594000000E+02  0.51100000000E-03 0.  1.
         23    2    1    2    0    0  0.00000000000E+00  0.88817841970E-15  0.00000000000E+00  0.91188000000E+02  0.91188000000E+02 0.  0.
    9900012    2    3    3    0    0  0.19479756694E+02 -0.44912220206E+01 -0.35405294743E+02  0.50528844919E+02  0.29999954615E+02 0.  0.
         12    1    3    3    0    0 -0.19479756694E+02  0.44912220206E+01  0.35405294743E+02  0.40659155081E+02  0.00000000000E+00 0. -1.
         11    1    4    4    0    0  0.12717983796E+01 -0.29970498417E+01 -0.22953531972E+01  0.39835192271E+01  0.51100000000E-03 0.  1.
        -11    1    4    4    0    0  0.23363229609E+02  0.47231607747E+01 -0.19848157825E+02  0.31017706472E+02  0.51100000000E-03 0. -1.
         12    1    4    4    0    0 -0.51552712950E+01 -0.62173329536E+01 -0.13261783721E+02  0.15527619220E+02  0.00000000000E+00 0. -1.
</event>
<event>
 8    1  0.7311878E-012  0.9118800E+02  0.7816164E-02  0.1184000E+00
        -11   -1    0    0    0    0  0.00000000000E+00  0.00000000000E+00  0.45593999997E+02  0.45594000000E+02  0.51100000000E-03 0. -1.
         11   -1    0    0    0    0 -0.00000000000E+00 -0.00000000000E+00 -0.45593999997E+02  0.45594000000E+02  0.51100000000E-03 0.  1.
         23    2    1    2    0    0  0.00000000000E+00  0.00000000000E+00  0.00000000000E+00  0.91188000000E+02  0.91188000000E+02 0.  0.
    9900012    2    3    3    0    0 -0.10277118870E+02 -0.14850117590E+02  0.36428292780E+02  0.50528859827E+02  0.29999999930E+02 0.  0.
        -12    1    3    3    0    0  0.10277118870E+02  0.14850117590E+02 -0.36428292780E+02  0.40659140173E+02  0.00000000000E+00 0.  1.
         11    1    4    4    0    0 -0.47961105034E+01 -0.20852316636E+01  0.10080132739E+02  0.11356053159E+02  0.51100000000E-03 0. -1.
        -11    1    4    4    0    0 -0.83891833369E+01 -0.35867298886E+01 -0.19082313194E+01  0.93211788624E+01  0.51100000000E-03 0.  1.
         12    1    4    4    0    0  0.29081749700E+01 -0.91781560379E+01  0.28256391361E+02  0.29851627805E+02  0.00000000000E+00 0. -1.
</event>
<event>
 8    1  0.7311878E-012  0.9118800E+02  0.7816164E-02  0.1184000E+00
        -11   -1    0    0    0    0  0.00000000000E+00  0.00000000000E+00  0.45593999997E+02  0.45594000000E+02  0.51100000000E-03 0. -1.
         11   -1    0    0    0    0 -0.00000000000E+00 -0.00000000000E+00 -0.45593999997E+02  0.45594000000E+02  0.51100000000E-03 0.  1.
         23    2    1    2    0    0 -0.35527136788E-14 -0.35527136788E-14 -0.35527136788E-14  0.91188000000E+02  0.91188000000E+02 0.  0.
    9900012    2    3    3    0    0 -0.26752417011E+02 -0.24450148408E+02 -0.18429966863E+02  0.50528865090E+02  0.30000015927E+02 0.  0.
         12    1    3    3    0    0  0.26752417011E+02  0.24450148408E+02  0.18429966863E+02  0.40659134910E+02  0.00000000000E+00 0. -1.
         11    1    4    4    0    0 -0.12442694992E+01 -0.12962580990E+02 -0.11234279194E+02  0.17198422654E+02  0.51100000000E-03 0. -1.
        -11    1    4    4    0    0 -0.92165796023E+01  0.30499500017E+01  0.15087570251E+01  0.98246568693E+01  0.51100000000E-03 0.  1.
         12    1    4    4    0    0 -0.16291567909E+02 -0.14537517420E+02 -0.87044446932E+01  0.23505785567E+02  0.00000000000E+00 0. -1.
</event>
<event>
 8    1  0.7311878E-012  0.9118800E+02  0.7816164E-02  0.1184000E+00
        -11   -1    0    0    0    0  0.00000000000E+00  0.00000000000E+00  0.45593999997E+02  0.45594000000E+02  0.51100000000E-03 0. -1.
         11   -1    0    0    0    0 -0.00000000000E+00 -0.00000000000E+00 -0.45593999997E+02  0.45594000000E+02  0.51100000000E-03 0.  1.
         23    2    1    2    0    0 -0.17763568394E-14  0.00000000000E+00 -0.35527136788E-14  0.91188000000E+02  0.91188000000E+02 0.  0.
    9900012    2    3    3    0    0  0.11841190597E+02  0.25879537187E+02 -0.29037924797E+02  0.50528864295E+02  0.30000013511E+02 0.  0.
         12    1    3    3    0    0 -0.11841190597E+02 -0.25879537187E+02  0.29037924797E+02  0.40659135705E+02  0.00000000000E+00 0. -1.
         11    1    4    4    0    0 -0.35070887587E+01  0.15105974202E+02 -0.20959141395E+02  0.26072509208E+02  0.51100000000E-03 0. -1.
        -11    1    4    4    0    0  0.23908143886E+01 -0.32029344296E+01 -0.18615767847E+01  0.44091099768E+01  0.51100000000E-03 0.  1.
        -12    1    4    4    0    0  0.12957464968E+02  0.13976497414E+02 -0.62172066174E+01  0.20047245110E+02  0.00000000000E+00 0.  1.
</event>
<event>
 8    1  0.7311878E-012  0.9118800E+02  0.7816164E-02  0.1184000E+00
        -11   -1    0    0    0    0  0.00000000000E+00  0.00000000000E+00  0.45593999997E+02  0.45594000000E+02  0.51100000000E-03 0. -1.
         11   -1    0    0    0    0 -0.00000000000E+00 -0.00000000000E+00 -0.45593999997E+02  0.45594000000E+02  0.51100000000E-03 0.  1.
         23    2    1    2    0    0 -0.22204460493E-15  0.00000000000E+00  0.00000000000E+00  0.91188000000E+02  0.91188000000E+02 0.  0.
    9900012    2    3    3    0    0 -0.11428468614E+01  0.11209547015E+02 -0.39066659867E+02  0.50528881018E+02  0.30000064342E+02 0.  0.
         12    1    3    3    0    0  0.11428468614E+01 -0.11209547015E+02  0.39066659867E+02  0.40659118982E+02  0.00000000000E+00 0. -1.
         11    1    4    4    0    0  0.37939220835E+01  0.16058278268E+02 -0.26292798172E+02  0.31041478407E+02  0.51100000000E-03 0. -1.
        -11    1    4    4    0    0 -0.18054528921E+01  0.45003161682E+01 -0.45237568334E+01  0.66315067601E+01  0.51100000000E-03 0.  1.
         12    1    4    4    0    0 -0.31313160528E+01 -0.93490474212E+01 -0.82501048614E+01  0.12855895851E+02  0.00000000000E+00 0. -1.
</event>
<event>
 8    1  0.7311878E-012  0.9118800E+02  0.7816164E-02  0.1184000E+00
        -11   -1    0    0    0    0  0.00000000000E+00  0.00000000000E+00  0.45593999997E+02  0.45594000000E+02  0.51100000000E-03 0. -1.
         11   -1    0    0    0    0 -0.00000000000E+00 -0.00000000000E+00 -0.45593999997E+02  0.45594000000E+02  0.51100000000E-03 0.  1.
         23    2    1    2    0    0  0.14210854715E-13  0.44408920985E-15  0.17763568394E-14  0.91188000000E+02  0.91188000000E+02 0.  0.
    9900012    2    3    3    0    0 -0.38963627631E+02 -0.20222773881E+01 -0.11441589166E+02  0.50528882368E+02  0.30000068446E+02 0.  0.
         12    1    3    3    0    0  0.38963627631E+02  0.20222773881E+01  0.11441589166E+02  0.40659117632E+02  0.00000000000E+00 0. -1.
         11    1    4    4    0    0 -0.44819206233E-01  0.18240731896E+01 -0.57587403307E+01  0.60408891911E+01  0.51100000000E-03 0. -1.
        -11    1    4    4    0    0 -0.40303886677E+02 -0.62442817346E+01 -0.70664391308E+01  0.41392377292E+02  0.51100000000E-03 0.  1.
         12    1    4    4    0    0  0.13850782528E+01  0.23979311569E+01  0.13835902951E+01  0.30956158845E+01  0.00000000000E+00 0. -1.
</event>
<event>
 8    1  0.7311878E-012  0.9118800E+02  0.7816164E-02  0.1184000E+00
        -11   -1    0    0    0    0  0.00000000000E+00  0.00000000000E+00  0.45593999997E+02  0.45594000000E+02  0.51100000000E-03 0. -1.
         11   -1    0    0    0    0 -0.00000000000E+00 -0.00000000000E+00 -0.45593999997E+02  0.45594000000E+02  0.51100000000E-03 0.  1.
         23    2    1    2    0    0  0.00000000000E+00 -0.17763568394E-14  0.35527136788E-14  0.91188000000E+02  0.91188000000E+02 0.  0.
    9900012    2    3    3    0    0 -0.22169607205E+02  0.12499276881E+02 -0.31708702088E+02  0.50528865795E+02  0.30000018071E+02 0.  0.
         12    1    3    3    0    0  0.22169607205E+02 -0.12499276881E+02  0.31708702088E+02  0.40659134205E+02  0.00000000000E+00 0. -1.
         11    1    4    4    0    0 -0.82046518639E+01  0.20614170337E+02 -0.13488891055E+02  0.25965563984E+02  0.51100000000E-03 0. -1.
        -11    1    4    4    0    0 -0.61082745228E+00 -0.10264563011E+01 -0.23998025552E+01  0.26806296423E+01  0.51100000000E-03 0.  1.
         12    1    4    4    0    0 -0.13354127889E+02 -0.70884371550E+01 -0.15820008478E+02  0.21882672168E+02  0.00000000000E+00 0. -1.
</event>
<event>
 8    1  0.7311878E-012  0.9118800E+02  0.7816164E-02  0.1184000E+00
        -11   -1    0    0    0    0  0.00000000000E+00  0.00000000000E+00  0.45593999997E+02  0.45594000000E+02  0.51100000000E-03 0. -1.
         11   -1    0    0    0    0 -0.00000000000E+00 -0.00000000000E+00 -0.45593999997E+02  0.45594000000E+02  0.51100000000E-03 0.  1.
         23    2    1    2    0    0 -0.71054273576E-14  0.17763568394E-14  0.00000000000E+00  0.91188000000E+02  0.91188000000E+02 0.  0.
    9900012    2    3    3    0    0  0.31409870727E+02 -0.92099725136E+01  0.24119713936E+02  0.50528878352E+02  0.30000056239E+02 0.  0.
        -12    1    3    3    0    0 -0.31409870727E+02  0.92099725136E+01 -0.24119713936E+02  0.40659121648E+02  0.00000000000E+00 0.  1.
         11    1    4    4    0    0  0.22255595851E+02 -0.28468453388E+01  0.82025601149E+01  0.23889287720E+02  0.51100000000E-03 0. -1.
        -11    1    4    4    0    0  0.53712786547E+01  0.62156188321E+01  0.65473480100E+01  0.10504871159E+02  0.51100000000E-03 0.  1.
        -12    1    4    4    0    0  0.37829962214E+01 -0.12578746007E+02  0.93698058111E+01  0.16134719472E+02  0.00000000000E+00 0.  1.
</event>
<event>
 8    1  0.7311878E-012  0.9118800E+02  0.7816164E-02  0.1184000E+00
        -11   -1    0    0    0    0  0.00000000000E+00  0.00000000000E+00  0.45593999997E+02  0.45594000000E+02  0.51100000000E-03 0. -1.
         11   -1    0    0    0    0 -0.00000000000E+00 -0.00000000000E+00 -0.45593999997E+02  0.45594000000E+02  0.51100000000E-03 0.  1.
         23    2    1    2    0    0  0.00000000000E+00  0.00000000000E+00  0.00000000000E+00  0.91188000000E+02  0.91188000000E+02 0.  0.
    9900012    2    3    3    0    0  0.21064085260E+02  0.34607270736E+02  0.34360111871E+01  0.50528867588E+02  0.30000023519E+02 0.  0.
        -12    1    3    3    0    0 -0.21064085260E+02 -0.34607270736E+02 -0.34360111871E+01  0.40659132412E+02  0.00000000000E+00 0.  1.
         11    1    4    4    0    0 -0.57942233801E+01  0.47035299466E+01  0.21779533174E+01  0.77742973606E+01  0.51100000000E-03 0. -1.
        -11    1    4    4    0    0  0.97715060342E+01  0.53679701084E+01 -0.49816093908E+01  0.12211218844E+02  0.51100000000E-03 0.  1.
         12    1    4    4    0    0  0.17086802606E+02  0.24535770681E+02  0.62396672606E+01  0.30543351384E+02  0.00000000000E+00 0. -1.
</event>
<event>
 8    1  0.7311878E-012  0.9118800E+02  0.7816164E-02  0.1184000E+00
        -11   -1    0    0    0    0  0.00000000000E+00  0.00000000000E+00  0.45593999997E+02  0.45594000000E+02  0.51100000000E-03 0. -1.
         11   -1    0    0    0    0 -0.00000000000E+00 -0.00000000000E+00 -0.45593999997E+02  0.45594000000E+02  0.51100000000E-03 0.  1.
         23    2    1    2    0    0 -0.35527136788E-14 -0.35527136788E-14  0.17763568394E-14  0.91188000000E+02  0.91188000000E+02 0.  0.
    9900012    2    3    3    0    0  0.28163686299E+02  0.25097088990E+02  0.15169348945E+02  0.50528852823E+02  0.29999978641E+02 0.  0.
        -12    1    3    3    0    0 -0.28163686299E+02 -0.25097088990E+02 -0.15169348945E+02  0.40659147177E+02  0.00000000000E+00 0.  1.
         11    1    4    4    0    0  0.12057841454E+02  0.59601456601E+01 -0.48681024354E+01  0.14304310483E+02  0.51100000000E-03 0. -1.
        -11    1    4    4    0    0 -0.35469993642E+01  0.28050279789E+01  0.19891681336E+01  0.49402607803E+01  0.51100000000E-03 0.  1.
         12    1    4    4    0    0  0.19652844209E+02  0.16331915351E+02  0.18048283247E+02  0.31284281560E+02  0.00000000000E+00 0. -1.
</event>
<event>
 8    1  0.7311878E-012  0.9118800E+02  0.7816164E-02  0.1184000E+00
        -11   -1    0    0    0    0  0.00000000000E+00  0.00000000000E+00  0.45593999997E+02  0.45594000000E+02  0.51100000000E-03 0. -1.
         11   -1    0    0    0    0 -0.00000000000E+00 -0.00000000000E+00 -0.45593999997E+02  0.45594000000E+02  0.51100000000E-03 0.  1.
         23    2    1    2    0    0  0.35527136788E-14 -0.17763568394E-14  0.71054273576E-14  0.91188000000E+02  0.91188000000E+02 0.  0.
    9900012    2    3    3    0    0 -0.23211457214E+02 -0.82708011208E+01  0.32341740404E+02  0.50528855032E+02  0.29999985355E+02 0.  0.
        -12    1    3    3    0    0  0.23211457214E+02  0.82708011208E+01 -0.32341740404E+02  0.40659144968E+02  0.00000000000E+00 0.  1.
         11    1    4    4    0    0 -0.79234726258E+00 -0.78134487647E+00 -0.23633037474E+01  0.26121866059E+01  0.51100000000E-03 0.  1.
        -11    1    4    4    0    0 -0.11723888918E+02 -0.85376014746E+01  0.34211740611E+02  0.37158894039E+02  0.51100000000E-03 0. -1.
         12    1    4    4    0    0 -0.10695221033E+02  0.10481452302E+01  0.49330354014E+00  0.10757774387E+02  0.00000000000E+00 0. -1.
</event>
<event>
 8    1  0.8118450E-012  0.9118800E+02  0.7816164E-02  0.1184000E+00
        -11   -1    0    0    0    0  0.00000000000E+00  0.00000000000E+00  0.45593999997E+02  0.45594000000E+02  0.51100000000E-03 0. -1.
         11   -1    0    0    0    0 -0.00000000000E+00 -0.00000000000E+00 -0.45593999997E+02  0.45594000000E+02  0.51100000000E-03 0.  1.
         23    2    1    2    0    0  0.00000000000E+00  0.00000000000E+00  0.00000000000E+00  0.91188000000E+02  0.91188000000E+02 0.  0.
    9900012    2    3    3    0    0 -0.19947485291E+02  0.80931099644E+01 -0.34492935867E+02  0.50528890036E+02  0.30000091753E+02 0.  0.
         12    1    3    3    0    0  0.19947485291E+02 -0.80931099644E+01  0.34492935867E+02  0.40659109964E+02  0.00000000000E+00 0. -1.
         11    1    4    4    0    0 -0.10683918245E+02  0.62995878930E+01  0.57178879297E+00  0.12416032352E+02  0.51100000000E-03 0. -1.
        -11    1    4    4    0    0 -0.97751370229E+01 -0.14973276432E+01 -0.16380638831E+02  0.19134278734E+02  0.51100000000E-03 0.  1.
        -12    1    4    4    0    0  0.51156997708E+00  0.32908497145E+01 -0.18684085829E+02  0.18978578950E+02  0.00000000000E+00 0.  1.
</event>
<event>
 8    1  0.7311878E-012  0.9118800E+02  0.7816164E-02  0.1184000E+00
        -11   -1    0    0    0    0  0.00000000000E+00  0.00000000000E+00  0.45593999997E+02  0.45594000000E+02  0.51100000000E-03 0. -1.
         11   -1    0    0    0    0 -0.00000000000E+00 -0.00000000000E+00 -0.45593999997E+02  0.45594000000E+02  0.51100000000E-03 0.  1.
         23    2    1    2    0    0  0.00000000000E+00  0.35527136788E-14  0.35527136788E-14  0.91188000000E+02  0.91188000000E+02 0.  0.
    9900012    2    3    3    0    0 -0.16198635438E+02 -0.21377877103E+02 -0.30557328600E+02  0.50528932737E+02  0.30000221548E+02 0.  0.
         12    1    3    3    0    0  0.16198635438E+02  0.21377877103E+02  0.30557328600E+02  0.40659067263E+02  0.00000000000E+00 0. -1.
         11    1    4    4    0    0  0.27035262753E+01  0.25076981759E+01  0.24069018037E-01  0.36875715643E+01  0.51100000000E-03 0. -1.
        -11    1    4    4    0    0  0.23309972977E+01 -0.35716696328E+01  0.22052047587E+00  0.42707144495E+01  0.51100000000E-03 0.  1.
        -12    1    4    4    0    0 -0.21233159011E+02 -0.20313905646E+02 -0.30801918094E+02  0.42570646724E+02  0.00000000000E+00 0.  1.
</event>
<event>
 8    1  0.7311878E-012  0.9118800E+02  0.7816164E-02  0.1184000E+00
        -11   -1    0    0    0    0  0.00000000000E+00  0.00000000000E+00  0.45593999997E+02  0.45594000000E+02  0.51100000000E-03 0.  1.
         11   -1    0    0    0    0 -0.00000000000E+00 -0.00000000000E+00 -0.45593999997E+02  0.45594000000E+02  0.51100000000E-03 0. -1.
         23    2    1    2    0    0 -0.35527136788E-14  0.00000000000E+00  0.00000000000E+00  0.91188000000E+02  0.91188000000E+02 0.  0.
    9900012    2    3    3    0    0  0.23765526094E+02  0.21039108295E+02 -0.25411041340E+02  0.50528864121E+02  0.30000012983E+02 0.  0.
         12    1    3    3    0    0 -0.23765526094E+02 -0.21039108295E+02  0.25411041340E+02  0.40659135879E+02  0.00000000000E+00 0. -1.
         11    1    4    4    0    0  0.10791401568E+02  0.14845718284E+02 -0.62829616751E+01  0.19399105826E+02  0.51100000000E-03 0. -1.
        -11    1    4    4    0    0  0.16770403869E+02  0.96888427470E+01 -0.15730028874E+02  0.24951030607E+02  0.51100000000E-03 0.  1.
         12    1    4    4    0    0 -0.37962793429E+01 -0.34954527354E+01 -0.33980507912E+01  0.61787276889E+01  0.00000000000E+00 0. -1.
</event>
<event>
 8    1  0.7311878E-012  0.9118800E+02  0.7816164E-02  0.1184000E+00
        -11   -1    0    0    0    0  0.00000000000E+00  0.00000000000E+00  0.45593999997E+02  0.45594000000E+02  0.51100000000E-03 0. -1.
         11   -1    0    0    0    0 -0.00000000000E+00 -0.00000000000E+00 -0.45593999997E+02  0.45594000000E+02  0.51100000000E-03 0.  1.
         23    2    1    2    0    0  0.35527136788E-14  0.00000000000E+00  0.00000000000E+00  0.91188000000E+02  0.91188000000E+02 0.  0.
    9900012    2    3    3    0    0 -0.29107695875E+02 -0.16959005474E+02 -0.22766211748E+02  0.50528853142E+02  0.29999979612E+02 0.  0.
         12    1    3    3    0    0  0.29107695875E+02  0.16959005474E+02  0.22766211748E+02  0.40659146858E+02  0.00000000000E+00 0. -1.
         11    1    4    4    0    0 -0.76462183273E+01 -0.94724269401E+01  0.93028197601E+00  0.12208888224E+02  0.51100000000E-03 0.  1.
        -11    1    4    4    0    0 -0.21505756136E+01 -0.10359756392E+02 -0.88168050546E+01  0.13772638803E+02  0.51100000000E-03 0. -1.
         12    1    4    4    0    0 -0.19310901934E+02  0.28731778581E+01 -0.14879688670E+02  0.24547326115E+02  0.00000000000E+00 0. -1.
</event>
<event>
 8    1  0.7311878E-012  0.9118800E+02  0.7816164E-02  0.1184000E+00
        -11   -1    0    0    0    0  0.00000000000E+00  0.00000000000E+00  0.45593999997E+02  0.45594000000E+02  0.51100000000E-03 0.  1.
         11   -1    0    0    0    0 -0.00000000000E+00 -0.00000000000E+00 -0.45593999997E+02  0.45594000000E+02  0.51100000000E-03 0. -1.
         23    2    1    2    0    0 -0.71054273576E-14  0.17763568394E-14 -0.13877787808E-15  0.91188000000E+02  0.91188000000E+02 0.  0.
    9900012    2    3    3    0    0  0.39251816030E+02 -0.10602338640E+02  0.22780627073E+00  0.50528849222E+02  0.29999967695E+02 0.  0.
         12    1    3    3    0    0 -0.39251816030E+02  0.10602338640E+02 -0.22780627073E+00  0.40659150778E+02  0.00000000000E+00 0. -1.
         11    1    4    4    0    0  0.10249246368E+02  0.30994055761E+01 -0.47801588330E+01  0.11726179461E+02  0.51100000000E-03 0. -1.
        -11    1    4    4    0    0  0.21182424679E+02 -0.84492392895E+01 -0.67058106616E+01  0.23770836265E+02  0.51100000000E-03 0.  1.
        -12    1    4    4    0    0  0.78201449840E+01 -0.52525049264E+01  0.11713775765E+02  0.15031833496E+02  0.00000000000E+00 0.  1.
</event>
<event>
 8    1  0.7311878E-012  0.9118800E+02  0.7816164E-02  0.1184000E+00
        -11   -1    0    0    0    0  0.00000000000E+00  0.00000000000E+00  0.45593999997E+02  0.45594000000E+02  0.51100000000E-03 0. -1.
         11   -1    0    0    0    0 -0.00000000000E+00 -0.00000000000E+00 -0.45593999997E+02  0.45594000000E+02  0.51100000000E-03 0.  1.
         23    2    1    2    0    0  0.10658141036E-13  0.71054273576E-14  0.00000000000E+00  0.91188000000E+02  0.91188000000E+02 0.  0.
    9900012    2    3    3    0    0 -0.23626145112E+02 -0.22525084035E+02  0.24240301215E+02  0.50528851624E+02  0.29999974997E+02 0.  0.
        -12    1    3    3    0    0  0.23626145112E+02  0.22525084035E+02 -0.24240301215E+02  0.40659148376E+02  0.00000000000E+00 0.  1.
         11    1    4    4    0    0 -0.22448693845E+01  0.36982503682E+01  0.60444157126E+01  0.74331323079E+01  0.51100000000E-03 0.  1.
        -11    1    4    4    0    0 -0.23694043681E+02 -0.23032268814E+02  0.20143673945E+02  0.38699621612E+02  0.51100000000E-03 0. -1.
         12    1    4    4    0    0  0.23127679537E+01 -0.31910655899E+01 -0.19477884428E+01  0.43960977042E+01  0.00000000000E+00 0. -1.
</event>
<event>
 8    1  0.7311878E-012  0.9118800E+02  0.7816164E-02  0.1184000E+00
        -11   -1    0    0    0    0  0.00000000000E+00  0.00000000000E+00  0.45593999997E+02  0.45594000000E+02  0.51100000000E-03 0. -1.
         11   -1    0    0    0    0 -0.00000000000E+00 -0.00000000000E+00 -0.45593999997E+02  0.45594000000E+02  0.51100000000E-03 0.  1.
         23    2    1    2    0    0  0.00000000000E+00 -0.35527136788E-14  0.00000000000E+00  0.91188000000E+02  0.91188000000E+02 0.  0.
    9900012    2    3    3    0    0  0.22239991597E+01  0.23122483596E+02  0.33370200553E+02  0.50528859516E+02  0.29999998985E+02 0.  0.
        -12    1    3    3    0    0 -0.22239991597E+01 -0.23122483596E+02 -0.33370200553E+02  0.40659140484E+02  0.00000000000E+00 0.  1.
         11    1    4    4    0    0  0.85637853474E+01  0.16215045663E+02  0.11917696752E+02  0.21870016495E+02  0.51100000000E-03 0. -1.
        -11    1    4    4    0    0  0.45276696828E+01 -0.14067683346E+01  0.27358167606E+01  0.54738910760E+01  0.51100000000E-03 0.  1.
        -12    1    4    4    0    0 -0.10867455870E+02  0.83142062679E+01  0.18716687040E+02  0.23184951946E+02  0.00000000000E+00 0.  1.
</event>
<event>
 8    1  0.7311878E-012  0.9118800E+02  0.7816164E-02  0.1184000E+00
        -11   -1    0    0    0    0  0.00000000000E+00  0.00000000000E+00  0.45593999997E+02  0.45594000000E+02  0.51100000000E-03 0. -1.
         11   -1    0    0    0    0 -0.00000000000E+00 -0.00000000000E+00 -0.45593999997E+02  0.45594000000E+02  0.51100000000E-03 0.  1.
         23    2    1    2    0    0  0.00000000000E+00  0.00000000000E+00  0.00000000000E+00  0.91188000000E+02  0.91188000000E+02 0.  0.
    9900012    2    3    3    0    0 -0.27228899215E+02 -0.10483073958E+02 -0.28317098201E+02  0.50528857822E+02  0.29999993837E+02 0.  0.
         12    1    3    3    0    0  0.27228899215E+02  0.10483073958E+02  0.28317098201E+02  0.40659142178E+02  0.00000000000E+00 0. -1.
         11    1    4    4    0    0  0.18883475032E+01  0.30348071327E+01  0.40304879055E+00  0.35969930795E+01  0.51100000000E-03 0. -1.
        -11    1    4    4    0    0 -0.74425661003E+01  0.13041578454E+01 -0.16128786199E+02  0.17810961859E+02  0.51100000000E-03 0.  1.
        -12    1    4    4    0    0 -0.21674680618E+02 -0.14822038937E+02 -0.12591360793E+02  0.29120902883E+02  0.00000000000E+00 0.  1.
</event>
<event>
 8    1  0.7311878E-012  0.9118800E+02  0.7816164E-02  0.1184000E+00
        -11   -1    0    0    0    0  0.00000000000E+00  0.00000000000E+00  0.45593999997E+02  0.45594000000E+02  0.51100000000E-03 0. -1.
         11   -1    0    0    0    0 -0.00000000000E+00 -0.00000000000E+00 -0.45593999997E+02  0.45594000000E+02  0.51100000000E-03 0.  1.
         23    2    1    2    0    0 -0.88817841970E-15 -0.17763568394E-14  0.00000000000E+00  0.91188000000E+02  0.91188000000E+02 0.  0.
    9900012    2    3    3    0    0 -0.43252669388E+01 -0.15057261609E+02 -0.37519816598E+02  0.50528859591E+02  0.29999999212E+02 0.  0.
         12    1    3    3    0    0  0.43252669388E+01  0.15057261609E+02  0.37519816598E+02  0.40659140409E+02  0.00000000000E+00 0. -1.
         11    1    4    4    0    0  0.32586833415E+01 -0.29268606660E+01 -0.34591536786E+01  0.55813327182E+01  0.51100000000E-03 0. -1.
        -11    1    4    4    0    0 -0.21902465336E+01 -0.11648063753E+02 -0.36953761502E+02  0.38807925202E+02  0.51100000000E-03 0.  1.
        -12    1    4    4    0    0 -0.53937037467E+01 -0.48233719078E+00  0.28930985823E+01  0.61396016711E+01  0.00000000000E+00 0.  1.
</event>
<event>
 8    1  0.7311878E-012  0.9118800E+02  0.7816164E-02  0.1184000E+00
        -11   -1    0    0    0    0  0.00000000000E+00  0.00000000000E+00  0.45593999997E+02  0.45594000000E+02  0.51100000000E-03 0. -1.
         11   -1    0    0    0    0 -0.00000000000E+00 -0.00000000000E+00 -0.45593999997E+02  0.45594000000E+02  0.51100000000E-03 0.  1.
         23    2    1    2    0    0  0.88817841970E-15  0.44408920985E-15  0.71054273576E-14  0.91188000000E+02  0.91188000000E+02 0.  0.
    9900012    2    3    3    0    0  0.79127710916E+01  0.26511274021E+01  0.39793533445E+02  0.50528859246E+02  0.29999998163E+02 0.  0.
        -12    1    3    3    0    0 -0.79127710916E+01 -0.26511274021E+01 -0.39793533445E+02  0.40659140754E+02  0.00000000000E+00 0.  1.
         11    1    4    4    0    0  0.34594250443E+01  0.64294695080E+00  0.34218898582E+02  0.34399331721E+02  0.51100000000E-03 0. -1.
        -11    1    4    4    0    0  0.53299084083E+00  0.72555537626E+01  0.61878813511E+01  0.95507599444E+01  0.51100000000E-03 0.  1.
         12    1    4    4    0    0  0.39203552065E+01 -0.52473733114E+01 -0.61324648870E+00  0.65787675798E+01  0.00000000000E+00 0. -1.
</event>
<event>
 8    1  0.7311878E-012  0.9118800E+02  0.7816164E-02  0.1184000E+00
        -11   -1    0    0    0    0  0.00000000000E+00  0.00000000000E+00  0.45593999997E+02  0.45594000000E+02  0.51100000000E-03 0.  1.
         11   -1    0    0    0    0 -0.00000000000E+00 -0.00000000000E+00 -0.45593999997E+02  0.45594000000E+02  0.51100000000E-03 0. -1.
         23    2    1    2    0    0  0.71054273576E-14  0.00000000000E+00 -0.88817841970E-15  0.91188000000E+02  0.91188000000E+02 0.  0.
    9900012    2    3    3    0    0 -0.34799839260E+02  0.19676531984E+02  0.74142081908E+01  0.50528865644E+02  0.30000017612E+02 0.  0.
        -12    1    3    3    0    0  0.34799839260E+02 -0.19676531984E+02 -0.74142081908E+01  0.40659134356E+02  0.00000000000E+00 0.  1.
         11    1    4    4    0    0 -0.49523041955E+01  0.93223239851E+01 -0.59932958259E+01  0.12138807044E+02  0.51100000000E-03 0. -1.
        -11    1    4    4    0    0 -0.18905515606E+02  0.13993411068E+02  0.48132146229E+01  0.24008354981E+02  0.51100000000E-03 0.  1.
        -12    1    4    4    0    0 -0.10942019459E+02 -0.36392030688E+01  0.85942893937E+01  0.14381703620E+02  0.00000000000E+00 0.  1.
</event>
<event>
 8    1  0.7311878E-012  0.9118800E+02  0.7816164E-02  0.1184000E+00
        -11   -1    0    0    0    0  0.00000000000E+00  0.00000000000E+00  0.45593999997E+02  0.45594000000E+02  0.51100000000E-03 0. -1.
         11   -1    0    0    0    0 -0.00000000000E+00 -0.00000000000E+00 -0.45593999997E+02  0.45594000000E+02  0.51100000000E-03 0.  1.
         23    2    1    2    0    0  0.00000000000E+00  0.00000000000E+00  0.00000000000E+00  0.91188000000E+02  0.91188000000E+02 0.  0.
    9900012    2    3    3    0    0 -0.34080236062E+02  0.10189138444E+02 -0.19694754859E+02  0.50528875548E+02  0.30000047715E+02 0.  0.
         12    1    3    3    0    0  0.34080236062E+02 -0.10189138444E+02  0.19694754859E+02  0.40659124452E+02  0.00000000000E+00 0. -1.
         11    1    4    4    0    0 -0.25701750317E+01  0.19957709065E+01  0.15501698349E+01  0.36044317143E+01  0.51100000000E-03 0. -1.
        -11    1    4    4    0    0 -0.66034496430E+01  0.12785417520E+02 -0.86412541684E+00  0.14415934286E+02  0.51100000000E-03 0.  1.
        -12    1    4    4    0    0 -0.24906611387E+02 -0.45920499826E+01 -0.20380799278E+02  0.32508509548E+02  0.00000000000E+00 0.  1.
</event>
<event>
 8    1  0.7311878E-012  0.9118800E+02  0.7816164E-02  0.1184000E+00
        -11   -1    0    0    0    0  0.00000000000E+00  0.00000000000E+00  0.45593999997E+02  0.45594000000E+02  0.51100000000E-03 0. -1.
         11   -1    0    0    0    0 -0.00000000000E+00 -0.00000000000E+00 -0.45593999997E+02  0.45594000000E+02  0.51100000000E-03 0.  1.
         23    2    1    2    0    0  0.35527136788E-14  0.17763568394E-14  0.00000000000E+00  0.91188000000E+02  0.91188000000E+02 0.  0.
    9900012    2    3    3    0    0 -0.19653371801E+02 -0.15152789898E+02 -0.32207204068E+02  0.50528855165E+02  0.29999985758E+02 0.  0.
         12    1    3    3    0    0  0.19653371801E+02  0.15152789898E+02  0.32207204068E+02  0.40659144835E+02  0.00000000000E+00 0. -1.
         11    1    4    4    0    0 -0.63093800929E+01  0.34585963427E+01 -0.77684593457E+01  0.10588631955E+02  0.51100000000E-03 0. -1.
        -11    1    4    4    0    0 -0.17890200646E+02 -0.18757245052E+02 -0.16309712101E+02  0.30625156819E+02  0.51100000000E-03 0.  1.
         12    1    4    4    0    0  0.45462089382E+01  0.14585881057E+00 -0.81290326213E+01  0.93150663906E+01  0.00000000000E+00 0. -1.
</event>
<event>
 8    1  0.7311878E-012  0.9118800E+02  0.7816164E-02  0.1184000E+00
        -11   -1    0    0    0    0  0.00000000000E+00  0.00000000000E+00  0.45593999997E+02  0.45594000000E+02  0.51100000000E-03 0. -1.
         11   -1    0    0    0    0 -0.00000000000E+00 -0.00000000000E+00 -0.45593999997E+02  0.45594000000E+02  0.51100000000E-03 0.  1.
         23    2    1    2    0    0  0.00000000000E+00 -0.35527136788E-14  0.00000000000E+00  0.91188000000E+02  0.91188000000E+02 0.  0.
    9900012    2    3    3    0    0  0.22557710572E+02 -0.23290197717E+02  0.24533263136E+02  0.50528872906E+02  0.30000039685E+02 0.  0.
        -12    1    3    3    0    0 -0.22557710572E+02  0.23290197717E+02 -0.24533263136E+02  0.40659127094E+02  0.00000000000E+00 0.  1.
         11    1    4    4    0    0  0.81858151738E+01 -0.94429009579E+01  0.61642562557E+01  0.13934633257E+02  0.51100000000E-03 0. -1.
        -11    1    4    4    0    0  0.24592010111E+01 -0.99101840235E+01 -0.39843255653E+01  0.10960577880E+02  0.51100000000E-03 0.  1.
        -12    1    4    4    0    0  0.11912694387E+02 -0.39371127359E+01  0.22353332446E+02  0.25633661769E+02  0.00000000000E+00 0.  1.
</event>
<event>
 8    1  0.7311878E-012  0.9118800E+02  0.7816164E-02  0.1184000E+00
        -11   -1    0    0    0    0  0.00000000000E+00  0.00000000000E+00  0.45593999997E+02  0.45594000000E+02  0.51100000000E-03 0.  1.
         11   -1    0    0    0    0 -0.00000000000E+00 -0.00000000000E+00 -0.45593999997E+02  0.45594000000E+02  0.51100000000E-03 0. -1.
         23    2    1    2    0    0  0.00000000000E+00 -0.17763568394E-14 -0.17763568394E-14  0.91188000000E+02  0.91188000000E+02 0.  0.
    9900012    2    3    3    0    0  0.38232549438E+02 -0.13208045934E+02  0.41213371406E+01  0.50528859161E+02  0.29999997905E+02 0.  0.
        -12    1    3    3    0    0 -0.38232549438E+02  0.13208045934E+02 -0.41213371406E+01  0.40659140839E+02  0.00000000000E+00 0.  1.
         11    1    4    4    0    0  0.15758979933E+02 -0.65732912494E+00  0.88280710807E+01  0.18075186565E+02  0.51100000000E-03 0.  1.
        -11    1    4    4    0    0  0.19810631982E+02 -0.60748215568E+00 -0.38231376267E+01  0.20185305439E+02  0.51100000000E-03 0. -1.
        -12    1    4    4    0    0  0.26629375238E+01 -0.11943234654E+02 -0.88359631341E+00  0.12268367157E+02  0.00000000000E+00 0.  1.
</event>
<event>
 8    1  0.7311878E-012  0.9118800E+02  0.7816164E-02  0.1184000E+00
        -11   -1    0    0    0    0  0.00000000000E+00  0.00000000000E+00  0.45593999997E+02  0.45594000000E+02  0.51100000000E-03 0.  1.
         11   -1    0    0    0    0 -0.00000000000E+00 -0.00000000000E+00 -0.45593999997E+02  0.45594000000E+02  0.51100000000E-03 0. -1.
         23    2    1    2    0    0 -0.88817841970E-15  0.71054273576E-14  0.00000000000E+00  0.91188000000E+02  0.91188000000E+02 0.  0.
    9900012    2    3    3    0    0 -0.56312312957E+01  0.31950100379E+02 -0.24508080164E+02  0.50528859903E+02  0.30000000160E+02 0.  0.
         12    1    3    3    0    0  0.56312312957E+01 -0.31950100379E+02  0.24508080164E+02  0.40659140097E+02  0.00000000000E+00 0. -1.
         11    1    4    4    0    0 -0.32894962037E+01  0.11925892954E+01 -0.11819186291E+01  0.36932352225E+01  0.51100000000E-03 0. -1.
        -11    1    4    4    0    0 -0.20404865615E+01  0.28706111590E+02 -0.28962942922E+02  0.40829603121E+02  0.51100000000E-03 0.  1.
         12    1    4    4    0    0 -0.30124853053E+00  0.20513994930E+01  0.56367813873E+01  0.60060215588E+01  0.00000000000E+00 0. -1.
</event>
<event>
 8    1  0.7311878E-012  0.9118800E+02  0.7816164E-02  0.1184000E+00
        -11   -1    0    0    0    0  0.00000000000E+00  0.00000000000E+00  0.45593999997E+02  0.45594000000E+02  0.51100000000E-03 0. -1.
         11   -1    0    0    0    0 -0.00000000000E+00 -0.00000000000E+00 -0.45593999997E+02  0.45594000000E+02  0.51100000000E-03 0.  1.
         23    2    1    2    0    0  0.71054273576E-14  0.00000000000E+00 -0.22204460493E-15  0.91188000000E+02  0.91188000000E+02 0.  0.
    9900012    2    3    3    0    0  0.40105779086E+02  0.65593342910E+01 -0.12912139007E+01  0.50528860612E+02  0.30000002316E+02 0.  0.
        -12    1    3    3    0    0 -0.40105779086E+02 -0.65593342910E+01  0.12912139007E+01  0.40659139388E+02  0.00000000000E+00 0.  1.
         11    1    4    4    0    0  0.18502757735E+02  0.79164552476E+01 -0.15311685756E+01  0.20183329383E+02  0.51100000000E-03 0. -1.
        -11    1    4    4    0    0 -0.28413795861E+01 -0.47496288791E+01 -0.10490532466E+01  0.56331985068E+01  0.51100000000E-03 0.  1.
         12    1    4    4    0    0  0.24444400937E+02  0.33925079226E+01  0.12890079215E+01  0.24712332722E+02  0.00000000000E+00 0. -1.
</event>
<event>
 8    1  0.7311878E-012  0.9118800E+02  0.7816164E-02  0.1184000E+00
        -11   -1    0    0    0    0  0.00000000000E+00  0.00000000000E+00  0.45593999997E+02  0.45594000000E+02  0.51100000000E-03 0. -1.
         11   -1    0    0    0    0 -0.00000000000E+00 -0.00000000000E+00 -0.45593999997E+02  0.45594000000E+02  0.51100000000E-03 0.  1.
         23    2    1    2    0    0  0.00000000000E+00  0.17763568394E-14  0.00000000000E+00  0.91188000000E+02  0.91188000000E+02 0.  0.
    9900012    2    3    3    0    0  0.53925530827E+01 -0.12788972271E+02 -0.38216859115E+02  0.50528858825E+02  0.29999996885E+02 0.  0.
         12    1    3    3    0    0 -0.53925530827E+01  0.12788972271E+02  0.38216859115E+02  0.40659141175E+02  0.00000000000E+00 0. -1.
         11    1    4    4    0    0 -0.20853944474E+00  0.68998979693E+01 -0.98991886164E+01  0.12068389131E+02  0.51100000000E-03 0. -1.
        -11    1    4    4    0    0 -0.51183345476E+01 -0.97074597128E+01 -0.15533772285E+02  0.19019206195E+02  0.51100000000E-03 0.  1.
        -12    1    4    4    0    0  0.10719427075E+02 -0.99814105272E+01 -0.12783898213E+02  0.19441263499E+02  0.00000000000E+00 0.  1.
</event>
<event>
 8    1  0.7311878E-012  0.9118800E+02  0.7816164E-02  0.1184000E+00
        -11   -1    0    0    0    0  0.00000000000E+00  0.00000000000E+00  0.45593999997E+02  0.45594000000E+02  0.51100000000E-03 0. -1.
         11   -1    0    0    0    0 -0.00000000000E+00 -0.00000000000E+00 -0.45593999997E+02  0.45594000000E+02  0.51100000000E-03 0.  1.
         23    2    1    2    0    0  0.00000000000E+00  0.00000000000E+00  0.00000000000E+00  0.91188000000E+02  0.91188000000E+02 0.  0.
    9900012    2    3    3    0    0  0.33148320739E+02 -0.15371156309E+02 -0.17834861984E+02  0.50528856919E+02  0.29999991091E+02 0.  0.
         12    1    3    3    0    0 -0.33148320739E+02  0.15371156309E+02  0.17834861984E+02  0.40659143081E+02  0.00000000000E+00 0. -1.
         11    1    4    4    0    0 -0.21615973027E+01 -0.55520965683E+01 -0.11440162902E+02  0.12898666857E+02  0.51100000000E-03 0. -1.
        -11    1    4    4    0    0  0.58382179210E+01 -0.37236981243E+01 -0.34835944782E+00  0.69334025399E+01  0.51100000000E-03 0.  1.
         12    1    4    4    0    0  0.29471700120E+02 -0.60953616160E+01 -0.60463396350E+01  0.30696787523E+02  0.00000000000E+00 0. -1.
</event>
<event>
 8    1  0.7311878E-012  0.9118800E+02  0.7816164E-02  0.1184000E+00
        -11   -1    0    0    0    0  0.00000000000E+00  0.00000000000E+00  0.45593999997E+02  0.45594000000E+02  0.51100000000E-03 0. -1.
         11   -1    0    0    0    0 -0.00000000000E+00 -0.00000000000E+00 -0.45593999997E+02  0.45594000000E+02  0.51100000000E-03 0.  1.
         23    2    1    2    0    0  0.00000000000E+00 -0.17763568394E-14  0.00000000000E+00  0.91188000000E+02  0.91188000000E+02 0.  0.
    9900012    2    3    3    0    0  0.16535854370E+02 -0.13612278769E+02 -0.34560666220E+02  0.50528828063E+02  0.29999903380E+02 0.  0.
         12    1    3    3    0    0 -0.16535854370E+02  0.13612278769E+02  0.34560666220E+02  0.40659171937E+02  0.00000000000E+00 0. -1.
         11    1    4    4    0    0 -0.40857282103E+01 -0.55049458846E+01  0.11093710593E+01  0.69446604387E+01  0.51100000000E-03 0. -1.
        -11    1    4    4    0    0  0.11055362338E+02 -0.78132527450E+01 -0.12145999065E+02  0.18187722464E+02  0.51100000000E-03 0.  1.
        -12    1    4    4    0    0  0.95662202423E+01 -0.29408013926E+00 -0.23524038214E+02  0.25396445160E+02  0.00000000000E+00 0.  1.
</event>
<event>
 8    1  0.7311878E-012  0.9118800E+02  0.7816164E-02  0.1184000E+00
        -11   -1    0    0    0    0  0.00000000000E+00  0.00000000000E+00  0.45593999997E+02  0.45594000000E+02  0.51100000000E-03 0.  1.
         11   -1    0    0    0    0 -0.00000000000E+00 -0.00000000000E+00 -0.45593999997E+02  0.45594000000E+02  0.51100000000E-03 0. -1.
         23    2    1    2    0    0  0.17763568394E-14  0.00000000000E+00  0.00000000000E+00  0.91188000000E+02  0.91188000000E+02 0.  0.
    9900012    2    3    3    0    0  0.11591964807E+02 -0.29275315488E+02 -0.25724455694E+02  0.50528863687E+02  0.30000011662E+02 0.  0.
         12    1    3    3    0    0 -0.11591964807E+02  0.29275315488E+02  0.25724455694E+02  0.40659136313E+02  0.00000000000E+00 0. -1.
         11    1    4    4    0    0 -0.30811850931E+01 -0.65442206765E+01  0.40563589013E+01  0.82930436896E+01  0.51100000000E-03 0.  1.
        -11    1    4    4    0    0  0.89425489388E+01 -0.20275693644E+02 -0.16709815947E+02  0.27754114713E+02  0.51100000000E-03 0. -1.
        -12    1    4    4    0    0  0.57306009613E+01 -0.24554011675E+01 -0.13070998648E+02  0.14481705284E+02  0.00000000000E+00 0.  1.
</event>
<event>
 8    1  0.7311878E-012  0.9118800E+02  0.7816164E-02  0.1184000E+00
        -11   -1    0    0    0    0  0.00000000000E+00  0.00000000000E+00  0.45593999997E+02  0.45594000000E+02  0.51100000000E-03 0. -1.
         11   -1    0    0    0    0 -0.00000000000E+00 -0.00000000000E+00 -0.45593999997E+02  0.45594000000E+02  0.51100000000E-03 0.  1.
         23    2    1    2    0    0 -0.35527136788E-14  0.00000000000E+00  0.71054273576E-14  0.91188000000E+02  0.91188000000E+02 0.  0.
    9900012    2    3    3    0    0  0.17195872570E+02 -0.16700974307E+02 -0.32841151749E+02  0.50528907235E+02  0.30000144031E+02 0.  0.
         12    1    3    3    0    0 -0.17195872570E+02  0.16700974307E+02  0.32841151749E+02  0.40659092765E+02  0.00000000000E+00 0. -1.
         11    1    4    4    0    0  0.85704297890E+01  0.25154518552E+01 -0.28272313830E+01  0.93687246922E+01  0.51100000000E-03 0. -1.
        -11    1    4    4    0    0  0.14237415935E+02 -0.14942030953E+02 -0.25412186157E+02  0.32737554995E+02  0.51100000000E-03 0.  1.
        -12    1    4    4    0    0 -0.56119731535E+01 -0.42743952087E+01 -0.46017342092E+01  0.84226275477E+01  0.00000000000E+00 0.  1.
</event>
<event>
 8    1  0.7311878E-012  0.9118800E+02  0.7816164E-02  0.1184000E+00
        -11   -1    0    0    0    0  0.00000000000E+00  0.00000000000E+00  0.45593999997E+02  0.45594000000E+02  0.51100000000E-03 0. -1.
         11   -1    0    0    0    0 -0.00000000000E+00 -0.00000000000E+00 -0.45593999997E+02  0.45594000000E+02  0.51100000000E-03 0.  1.
         23    2    1    2    0    0  0.00000000000E+00  0.88817841970E-15 -0.35527136788E-14  0.91188000000E+02  0.91188000000E+02 0.  0.
    9900012    2    3    3    0    0 -0.36071407223E+02  0.21845086258E+01 -0.18634563440E+02  0.50528862631E+02  0.30000008453E+02 0.  0.
         12    1    3    3    0    0  0.36071407223E+02 -0.21845086258E+01  0.18634563440E+02  0.40659137369E+02  0.00000000000E+00 0. -1.
         11    1    4    4    0    0 -0.10438071611E+02 -0.10362271192E+02  0.31449820357E+00  0.14711523123E+02  0.51100000000E-03 0. -1.
        -11    1    4    4    0    0 -0.12849389252E+02  0.10617074612E+01 -0.56014063483E+01  0.14057374585E+02  0.51100000000E-03 0.  1.
        -12    1    4    4    0    0 -0.12783946360E+02  0.11485072357E+02 -0.13347655295E+02  0.21759964923E+02  0.00000000000E+00 0.  1.
</event>
<event>
 8    1  0.7311878E-012  0.9118800E+02  0.7816164E-02  0.1184000E+00
        -11   -1    0    0    0    0  0.00000000000E+00  0.00000000000E+00  0.45593999997E+02  0.45594000000E+02  0.51100000000E-03 0.  1.
         11   -1    0    0    0    0 -0.00000000000E+00 -0.00000000000E+00 -0.45593999997E+02  0.45594000000E+02  0.51100000000E-03 0. -1.
         23    2    1    2    0    0  0.35527136788E-14 -0.35527136788E-14  0.00000000000E+00  0.91188000000E+02  0.91188000000E+02 0.  0.
    9900012    2    3    3    0    0 -0.29191693356E+02 -0.28178052949E+02  0.26473662654E+01  0.50528853708E+02  0.29999981332E+02 0.  0.
        -12    1    3    3    0    0  0.29191693356E+02  0.28178052949E+02 -0.26473662654E+01  0.40659146292E+02  0.00000000000E+00 0.  1.
         11    1    4    4    0    0  0.30218758016E+01  0.19086339742E+01 -0.19436613606E+01  0.40684686006E+01  0.51100000000E-03 0. -1.
        -11    1    4    4    0    0 -0.68482917783E+01 -0.11759639337E+02  0.65561219982E+01  0.15105328647E+02  0.51100000000E-03 0.  1.
         12    1    4    4    0    0 -0.25365277379E+02 -0.18327047587E+02 -0.19650943721E+01  0.31355056461E+02  0.00000000000E+00 0. -1.
</event>
<event>
 8    1  0.7311878E-012  0.9118800E+02  0.7816164E-02  0.1184000E+00
        -11   -1    0    0    0    0  0.00000000000E+00  0.00000000000E+00  0.45593999997E+02  0.45594000000E+02  0.51100000000E-03 0.  1.
         11   -1    0    0    0    0 -0.00000000000E+00 -0.00000000000E+00 -0.45593999997E+02  0.45594000000E+02  0.51100000000E-03 0. -1.
         23    2    1    2    0    0  0.17763568394E-14 -0.35527136788E-14  0.00000000000E+00  0.91188000000E+02  0.91188000000E+02 0.  0.
    9900012    2    3    3    0    0  0.12291098471E+02 -0.20369976267E+02 -0.32972102459E+02  0.50528848813E+02  0.29999966451E+02 0.  0.
         12    1    3    3    0    0 -0.12291098471E+02  0.20369976267E+02  0.32972102459E+02  0.40659151187E+02  0.00000000000E+00 0. -1.
         11    1    4    4    0    0 -0.49387211461E+01 -0.29007765249E+01 -0.37420589601E+01  0.68416720565E+01  0.51100000000E-03 0. -1.
        -11    1    4    4    0    0  0.88928771908E+01 -0.20215456491E+02 -0.26496729590E+02  0.34493834596E+02  0.51100000000E-03 0.  1.
         12    1    4    4    0    0  0.83369424263E+01  0.27462567493E+01 -0.27333139083E+01  0.91933421602E+01  0.00000000000E+00 0. -1.
</event>
<event>
 8    1  0.7311878E-012  0.9118800E+02  0.7816164E-02  0.1184000E+00
        -11   -1    0    0    0    0  0.00000000000E+00  0.00000000000E+00  0.45593999997E+02  0.45594000000E+02  0.51100000000E-03 0. -1.
         11   -1    0    0    0    0 -0.00000000000E+00 -0.00000000000E+00 -0.45593999997E+02  0.45594000000E+02  0.51100000000E-03 0.  1.
         23    2    1    2    0    0  0.00000000000E+00  0.00000000000E+00  0.00000000000E+00  0.91188000000E+02  0.91188000000E+02 0.  0.
    9900012    2    3    3    0    0 -0.21522065499E+02 -0.32547812145E+02  0.11428294973E+02  0.50528864437E+02  0.30000013942E+02 0.  0.
        -12    1    3    3    0    0  0.21522065499E+02  0.32547812145E+02 -0.11428294973E+02  0.40659135563E+02  0.00000000000E+00 0.  1.
         11    1    4    4    0    0  0.81692288096E+00 -0.51290309425E+00  0.91967686681E+01  0.92472150820E+01  0.51100000000E-03 0. -1.
        -11    1    4    4    0    0  0.46043924552E+00 -0.79628116120E+01  0.15137898937E+01  0.81184932820E+01  0.51100000000E-03 0.  1.
         12    1    4    4    0    0 -0.22799427626E+02 -0.24072097439E+02  0.71773641146E+00  0.33163156073E+02  0.00000000000E+00 0. -1.
</event>
<event>
 8    1  0.7311878E-012  0.9118800E+02  0.7816164E-02  0.1184000E+00
        -11   -1    0    0    0    0  0.00000000000E+00  0.00000000000E+00  0.45593999997E+02  0.45594000000E+02  0.51100000000E-03 0. -1.
         11   -1    0    0    0    0 -0.00000000000E+00 -0.00000000000E+00 -0.45593999997E+02  0.45594000000E+02  0.51100000000E-03 0.  1.
         23    2    1    2    0    0 -0.35527136788E-14 -0.35527136788E-14 -0.71054273576E-14  0.91188000000E+02  0.91188000000E+02 0.  0.
    9900012    2    3    3    0    0  0.17670765577E+02  0.25009651105E+02  0.26747470524E+02  0.50528858544E+02  0.29999996032E+02 0.  0.
        -12    1    3    3    0    0 -0.17670765577E+02 -0.25009651105E+02 -0.26747470524E+02  0.40659141456E+02  0.00000000000E+00 0.  1.
         11    1    4    4    0    0  0.13173173053E+01  0.10055833542E+02  0.16082881603E+01  0.10268481104E+02  0.51100000000E-03 0. -1.
        -11    1    4    4    0    0  0.60825582198E+01 -0.39992960505E+00 -0.28467715770E+01  0.67276717264E+01  0.51100000000E-03 0.  1.
         12    1    4    4    0    0  0.10270890052E+02  0.15353747168E+02  0.27985953941E+02  0.33532705714E+02  0.00000000000E+00 0. -1.
</event>
<event>
 8    1  0.7311878E-012  0.9118800E+02  0.7816164E-02  0.1184000E+00
        -11   -1    0    0    0    0  0.00000000000E+00  0.00000000000E+00  0.45593999997E+02  0.45594000000E+02  0.51100000000E-03 0. -1.
         11   -1    0    0    0    0 -0.00000000000E+00 -0.00000000000E+00 -0.45593999997E+02  0.45594000000E+02  0.51100000000E-03 0.  1.
         23    2    1    2    0    0  0.00000000000E+00  0.00000000000E+00 -0.35527136788E-14  0.91188000000E+02  0.91188000000E+02 0.  0.
    9900012    2    3    3    0    0  0.90272308643E+01  0.34038239075E+02  0.20324216529E+02  0.50528851043E+02  0.29999973231E+02 0.  0.
        -12    1    3    3    0    0 -0.90272308643E+01 -0.34038239075E+02 -0.20324216529E+02  0.40659148957E+02  0.00000000000E+00 0.  1.
         11    1    4    4    0    0  0.55289855797E+00  0.16560410004E+02  0.10506227751E+02  0.19619727270E+02  0.51100000000E-03 0. -1.
        -11    1    4    4    0    0 -0.41187822684E+01 -0.23173801656E+01  0.51464376783E+01  0.69871624601E+01  0.51100000000E-03 0.  1.
         12    1    4    4    0    0  0.12593114575E+02  0.19795209236E+02  0.46715510992E+01  0.23921961313E+02  0.00000000000E+00 0. -1.
</event>
<event>
 8    1  0.7311878E-012  0.9118800E+02  0.7816164E-02  0.1184000E+00
        -11   -1    0    0    0    0  0.00000000000E+00  0.00000000000E+00  0.45593999997E+02  0.45594000000E+02  0.51100000000E-03 0. -1.
         11   -1    0    0    0    0 -0.00000000000E+00 -0.00000000000E+00 -0.45593999997E+02  0.45594000000E+02  0.51100000000E-03 0.  1.
         23    2    1    2    0    0  0.00000000000E+00  0.00000000000E+00  0.00000000000E+00  0.91188000000E+02  0.91188000000E+02 0.  0.
    9900012    2    3    3    0    0  0.16067414683E+02  0.18048506759E+02  0.32699442637E+02  0.50528880978E+02  0.30000064221E+02 0.  0.
        -12    1    3    3    0    0 -0.16067414683E+02 -0.18048506759E+02 -0.32699442637E+02  0.40659119022E+02  0.00000000000E+00 0.  1.
         11    1    4    4    0    0  0.29020731338E+01  0.60680058103E+01  0.20006403580E+02  0.21106845038E+02  0.51100000000E-03 0. -1.
        -11    1    4    4    0    0  0.75389973380E+01 -0.47242607124E+01  0.37284184294E+01  0.96465654192E+01  0.51100000000E-03 0.  1.
        -12    1    4    4    0    0  0.56263442115E+01  0.16704761661E+02  0.89646206284E+01  0.19775470521E+02  0.00000000000E+00 0.  1.
</event>
<event>
 8    1  0.7311878E-012  0.9118800E+02  0.7816164E-02  0.1184000E+00
        -11   -1    0    0    0    0  0.00000000000E+00  0.00000000000E+00  0.45593999997E+02  0.45594000000E+02  0.51100000000E-03 0. -1.
         11   -1    0    0    0    0 -0.00000000000E+00 -0.00000000000E+00 -0.45593999997E+02  0.45594000000E+02  0.51100000000E-03 0.  1.
         23    2    1    2    0    0  0.00000000000E+00  0.00000000000E+00  0.00000000000E+00  0.91188000000E+02  0.91188000000E+02 0.  0.
    9900012    2    3    3    0    0  0.15509622946E+02  0.21563255151E+02  0.30783827823E+02  0.50528850574E+02  0.29999971804E+02 0.  0.
        -12    1    3    3    0    0 -0.15509622946E+02 -0.21563255151E+02 -0.30783827823E+02  0.40659149426E+02  0.00000000000E+00 0.  1.
         11    1    4    4    0    0  0.45453303491E+01  0.18247719327E+01 -0.26375009456E+00  0.49050366933E+01  0.51100000000E-03 0. -1.
        -11    1    4    4    0    0  0.49661260857E+01 -0.53861677838E+00 -0.27906270057E+01  0.57218979088E+01  0.51100000000E-03 0.  1.
         12    1    4    4    0    0  0.59981665115E+01  0.20277099997E+02  0.33838204923E+02  0.39901915972E+02  0.00000000000E+00 0. -1.
</event>
<event>
 8    1  0.7311878E-012  0.9118800E+02  0.7816164E-02  0.1184000E+00
        -11   -1    0    0    0    0  0.00000000000E+00  0.00000000000E+00  0.45593999997E+02  0.45594000000E+02  0.51100000000E-03 0. -1.
         11   -1    0    0    0    0 -0.00000000000E+00 -0.00000000000E+00 -0.45593999997E+02  0.45594000000E+02  0.51100000000E-03 0.  1.
         23    2    1    2    0    0 -0.17763568394E-14  0.17763568394E-14 -0.71054273576E-14  0.91188000000E+02  0.91188000000E+02 0.  0.
    9900012    2    3    3    0    0  0.12996751730E+02  0.15753972897E+02  0.35157669979E+02  0.50528868481E+02  0.30000026234E+02 0.  0.
        -12    1    3    3    0    0 -0.12996751730E+02 -0.15753972897E+02 -0.35157669979E+02  0.40659131519E+02  0.00000000000E+00 0.  1.
         11    1    4    4    0    0  0.16441871134E+02  0.16676856534E+02  0.21624392814E+02  0.31875806422E+02  0.51100000000E-03 0. -1.
        -11    1    4    4    0    0 -0.10632838473E+01  0.52238422554E+01  0.27098171202E+01  0.59801512970E+01  0.51100000000E-03 0.  1.
         12    1    4    4    0    0 -0.23818355561E+01 -0.61467258933E+01  0.10823460045E+02  0.12672910761E+02  0.00000000000E+00 0. -1.
</event>
<event>
 8    1  0.7311878E-012  0.9118800E+02  0.7816164E-02  0.1184000E+00
        -11   -1    0    0    0    0  0.00000000000E+00  0.00000000000E+00  0.45593999997E+02  0.45594000000E+02  0.51100000000E-03 0. -1.
         11   -1    0    0    0    0 -0.00000000000E+00 -0.00000000000E+00 -0.45593999997E+02  0.45594000000E+02  0.51100000000E-03 0.  1.
         23    2    1    2    0    0  0.00000000000E+00  0.00000000000E+00  0.00000000000E+00  0.91188000000E+02  0.91188000000E+02 0.  0.
    9900012    2    3    3    0    0 -0.14429735099E+02 -0.56376194708E+01  0.37592098582E+02  0.50528857312E+02  0.29999992286E+02 0.  0.
        -12    1    3    3    0    0  0.14429735099E+02  0.56376194708E+01 -0.37592098582E+02  0.40659142688E+02  0.00000000000E+00 0.  1.
         11    1    4    4    0    0 -0.27287373491E+01 -0.32242283911E+01  0.35191973058E+02  0.35444557047E+02  0.51100000000E-03 0. -1.
        -11    1    4    4    0    0  0.67785328635E+00  0.17127164079E+01  0.37330958148E+00  0.18794262094E+01  0.51100000000E-03 0.  1.
        -12    1    4    4    0    0 -0.12378851036E+02 -0.41261074876E+01  0.20268159418E+01  0.13204874056E+02  0.00000000000E+00 0.  1.
</event>
<event>
 8    1  0.7311878E-012  0.9118800E+02  0.7816164E-02  0.1184000E+00
        -11   -1    0    0    0    0  0.00000000000E+00  0.00000000000E+00  0.45593999997E+02  0.45594000000E+02  0.51100000000E-03 0. -1.
         11   -1    0    0    0    0 -0.00000000000E+00 -0.00000000000E+00 -0.45593999997E+02  0.45594000000E+02  0.51100000000E-03 0.  1.
         23    2    1    2    0    0  0.00000000000E+00  0.00000000000E+00  0.00000000000E+00  0.91188000000E+02  0.91188000000E+02 0.  0.
    9900012    2    3    3    0    0  0.24223068843E+02  0.17643345152E+02  0.27479469597E+02  0.50528856604E+02  0.29999990133E+02 0.  0.
        -12    1    3    3    0    0 -0.24223068843E+02 -0.17643345152E+02 -0.27479469597E+02  0.40659143396E+02  0.00000000000E+00 0.  1.
         11    1    4    4    0    0  0.79680839890E+01  0.66921380721E+01  0.58546861727E+01  0.11939532021E+02  0.51100000000E-03 0. -1.
        -11    1    4    4    0    0 -0.54429472561E+01  0.43378370363E+01 -0.40116773084E+00  0.69716167993E+01  0.51100000000E-03 0.  1.
         12    1    4    4    0    0  0.21697932111E+02  0.66133700436E+01  0.22025951156E+02  0.31617707784E+02  0.00000000000E+00 0. -1.
</event>
<event>
 8    1  0.7311878E-012  0.9118800E+02  0.7816164E-02  0.1184000E+00
        -11   -1    0    0    0    0  0.00000000000E+00  0.00000000000E+00  0.45593999997E+02  0.45594000000E+02  0.51100000000E-03 0.  1.
         11   -1    0    0    0    0 -0.00000000000E+00 -0.00000000000E+00 -0.45593999997E+02  0.45594000000E+02  0.51100000000E-03 0. -1.
         23    2    1    2    0    0  0.00000000000E+00  0.00000000000E+00  0.00000000000E+00  0.91188000000E+02  0.91188000000E+02 0.  0.
    9900012    2    3    3    0    0  0.16442761668E+02  0.18502957955E+02 -0.32255879931E+02  0.50528860136E+02  0.30000000869E+02 0.  0.
         12    1    3    3    0    0 -0.16442761668E+02 -0.18502957955E+02  0.32255879931E+02  0.40659139864E+02  0.00000000000E+00 0. -1.
         11    1    4    4    0    0  0.39123274551E+01  0.10695961417E+02 -0.14158299299E+02  0.18170507314E+02  0.51100000000E-03 0. -1.
        -11    1    4    4    0    0  0.18584740744E+02  0.41346185862E+01 -0.16273267981E+02  0.25046095712E+02  0.51100000000E-03 0.  1.
         12    1    4    4    0    0 -0.60543065311E+01  0.36723779523E+01 -0.18243126518E+01  0.73122571104E+01  0.00000000000E+00 0. -1.
</event>
<event>
 8    1  0.7311878E-012  0.9118800E+02  0.7816164E-02  0.1184000E+00
        -11   -1    0    0    0    0  0.00000000000E+00  0.00000000000E+00  0.45593999997E+02  0.45594000000E+02  0.51100000000E-03 0. -1.
         11   -1    0    0    0    0 -0.00000000000E+00 -0.00000000000E+00 -0.45593999997E+02  0.45594000000E+02  0.51100000000E-03 0.  1.
         23    2    1    2    0    0  0.35527136788E-14 -0.35527136788E-14  0.00000000000E+00  0.91188000000E+02  0.91188000000E+02 0.  0.
    9900012    2    3    3    0    0 -0.28543814808E+02  0.21116175164E+02 -0.19812199293E+02  0.50528862550E+02  0.30000008207E+02 0.  0.
         12    1    3    3    0    0  0.28543814808E+02 -0.21116175164E+02  0.19812199293E+02  0.40659137450E+02  0.00000000000E+00 0. -1.
         11    1    4    4    0    0 -0.11559717257E+02  0.75969633668E+01 -0.12753622388E+02  0.18814776101E+02  0.51100000000E-03 0. -1.
        -11    1    4    4    0    0 -0.16560457516E+02  0.18409225230E+02 -0.22845969339E+01  0.24867000425E+02  0.51100000000E-03 0.  1.
         12    1    4    4    0    0 -0.42364003463E+00 -0.48900134329E+01 -0.47739799711E+01  0.68470860238E+01  0.00000000000E+00 0. -1.
</event>
<event>
 8    1  0.7311878E-012  0.9118800E+02  0.7816164E-02  0.1184000E+00
        -11   -1    0    0    0    0  0.00000000000E+00  0.00000000000E+00  0.45593999997E+02  0.45594000000E+02  0.51100000000E-03 0.  1.
         11   -1    0    0    0    0 -0.00000000000E+00 -0.00000000000E+00 -0.45593999997E+02  0.45594000000E+02  0.51100000000E-03 0. -1.
         23    2    1    2    0    0  0.71054273576E-14  0.00000000000E+00  0.00000000000E+00  0.91188000000E+02  0.91188000000E+02 0.  0.
    9900012    2    3    3    0    0 -0.35269139676E+02  0.19359743138E+02  0.58697234704E+01  0.50528861772E+02  0.30000005842E+02 0.  0.
         12    1    3    3    0    0  0.35269139676E+02 -0.19359743138E+02 -0.58697234704E+01  0.40659138228E+02  0.00000000000E+00 0. -1.
         11    1    4    4    0    0 -0.22118476313E+02  0.33776879644E+01 -0.77831456099E+01  0.23689937236E+02  0.51100000000E-03 0.  1.
        -11    1    4    4    0    0 -0.63234113746E+01  0.15435994643E+01  0.12752354375E+01  0.66328317031E+01  0.51100000000E-03 0. -1.
         12    1    4    4    0    0 -0.68272519874E+01  0.14438455709E+02  0.12377633643E+02  0.20206092833E+02  0.00000000000E+00 0. -1.
</event>
<event>
 8    1  0.7311878E-012  0.9118800E+02  0.7816164E-02  0.1184000E+00
        -11   -1    0    0    0    0  0.00000000000E+00  0.00000000000E+00  0.45593999997E+02  0.45594000000E+02  0.51100000000E-03 0. -1.
         11   -1    0    0    0    0 -0.00000000000E+00 -0.00000000000E+00 -0.45593999997E+02  0.45594000000E+02  0.51100000000E-03 0.  1.
         23    2    1    2    0    0  0.00000000000E+00  0.00000000000E+00  0.35527136788E-14  0.91188000000E+02  0.91188000000E+02 0.  0.
    9900012    2    3    3    0    0  0.11357539275E+02  0.34364974647E+02  0.18526202953E+02  0.50528863552E+02  0.30000011251E+02 0.  0.
        -12    1    3    3    0    0 -0.11357539275E+02 -0.34364974647E+02 -0.18526202953E+02  0.40659136448E+02  0.00000000000E+00 0.  1.
         11    1    4    4    0    0  0.28230735374E+01  0.14431695084E+02  0.15804101959E+02  0.21587339025E+02  0.51100000000E-03 0. -1.
        -11    1    4    4    0    0  0.93748645177E+01  0.28504022856E+01  0.60518976359E+01  0.11516872109E+02  0.51100000000E-03 0.  1.
        -12    1    4    4    0    0 -0.84039878033E+00  0.17082877277E+02 -0.33297966419E+01  0.17424652417E+02  0.00000000000E+00 0.  1.
</event>
<event>
 8    1  0.7311878E-012  0.9118800E+02  0.7816164E-02  0.1184000E+00
        -11   -1    0    0    0    0  0.00000000000E+00  0.00000000000E+00  0.45593999997E+02  0.45594000000E+02  0.51100000000E-03 0.  1.
         11   -1    0    0    0    0 -0.00000000000E+00 -0.00000000000E+00 -0.45593999997E+02  0.45594000000E+02  0.51100000000E-03 0. -1.
         23    2    1    2    0    0  0.35527136788E-14  0.17763568394E-14  0.00000000000E+00  0.91188000000E+02  0.91188000000E+02 0.  0.
    9900012    2    3    3    0    0  0.31863769739E+02  0.77965012812E+01  0.24022639084E+02  0.50528776658E+02  0.29999747129E+02 0.  0.
        -12    1    3    3    0    0 -0.31863769739E+02 -0.77965012812E+01 -0.24022639084E+02  0.40659223342E+02  0.00000000000E+00 0.  1.
         11    1    4    4    0    0  0.18392244143E+02  0.37528077491E+00  0.14297702966E+01  0.18451550711E+02  0.51100000000E-03 0. -1.
        -11    1    4    4    0    0  0.10712619903E+02  0.84648209993E+01  0.54800423944E+01  0.14712045563E+02  0.51100000000E-03 0.  1.
        -12    1    4    4    0    0  0.27589056925E+01 -0.10436004930E+01  0.17112826393E+02  0.17365180384E+02  0.00000000000E+00 0.  1.
</event>
<event>
 8    1  0.7311878E-012  0.9118800E+02  0.7816164E-02  0.1184000E+00
        -11   -1    0    0    0    0  0.00000000000E+00  0.00000000000E+00  0.45593999997E+02  0.45594000000E+02  0.51100000000E-03 0. -1.
         11   -1    0    0    0    0 -0.00000000000E+00 -0.00000000000E+00 -0.45593999997E+02  0.45594000000E+02  0.51100000000E-03 0.  1.
         23    2    1    2    0    0 -0.11102230246E-14 -0.88817841970E-15  0.00000000000E+00  0.91188000000E+02  0.91188000000E+02 0.  0.
    9900012    2    3    3    0    0  0.15429224536E+01  0.40739085339E+01  0.40425102595E+02  0.50528852686E+02  0.29999978225E+02 0.  0.
        -12    1    3    3    0    0 -0.15429224536E+01 -0.40739085339E+01 -0.40425102595E+02  0.40659147314E+02  0.00000000000E+00 0.  1.
         11    1    4    4    0    0 -0.70896936421E+01  0.49949542635E+01  0.64096171493E+01  0.10784086252E+02  0.51100000000E-03 0.  1.
        -11    1    4    4    0    0 -0.11827037828E+01 -0.71427490024E+01  0.59597225534E+01  0.93774167405E+01  0.51100000000E-03 0. -1.
         12    1    4    4    0    0  0.98153198785E+01  0.62217032728E+01  0.28055762893E+02  0.30367349694E+02  0.00000000000E+00 0. -1.
</event>
<event>
 8    1  0.7311878E-012  0.9118800E+02  0.7816164E-02  0.1184000E+00
        -11   -1    0    0    0    0  0.00000000000E+00  0.00000000000E+00  0.45593999997E+02  0.45594000000E+02  0.51100000000E-03 0. -1.
         11   -1    0    0    0    0 -0.00000000000E+00 -0.00000000000E+00 -0.45593999997E+02  0.45594000000E+02  0.51100000000E-03 0.  1.
         23    2    1    2    0    0  0.00000000000E+00  0.17763568394E-14  0.00000000000E+00  0.91188000000E+02  0.91188000000E+02 0.  0.
    9900012    2    3    3    0    0 -0.31358334601E+02 -0.10362165324E+02  0.23715948767E+02  0.50528857792E+02  0.29999993744E+02 0.  0.
        -12    1    3    3    0    0  0.31358334601E+02  0.10362165324E+02 -0.23715948767E+02  0.40659142208E+02  0.00000000000E+00 0.  1.
         11    1    4    4    0    0 -0.12933623281E+02 -0.35445024348E+01  0.14694032025E+02  0.19893634311E+02  0.51100000000E-03 0. -1.
        -11    1    4    4    0    0 -0.11522136973E+02 -0.13938753011E+02  0.14213302590E+01  0.18140249610E+02  0.51100000000E-03 0.  1.
         12    1    4    4    0    0 -0.69025743467E+01  0.71210901222E+01  0.76005864835E+01  0.12494973871E+02  0.00000000000E+00 0. -1.
</event>
<event>
 8    1  0.7311878E-012  0.9118800E+02  0.7816164E-02  0.1184000E+00
        -11   -1    0    0    0    0  0.00000000000E+00  0.00000000000E+00  0.45593999997E+02  0.45594000000E+02  0.51100000000E-03 0. -1.
         11   -1    0    0    0    0 -0.00000000000E+00 -0.00000000000E+00 -0.45593999997E+02  0.45594000000E+02  0.51100000000E-03 0.  1.
         23    2    1    2    0    0  0.88817841970E-15 -0.17763568394E-14  0.00000000000E+00  0.91188000000E+02  0.91188000000E+02 0.  0.
    9900012    2    3    3    0    0 -0.58240274381E+01  0.14509698243E+02  0.37532852870E+02  0.50528859782E+02  0.29999999794E+02 0.  0.
        -12    1    3    3    0    0  0.58240274381E+01 -0.14509698243E+02 -0.37532852870E+02  0.40659140218E+02  0.00000000000E+00 0.  1.
         11    1    4    4    0    0 -0.51568743346E+01  0.96585637091E+01  0.16991062565E+02  0.20213297929E+02  0.51100000000E-03 0. -1.
        -11    1    4    4    0    0 -0.32904836758E+01  0.49397187433E+01  0.24697299503E+02  0.25400486356E+02  0.51100000000E-03 0.  1.
        -12    1    4    4    0    0  0.26233305723E+01 -0.88584209755E-01 -0.41555091980E+01  0.49150754977E+01  0.00000000000E+00 0.  1.
</event>
<event>
 8    1  0.7311878E-012  0.9118800E+02  0.7816164E-02  0.1184000E+00
        -11   -1    0    0    0    0  0.00000000000E+00  0.00000000000E+00  0.45593999997E+02  0.45594000000E+02  0.51100000000E-03 0. -1.
         11   -1    0    0    0    0 -0.00000000000E+00 -0.00000000000E+00 -0.45593999997E+02  0.45594000000E+02  0.51100000000E-03 0.  1.
         23    2    1    2    0    0  0.00000000000E+00  0.00000000000E+00  0.00000000000E+00  0.91188000000E+02  0.91188000000E+02 0.  0.
    9900012    2    3    3    0    0 -0.40453982445E+01  0.20325096355E+02  0.34981279812E+02  0.50528871553E+02  0.30000035573E+02 0.  0.
        -12    1    3    3    0    0  0.40453982445E+01 -0.20325096355E+02 -0.34981279812E+02  0.40659128447E+02  0.00000000000E+00 0.  1.
         11    1    4    4    0    0  0.43994387958E+00  0.14673755883E+02  0.11273576240E+02  0.18509624087E+02  0.51100000000E-03 0. -1.
        -11    1    4    4    0    0 -0.10571831114E+02  0.92358104595E+01  0.18598054544E+02  0.23301318440E+02  0.51100000000E-03 0.  1.
        -12    1    4    4    0    0  0.60864889903E+01 -0.35844699878E+01  0.51096490282E+01  0.87179290267E+01  0.00000000000E+00 0.  1.
</event>
<event>
 8    1  0.7311878E-012  0.9118800E+02  0.7816164E-02  0.1184000E+00
        -11   -1    0    0    0    0  0.00000000000E+00  0.00000000000E+00  0.45593999997E+02  0.45594000000E+02  0.51100000000E-03 0. -1.
         11   -1    0    0    0    0 -0.00000000000E+00 -0.00000000000E+00 -0.45593999997E+02  0.45594000000E+02  0.51100000000E-03 0.  1.
         23    2    1    2    0    0  0.17763568394E-14 -0.35527136788E-14 -0.35527136788E-14  0.91188000000E+02  0.91188000000E+02 0.  0.
    9900012    2    3    3    0    0  0.81214156544E+01 -0.24260844007E+02 -0.31600962697E+02  0.50528846202E+02  0.29999958517E+02 0.  0.
         12    1    3    3    0    0 -0.81214156544E+01  0.24260844007E+02  0.31600962697E+02  0.40659153798E+02  0.00000000000E+00 0. -1.
         11    1    4    4    0    0  0.90273025271E+01 -0.17256521104E+02 -0.59245051733E+01  0.20356312862E+02  0.51100000000E-03 0. -1.
        -11    1    4    4    0    0  0.41076758403E+01 -0.88155638594E+01 -0.11702270937E+02  0.15216120147E+02  0.51100000000E-03 0.  1.
         12    1    4    4    0    0 -0.50135627130E+01  0.18112409560E+01 -0.13974186586E+02  0.14956413194E+02  0.00000000000E+00 0. -1.
</event>
<event>
 8    1  0.7311878E-012  0.9118800E+02  0.7816164E-02  0.1184000E+00
        -11   -1    0    0    0    0  0.00000000000E+00  0.00000000000E+00  0.45593999997E+02  0.45594000000E+02  0.51100000000E-03 0.  1.
         11   -1    0    0    0    0 -0.00000000000E+00 -0.00000000000E+00 -0.45593999997E+02  0.45594000000E+02  0.51100000000E-03 0. -1.
         23    2    1    2    0    0  0.35527136788E-14 -0.35527136788E-14  0.35527136788E-14  0.91188000000E+02  0.91188000000E+02 0.  0.
    9900012    2    3    3    0    0 -0.26419738898E+02  0.18662829651E+02 -0.24634582326E+02  0.50528850226E+02  0.29999970746E+02 0.  0.
         12    1    3    3    0    0  0.26419738898E+02 -0.18662829651E+02  0.24634582326E+02  0.40659149774E+02  0.00000000000E+00 0. -1.
         11    1    4    4    0    0  0.32404869808E+00  0.65585239419E+01  0.38810412699E+00  0.65779836522E+01  0.51100000000E-03 0.  1.
        -11    1    4    4    0    0 -0.84540243512E+01  0.15239249181E+02 -0.14112437097E+02  0.22424676685E+02  0.51100000000E-03 0. -1.
         12    1    4    4    0    0 -0.18289763245E+02 -0.31349434726E+01 -0.10910249356E+02  0.21526189889E+02  0.00000000000E+00 0. -1.
</event>
<event>
 8    1  0.7311878E-012  0.9118800E+02  0.7816164E-02  0.1184000E+00
        -11   -1    0    0    0    0  0.00000000000E+00  0.00000000000E+00  0.45593999997E+02  0.45594000000E+02  0.51100000000E-03 0. -1.
         11   -1    0    0    0    0 -0.00000000000E+00 -0.00000000000E+00 -0.45593999997E+02  0.45594000000E+02  0.51100000000E-03 0.  1.
         23    2    1    2    0    0  0.00000000000E+00  0.17763568394E-14  0.00000000000E+00  0.91188000000E+02  0.91188000000E+02 0.  0.
    9900012    2    3    3    0    0 -0.14870105351E+02  0.11349894488E+02 -0.36100170092E+02  0.50528899927E+02  0.30000121818E+02 0.  0.
         12    1    3    3    0    0  0.14870105351E+02 -0.11349894488E+02  0.36100170092E+02  0.40659100073E+02  0.00000000000E+00 0. -1.
         11    1    4    4    0    0 -0.42369722493E+01 -0.65254992048E+01 -0.18740033426E+02  0.20290956774E+02  0.51100000000E-03 0. -1.
        -11    1    4    4    0    0  0.23404662034E+01 -0.30191067633E+00 -0.23479943758E+01  0.33289652980E+01  0.51100000000E-03 0.  1.
         12    1    4    4    0    0 -0.12973599305E+02  0.18177304369E+02 -0.15012142290E+02  0.26908977855E+02  0.00000000000E+00 0. -1.
</event>
<event>
 8    1  0.9448978E-012  0.9118800E+02  0.7816164E-02  0.1184000E+00
        -11   -1    0    0    0    0  0.00000000000E+00  0.00000000000E+00  0.45593999997E+02  0.45594000000E+02  0.51100000000E-03 0. -1.
         11   -1    0    0    0    0 -0.00000000000E+00 -0.00000000000E+00 -0.45593999997E+02  0.45594000000E+02  0.51100000000E-03 0.  1.
         23    2    1    2    0    0 -0.35527136788E-14  0.88817841970E-15  0.00000000000E+00  0.91188000000E+02  0.91188000000E+02 0.  0.
    9900012    2    3    3    0    0  0.25730757187E+02 -0.45713980094E+01 -0.31147964593E+02  0.50528865190E+02  0.30000016232E+02 0.  0.
         12    1    3    3    0    0 -0.25730757187E+02  0.45713980094E+01  0.31147964593E+02  0.40659134810E+02  0.00000000000E+00 0. -1.
         11    1    4    4    0    0  0.12655519211E+02 -0.91805500285E+01 -0.54914086223E+01  0.16571066177E+02  0.51100000000E-03 0. -1.
        -11    1    4    4    0    0  0.15394307638E+02 -0.40776068241E+00 -0.13022537877E+02  0.20167733373E+02  0.51100000000E-03 0.  1.
         12    1    4    4    0    0 -0.23190696610E+01  0.50169127016E+01 -0.12634018094E+02  0.13790065640E+02  0.00000000000E+00 0. -1.
</event>
<event>
 8    1  0.7311878E-012  0.9118800E+02  0.7816164E-02  0.1184000E+00
        -11   -1    0    0    0    0  0.00000000000E+00  0.00000000000E+00  0.45593999997E+02  0.45594000000E+02  0.51100000000E-03 0.  1.
         11   -1    0    0    0    0 -0.00000000000E+00 -0.00000000000E+00 -0.45593999997E+02  0.45594000000E+02  0.51100000000E-03 0. -1.
         23    2    1    2    0    0  0.00000000000E+00  0.00000000000E+00 -0.44408920985E-15  0.91188000000E+02  0.91188000000E+02 0.  0.
    9900012    2    3    3    0    0  0.31261868682E+02  0.25798775865E+02  0.32069732667E+01  0.50528856537E+02  0.29999989931E+02 0.  0.
         12    1    3    3    0    0 -0.31261868682E+02 -0.25798775865E+02 -0.32069732667E+01  0.40659143463E+02  0.00000000000E+00 0. -1.
         11    1    4    4    0    0  0.21645676328E+02  0.25226803233E+02  0.68640062371E+01  0.33941736652E+02  0.51100000000E-03 0. -1.
        -11    1    4    4    0    0  0.10623036616E+02  0.23402668409E+01  0.15583598977E+01  0.10988823488E+02  0.51100000000E-03 0.  1.
         12    1    4    4    0    0 -0.10068442622E+01 -0.17682942097E+01 -0.52153928680E+01  0.55982963970E+01  0.00000000000E+00 0. -1.
</event>
<event>
 8    1  0.7311878E-012  0.9118800E+02  0.7816164E-02  0.1184000E+00
        -11   -1    0    0    0    0  0.00000000000E+00  0.00000000000E+00  0.45593999997E+02  0.45594000000E+02  0.51100000000E-03 0. -1.
         11   -1    0    0    0    0 -0.00000000000E+00 -0.00000000000E+00 -0.45593999997E+02  0.45594000000E+02  0.51100000000E-03 0.  1.
         23    2    1    2    0    0  0.00000000000E+00 -0.35527136788E-14  0.00000000000E+00  0.91188000000E+02  0.91188000000E+02 0.  0.
    9900012    2    3    3    0    0  0.17326304223E+02 -0.17107510431E+02  0.32562217351E+02  0.50528859207E+02  0.29999998046E+02 0.  0.
        -12    1    3    3    0    0 -0.17326304223E+02  0.17107510431E+02 -0.32562217351E+02  0.40659140793E+02  0.00000000000E+00 0.  1.
         11    1    4    4    0    0  0.91721360339E+01 -0.53121146431E+01  0.36915341145E+01  0.11223816899E+02  0.51100000000E-03 0. -1.
        -11    1    4    4    0    0 -0.38791978314E+01 -0.32505566895E+01 -0.17158448196E+01  0.53440077014E+01  0.51100000000E-03 0.  1.
         12    1    4    4    0    0  0.12033366020E+02 -0.85448390986E+01  0.30586528056E+02  0.33961034607E+02  0.00000000000E+00 0. -1.
</event>
<event>
 8    1  0.7311878E-012  0.9118800E+02  0.7816164E-02  0.1184000E+00
        -11   -1    0    0    0    0  0.00000000000E+00  0.00000000000E+00  0.45593999997E+02  0.45594000000E+02  0.51100000000E-03 0. -1.
         11   -1    0    0    0    0 -0.00000000000E+00 -0.00000000000E+00 -0.45593999997E+02  0.45594000000E+02  0.51100000000E-03 0.  1.
         23    2    1    2    0    0  0.17763568394E-14  0.17763568394E-14  0.00000000000E+00  0.91188000000E+02  0.91188000000E+02 0.  0.
    9900012    2    3    3    0    0 -0.14522983179E+02 -0.73374639354E+01 -0.37261388235E+02  0.50528850099E+02  0.29999970362E+02 0.  0.
         12    1    3    3    0    0  0.14522983179E+02  0.73374639354E+01  0.37261388235E+02  0.40659149901E+02  0.00000000000E+00 0. -1.
         11    1    4    4    0    0  0.14437391051E+01 -0.31155438563E+01  0.27094657172E+01  0.43740371349E+01  0.51100000000E-03 0. -1.
        -11    1    4    4    0    0 -0.29300883504E+01 -0.85341994483E+01 -0.19735134477E+02  0.21700080900E+02  0.51100000000E-03 0.  1.
        -12    1    4    4    0    0 -0.13036633933E+02  0.43122793692E+01 -0.20235719475E+02  0.24454732065E+02  0.00000000000E+00 0.  1.
</event>
<event>
 8    1  0.7311878E-012  0.9118800E+02  0.7816164E-02  0.1184000E+00
        -11   -1    0    0    0    0  0.00000000000E+00  0.00000000000E+00  0.45593999997E+02  0.45594000000E+02  0.51100000000E-03 0. -1.
         11   -1    0    0    0    0 -0.00000000000E+00 -0.00000000000E+00 -0.45593999997E+02  0.45594000000E+02  0.51100000000E-03 0.  1.
         23    2    1    2    0    0  0.17763568394E-14  0.00000000000E+00  0.00000000000E+00  0.91188000000E+02  0.91188000000E+02 0.  0.
    9900012    2    3    3    0    0 -0.14869936744E+02  0.21007435025E+02 -0.31475985729E+02  0.50528867905E+02  0.30000024484E+02 0.  0.
         12    1    3    3    0    0  0.14869936744E+02 -0.21007435025E+02  0.31475985729E+02  0.40659132095E+02  0.00000000000E+00 0. -1.
         11    1    4    4    0    0 -0.52025278301E+01  0.13223859649E+01 -0.44462648221E+01  0.69702418604E+01  0.51100000000E-03 0. -1.
        -11    1    4    4    0    0 -0.18605058497E+02  0.13052630795E+02 -0.20776262877E+02  0.30792409321E+02  0.51100000000E-03 0.  1.
        -12    1    4    4    0    0  0.89376495833E+01  0.66324182645E+01 -0.62534580300E+01  0.12766216724E+02  0.00000000000E+00 0.  1.
</event>
<event>
 8    1  0.7311878E-012  0.9118800E+02  0.7816164E-02  0.1184000E+00
        -11   -1    0    0    0    0  0.00000000000E+00  0.00000000000E+00  0.45593999997E+02  0.45594000000E+02  0.51100000000E-03 0. -1.
         11   -1    0    0    0    0 -0.00000000000E+00 -0.00000000000E+00 -0.45593999997E+02  0.45594000000E+02  0.51100000000E-03 0.  1.
         23    2    1    2    0    0 -0.35527136788E-14  0.00000000000E+00 -0.35527136788E-14  0.91188000000E+02  0.91188000000E+02 0.  0.
    9900012    2    3    3    0    0 -0.27971306787E+02 -0.13763989561E+02 -0.26102191294E+02  0.50528858317E+02  0.29999995342E+02 0.  0.
         12    1    3    3    0    0  0.27971306787E+02  0.13763989561E+02  0.26102191294E+02  0.40659141683E+02  0.00000000000E+00 0. -1.
         11    1    4    4    0    0 -0.10369789411E+02 -0.12747121767E+02 -0.43322269611E+01  0.16993817596E+02  0.51100000000E-03 0. -1.
        -11    1    4    4    0    0 -0.97691581679E+01 -0.51489909238E+01 -0.22065509008E+02  0.24674587067E+02  0.51100000000E-03 0.  1.
         12    1    4    4    0    0 -0.78323592075E+01  0.41321231299E+01  0.29554467522E+00  0.88604536549E+01  0.00000000000E+00 0. -1.
</event>
<event>
 8    1  0.7311878E-012  0.9118800E+02  0.7816164E-02  0.1184000E+00
        -11   -1    0    0    0    0  0.00000000000E+00  0.00000000000E+00  0.45593999997E+02  0.45594000000E+02  0.51100000000E-03 0. -1.
         11   -1    0    0    0    0 -0.00000000000E+00 -0.00000000000E+00 -0.45593999997E+02  0.45594000000E+02  0.51100000000E-03 0.  1.
         23    2    1    2    0    0 -0.17763568394E-14  0.88817841970E-15  0.71054273576E-14  0.91188000000E+02  0.91188000000E+02 0.  0.
    9900012    2    3    3    0    0  0.14268885056E+02  0.38267591618E+01 -0.37880340983E+02  0.50528863273E+02  0.30000010404E+02 0.  0.
         12    1    3    3    0    0 -0.14268885056E+02 -0.38267591618E+01  0.37880340983E+02  0.40659136727E+02  0.00000000000E+00 0. -1.
         11    1    4    4    0    0 -0.24803955881E+01  0.24220866229E+00 -0.34661032312E+00  0.25161808931E+01  0.51100000000E-03 0. -1.
        -11    1    4    4    0    0 -0.46315283700E+01  0.68890222449E+01 -0.10029562773E+02  0.13019286164E+02  0.51100000000E-03 0.  1.
        -12    1    4    4    0    0  0.21380809014E+02 -0.33044717453E+01 -0.27504167887E+02  0.34993396216E+02  0.00000000000E+00 0.  1.
</event>
<event>
 8    1  0.7311878E-012  0.9118800E+02  0.7816164E-02  0.1184000E+00
        -11   -1    0    0    0    0  0.00000000000E+00  0.00000000000E+00  0.45593999997E+02  0.45594000000E+02  0.51100000000E-03 0.  1.
         11   -1    0    0    0    0 -0.00000000000E+00 -0.00000000000E+00 -0.45593999997E+02  0.45594000000E+02  0.51100000000E-03 0. -1.
         23    2    1    2    0    0  0.00000000000E+00 -0.71054273576E-14  0.17763568394E-14  0.91188000000E+02  0.91188000000E+02 0.  0.
    9900012    2    3    3    0    0  0.21658667162E+02 -0.34406880377E+02  0.48463583629E+00  0.50528854013E+02  0.29999982258E+02 0.  0.
        -12    1    3    3    0    0 -0.21658667162E+02  0.34406880377E+02 -0.48463583629E+00  0.40659145987E+02  0.00000000000E+00 0.  1.
         11    1    4    4    0    0  0.13621428418E+02 -0.18655566474E+02  0.13836827293E+02  0.26926404558E+02  0.51100000000E-03 0.  1.
        -11    1    4    4    0    0  0.55406636454E+01 -0.55460212148E+01 -0.19106516491E+01  0.80689463334E+01  0.51100000000E-03 0. -1.
         12    1    4    4    0    0  0.24965750983E+01 -0.10205292688E+02 -0.11441539808E+02  0.15533503122E+02  0.00000000000E+00 0. -1.
</event>
<event>
 8    1  0.7311878E-012  0.9118800E+02  0.7816164E-02  0.1184000E+00
        -11   -1    0    0    0    0  0.00000000000E+00  0.00000000000E+00  0.45593999997E+02  0.45594000000E+02  0.51100000000E-03 0. -1.
         11   -1    0    0    0    0 -0.00000000000E+00 -0.00000000000E+00 -0.45593999997E+02  0.45594000000E+02  0.51100000000E-03 0.  1.
         23    2    1    2    0    0  0.13322676296E-14  0.35527136788E-14 -0.35527136788E-14  0.91188000000E+02  0.91188000000E+02 0.  0.
    9900012    2    3    3    0    0 -0.36741671265E+01 -0.27989876357E+02  0.29261457745E+02  0.50528860905E+02  0.30000003207E+02 0.  0.
        -12    1    3    3    0    0  0.36741671265E+01  0.27989876357E+02 -0.29261457745E+02  0.40659139095E+02  0.00000000000E+00 0.  1.
         11    1    4    4    0    0 -0.45316230970E+01 -0.17963186246E+02  0.27909604147E+02  0.33498621940E+02  0.51100000000E-03 0. -1.
        -11    1    4    4    0    0  0.54133503148E+00  0.33562341519E+01 -0.74518916939E+00  0.34803244759E+01  0.51100000000E-03 0.  1.
        -12    1    4    4    0    0  0.31612093900E+00 -0.13382924264E+02  0.20970427674E+01  0.13549914489E+02  0.00000000000E+00 0.  1.
</event>
<event>
 8    1  0.7311878E-012  0.9118800E+02  0.7816164E-02  0.1184000E+00
        -11   -1    0    0    0    0  0.00000000000E+00  0.00000000000E+00  0.45593999997E+02  0.45594000000E+02  0.51100000000E-03 0. -1.
         11   -1    0    0    0    0 -0.00000000000E+00 -0.00000000000E+00 -0.45593999997E+02  0.45594000000E+02  0.51100000000E-03 0.  1.
         23    2    1    2    0    0  0.00000000000E+00 -0.88817841970E-15  0.00000000000E+00  0.91188000000E+02  0.91188000000E+02 0.  0.
    9900012    2    3    3    0    0 -0.10090218014E+02 -0.70062110590E+01  0.38759071516E+02  0.50528866737E+02  0.30000020933E+02 0.  0.
        -12    1    3    3    0    0  0.10090218014E+02  0.70062110590E+01 -0.38759071516E+02  0.40659133263E+02  0.00000000000E+00 0.  1.
         11    1    4    4    0    0 -0.54885259403E+01 -0.10785435795E+01  0.20075306112E+01  0.59428404544E+01  0.51100000000E-03 0. -1.
        -11    1    4    4    0    0  0.88325829564E+01 -0.25347202115E+00  0.63929511625E+01  0.10906355696E+02  0.51100000000E-03 0.  1.
         12    1    4    4    0    0 -0.13434275030E+02 -0.56741954583E+01  0.30358589742E+02  0.33679670586E+02  0.00000000000E+00 0. -1.
</event>
<event>
 8    1  0.7311878E-012  0.9118800E+02  0.7816164E-02  0.1184000E+00
        -11   -1    0    0    0    0  0.00000000000E+00  0.00000000000E+00  0.45593999997E+02  0.45594000000E+02  0.51100000000E-03 0.  1.
         11   -1    0    0    0    0 -0.00000000000E+00 -0.00000000000E+00 -0.45593999997E+02  0.45594000000E+02  0.51100000000E-03 0. -1.
         23    2    1    2    0    0  0.00000000000E+00  0.00000000000E+00  0.17763568394E-14  0.91188000000E+02  0.91188000000E+02 0.  0.
    9900012    2    3    3    0    0 -0.14633717500E+02  0.37615778277E+02  0.49064433886E+01  0.50528860191E+02  0.30000001038E+02 0.  0.
         12    1    3    3    0    0  0.14633717500E+02 -0.37615778277E+02 -0.49064433886E+01  0.40659139809E+02  0.00000000000E+00 0. -1.
         11    1    4    4    0    0 -0.41328144105E+01  0.55282851417E+01  0.10667766331E+02  0.12706035193E+02  0.51100000000E-03 0. -1.
        -11    1    4    4    0    0 -0.58936277112E+01  0.10148370746E+02  0.52387117076E+01  0.12851784974E+02  0.51100000000E-03 0.  1.
         12    1    4    4    0    0 -0.46072753788E+01  0.21939122389E+02 -0.11000034650E+02  0.24971040025E+02  0.00000000000E+00 0. -1.
</event>
<event>
 8    1  0.7311878E-012  0.9118800E+02  0.7816164E-02  0.1184000E+00
        -11   -1    0    0    0    0  0.00000000000E+00  0.00000000000E+00  0.45593999997E+02  0.45594000000E+02  0.51100000000E-03 0. -1.
         11   -1    0    0    0    0 -0.00000000000E+00 -0.00000000000E+00 -0.45593999997E+02  0.45594000000E+02  0.51100000000E-03 0.  1.
         23    2    1    2    0    0 -0.44408920985E-15  0.17763568394E-14  0.00000000000E+00  0.91188000000E+02  0.91188000000E+02 0.  0.
    9900012    2    3    3    0    0 -0.39112667140E+01 -0.12623678106E+02  0.38451316044E+02  0.50528942439E+02  0.30000251037E+02 0.  0.
        -12    1    3    3    0    0  0.39112667140E+01  0.12623678106E+02 -0.38451316044E+02  0.40659057561E+02  0.00000000000E+00 0.  1.
         11    1    4    4    0    0 -0.72458869309E+01 -0.28299016986E+01  0.15785159064E+02  0.17597797248E+02  0.51100000000E-03 0. -1.
        -11    1    4    4    0    0 -0.57583381755E-02  0.53607406182E+01  0.14363752414E+02  0.15331502106E+02  0.51100000000E-03 0.  1.
         12    1    4    4    0    0  0.33403785552E+01 -0.15154517026E+02  0.83024045656E+01  0.17599643086E+02  0.00000000000E+00 0. -1.
</event>
<event>
 8    1  0.7311878E-012  0.9118800E+02  0.7816164E-02  0.1184000E+00
        -11   -1    0    0    0    0  0.00000000000E+00  0.00000000000E+00  0.45593999997E+02  0.45594000000E+02  0.51100000000E-03 0. -1.
         11   -1    0    0    0    0 -0.00000000000E+00 -0.00000000000E+00 -0.45593999997E+02  0.45594000000E+02  0.51100000000E-03 0.  1.
         23    2    1    2    0    0  0.35527136788E-14  0.00000000000E+00  0.17763568394E-14  0.91188000000E+02  0.91188000000E+02 0.  0.
    9900012    2    3    3    0    0  0.23249581141E+02  0.30307362317E+02  0.13931476707E+02  0.50528864777E+02  0.30000014976E+02 0.  0.
        -12    1    3    3    0    0 -0.23249581141E+02 -0.30307362317E+02 -0.13931476707E+02  0.40659135223E+02  0.00000000000E+00 0.  1.
         11    1    4    4    0    0  0.15113520564E+02  0.25175269232E+02  0.10791623448E+02  0.31283730942E+02  0.51100000000E-03 0. -1.
        -11    1    4    4    0    0 -0.89834905038E+00  0.76695939105E+01  0.56061324822E+01  0.95424537430E+01  0.51100000000E-03 0.  1.
         12    1    4    4    0    0  0.90344096270E+01 -0.25375008257E+01 -0.24662792232E+01  0.97026800914E+01  0.00000000000E+00 0. -1.
</event>
<event>
 8    1  0.7311878E-012  0.9118800E+02  0.7816164E-02  0.1184000E+00
        -11   -1    0    0    0    0  0.00000000000E+00  0.00000000000E+00  0.45593999997E+02  0.45594000000E+02  0.51100000000E-03 0. -1.
         11   -1    0    0    0    0 -0.00000000000E+00 -0.00000000000E+00 -0.45593999997E+02  0.45594000000E+02  0.51100000000E-03 0.  1.
         23    2    1    2    0    0  0.00000000000E+00  0.33306690739E-15  0.00000000000E+00  0.91188000000E+02  0.91188000000E+02 0.  0.
    9900012    2    3    3    0    0 -0.21776341488E+02  0.84800774902E+00 -0.34325485891E+02  0.50528841778E+02  0.29999945067E+02 0.  0.
         12    1    3    3    0    0  0.21776341488E+02 -0.84800774902E+00  0.34325485891E+02  0.40659158222E+02  0.00000000000E+00 0. -1.
         11    1    4    4    0    0  0.64541623209E+00  0.67653877986E+01 -0.65280829734E+01  0.94235291556E+01  0.51100000000E-03 0. -1.
        -11    1    4    4    0    0 -0.75947899447E+01 -0.78173813712E+01 -0.17013349769E+01  0.11031175222E+02  0.51100000000E-03 0.  1.
        -12    1    4    4    0    0 -0.14826967775E+02  0.19000013216E+01 -0.26096067940E+02  0.30074137400E+02  0.00000000000E+00 0.  1.
</event>
<event>
 8    1  0.7311878E-012  0.9118800E+02  0.7816164E-02  0.1184000E+00
        -11   -1    0    0    0    0  0.00000000000E+00  0.00000000000E+00  0.45593999997E+02  0.45594000000E+02  0.51100000000E-03 0.  1.
         11   -1    0    0    0    0 -0.00000000000E+00 -0.00000000000E+00 -0.45593999997E+02  0.45594000000E+02  0.51100000000E-03 0. -1.
         23    2    1    2    0    0  0.88817841970E-15  0.00000000000E+00  0.00000000000E+00  0.91188000000E+02  0.91188000000E+02 0.  0.
    9900012    2    3    3    0    0  0.54674846031E+01  0.18835179081E+02  0.35616159960E+02  0.50528828720E+02  0.29999905376E+02 0.  0.
        -12    1    3    3    0    0 -0.54674846031E+01 -0.18835179081E+02 -0.35616159960E+02  0.40659171280E+02  0.00000000000E+00 0.  1.
         11    1    4    4    0    0  0.31945556344E-01  0.14463826387E+02  0.26479542318E+02  0.30172329308E+02  0.51100000000E-03 0. -1.
        -11    1    4    4    0    0 -0.21066711894E+01 -0.35732798201E+01  0.84106503446E+01  0.93779225660E+01  0.51100000000E-03 0.  1.
        -12    1    4    4    0    0  0.75422102362E+01  0.79446325141E+01  0.72596729792E+00  0.10978576845E+02  0.00000000000E+00 0.  1.
</event>
<event>
 8    1  0.7311878E-012  0.9118800E+02  0.7816164E-02  0.1184000E+00
        -11   -1    0    0    0    0  0.00000000000E+00  0.00000000000E+00  0.45593999997E+02  0.45594000000E+02  0.51100000000E-03 0. -1.
         11   -1    0    0    0    0 -0.00000000000E+00 -0.00000000000E+00 -0.45593999997E+02  0.45594000000E+02  0.51100000000E-03 0.  1.
         23    2    1    2    0    0  0.00000000000E+00  0.00000000000E+00  0.35527136788E-14  0.91188000000E+02  0.91188000000E+02 0.  0.
    9900012    2    3    3    0    0  0.19938920979E+02 -0.17784819845E+02  0.30648090561E+02  0.50528857832E+02  0.29999993868E+02 0.  0.
        -12    1    3    3    0    0 -0.19938920979E+02  0.17784819845E+02 -0.30648090561E+02  0.40659142168E+02  0.00000000000E+00 0.  1.
         11    1    4    4    0    0  0.10323465699E+02 -0.42860857756E+01  0.22763190379E+02  0.25359560560E+02  0.51100000000E-03 0. -1.
        -11    1    4    4    0    0  0.78465676452E-01 -0.11656334429E+02  0.98478285261E+01  0.15259620445E+02  0.51100000000E-03 0.  1.
         12    1    4    4    0    0  0.95369896042E+01 -0.18423996411E+01 -0.19629283438E+01  0.99096768278E+01  0.00000000000E+00 0. -1.
</event>
<event>
 8    1  0.7311878E-012  0.9118800E+02  0.7816164E-02  0.1184000E+00
        -11   -1    0    0    0    0  0.00000000000E+00  0.00000000000E+00  0.45593999997E+02  0.45594000000E+02  0.51100000000E-03 0. -1.
         11   -1    0    0    0    0 -0.00000000000E+00 -0.00000000000E+00 -0.45593999997E+02  0.45594000000E+02  0.51100000000E-03 0.  1.
         23    2    1    2    0    0  0.17763568394E-14  0.13322676296E-14  0.71054273576E-14  0.91188000000E+02  0.91188000000E+02 0.  0.
    9900012    2    3    3    0    0 -0.90732737277E+01  0.31881034820E+01  0.39505410656E+02  0.50528858702E+02  0.29999996511E+02 0.  0.
        -12    1    3    3    0    0  0.90732737277E+01 -0.31881034820E+01 -0.39505410656E+02  0.40659141298E+02  0.00000000000E+00 0.  1.
         11    1    4    4    0    0 -0.50550304405E+01  0.97280690319E+01  0.29912162092E+02  0.31857904845E+02  0.51100000000E-03 0. -1.
        -11    1    4    4    0    0 -0.69582574567E+01  0.13493696917E+01  0.67410649238E+01  0.97816206207E+01  0.51100000000E-03 0.  1.
        -12    1    4    4    0    0  0.29400141695E+01 -0.78893352416E+01  0.28521836408E+01  0.88893332367E+01  0.00000000000E+00 0.  1.
</event>
<event>
 8    1  0.7311878E-012  0.9118800E+02  0.7816164E-02  0.1184000E+00
        -11   -1    0    0    0    0  0.00000000000E+00  0.00000000000E+00  0.45593999997E+02  0.45594000000E+02  0.51100000000E-03 0. -1.
         11   -1    0    0    0    0 -0.00000000000E+00 -0.00000000000E+00 -0.45593999997E+02  0.45594000000E+02  0.51100000000E-03 0.  1.
         23    2    1    2    0    0  0.71054273576E-14  0.35527136788E-14 -0.35527136788E-14  0.91188000000E+02  0.91188000000E+02 0.  0.
    9900012    2    3    3    0    0 -0.25696303967E+02 -0.26912547676E+02  0.16388408643E+02  0.50528865752E+02  0.30000017939E+02 0.  0.
        -12    1    3    3    0    0  0.25696303967E+02  0.26912547676E+02 -0.16388408643E+02  0.40659134248E+02  0.00000000000E+00 0.  1.
         11    1    4    4    0    0 -0.18395135849E+01  0.25273420601E+01  0.58393137322E+01  0.66233566446E+01  0.51100000000E-03 0. -1.
        -11    1    4    4    0    0 -0.15318135392E+02 -0.40873896146E+01  0.44603605875E+01  0.16469573236E+02  0.51100000000E-03 0.  1.
         12    1    4    4    0    0 -0.85386549902E+01 -0.25352500121E+02  0.60887343231E+01  0.27435935871E+02  0.00000000000E+00 0. -1.
</event>
<event>
 8    1  0.7311878E-012  0.9118800E+02  0.7816164E-02  0.1184000E+00
        -11   -1    0    0    0    0  0.00000000000E+00  0.00000000000E+00  0.45593999997E+02  0.45594000000E+02  0.51100000000E-03 0. -1.
         11   -1    0    0    0    0 -0.00000000000E+00 -0.00000000000E+00 -0.45593999997E+02  0.45594000000E+02  0.51100000000E-03 0.  1.
         23    2    1    2    0    0 -0.35527136788E-14  0.17763568394E-14  0.00000000000E+00  0.91188000000E+02  0.91188000000E+02 0.  0.
    9900012    2    3    3    0    0  0.23014937087E+02 -0.64270537721E+01 -0.32896373023E+02  0.50528859486E+02  0.29999998894E+02 0.  0.
         12    1    3    3    0    0 -0.23014937087E+02  0.64270537721E+01  0.32896373023E+02  0.40659140514E+02  0.00000000000E+00 0. -1.
         11    1    4    4    0    0  0.12259951821E+02 -0.80569425208E+01 -0.39185001541E+01  0.15184708926E+02  0.51100000000E-03 0. -1.
        -11    1    4    4    0    0  0.10711019736E+02 -0.62193254642E+01 -0.17578792187E+02  0.21503950522E+02  0.51100000000E-03 0.  1.
        -12    1    4    4    0    0  0.43965529421E-01  0.78492142129E+01 -0.11399080681E+02  0.13840200038E+02  0.00000000000E+00 0.  1.
</event>
<event>
 8    1  0.7311878E-012  0.9118800E+02  0.7816164E-02  0.1184000E+00
        -11   -1    0    0    0    0  0.00000000000E+00  0.00000000000E+00  0.45593999997E+02  0.45594000000E+02  0.51100000000E-03 0. -1.
         11   -1    0    0    0    0 -0.00000000000E+00 -0.00000000000E+00 -0.45593999997E+02  0.45594000000E+02  0.51100000000E-03 0.  1.
         23    2    1    2    0    0  0.00000000000E+00  0.00000000000E+00  0.88817841970E-15  0.91188000000E+02  0.91188000000E+02 0.  0.
    9900012    2    3    3    0    0  0.21817749549E+02  0.34069782031E+02 -0.40493382530E+01  0.50528912660E+02  0.30000160522E+02 0.  0.
         12    1    3    3    0    0 -0.21817749549E+02 -0.34069782031E+02  0.40493382530E+01  0.40659087340E+02  0.00000000000E+00 0. -1.
         11    1    4    4    0    0 -0.29327680258E+01  0.57737533735E+00  0.25862914588E+00  0.30002299694E+01  0.51100000000E-03 0. -1.
        -11    1    4    4    0    0  0.29395251241E+01 -0.16098497398E+01  0.41613739942E+01  0.53431692768E+01  0.51100000000E-03 0.  1.
        -12    1    4    4    0    0  0.21810992450E+02  0.35102256433E+02 -0.84693413931E+01  0.42185513414E+02  0.00000000000E+00 0.  1.
</event>
<event>
 8    1  0.7311878E-012  0.9118800E+02  0.7816164E-02  0.1184000E+00
        -11   -1    0    0    0    0  0.00000000000E+00  0.00000000000E+00  0.45593999997E+02  0.45594000000E+02  0.51100000000E-03 0. -1.
         11   -1    0    0    0    0 -0.00000000000E+00 -0.00000000000E+00 -0.45593999997E+02  0.45594000000E+02  0.51100000000E-03 0.  1.
         23    2    1    2    0    0  0.66613381478E-15  0.00000000000E+00  0.00000000000E+00  0.91188000000E+02  0.91188000000E+02 0.  0.
    9900012    2    3    3    0    0 -0.90211736946E+00 -0.19675530282E+02 -0.35570005946E+02  0.50528860430E+02  0.30000001762E+02 0.  0.
         12    1    3    3    0    0  0.90211736946E+00  0.19675530282E+02  0.35570005946E+02  0.40659139570E+02  0.00000000000E+00 0. -1.
         11    1    4    4    0    0  0.30469022548E+01 -0.17582233985E+02 -0.21757027604E+02  0.28138706717E+02  0.51100000000E-03 0. -1.
        -11    1    4    4    0    0  0.57423719968E+01  0.39475526145E+00 -0.55831468773E+00  0.57829389949E+01  0.51100000000E-03 0.  1.
        -12    1    4    4    0    0 -0.96913916211E+01 -0.24880515585E+01 -0.13254663654E+02  0.16607214718E+02  0.00000000000E+00 0.  1.
</event>
<event>
 8    1  0.7311878E-012  0.9118800E+02  0.7816164E-02  0.1184000E+00
        -11   -1    0    0    0    0  0.00000000000E+00  0.00000000000E+00  0.45593999997E+02  0.45594000000E+02  0.51100000000E-03 0.  1.
         11   -1    0    0    0    0 -0.00000000000E+00 -0.00000000000E+00 -0.45593999997E+02  0.45594000000E+02  0.51100000000E-03 0. -1.
         23    2    1    2    0    0 -0.35527136788E-14  0.71054273576E-14 -0.44408920985E-15  0.91188000000E+02  0.91188000000E+02 0.  0.
    9900012    2    3    3    0    0 -0.26199052554E+02  0.31009840155E+02 -0.22726745899E+01  0.50528860917E+02  0.30000003245E+02 0.  0.
         12    1    3    3    0    0  0.26199052554E+02 -0.31009840155E+02  0.22726745899E+01  0.40659139083E+02  0.00000000000E+00 0. -1.
         11    1    4    4    0    0 -0.82262428667E+01  0.25490199926E+02 -0.87714356175E+01  0.28184383035E+02  0.51100000000E-03 0. -1.
        -11    1    4    4    0    0 -0.75510696126E+01  0.76362367862E+01  0.30281414762E+01  0.11157974978E+02  0.51100000000E-03 0.  1.
         12    1    4    4    0    0 -0.10421740075E+02 -0.21165965578E+01  0.34706195514E+01  0.11186502905E+02  0.00000000000E+00 0. -1.
</event>
<event>
 8    1  0.7311878E-012  0.9118800E+02  0.7816164E-02  0.1184000E+00
        -11   -1    0    0    0    0  0.00000000000E+00  0.00000000000E+00  0.45593999997E+02  0.45594000000E+02  0.51100000000E-03 0. -1.
         11   -1    0    0    0    0 -0.00000000000E+00 -0.00000000000E+00 -0.45593999997E+02  0.45594000000E+02  0.51100000000E-03 0.  1.
         23    2    1    2    0    0  0.00000000000E+00 -0.17763568394E-14 -0.71054273576E-14  0.91188000000E+02  0.91188000000E+02 0.  0.
    9900012    2    3    3    0    0 -0.13643249620E+02  0.10790468696E+02  0.36750418163E+02  0.50528859453E+02  0.29999998795E+02 0.  0.
        -12    1    3    3    0    0  0.13643249620E+02 -0.10790468696E+02 -0.36750418163E+02  0.40659140547E+02  0.00000000000E+00 0.  1.
         11    1    4    4    0    0 -0.15132756189E+02  0.14638935988E+02  0.33244446985E+02  0.39350883247E+02  0.51100000000E-03 0. -1.
        -11    1    4    4    0    0 -0.63689134929E+00  0.28176454338E+01 -0.75483041081E+00  0.29857202802E+01  0.51100000000E-03 0.  1.
        -12    1    4    4    0    0  0.21263979182E+01 -0.66661127260E+01  0.42608015883E+01  0.81922559260E+01  0.00000000000E+00 0.  1.
</event>
<event>
 8    1  0.7311878E-012  0.9118800E+02  0.7816164E-02  0.1184000E+00
        -11   -1    0    0    0    0  0.00000000000E+00  0.00000000000E+00  0.45593999997E+02  0.45594000000E+02  0.51100000000E-03 0. -1.
         11   -1    0    0    0    0 -0.00000000000E+00 -0.00000000000E+00 -0.45593999997E+02  0.45594000000E+02  0.51100000000E-03 0.  1.
         23    2    1    2    0    0  0.00000000000E+00  0.00000000000E+00  0.00000000000E+00  0.91188000000E+02  0.91188000000E+02 0.  0.
    9900012    2    3    3    0    0  0.22716194019E+02  0.89726373665E+01  0.32505873521E+02  0.50528861970E+02  0.30000006443E+02 0.  0.
        -12    1    3    3    0    0 -0.22716194019E+02 -0.89726373665E+01 -0.32505873521E+02  0.40659138030E+02  0.00000000000E+00 0.  1.
         11    1    4    4    0    0 -0.17311493664E+01 -0.23787423500E+01  0.21832910267E+01  0.36636120516E+01  0.51100000000E-03 0.  1.
        -11    1    4    4    0    0  0.29137179940E+02  0.91096678693E+01  0.26245535887E+02  0.40259029519E+02  0.51100000000E-03 0. -1.
         12    1    4    4    0    0 -0.46898365551E+01  0.22417118473E+01  0.40770466071E+01  0.66062203987E+01  0.00000000000E+00 0. -1.
</event>
<event>
 8    1  0.7311878E-012  0.9118800E+02  0.7816164E-02  0.1184000E+00
        -11   -1    0    0    0    0  0.00000000000E+00  0.00000000000E+00  0.45593999997E+02  0.45594000000E+02  0.51100000000E-03 0. -1.
         11   -1    0    0    0    0 -0.00000000000E+00 -0.00000000000E+00 -0.45593999997E+02  0.45594000000E+02  0.51100000000E-03 0.  1.
         23    2    1    2    0    0  0.00000000000E+00  0.00000000000E+00  0.00000000000E+00  0.91188000000E+02  0.91188000000E+02 0.  0.
    9900012    2    3    3    0    0  0.12240511966E+02  0.15382481984E+02  0.35590935819E+02  0.50528860835E+02  0.30000002994E+02 0.  0.
        -12    1    3    3    0    0 -0.12240511966E+02 -0.15382481984E+02 -0.35590935819E+02  0.40659139165E+02  0.00000000000E+00 0.  1.
         11    1    4    4    0    0 -0.46241902959E+01  0.40112876866E+01  0.10603288090E+02  0.12243499637E+02  0.51100000000E-03 0. -1.
        -11    1    4    4    0    0  0.57707573561E+01  0.15895557135E+02  0.16286498030E+02  0.23478083300E+02  0.51100000000E-03 0.  1.
         12    1    4    4    0    0  0.11093944905E+02 -0.45243628375E+01  0.87011496989E+01  0.14807277897E+02  0.00000000000E+00 0. -1.
</event>
<event>
 8    1  0.7311878E-012  0.9118800E+02  0.7816164E-02  0.1184000E+00
        -11   -1    0    0    0    0  0.00000000000E+00  0.00000000000E+00  0.45593999997E+02  0.45594000000E+02  0.51100000000E-03 0. -1.
         11   -1    0    0    0    0 -0.00000000000E+00 -0.00000000000E+00 -0.45593999997E+02  0.45594000000E+02  0.51100000000E-03 0.  1.
         23    2    1    2    0    0  0.00000000000E+00  0.00000000000E+00  0.00000000000E+00  0.91188000000E+02  0.91188000000E+02 0.  0.
    9900012    2    3    3    0    0  0.17350856616E+02  0.11650928978E+02 -0.34876444838E+02  0.50528895536E+02  0.30000108470E+02 0.  0.
         12    1    3    3    0    0 -0.17350856616E+02 -0.11650928978E+02  0.34876444838E+02  0.40659104464E+02  0.00000000000E+00 0. -1.
         11    1    4    4    0    0  0.11640237683E+02  0.20982173050E+01 -0.18393813780E+02  0.21868471250E+02  0.51100000000E-03 0. -1.
        -11    1    4    4    0    0  0.11529879066E+01  0.51536270751E+01 -0.20493512203E+02  0.21163017172E+02  0.51100000000E-03 0.  1.
         12    1    4    4    0    0  0.45576310263E+01  0.43990845975E+01  0.40108811455E+01  0.74974071139E+01  0.00000000000E+00 0. -1.
</event>
<event>
 8    1  0.7311878E-012  0.9118800E+02  0.7816164E-02  0.1184000E+00
        -11   -1    0    0    0    0  0.00000000000E+00  0.00000000000E+00  0.45593999997E+02  0.45594000000E+02  0.51100000000E-03 0. -1.
         11   -1    0    0    0    0 -0.00000000000E+00 -0.00000000000E+00 -0.45593999997E+02  0.45594000000E+02  0.51100000000E-03 0.  1.
         23    2    1    2    0    0  0.14432899320E-14  0.22204460493E-15 -0.71054273576E-14  0.91188000000E+02  0.91188000000E+02 0.  0.
    9900012    2    3    3    0    0 -0.72908310689E+00  0.16247600219E+01  0.40620138301E+02  0.50528843063E+02  0.29999948973E+02 0.  0.
        -12    1    3    3    0    0  0.72908310689E+00 -0.16247600219E+01 -0.40620138301E+02  0.40659156937E+02  0.00000000000E+00 0.  1.
         11    1    4    4    0    0  0.17563856670E+00 -0.29068887030E+01  0.25058410211E+02  0.25227064304E+02  0.51100000000E-03 0. -1.
        -11    1    4    4    0    0  0.45918000856E+01  0.78718145434E+01  0.16453208029E+02  0.18808459451E+02  0.51100000000E-03 0.  1.
        -12    1    4    4    0    0 -0.54965217592E+01 -0.33401658185E+01 -0.89147993922E+00  0.64933193073E+01  0.00000000000E+00 0.  1.
</event>
<event>
 8    1  0.7311878E-012  0.9118800E+02  0.7816164E-02  0.1184000E+00
        -11   -1    0    0    0    0  0.00000000000E+00  0.00000000000E+00  0.45593999997E+02  0.45594000000E+02  0.51100000000E-03 0. -1.
         11   -1    0    0    0    0 -0.00000000000E+00 -0.00000000000E+00 -0.45593999997E+02  0.45594000000E+02  0.51100000000E-03 0.  1.
         23    2    1    2    0    0  0.88817841970E-15  0.35527136788E-14  0.00000000000E+00  0.91188000000E+02  0.91188000000E+02 0.  0.
    9900012    2    3    3    0    0  0.42490726893E+01  0.21525748599E+02  0.34230878369E+02  0.50528861970E+02  0.30000006444E+02 0.  0.
        -12    1    3    3    0    0 -0.42490726893E+01 -0.21525748599E+02 -0.34230878369E+02  0.40659138030E+02  0.00000000000E+00 0.  1.
         11    1    4    4    0    0  0.12045049803E+01  0.48824918583E+01 -0.18183602547E+01  0.53475221618E+01  0.51100000000E-03 0. -1.
        -11    1    4    4    0    0 -0.11751208484E+00  0.18210119697E+02  0.14317445161E+02  0.23164876530E+02  0.51100000000E-03 0.  1.
         12    1    4    4    0    0  0.31620797939E+01 -0.15668629569E+01  0.21731793463E+02  0.22016463278E+02  0.00000000000E+00 0. -1.
</event>
<event>
 8    1  0.7311878E-012  0.9118800E+02  0.7816164E-02  0.1184000E+00
        -11   -1    0    0    0    0  0.00000000000E+00  0.00000000000E+00  0.45593999997E+02  0.45594000000E+02  0.51100000000E-03 0. -1.
         11   -1    0    0    0    0 -0.00000000000E+00 -0.00000000000E+00 -0.45593999997E+02  0.45594000000E+02  0.51100000000E-03 0.  1.
         23    2    1    2    0    0  0.00000000000E+00  0.00000000000E+00  0.00000000000E+00  0.91188000000E+02  0.91188000000E+02 0.  0.
    9900012    2    3    3    0    0 -0.89592672167E+01 -0.15458183266E+02  0.36523171743E+02  0.50528856218E+02  0.29999988959E+02 0.  0.
        -12    1    3    3    0    0  0.89592672167E+01  0.15458183266E+02 -0.36523171743E+02  0.40659143782E+02  0.00000000000E+00 0.  1.
         11    1    4    4    0    0 -0.30374378656E+01 -0.14199745642E+02  0.78801833516E+01  0.16521382963E+02  0.51100000000E-03 0. -1.
        -11    1    4    4    0    0 -0.61356554163E+01 -0.13429435340E+01  0.99582975272E+00  0.63593586061E+01  0.51100000000E-03 0.  1.
         12    1    4    4    0    0  0.21382606522E+00  0.84505910423E-01  0.27647158639E+02  0.27648114649E+02  0.00000000000E+00 0. -1.
</event>
<event>
 8    1  0.7311878E-012  0.9118800E+02  0.7816164E-02  0.1184000E+00
        -11   -1    0    0    0    0  0.00000000000E+00  0.00000000000E+00  0.45593999997E+02  0.45594000000E+02  0.51100000000E-03 0. -1.
         11   -1    0    0    0    0 -0.00000000000E+00 -0.00000000000E+00 -0.45593999997E+02  0.45594000000E+02  0.51100000000E-03 0.  1.
         23    2    1    2    0    0 -0.35527136788E-14  0.00000000000E+00 -0.35527136788E-14  0.91188000000E+02  0.91188000000E+02 0.  0.
    9900012    2    3    3    0    0  0.27567670285E+02 -0.96100273499E+01  0.28299050709E+02  0.50528863983E+02  0.30000012563E+02 0.  0.
        -12    1    3    3    0    0 -0.27567670285E+02  0.96100273499E+01 -0.28299050709E+02  0.40659136017E+02  0.00000000000E+00 0.  1.
         11    1    4    4    0    0  0.11101187770E+02  0.64437078045E+01  0.17110801622E+02  0.21390120911E+02  0.51100000000E-03 0. -1.
        -11    1    4    4    0    0 -0.13460593113E+01 -0.10350992093E+01 -0.17913394746E+01  0.24682389303E+01  0.51100000000E-03 0.  1.
        -12    1    4    4    0    0  0.17812541826E+02 -0.15018635945E+02  0.12979588562E+02  0.26670504142E+02  0.00000000000E+00 0.  1.
</event>
<event>
 8    1  0.7311878E-012  0.9118800E+02  0.7816164E-02  0.1184000E+00
        -11   -1    0    0    0    0  0.00000000000E+00  0.00000000000E+00  0.45593999997E+02  0.45594000000E+02  0.51100000000E-03 0.  1.
         11   -1    0    0    0    0 -0.00000000000E+00 -0.00000000000E+00 -0.45593999997E+02  0.45594000000E+02  0.51100000000E-03 0. -1.
         23    2    1    2    0    0 -0.71054273576E-14 -0.35527136788E-14  0.35527136788E-14  0.91188000000E+02  0.91188000000E+02 0.  0.
    9900012    2    3    3    0    0 -0.32908112648E+02 -0.16386581860E+02  0.17369567843E+02  0.50528857976E+02  0.29999994303E+02 0.  0.
        -12    1    3    3    0    0  0.32908112648E+02  0.16386581860E+02 -0.17369567843E+02  0.40659142024E+02  0.00000000000E+00 0.  1.
         11    1    4    4    0    0 -0.38091608775E+01 -0.52181588153E+01  0.11219942168E+02  0.12947045629E+02  0.51100000000E-03 0. -1.
        -11    1    4    4    0    0 -0.25017175927E+02 -0.94997883360E+01  0.12751260237E+02  0.29642869424E+02  0.51100000000E-03 0.  1.
         12    1    4    4    0    0 -0.40817758433E+01 -0.16686347086E+01 -0.66016345626E+01  0.79389429223E+01  0.00000000000E+00 0. -1.
</event>
<event>
 8    1  0.7311878E-012  0.9118800E+02  0.7816164E-02  0.1184000E+00
        -11   -1    0    0    0    0  0.00000000000E+00  0.00000000000E+00  0.45593999997E+02  0.45594000000E+02  0.51100000000E-03 0. -1.
         11   -1    0    0    0    0 -0.00000000000E+00 -0.00000000000E+00 -0.45593999997E+02  0.45594000000E+02  0.51100000000E-03 0.  1.
         23    2    1    2    0    0  0.00000000000E+00 -0.17763568394E-14  0.00000000000E+00  0.91188000000E+02  0.91188000000E+02 0.  0.
    9900012    2    3    3    0    0  0.14282317471E+02  0.66166036095E+01  0.37488683502E+02  0.50528862940E+02  0.30000009394E+02 0.  0.
        -12    1    3    3    0    0 -0.14282317471E+02 -0.66166036095E+01 -0.37488683502E+02  0.40659137060E+02  0.00000000000E+00 0.  1.
         11    1    4    4    0    0  0.42165509976E+01 -0.66606544624E+01  0.15286098000E+02  0.17199081735E+02  0.51100000000E-03 0. -1.
        -11    1    4    4    0    0  0.40194566744E+01  0.16148407930E+02  0.20535936009E+02  0.26432021842E+02  0.51100000000E-03 0.  1.
         12    1    4    4    0    0  0.60463097994E+01 -0.28711498586E+01  0.16666494930E+01  0.68977593633E+01  0.00000000000E+00 0. -1.
</event>
<event>
 8    1  0.7311878E-012  0.9118800E+02  0.7816164E-02  0.1184000E+00
        -11   -1    0    0    0    0  0.00000000000E+00  0.00000000000E+00  0.45593999997E+02  0.45594000000E+02  0.51100000000E-03 0. -1.
         11   -1    0    0    0    0 -0.00000000000E+00 -0.00000000000E+00 -0.45593999997E+02  0.45594000000E+02  0.51100000000E-03 0.  1.
         23    2    1    2    0    0 -0.35527136788E-14  0.00000000000E+00 -0.17763568394E-14  0.91188000000E+02  0.91188000000E+02 0.  0.
    9900012    2    3    3    0    0  0.18758751159E+02  0.32506584600E+02  0.15639646462E+02  0.50528839546E+02  0.29999938284E+02 0.  0.
        -12    1    3    3    0    0 -0.18758751159E+02 -0.32506584600E+02 -0.15639646462E+02  0.40659160454E+02  0.00000000000E+00 0.  1.
         11    1    4    4    0    0  0.58872405723E+01  0.24428611643E+02  0.13755072901E+02  0.28646443045E+02  0.51100000000E-03 0. -1.
        -11    1    4    4    0    0  0.37293576502E+01  0.10953327742E+02 -0.16083431345E+01  0.11682048836E+02  0.51100000000E-03 0.  1.
         12    1    4    4    0    0  0.91421529362E+01 -0.28753547852E+01  0.34929166955E+01  0.10200347665E+02  0.00000000000E+00 0. -1.
</event>
<event>
 8    1  0.7311878E-012  0.9118800E+02  0.7816164E-02  0.1184000E+00
        -11   -1    0    0    0    0  0.00000000000E+00  0.00000000000E+00  0.45593999997E+02  0.45594000000E+02  0.51100000000E-03 0.  1.
         11   -1    0    0    0    0 -0.00000000000E+00 -0.00000000000E+00 -0.45593999997E+02  0.45594000000E+02  0.51100000000E-03 0. -1.
         23    2    1    2    0    0 -0.17763568394E-14  0.35527136788E-14  0.00000000000E+00  0.91188000000E+02  0.91188000000E+02 0.  0.
    9900012    2    3    3    0    0  0.13238054157E+02 -0.27331310821E+02 -0.27035514632E+02  0.50528859816E+02  0.29999999897E+02 0.  0.
         12    1    3    3    0    0 -0.13238054157E+02  0.27331310821E+02  0.27035514632E+02  0.40659140184E+02  0.00000000000E+00 0. -1.
         11    1    4    4    0    0 -0.37073207521E+01 -0.11739029820E+02 -0.31649073926E+01  0.12710849198E+02  0.51100000000E-03 0. -1.
        -11    1    4    4    0    0  0.85838349093E+01 -0.18556128811E+02 -0.16070641387E+02  0.26005338934E+02  0.51100000000E-03 0.  1.
         12    1    4    4    0    0  0.83615400002E+01  0.29638478099E+01 -0.77999658528E+01  0.11812671684E+02  0.00000000000E+00 0. -1.
</event>
<event>
 8    1  0.7311878E-012  0.9118800E+02  0.7816164E-02  0.1184000E+00
        -11   -1    0    0    0    0  0.00000000000E+00  0.00000000000E+00  0.45593999997E+02  0.45594000000E+02  0.51100000000E-03 0. -1.
         11   -1    0    0    0    0 -0.00000000000E+00 -0.00000000000E+00 -0.45593999997E+02  0.45594000000E+02  0.51100000000E-03 0.  1.
         23    2    1    2    0    0  0.00000000000E+00  0.35527136788E-14  0.00000000000E+00  0.91188000000E+02  0.91188000000E+02 0.  0.
    9900012    2    3    3    0    0 -0.12658330419E+02  0.30403063298E+02  0.23845031442E+02  0.50528866815E+02  0.30000021172E+02 0.  0.
        -12    1    3    3    0    0  0.12658330419E+02 -0.30403063298E+02 -0.23845031442E+02  0.40659133185E+02  0.00000000000E+00 0.  1.
         11    1    4    4    0    0 -0.28666180749E+01  0.22899119939E+02  0.15247278940E+02  0.27659839272E+02  0.51100000000E-03 0. -1.
        -11    1    4    4    0    0  0.29362518962E+01  0.54674774913E+01 -0.16275585538E+01  0.64159046457E+01  0.51100000000E-03 0.  1.
         12    1    4    4    0    0 -0.12727964240E+02  0.20364658671E+01  0.10225311055E+02  0.16453122898E+02  0.00000000000E+00 0. -1.
</event>
<event>
 8    1  0.7311878E-012  0.9118800E+02  0.7816164E-02  0.1184000E+00
        -11   -1    0    0    0    0  0.00000000000E+00  0.00000000000E+00  0.45593999997E+02  0.45594000000E+02  0.51100000000E-03 0. -1.
         11   -1    0    0    0    0 -0.00000000000E+00 -0.00000000000E+00 -0.45593999997E+02  0.45594000000E+02  0.51100000000E-03 0.  1.
         23    2    1    2    0    0  0.17763568394E-14  0.00000000000E+00  0.00000000000E+00  0.91188000000E+02  0.91188000000E+02 0.  0.
    9900012    2    3    3    0    0  0.14030152672E+02 -0.37291001109E+02 -0.81057411015E+01  0.50528843755E+02  0.29999951078E+02 0.  0.
         12    1    3    3    0    0 -0.14030152672E+02  0.37291001109E+02  0.81057411015E+01  0.40659156245E+02  0.00000000000E+00 0. -1.
         11    1    4    4    0    0 -0.32676939628E+01 -0.60799455294E+01 -0.99996821112E+01  0.12150605090E+02  0.51100000000E-03 0. -1.
        -11    1    4    4    0    0  0.56710882418E+01 -0.13005235802E+02 -0.59656905418E+01  0.15391129394E+02  0.51100000000E-03 0.  1.
         12    1    4    4    0    0  0.11626758393E+02 -0.18205819778E+02  0.78596315516E+01  0.22987109271E+02  0.00000000000E+00 0. -1.
</event>
<event>
 8    1  0.7311878E-012  0.9118800E+02  0.7816164E-02  0.1184000E+00
        -11   -1    0    0    0    0  0.00000000000E+00  0.00000000000E+00  0.45593999997E+02  0.45594000000E+02  0.51100000000E-03 0.  1.
         11   -1    0    0    0    0 -0.00000000000E+00 -0.00000000000E+00 -0.45593999997E+02  0.45594000000E+02  0.51100000000E-03 0. -1.
         23    2    1    2    0    0  0.00000000000E+00  0.00000000000E+00  0.00000000000E+00  0.91188000000E+02  0.91188000000E+02 0.  0.
    9900012    2    3    3    0    0 -0.14702807284E+02  0.35821169280E+02 -0.12403158747E+02  0.50528842882E+02  0.29999948424E+02 0.  0.
         12    1    3    3    0    0  0.14702807284E+02 -0.35821169280E+02  0.12403158747E+02  0.40659157118E+02  0.00000000000E+00 0. -1.
         11    1    4    4    0    0 -0.78977412048E+01  0.20713918937E+01 -0.26693404930E+01  0.85901315150E+01  0.51100000000E-03 0. -1.
        -11    1    4    4    0    0  0.44865708321E+01  0.62209666730E+01 -0.94653690047E+01  0.12182895995E+02  0.51100000000E-03 0.  1.
        -12    1    4    4    0    0 -0.11291636911E+02  0.27528810714E+02 -0.26844924947E+00  0.29755815372E+02  0.00000000000E+00 0.  1.
</event>
<event>
 8    1  0.7311878E-012  0.9118800E+02  0.7816164E-02  0.1184000E+00
        -11   -1    0    0    0    0  0.00000000000E+00  0.00000000000E+00  0.45593999997E+02  0.45594000000E+02  0.51100000000E-03 0. -1.
         11   -1    0    0    0    0 -0.00000000000E+00 -0.00000000000E+00 -0.45593999997E+02  0.45594000000E+02  0.51100000000E-03 0.  1.
         23    2    1    2    0    0  0.00000000000E+00  0.00000000000E+00  0.35527136788E-14  0.91188000000E+02  0.91188000000E+02 0.  0.
    9900012    2    3    3    0    0  0.27162788811E+02  0.81560704606E+01  0.29134638736E+02  0.50528858892E+02  0.29999997087E+02 0.  0.
        -12    1    3    3    0    0 -0.27162788811E+02 -0.81560704606E+01 -0.29134638736E+02  0.40659141108E+02  0.00000000000E+00 0.  1.
         11    1    4    4    0    0  0.38715489658E+01  0.12590220415E+02  0.19409122790E+02  0.23456696042E+02  0.51100000000E-03 0. -1.
        -11    1    4    4    0    0  0.48905610795E+01 -0.19036109984E+01 -0.13865661941E+01  0.54280649017E+01  0.51100000000E-03 0.  1.
        -12    1    4    4    0    0  0.18400678766E+02 -0.25305389561E+01  0.11112082141E+02  0.21644097947E+02  0.00000000000E+00 0.  1.
</event>
<event>
 8    1  0.7311878E-012  0.9118800E+02  0.7816164E-02  0.1184000E+00
        -11   -1    0    0    0    0  0.00000000000E+00  0.00000000000E+00  0.45593999997E+02  0.45594000000E+02  0.51100000000E-03 0. -1.
         11   -1    0    0    0    0 -0.00000000000E+00 -0.00000000000E+00 -0.45593999997E+02  0.45594000000E+02  0.51100000000E-03 0.  1.
         23    2    1    2    0    0  0.17763568394E-14  0.35527136788E-14  0.00000000000E+00  0.91188000000E+02  0.91188000000E+02 0.  0.
    9900012    2    3    3    0    0 -0.12353402879E+02 -0.27111083485E+02 -0.27668497826E+02  0.50528890537E+02  0.30000093275E+02 0.  0.
         12    1    3    3    0    0  0.12353402879E+02  0.27111083485E+02  0.27668497826E+02  0.40659109463E+02  0.00000000000E+00 0. -1.
         11    1    4    4    0    0 -0.68070586494E+01 -0.54262540743E+01 -0.21418195001E+02  0.23119674697E+02  0.51100000000E-03 0. -1.
        -11    1    4    4    0    0 -0.18455412800E+01 -0.12172594061E+02 -0.10664946563E+02  0.16288620390E+02  0.51100000000E-03 0.  1.
        -12    1    4    4    0    0 -0.37008029499E+01 -0.95122353499E+01  0.44146437374E+01  0.11120595450E+02  0.00000000000E+00 0.  1.
</event>
<event>
 8    1  0.7311878E-012  0.9118800E+02  0.7816164E-02  0.1184000E+00
        -11   -1    0    0    0    0  0.00000000000E+00  0.00000000000E+00  0.45593999997E+02  0.45594000000E+02  0.51100000000E-03 0. -1.
         11   -1    0    0    0    0 -0.00000000000E+00 -0.00000000000E+00 -0.45593999997E+02  0.45594000000E+02  0.51100000000E-03 0.  1.
         23    2    1    2    0    0  0.00000000000E+00  0.35527136788E-14  0.35527136788E-14  0.91188000000E+02  0.91188000000E+02 0.  0.
    9900012    2    3    3    0    0 -0.19524199728E+02 -0.17898771548E+02 -0.30848106346E+02  0.50528855111E+02  0.29999985594E+02 0.  0.
         12    1    3    3    0    0  0.19524199728E+02  0.17898771548E+02  0.30848106346E+02  0.40659144889E+02  0.00000000000E+00 0. -1.
         11    1    4    4    0    0 -0.16849314013E+02 -0.11278159449E+01 -0.91117940157E+01  0.19188437715E+02  0.51100000000E-03 0. -1.
        -11    1    4    4    0    0 -0.21740602755E+01  0.11396490731E+01 -0.90740356385E+01  0.94001841004E+01  0.51100000000E-03 0.  1.
        -12    1    4    4    0    0 -0.50082543991E+00 -0.17910604677E+02 -0.12662276692E+02  0.21940233295E+02  0.00000000000E+00 0.  1.
</event>
<event>
 8    1  0.7311878E-012  0.9118800E+02  0.7816164E-02  0.1184000E+00
        -11   -1    0    0    0    0  0.00000000000E+00  0.00000000000E+00  0.45593999997E+02  0.45594000000E+02  0.51100000000E-03 0. -1.
         11   -1    0    0    0    0 -0.00000000000E+00 -0.00000000000E+00 -0.45593999997E+02  0.45594000000E+02  0.51100000000E-03 0.  1.
         23    2    1    2    0    0  0.35527136788E-14 -0.88817841970E-15  0.00000000000E+00  0.91188000000E+02  0.91188000000E+02 0.  0.
    9900012    2    3    3    0    0  0.23948547131E+02 -0.51632394011E+01  0.32449554893E+02  0.50528861254E+02  0.30000004269E+02 0.  0.
        -12    1    3    3    0    0 -0.23948547131E+02  0.51632394011E+01 -0.32449554893E+02  0.40659138746E+02  0.00000000000E+00 0.  1.
         11    1    4    4    0    0  0.65074093255E+01 -0.45647558051E+01  0.11252715915E+01  0.80280513268E+01  0.51100000000E-03 0. -1.
        -11    1    4    4    0    0  0.34229860511E+01  0.70770957560E+01  0.61964563525E+00  0.78858150384E+01  0.51100000000E-03 0.  1.
         12    1    4    4    0    0  0.14018151755E+02 -0.76755793520E+01  0.30704637666E+02  0.34614994889E+02  0.00000000000E+00 0. -1.
</event>
<event>
 8    1  0.7311878E-012  0.9118800E+02  0.7816164E-02  0.1184000E+00
        -11   -1    0    0    0    0  0.00000000000E+00  0.00000000000E+00  0.45593999997E+02  0.45594000000E+02  0.51100000000E-03 0. -1.
         11   -1    0    0    0    0 -0.00000000000E+00 -0.00000000000E+00 -0.45593999997E+02  0.45594000000E+02  0.51100000000E-03 0.  1.
         23    2    1    2    0    0  0.00000000000E+00 -0.35527136788E-14  0.00000000000E+00  0.91188000000E+02  0.91188000000E+02 0.  0.
    9900012    2    3    3    0    0  0.24387054221E+02  0.19161830685E+02  0.26291834777E+02  0.50528871323E+02  0.30000034874E+02 0.  0.
        -12    1    3    3    0    0 -0.24387054221E+02 -0.19161830685E+02 -0.26291834777E+02  0.40659128677E+02  0.00000000000E+00 0.  1.
         11    1    4    4    0    0  0.19048900552E+02  0.14912686519E+02  0.21133517966E+02  0.32122802078E+02  0.51100000000E-03 0. -1.
        -11    1    4    4    0    0 -0.99081981922E+00  0.94225093894E+01  0.32019349933E+01  0.10000889714E+02  0.51100000000E-03 0.  1.
        -12    1    4    4    0    0  0.63289734880E+01 -0.51733652229E+01  0.19563818183E+01  0.84051795317E+01  0.00000000000E+00 0.  1.
</event>
<event>
 8    1  0.7311878E-012  0.9118800E+02  0.7816164E-02  0.1184000E+00
        -11   -1    0    0    0    0  0.00000000000E+00  0.00000000000E+00  0.45593999997E+02  0.45594000000E+02  0.51100000000E-03 0. -1.
         11   -1    0    0    0    0 -0.00000000000E+00 -0.00000000000E+00 -0.45593999997E+02  0.45594000000E+02  0.51100000000E-03 0.  1.
         23    2    1    2    0    0  0.00000000000E+00  0.17763568394E-14  0.00000000000E+00  0.91188000000E+02  0.91188000000E+02 0.  0.
    9900012    2    3    3    0    0  0.26962116602E+02 -0.10815417523E+02 -0.28447092419E+02  0.50528855211E+02  0.29999985898E+02 0.  0.
         12    1    3    3    0    0 -0.26962116602E+02  0.10815417523E+02  0.28447092419E+02  0.40659144789E+02  0.00000000000E+00 0. -1.
         11    1    4    4    0    0  0.34219585440E+01 -0.59527347605E+01 -0.12113844996E+02  0.13924442260E+02  0.51100000000E-03 0. -1.
        -11    1    4    4    0    0  0.42551588850E+00 -0.69431993097E+01  0.17616723862E+01  0.71758323756E+01  0.51100000000E-03 0.  1.
         12    1    4    4    0    0  0.23114642170E+02  0.20805165470E+01 -0.18094919810E+02  0.29428580575E+02  0.00000000000E+00 0. -1.
</event>
<event>
 8    1  0.7311878E-012  0.9118800E+02  0.7816164E-02  0.1184000E+00
        -11   -1    0    0    0    0  0.00000000000E+00  0.00000000000E+00  0.45593999997E+02  0.45594000000E+02  0.51100000000E-03 0. -1.
         11   -1    0    0    0    0 -0.00000000000E+00 -0.00000000000E+00 -0.45593999997E+02  0.45594000000E+02  0.51100000000E-03 0.  1.
         23    2    1    2    0    0  0.00000000000E+00  0.00000000000E+00  0.35527136788E-14  0.91188000000E+02  0.91188000000E+02 0.  0.
    9900012    2    3    3    0    0 -0.32323908917E+02 -0.13239861721E+02  0.20809500278E+02  0.50528876449E+02  0.30000050455E+02 0.  0.
        -12    1    3    3    0    0  0.32323908917E+02  0.13239861721E+02 -0.20809500278E+02  0.40659123551E+02  0.00000000000E+00 0.  1.
         11    1    4    4    0    0 -0.57646238222E+01 -0.98428344003E+00 -0.55613619844E+00  0.58744352438E+01  0.51100000000E-03 0. -1.
        -11    1    4    4    0    0  0.27626016889E+01 -0.79666110035E+01  0.95817178399E+01  0.12763548723E+02  0.51100000000E-03 0.  1.
         12    1    4    4    0    0 -0.29321886784E+02 -0.42889672778E+01  0.11783918637E+02  0.31890892482E+02  0.00000000000E+00 0. -1.
</event>
<event>
 8    1  0.7311878E-012  0.9118800E+02  0.7816164E-02  0.1184000E+00
        -11   -1    0    0    0    0  0.00000000000E+00  0.00000000000E+00  0.45593999997E+02  0.45594000000E+02  0.51100000000E-03 0. -1.
         11   -1    0    0    0    0 -0.00000000000E+00 -0.00000000000E+00 -0.45593999997E+02  0.45594000000E+02  0.51100000000E-03 0.  1.
         23    2    1    2    0    0  0.00000000000E+00  0.35527136788E-14  0.00000000000E+00  0.91188000000E+02  0.91188000000E+02 0.  0.
    9900012    2    3    3    0    0  0.21766856543E+02  0.16752514685E+02 -0.29978699259E+02  0.50528865709E+02  0.30000017809E+02 0.  0.
         12    1    3    3    0    0 -0.21766856543E+02 -0.16752514685E+02  0.29978699259E+02  0.40659134291E+02  0.00000000000E+00 0. -1.
         11    1    4    4    0    0  0.20634560452E+01 -0.30342250186E+01  0.22118434148E+01  0.42844630780E+01  0.51100000000E-03 0. -1.
        -11    1    4    4    0    0  0.20519702841E+02  0.96823984601E+01 -0.18905626706E+02  0.29533536294E+02  0.51100000000E-03 0.  1.
        -12    1    4    4    0    0 -0.81630234272E+00  0.10104341243E+02 -0.13284915967E+02  0.16710866337E+02  0.00000000000E+00 0.  1.
</event>
<event>
 8    1  0.7311878E-012  0.9118800E+02  0.7816164E-02  0.1184000E+00
        -11   -1    0    0    0    0  0.00000000000E+00  0.00000000000E+00  0.45593999997E+02  0.45594000000E+02  0.51100000000E-03 0. -1.
         11   -1    0    0    0    0 -0.00000000000E+00 -0.00000000000E+00 -0.45593999997E+02  0.45594000000E+02  0.51100000000E-03 0.  1.
         23    2    1    2    0    0  0.00000000000E+00 -0.17763568394E-14  0.00000000000E+00  0.91188000000E+02  0.91188000000E+02 0.  0.
    9900012    2    3    3    0    0 -0.83430652797E+01  0.12877176065E+02  0.37652851112E+02  0.50528860824E+02  0.30000002960E+02 0.  0.
        -12    1    3    3    0    0  0.83430652797E+01 -0.12877176065E+02 -0.37652851112E+02  0.40659139176E+02  0.00000000000E+00 0.  1.
         11    1    4    4    0    0 -0.91576939171E+01  0.95647999517E+01  0.52277512529E+01  0.14236507276E+02  0.51100000000E-03 0. -1.
        -11    1    4    4    0    0  0.70690743161E+01  0.49907441309E+00  0.70091577315E+01  0.99674058472E+01  0.51100000000E-03 0.  1.
        -12    1    4    4    0    0 -0.62544456787E+01  0.28133017000E+01  0.25415942128E+02  0.26324947701E+02  0.00000000000E+00 0.  1.
</event>
<event>
 8    1  0.7311878E-012  0.9118800E+02  0.7816164E-02  0.1184000E+00
        -11   -1    0    0    0    0  0.00000000000E+00  0.00000000000E+00  0.45593999997E+02  0.45594000000E+02  0.51100000000E-03 0. -1.
         11   -1    0    0    0    0 -0.00000000000E+00 -0.00000000000E+00 -0.45593999997E+02  0.45594000000E+02  0.51100000000E-03 0.  1.
         23    2    1    2    0    0 -0.35527136788E-14  0.00000000000E+00  0.00000000000E+00  0.91188000000E+02  0.91188000000E+02 0.  0.
    9900012    2    3    3    0    0 -0.31384937412E+02 -0.19083102983E+02  0.17435213745E+02  0.50528858418E+02  0.29999995649E+02 0.  0.
        -12    1    3    3    0    0  0.31384937412E+02  0.19083102983E+02 -0.17435213745E+02  0.40659141582E+02  0.00000000000E+00 0.  1.
         11    1    4    4    0    0  0.27786787804E+01 -0.21300197340E+01 -0.40281163647E+01  0.53370180382E+01  0.51100000000E-03 0. -1.
        -11    1    4    4    0    0 -0.87653044396E+01 -0.73943497739E+01  0.16381056874E+01  0.11584056328E+02  0.51100000000E-03 0.  1.
         12    1    4    4    0    0 -0.25398311753E+02 -0.95587334755E+01  0.19825224422E+02  0.33607784053E+02  0.00000000000E+00 0. -1.
</event>
<event>
 8    1  0.7311878E-012  0.9118800E+02  0.7816164E-02  0.1184000E+00
        -11   -1    0    0    0    0  0.00000000000E+00  0.00000000000E+00  0.45593999997E+02  0.45594000000E+02  0.51100000000E-03 0. -1.
         11   -1    0    0    0    0 -0.00000000000E+00 -0.00000000000E+00 -0.45593999997E+02  0.45594000000E+02  0.51100000000E-03 0.  1.
         23    2    1    2    0    0  0.74940054162E-15  0.00000000000E+00  0.00000000000E+00  0.91188000000E+02  0.91188000000E+02 0.  0.
    9900012    2    3    3    0    0  0.23981627950E+00 -0.16330725791E+02  0.37234605929E+02  0.50528855944E+02  0.29999988127E+02 0.  0.
        -12    1    3    3    0    0 -0.23981627950E+00  0.16330725791E+02 -0.37234605929E+02  0.40659144056E+02  0.00000000000E+00 0.  1.
         11    1    4    4    0    0  0.73542785368E+01 -0.25726559356E+01  0.73722579289E+01  0.10726330155E+02  0.51100000000E-03 0. -1.
        -11    1    4    4    0    0 -0.98987032825E+01 -0.11340949834E+02  0.32124689690E+02  0.35476712894E+02  0.51100000000E-03 0.  1.
         12    1    4    4    0    0  0.27842410252E+01 -0.24171200212E+01 -0.22623416901E+01  0.43258128954E+01  0.00000000000E+00 0. -1.
</event>
<event>
 8    1  0.7311878E-012  0.9118800E+02  0.7816164E-02  0.1184000E+00
        -11   -1    0    0    0    0  0.00000000000E+00  0.00000000000E+00  0.45593999997E+02  0.45594000000E+02  0.51100000000E-03 0. -1.
         11   -1    0    0    0    0 -0.00000000000E+00 -0.00000000000E+00 -0.45593999997E+02  0.45594000000E+02  0.51100000000E-03 0.  1.
         23    2    1    2    0    0  0.35527136788E-14  0.00000000000E+00 -0.10658141036E-13  0.91188000000E+02  0.91188000000E+02 0.  0.
    9900012    2    3    3    0    0  0.18918351500E+02  0.23623423778E+02 -0.27151367792E+02  0.50528844236E+02  0.29999952539E+02 0.  0.
         12    1    3    3    0    0 -0.18918351500E+02 -0.23623423778E+02  0.27151367792E+02  0.40659155764E+02  0.00000000000E+00 0. -1.
         11    1    4    4    0    0  0.56484100929E+00  0.11816420268E+02 -0.77639646946E+01  0.14150123015E+02  0.51100000000E-03 0. -1.
        -11    1    4    4    0    0  0.13150872180E+02  0.14793520000E+02 -0.22208890880E+02  0.29749428692E+02  0.51100000000E-03 0.  1.
         12    1    4    4    0    0  0.52026383102E+01 -0.29865164900E+01  0.28214877819E+01  0.66292925291E+01  0.00000000000E+00 0. -1.
</event>
<event>
 8    1  0.7311878E-012  0.9118800E+02  0.7816164E-02  0.1184000E+00
        -11   -1    0    0    0    0  0.00000000000E+00  0.00000000000E+00  0.45593999997E+02  0.45594000000E+02  0.51100000000E-03 0. -1.
         11   -1    0    0    0    0 -0.00000000000E+00 -0.00000000000E+00 -0.45593999997E+02  0.45594000000E+02  0.51100000000E-03 0.  1.
         23    2    1    2    0    0  0.00000000000E+00 -0.35527136788E-14  0.00000000000E+00  0.91188000000E+02  0.91188000000E+02 0.  0.
    9900012    2    3    3    0    0 -0.22154919221E+02  0.29638924457E+02  0.16848091407E+02  0.50528874669E+02  0.30000045043E+02 0.  0.
        -12    1    3    3    0    0  0.22154919221E+02 -0.29638924457E+02 -0.16848091407E+02  0.40659125331E+02  0.00000000000E+00 0.  1.
         11    1    4    4    0    0 -0.37348903359E+01  0.18487873917E+02  0.12975321071E+01  0.18905937629E+02  0.51100000000E-03 0. -1.
        -11    1    4    4    0    0 -0.15409988617E+02  0.15516221813E+02  0.14439713415E+02  0.26205461498E+02  0.51100000000E-03 0.  1.
        -12    1    4    4    0    0 -0.30100402685E+01 -0.43651712740E+01  0.11108458847E+01  0.54174755421E+01  0.00000000000E+00 0.  1.
</event>
<event>
 8    1  0.1085153E-011  0.9118800E+02  0.7816164E-02  0.1184000E+00
        -11   -1    0    0    0    0  0.00000000000E+00  0.00000000000E+00  0.45593999997E+02  0.45594000000E+02  0.51100000000E-03 0.  1.
         11   -1    0    0    0    0 -0.00000000000E+00 -0.00000000000E+00 -0.45593999997E+02  0.45594000000E+02  0.51100000000E-03 0. -1.
         23    2    1    2    0    0 -0.17763568394E-14  0.00000000000E+00  0.71054273576E-14  0.91188000000E+02  0.91188000000E+02 0.  0.
    9900012    2    3    3    0    0  0.14111011243E+02 -0.18733640659E+02 -0.33212885983E+02  0.50528859257E+02  0.29999998198E+02 0.  0.
         12    1    3    3    0    0 -0.14111011243E+02  0.18733640659E+02  0.33212885983E+02  0.40659140743E+02  0.00000000000E+00 0. -1.
         11    1    4    4    0    0  0.40448080656E+01  0.22328824605E+01  0.12710417534E+01  0.47918455494E+01  0.51100000000E-03 0. -1.
        -11    1    4    4    0    0  0.13401692395E+02 -0.70876888023E+01 -0.13153885567E+02  0.20071507103E+02  0.51100000000E-03 0.  1.
        -12    1    4    4    0    0 -0.33354892177E+01 -0.13878834317E+02 -0.21330042170E+02  0.25665506605E+02  0.00000000000E+00 0.  1.
</event>
<event>
 8    1  0.7311878E-012  0.9118800E+02  0.7816164E-02  0.1184000E+00
        -11   -1    0    0    0    0  0.00000000000E+00  0.00000000000E+00  0.45593999997E+02  0.45594000000E+02  0.51100000000E-03 0. -1.
         11   -1    0    0    0    0 -0.00000000000E+00 -0.00000000000E+00 -0.45593999997E+02  0.45594000000E+02  0.51100000000E-03 0.  1.
         23    2    1    2    0    0 -0.17763568394E-14  0.35527136788E-14  0.35527136788E-14  0.91188000000E+02  0.91188000000E+02 0.  0.
    9900012    2    3    3    0    0 -0.82589338055E+01  0.24944577630E+02  0.31027766623E+02  0.50528877501E+02  0.30000053653E+02 0.  0.
        -12    1    3    3    0    0  0.82589338055E+01 -0.24944577630E+02 -0.31027766623E+02  0.40659122499E+02  0.00000000000E+00 0.  1.
         11    1    4    4    0    0 -0.21447927817E+01 -0.50427514468E+01  0.60599913041E+01  0.81702492678E+01  0.51100000000E-03 0. -1.
        -11    1    4    4    0    0  0.20827563865E+01  0.11411385841E+02  0.16927281460E+02  0.20520488758E+02  0.51100000000E-03 0.  1.
         12    1    4    4    0    0 -0.81968974102E+01  0.18575943236E+02  0.80404938593E+01  0.21838139476E+02  0.00000000000E+00 0. -1.
</event>
<event>
 8    1  0.7311878E-012  0.9118800E+02  0.7816164E-02  0.1184000E+00
        -11   -1    0    0    0    0  0.00000000000E+00  0.00000000000E+00  0.45593999997E+02  0.45594000000E+02  0.51100000000E-03 0. -1.
         11   -1    0    0    0    0 -0.00000000000E+00 -0.00000000000E+00 -0.45593999997E+02  0.45594000000E+02  0.51100000000E-03 0.  1.
         23    2    1    2    0    0  0.35527136788E-14 -0.35527136788E-14 -0.35527136788E-14  0.91188000000E+02  0.91188000000E+02 0.  0.
    9900012    2    3    3    0    0 -0.20011606117E+02  0.17735534016E+02  0.30629275400E+02  0.50528855177E+02  0.29999985795E+02 0.  0.
        -12    1    3    3    0    0  0.20011606117E+02 -0.17735534016E+02 -0.30629275400E+02  0.40659144823E+02  0.00000000000E+00 0.  1.
         11    1    4    4    0    0 -0.96705382361E+01  0.50685442101E+01  0.10193575116E+02  0.14937149129E+02  0.51100000000E-03 0. -1.
        -11    1    4    4    0    0 -0.58084202063E+01  0.14777856875E+02  0.14338115318E+01  0.15942980113E+02  0.51100000000E-03 0.  1.
        -12    1    4    4    0    0 -0.45326476744E+01 -0.21108670688E+01  0.19001888752E+02  0.19648725935E+02  0.00000000000E+00 0.  1.
</event>
<event>
 8    1  0.7311878E-012  0.9118800E+02  0.7816164E-02  0.1184000E+00
        -11   -1    0    0    0    0  0.00000000000E+00  0.00000000000E+00  0.45593999997E+02  0.45594000000E+02  0.51100000000E-03 0. -1.
         11   -1    0    0    0    0 -0.00000000000E+00 -0.00000000000E+00 -0.45593999997E+02  0.45594000000E+02  0.51100000000E-03 0.  1.
         23    2    1    2    0    0  0.00000000000E+00  0.00000000000E+00  0.35527136788E-14  0.91188000000E+02  0.91188000000E+02 0.  0.
    9900012    2    3    3    0    0 -0.15659098351E+02  0.27590965467E+02  0.25430303511E+02  0.50528818095E+02  0.29999873080E+02 0.  0.
        -12    1    3    3    0    0  0.15659098351E+02 -0.27590965467E+02 -0.25430303511E+02  0.40659181905E+02  0.00000000000E+00 0.  1.
         11    1    4    4    0    0  0.35084087065E+00 -0.95592847712E+00  0.56234305274E+01  0.57148805523E+01  0.51100000000E-03 0. -1.
        -11    1    4    4    0    0 -0.19495098174E+02  0.14287550942E+02  0.17758530461E+02  0.29992638582E+02  0.51100000000E-03 0.  1.
        -12    1    4    4    0    0  0.34851589521E+01  0.14259343003E+02  0.20483425229E+01  0.14821298961E+02  0.00000000000E+00 0.  1.
</event>
<event>
 8    1  0.7311878E-012  0.9118800E+02  0.7816164E-02  0.1184000E+00
        -11   -1    0    0    0    0  0.00000000000E+00  0.00000000000E+00  0.45593999997E+02  0.45594000000E+02  0.51100000000E-03 0. -1.
         11   -1    0    0    0    0 -0.00000000000E+00 -0.00000000000E+00 -0.45593999997E+02  0.45594000000E+02  0.51100000000E-03 0.  1.
         23    2    1    2    0    0 -0.88817841970E-15 -0.44408920985E-15  0.71054273576E-14  0.91188000000E+02  0.91188000000E+02 0.  0.
    9900012    2    3    3    0    0 -0.76182634961E+01 -0.34549801165E+01  0.39789329447E+02  0.50528861247E+02  0.30000004247E+02 0.  0.
        -12    1    3    3    0    0  0.76182634961E+01  0.34549801165E+01 -0.39789329447E+02  0.40659138753E+02  0.00000000000E+00 0.  1.
         11    1    4    4    0    0 -0.59451267286E+01  0.93773478533E+01  0.27478980939E+02  0.29637367938E+02  0.51100000000E-03 0. -1.
        -11    1    4    4    0    0  0.44921517534E+01 -0.35094519745E+01  0.42988400024E+01  0.71397273172E+01  0.51100000000E-03 0.  1.
        -12    1    4    4    0    0 -0.61652885210E+01 -0.93228759953E+01  0.80115085057E+01  0.13751765992E+02  0.00000000000E+00 0.  1.
</event>
<event>
 8    1  0.7311878E-012  0.9118800E+02  0.7816164E-02  0.1184000E+00
        -11   -1    0    0    0    0  0.00000000000E+00  0.00000000000E+00  0.45593999997E+02  0.45594000000E+02  0.51100000000E-03 0. -1.
         11   -1    0    0    0    0 -0.00000000000E+00 -0.00000000000E+00 -0.45593999997E+02  0.45594000000E+02  0.51100000000E-03 0.  1.
         23    2    1    2    0    0  0.00000000000E+00 -0.35527136788E-14  0.00000000000E+00  0.91188000000E+02  0.91188000000E+02 0.  0.
    9900012    2    3    3    0    0  0.16214193275E+01 -0.23821270195E+02 -0.32910226876E+02  0.50528868831E+02  0.30000027299E+02 0.  0.
         12    1    3    3    0    0 -0.16214193275E+01  0.23821270195E+02  0.32910226876E+02  0.40659131169E+02  0.00000000000E+00 0. -1.
         11    1    4    4    0    0  0.53917986162E+01 -0.76021812670E+01 -0.86671125163E+01  0.12727273548E+02  0.51100000000E-03 0. -1.
        -11    1    4    4    0    0 -0.27687079174E+01 -0.10942879314E+02 -0.28688978950E+02  0.30829691284E+02  0.51100000000E-03 0.  1.
         12    1    4    4    0    0 -0.10016713713E+01 -0.52762096139E+01  0.44458645896E+01  0.69719039992E+01  0.00000000000E+00 0. -1.
</event>
<event>
 8    1  0.7311878E-012  0.9118800E+02  0.7816164E-02  0.1184000E+00
        -11   -1    0    0    0    0  0.00000000000E+00  0.00000000000E+00  0.45593999997E+02  0.45594000000E+02  0.51100000000E-03 0. -1.
         11   -1    0    0    0    0 -0.00000000000E+00 -0.00000000000E+00 -0.45593999997E+02  0.45594000000E+02  0.51100000000E-03 0.  1.
         23    2    1    2    0    0  0.00000000000E+00  0.88817841970E-15 -0.71054273576E-14  0.91188000000E+02  0.91188000000E+02 0.  0.
    9900012    2    3    3    0    0 -0.28429363750E+02 -0.63882824135E+01  0.28357131143E+02  0.50528858812E+02  0.29999996846E+02 0.  0.
        -12    1    3    3    0    0  0.28429363750E+02  0.63882824135E+01 -0.28357131143E+02  0.40659141188E+02  0.00000000000E+00 0.  1.
         11    1    4    4    0    0 -0.12468763561E+02 -0.11737635081E+02  0.22392602972E+02  0.28189906175E+02  0.51100000000E-03 0.  1.
        -11    1    4    4    0    0 -0.11061421870E+02 -0.19347464691E+01  0.73938383983E+01  0.13444967245E+02  0.51100000000E-03 0. -1.
         12    1    4    4    0    0 -0.48991783189E+01  0.72840991365E+01 -0.14293102271E+01  0.88939853921E+01  0.00000000000E+00 0. -1.
</event>
<event>
 8    1  0.1279645E-011  0.9118800E+02  0.7816164E-02  0.1184000E+00
        -11   -1    0    0    0    0  0.00000000000E+00  0.00000000000E+00  0.45593999997E+02  0.45594000000E+02  0.51100000000E-03 0. -1.
         11   -1    0    0    0    0 -0.00000000000E+00 -0.00000000000E+00 -0.45593999997E+02  0.45594000000E+02  0.51100000000E-03 0.  1.
         23    2    1    2    0    0  0.00000000000E+00  0.00000000000E+00 -0.35527136788E-14  0.91188000000E+02  0.91188000000E+02 0.  0.
    9900012    2    3    3    0    0 -0.26466157776E+02  0.52820767686E+01 -0.30410662800E+02  0.50528852759E+02  0.29999978445E+02 0.  0.
         12    1    3    3    0    0  0.26466157776E+02 -0.52820767686E+01  0.30410662800E+02  0.40659147241E+02  0.00000000000E+00 0. -1.
         11    1    4    4    0    0 -0.18551465085E+01  0.43942416988E+01 -0.18109107533E+02  0.18726737692E+02  0.51100000000E-03 0. -1.
        -11    1    4    4    0    0 -0.15480021127E+02  0.57258525715E+01 -0.13601298641E+02  0.21387186976E+02  0.51100000000E-03 0.  1.
         12    1    4    4    0    0 -0.91309901411E+01 -0.48380175018E+01  0.12997433737E+01  0.10414928091E+02  0.00000000000E+00 0. -1.
</event>
<event>
 8    1  0.7311878E-012  0.9118800E+02  0.7816164E-02  0.1184000E+00
        -11   -1    0    0    0    0  0.00000000000E+00  0.00000000000E+00  0.45593999997E+02  0.45594000000E+02  0.51100000000E-03 0. -1.
         11   -1    0    0    0    0 -0.00000000000E+00 -0.00000000000E+00 -0.45593999997E+02  0.45594000000E+02  0.51100000000E-03 0.  1.
         23    2    1    2    0    0  0.00000000000E+00  0.00000000000E+00  0.00000000000E+00  0.91188000000E+02  0.91188000000E+02 0.  0.
    9900012    2    3    3    0    0  0.11957504036E+01  0.10236481988E+02  0.39331289950E+02  0.50528858942E+02  0.29999997239E+02 0.  0.
        -12    1    3    3    0    0 -0.11957504036E+01 -0.10236481988E+02 -0.39331289950E+02  0.40659141058E+02  0.00000000000E+00 0.  1.
         11    1    4    4    0    0  0.72861816857E+01  0.57928274655E+01  0.33917314900E+02  0.35171430791E+02  0.51100000000E-03 0. -1.
        -11    1    4    4    0    0 -0.17486170260E+01 -0.41995622330E+01  0.27856880146E+01  0.53342330685E+01  0.51100000000E-03 0.  1.
        -12    1    4    4    0    0 -0.43418142560E+01  0.86432167551E+01  0.26282870346E+01  0.10023195082E+02  0.00000000000E+00 0.  1.
</event>
<event>
 8    1  0.7311878E-012  0.9118800E+02  0.7816164E-02  0.1184000E+00
        -11   -1    0    0    0    0  0.00000000000E+00  0.00000000000E+00  0.45593999997E+02  0.45594000000E+02  0.51100000000E-03 0. -1.
         11   -1    0    0    0    0 -0.00000000000E+00 -0.00000000000E+00 -0.45593999997E+02  0.45594000000E+02  0.51100000000E-03 0.  1.
         23    2    1    2    0    0 -0.53290705182E-14 -0.71054273576E-14  0.00000000000E+00  0.91188000000E+02  0.91188000000E+02 0.  0.
    9900012    2    3    3    0    0  0.13769016855E+02  0.34650579147E+02  0.16214734561E+02  0.50528854936E+02  0.29999985065E+02 0.  0.
        -12    1    3    3    0    0 -0.13769016855E+02 -0.34650579147E+02 -0.16214734561E+02  0.40659145064E+02  0.00000000000E+00 0.  1.
         11    1    4    4    0    0  0.84958546900E+01  0.13294239773E+02  0.11507037379E+02  0.19527628314E+02  0.51100000000E-03 0. -1.
        -11    1    4    4    0    0  0.52469579587E+01 -0.27444246318E+01  0.34820852598E+01  0.68693050884E+01  0.51100000000E-03 0.  1.
         12    1    4    4    0    0  0.26204206390E-01  0.24100764006E+02  0.12256119220E+01  0.24131921534E+02  0.00000000000E+00 0. -1.
</event>
<event>
 8    1  0.7311878E-012  0.9118800E+02  0.7816164E-02  0.1184000E+00
        -11   -1    0    0    0    0  0.00000000000E+00  0.00000000000E+00  0.45593999997E+02  0.45594000000E+02  0.51100000000E-03 0.  1.
         11   -1    0    0    0    0 -0.00000000000E+00 -0.00000000000E+00 -0.45593999997E+02  0.45594000000E+02  0.51100000000E-03 0. -1.
         23    2    1    2    0    0  0.00000000000E+00  0.00000000000E+00 -0.88817841970E-15  0.91188000000E+02  0.91188000000E+02 0.  0.
    9900012    2    3    3    0    0  0.36868604351E+02  0.17137862453E+02  0.40705377192E+00  0.50528855776E+02  0.29999987617E+02 0.  0.
         12    1    3    3    0    0 -0.36868604351E+02 -0.17137862453E+02 -0.40705377192E+00  0.40659144224E+02  0.00000000000E+00 0. -1.
         11    1    4    4    0    0  0.15539703808E+01 -0.56924235194E+01  0.20709009604E+01  0.62535702217E+01  0.51100000000E-03 0. -1.
        -11    1    4    4    0    0  0.33166213416E+01 -0.14500023652E+01  0.16369630823E+01  0.39726732028E+01  0.51100000000E-03 0.  1.
         12    1    4    4    0    0  0.31998012629E+02  0.24280288337E+02 -0.33008102708E+01  0.40302612352E+02  0.00000000000E+00 0. -1.
</event>
<event>
 8    1  0.7311878E-012  0.9118800E+02  0.7816164E-02  0.1184000E+00
        -11   -1    0    0    0    0  0.00000000000E+00  0.00000000000E+00  0.45593999997E+02  0.45594000000E+02  0.51100000000E-03 0. -1.
         11   -1    0    0    0    0 -0.00000000000E+00 -0.00000000000E+00 -0.45593999997E+02  0.45594000000E+02  0.51100000000E-03 0.  1.
         23    2    1    2    0    0  0.00000000000E+00  0.00000000000E+00  0.00000000000E+00  0.91188000000E+02  0.91188000000E+02 0.  0.
    9900012    2    3    3    0    0  0.12881715760E+02 -0.35026046310E+02 -0.16137003889E+02  0.50528863075E+02  0.30000009801E+02 0.  0.
         12    1    3    3    0    0 -0.12881715760E+02  0.35026046310E+02  0.16137003889E+02  0.40659136925E+02  0.00000000000E+00 0. -1.
         11    1    4    4    0    0  0.17146616396E+02 -0.19471187385E+02 -0.10513822114E+02  0.27994178818E+02  0.51100000000E-03 0. -1.
        -11    1    4    4    0    0  0.22505488032E+00 -0.16100266611E+02 -0.73412363500E+01  0.17696411672E+02  0.51100000000E-03 0.  1.
         12    1    4    4    0    0 -0.44899555160E+01  0.54540768614E+00  0.17180545751E+01  0.48382725846E+01  0.00000000000E+00 0. -1.
</event>
<event>
 8    1  0.7311878E-012  0.9118800E+02  0.7816164E-02  0.1184000E+00
        -11   -1    0    0    0    0  0.00000000000E+00  0.00000000000E+00  0.45593999997E+02  0.45594000000E+02  0.51100000000E-03 0. -1.
         11   -1    0    0    0    0 -0.00000000000E+00 -0.00000000000E+00 -0.45593999997E+02  0.45594000000E+02  0.51100000000E-03 0.  1.
         23    2    1    2    0    0  0.00000000000E+00  0.00000000000E+00  0.00000000000E+00  0.91188000000E+02  0.91188000000E+02 0.  0.
    9900012    2    3    3    0    0  0.79745857748E+01  0.24163867629E+02  0.31712449425E+02  0.50528856310E+02  0.29999989239E+02 0.  0.
        -12    1    3    3    0    0 -0.79745857748E+01 -0.24163867629E+02 -0.31712449425E+02  0.40659143690E+02  0.00000000000E+00 0.  1.
         11    1    4    4    0    0  0.17698774783E+01  0.12375974925E+02 -0.13015839723E+01  0.12569460718E+02  0.51100000000E-03 0. -1.
        -11    1    4    4    0    0 -0.75517599892E+00 -0.26236526881E+01  0.48982642015E+01  0.56077479139E+01  0.51100000000E-03 0.  1.
        -12    1    4    4    0    0  0.69598842954E+01  0.14411545392E+02  0.28115769196E+02  0.32351647678E+02  0.00000000000E+00 0.  1.
</event>
<event>
 8    1  0.7311878E-012  0.9118800E+02  0.7816164E-02  0.1184000E+00
        -11   -1    0    0    0    0  0.00000000000E+00  0.00000000000E+00  0.45593999997E+02  0.45594000000E+02  0.51100000000E-03 0.  1.
         11   -1    0    0    0    0 -0.00000000000E+00 -0.00000000000E+00 -0.45593999997E+02  0.45594000000E+02  0.51100000000E-03 0. -1.
         23    2    1    2    0    0  0.00000000000E+00 -0.17763568394E-14  0.00000000000E+00  0.91188000000E+02  0.91188000000E+02 0.  0.
    9900012    2    3    3    0    0 -0.37402341349E+02 -0.11139151983E+02 -0.11408700325E+02  0.50528753961E+02  0.29999678139E+02 0.  0.
         12    1    3    3    0    0  0.37402341349E+02  0.11139151983E+02  0.11408700325E+02  0.40659246039E+02  0.00000000000E+00 0. -1.
         11    1    4    4    0    0 -0.98736247220E+01  0.32530809561E+01  0.32447657887E+01  0.10890340038E+02  0.51100000000E-03 0. -1.
        -11    1    4    4    0    0 -0.28041768612E+01 -0.84328695563E+01  0.21662674067E+01  0.91470985324E+01  0.51100000000E-03 0.  1.
        -12    1    4    4    0    0 -0.24724539766E+02 -0.59593633824E+01 -0.16819733521E+02  0.30491315391E+02  0.00000000000E+00 0.  1.
</event>
<event>
 8    1  0.7311878E-012  0.9118800E+02  0.7816164E-02  0.1184000E+00
        -11   -1    0    0    0    0  0.00000000000E+00  0.00000000000E+00  0.45593999997E+02  0.45594000000E+02  0.51100000000E-03 0. -1.
         11   -1    0    0    0    0 -0.00000000000E+00 -0.00000000000E+00 -0.45593999997E+02  0.45594000000E+02  0.51100000000E-03 0.  1.
         23    2    1    2    0    0 -0.35527136788E-14 -0.17763568394E-14  0.00000000000E+00  0.91188000000E+02  0.91188000000E+02 0.  0.
    9900012    2    3    3    0    0  0.28541168094E+02 -0.12535004023E+02 -0.26104412397E+02  0.50528868817E+02  0.30000027255E+02 0.  0.
         12    1    3    3    0    0 -0.28541168094E+02  0.12535004023E+02  0.26104412397E+02  0.40659131183E+02  0.00000000000E+00 0. -1.
         11    1    4    4    0    0  0.63068716658E+01  0.44457870672E+00 -0.60423013103E+01  0.87454951730E+01  0.51100000000E-03 0.  1.
        -11    1    4    4    0    0  0.23920550422E+02 -0.71265773184E+00 -0.15850936671E+02  0.28704578157E+02  0.51100000000E-03 0. -1.
         12    1    4    4    0    0 -0.16862539941E+01 -0.12266924998E+02 -0.42111744148E+01  0.13078795487E+02  0.00000000000E+00 0. -1.
</event>
<event>
 8    1  0.7311878E-012  0.9118800E+02  0.7816164E-02  0.1184000E+00
        -11   -1    0    0    0    0  0.00000000000E+00  0.00000000000E+00  0.45593999997E+02  0.45594000000E+02  0.51100000000E-03 0. -1.
         11   -1    0    0    0    0 -0.00000000000E+00 -0.00000000000E+00 -0.45593999997E+02  0.45594000000E+02  0.51100000000E-03 0.  1.
         23    2    1    2    0    0  0.00000000000E+00  0.17763568394E-14  0.00000000000E+00  0.91188000000E+02  0.91188000000E+02 0.  0.
    9900012    2    3    3    0    0  0.37201185418E+02  0.78698109461E+01 -0.14398031554E+02  0.50528862854E+02  0.30000009131E+02 0.  0.
         12    1    3    3    0    0 -0.37201185418E+02 -0.78698109461E+01  0.14398031554E+02  0.40659137146E+02  0.00000000000E+00 0. -1.
         11    1    4    4    0    0  0.14618859393E+02  0.87286230466E+01 -0.81452385378E+01  0.18874448902E+02  0.51100000000E-03 0. -1.
        -11    1    4    4    0    0  0.14499222095E+01  0.11951291391E+01 -0.99301210785E+01  0.10106330341E+02  0.51100000000E-03 0.  1.
        -12    1    4    4    0    0  0.21132403815E+02 -0.20539412396E+01  0.36773280623E+01  0.21548083611E+02  0.00000000000E+00 0.  1.
</event>
<event>
 8    1  0.7311878E-012  0.9118800E+02  0.7816164E-02  0.1184000E+00
        -11   -1    0    0    0    0  0.00000000000E+00  0.00000000000E+00  0.45593999997E+02  0.45594000000E+02  0.51100000000E-03 0. -1.
         11   -1    0    0    0    0 -0.00000000000E+00 -0.00000000000E+00 -0.45593999997E+02  0.45594000000E+02  0.51100000000E-03 0.  1.
         23    2    1    2    0    0  0.00000000000E+00  0.35527136788E-14  0.00000000000E+00  0.91188000000E+02  0.91188000000E+02 0.  0.
    9900012    2    3    3    0    0 -0.27006160895E+02  0.19215239905E+02 -0.23550103585E+02  0.50528861424E+02  0.30000004784E+02 0.  0.
         12    1    3    3    0    0  0.27006160895E+02 -0.19215239905E+02  0.23550103585E+02  0.40659138576E+02  0.00000000000E+00 0. -1.
         11    1    4    4    0    0 -0.86120664936E+01  0.16720230718E+02 -0.22957566802E+02  0.29677999904E+02  0.51100000000E-03 0. -1.
        -11    1    4    4    0    0 -0.76894716005E+01  0.42001795951E+01 -0.37945987555E+01  0.95482177448E+01  0.51100000000E-03 0.  1.
         12    1    4    4    0    0 -0.10704622801E+02 -0.17051704090E+01  0.32020619721E+01  0.11302643775E+02  0.00000000000E+00 0. -1.
</event>
<event>
 8    1  0.7311878E-012  0.9118800E+02  0.7816164E-02  0.1184000E+00
        -11   -1    0    0    0    0  0.00000000000E+00  0.00000000000E+00  0.45593999997E+02  0.45594000000E+02  0.51100000000E-03 0. -1.
         11   -1    0    0    0    0 -0.00000000000E+00 -0.00000000000E+00 -0.45593999997E+02  0.45594000000E+02  0.51100000000E-03 0.  1.
         23    2    1    2    0    0  0.00000000000E+00 -0.71054273576E-14 -0.71054273576E-14  0.91188000000E+02  0.91188000000E+02 0.  0.
    9900012    2    3    3    0    0 -0.79898715478E+01  0.34440001373E+02  0.20080183905E+02  0.50528861696E+02  0.30000005611E+02 0.  0.
        -12    1    3    3    0    0  0.79898715478E+01 -0.34440001373E+02 -0.20080183905E+02  0.40659138304E+02  0.00000000000E+00 0.  1.
         11    1    4    4    0    0 -0.89432690881E+01  0.13560112734E+02  0.13893400418E+02  0.21374875316E+02  0.51100000000E-03 0. -1.
        -11    1    4    4    0    0 -0.73202736916E+01  0.37860086011E+01 -0.19889553854E+01  0.84779839487E+01  0.51100000000E-03 0.  1.
        -12    1    4    4    0    0  0.82736712319E+01  0.17093880039E+02  0.81757388726E+01  0.20676002431E+02  0.00000000000E+00 0.  1.
</event>
<event>
 8    1  0.7311878E-012  0.9118800E+02  0.7816164E-02  0.1184000E+00
        -11   -1    0    0    0    0  0.00000000000E+00  0.00000000000E+00  0.45593999997E+02  0.45594000000E+02  0.51100000000E-03 0. -1.
         11   -1    0    0    0    0 -0.00000000000E+00 -0.00000000000E+00 -0.45593999997E+02  0.45594000000E+02  0.51100000000E-03 0.  1.
         23    2    1    2    0    0  0.00000000000E+00  0.17763568394E-14  0.00000000000E+00  0.91188000000E+02  0.91188000000E+02 0.  0.
    9900012    2    3    3    0    0  0.20952409212E+02  0.14229923983E+02  0.31806778920E+02  0.50528863590E+02  0.30000011369E+02 0.  0.
        -12    1    3    3    0    0 -0.20952409212E+02 -0.14229923983E+02 -0.31806778920E+02  0.40659136410E+02  0.00000000000E+00 0.  1.
         11    1    4    4    0    0  0.63764264317E+01  0.10044822851E+02  0.12521434152E+02  0.17272625557E+02  0.51100000000E-03 0. -1.
        -11    1    4    4    0    0 -0.30995506040E+01  0.66335281593E+01  0.48841902832E+00  0.73382193478E+01  0.51100000000E-03 0.  1.
        -12    1    4    4    0    0  0.17675533385E+02 -0.24484270272E+01  0.18796925739E+02  0.25918018686E+02  0.00000000000E+00 0.  1.
</event>
<event>
 8    1  0.7311878E-012  0.9118800E+02  0.7816164E-02  0.1184000E+00
        -11   -1    0    0    0    0  0.00000000000E+00  0.00000000000E+00  0.45593999997E+02  0.45594000000E+02  0.51100000000E-03 0. -1.
         11   -1    0    0    0    0 -0.00000000000E+00 -0.00000000000E+00 -0.45593999997E+02  0.45594000000E+02  0.51100000000E-03 0.  1.
         23    2    1    2    0    0  0.71054273576E-14 -0.35527136788E-14 -0.35527136788E-14  0.91188000000E+02  0.91188000000E+02 0.  0.
    9900012    2    3    3    0    0 -0.18351846813E+02  0.27175023098E+02  0.24039397066E+02  0.50528870974E+02  0.30000033813E+02 0.  0.
        -12    1    3    3    0    0  0.18351846813E+02 -0.27175023098E+02 -0.24039397066E+02  0.40659129026E+02  0.00000000000E+00 0.  1.
         11    1    4    4    0    0 -0.14985801698E+02  0.16637313472E+02  0.18673350275E+02  0.29155933579E+02  0.51100000000E-03 0. -1.
        -11    1    4    4    0    0 -0.10409335616E+02  0.43344541041E+01  0.23833143295E+01  0.11524840468E+02  0.51100000000E-03 0.  1.
        -12    1    4    4    0    0  0.70432905012E+01  0.62032555223E+01  0.29827324617E+01  0.98480969277E+01  0.00000000000E+00 0.  1.
</event>
<event>
 8    1  0.7311878E-012  0.9118800E+02  0.7816164E-02  0.1184000E+00
        -11   -1    0    0    0    0  0.00000000000E+00  0.00000000000E+00  0.45593999997E+02  0.45594000000E+02  0.51100000000E-03 0.  1.
         11   -1    0    0    0    0 -0.00000000000E+00 -0.00000000000E+00 -0.45593999997E+02  0.45594000000E+02  0.51100000000E-03 0. -1.
         23    2    1    2    0    0  0.00000000000E+00  0.35527136788E-14  0.35527136788E-14  0.91188000000E+02  0.91188000000E+02 0.  0.
    9900012    2    3    3    0    0  0.97161576232E+01 -0.30985847080E+02 -0.24467100201E+02  0.50528862890E+02  0.30000009242E+02 0.  0.
         12    1    3    3    0    0 -0.97161576232E+01  0.30985847080E+02  0.24467100201E+02  0.40659137110E+02  0.00000000000E+00 0. -1.
         11    1    4    4    0    0  0.88343543135E+01 -0.18486706310E+02 -0.97780234363E+01  0.22702728226E+02  0.51100000000E-03 0.  1.
        -11    1    4    4    0    0  0.65603709332E+01 -0.53125644144E+01  0.21019364382E+01  0.86994220779E+01  0.51100000000E-03 0. -1.
         12    1    4    4    0    0 -0.56785676235E+01 -0.71865763560E+01 -0.16791013203E+02  0.19126712587E+02  0.00000000000E+00 0. -1.
</event>
<event>
 8    1  0.7311878E-012  0.9118800E+02  0.7816164E-02  0.1184000E+00
        -11   -1    0    0    0    0  0.00000000000E+00  0.00000000000E+00  0.45593999997E+02  0.45594000000E+02  0.51100000000E-03 0.  1.
         11   -1    0    0    0    0 -0.00000000000E+00 -0.00000000000E+00 -0.45593999997E+02  0.45594000000E+02  0.51100000000E-03 0. -1.
         23    2    1    2    0    0 -0.71054273576E-14 -0.88817841970E-15  0.00000000000E+00  0.91188000000E+02  0.91188000000E+02 0.  0.
    9900012    2    3    3    0    0 -0.34881025052E+02 -0.62857980995E+01 -0.19924108807E+02  0.50528840169E+02  0.29999940176E+02 0.  0.
         12    1    3    3    0    0  0.34881025052E+02  0.62857980995E+01  0.19924108807E+02  0.40659159831E+02  0.00000000000E+00 0. -1.
         11    1    4    4    0    0 -0.91350242352E+01 -0.20516754761E+01 -0.17691539341E+02  0.20016208546E+02  0.51100000000E-03 0. -1.
        -11    1    4    4    0    0 -0.89549421066E+01 -0.22372833654E+00 -0.83021434554E+01  0.12213379087E+02  0.51100000000E-03 0.  1.
        -12    1    4    4    0    0 -0.16791058710E+02 -0.40103942869E+01  0.60695739897E+01  0.18299252536E+02  0.00000000000E+00 0.  1.
</event>
<event>
 8    1  0.7311878E-012  0.9118800E+02  0.7816164E-02  0.1184000E+00
        -11   -1    0    0    0    0  0.00000000000E+00  0.00000000000E+00  0.45593999997E+02  0.45594000000E+02  0.51100000000E-03 0. -1.
         11   -1    0    0    0    0 -0.00000000000E+00 -0.00000000000E+00 -0.45593999997E+02  0.45594000000E+02  0.51100000000E-03 0.  1.
         23    2    1    2    0    0 -0.44408920985E-15  0.00000000000E+00  0.00000000000E+00  0.91188000000E+02  0.91188000000E+02 0.  0.
    9900012    2    3    3    0    0 -0.35717515296E+01 -0.20153824307E+02  0.35131627006E+02  0.50528864996E+02  0.30000015643E+02 0.  0.
        -12    1    3    3    0    0  0.35717515296E+01  0.20153824307E+02 -0.35131627006E+02  0.40659135004E+02  0.00000000000E+00 0.  1.
         11    1    4    4    0    0 -0.54849103470E+01 -0.11285758970E+02  0.10396682713E+02  0.16295508852E+02  0.51100000000E-03 0. -1.
        -11    1    4    4    0    0 -0.44594246481E+01 -0.70853249786E+00 -0.24545819276E+01  0.51394026106E+01  0.51100000000E-03 0.  1.
         12    1    4    4    0    0  0.63725834655E+01 -0.81595328393E+01  0.27189526220E+02  0.29093953534E+02  0.00000000000E+00 0. -1.
</event>
<event>
 8    1  0.7311878E-012  0.9118800E+02  0.7816164E-02  0.1184000E+00
        -11   -1    0    0    0    0  0.00000000000E+00  0.00000000000E+00  0.45593999997E+02  0.45594000000E+02  0.51100000000E-03 0. -1.
         11   -1    0    0    0    0 -0.00000000000E+00 -0.00000000000E+00 -0.45593999997E+02  0.45594000000E+02  0.51100000000E-03 0.  1.
         23    2    1    2    0    0 -0.71054273576E-14  0.00000000000E+00 -0.35527136788E-14  0.91188000000E+02  0.91188000000E+02 0.  0.
    9900012    2    3    3    0    0 -0.32014704092E+02 -0.17251383712E+02 -0.18182625498E+02  0.50528937197E+02  0.30000235102E+02 0.  0.
         12    1    3    3    0    0  0.32014704092E+02  0.17251383712E+02  0.18182625498E+02  0.40659062803E+02  0.00000000000E+00 0. -1.
         11    1    4    4    0    0 -0.27069171994E+01  0.27002430197E+01 -0.60741535827E+01  0.71773292455E+01  0.51100000000E-03 0. -1.
        -11    1    4    4    0    0  0.24612724440E+00 -0.10175170807E+02 -0.53454045031E+01  0.11496435497E+02  0.51100000000E-03 0.  1.
         12    1    4    4    0    0 -0.29553914137E+02 -0.97764559240E+01 -0.67630674122E+01  0.31855172454E+02  0.00000000000E+00 0. -1.
</event>
<event>
 8    1  0.7311878E-012  0.9118800E+02  0.7816164E-02  0.1184000E+00
        -11   -1    0    0    0    0  0.00000000000E+00  0.00000000000E+00  0.45593999997E+02  0.45594000000E+02  0.51100000000E-03 0. -1.
         11   -1    0    0    0    0 -0.00000000000E+00 -0.00000000000E+00 -0.45593999997E+02  0.45594000000E+02  0.51100000000E-03 0.  1.
         23    2    1    2    0    0  0.00000000000E+00 -0.71054273576E-14  0.17763568394E-14  0.91188000000E+02  0.91188000000E+02 0.  0.
    9900012    2    3    3    0    0  0.20914807114E+02 -0.32604024094E+02 -0.12357673232E+02  0.50528885014E+02  0.30000076487E+02 0.  0.
         12    1    3    3    0    0 -0.20914807114E+02  0.32604024094E+02  0.12357673232E+02  0.40659114986E+02  0.00000000000E+00 0. -1.
         11    1    4    4    0    0  0.15688731216E+00  0.56365936355E+00  0.69791763761E+00  0.91072212933E+00  0.51100000000E-03 0. -1.
        -11    1    4    4    0    0  0.13043040372E+02 -0.37006358455E+02 -0.10224614200E+02  0.40547924781E+02  0.51100000000E-03 0.  1.
        -12    1    4    4    0    0  0.77148794302E+01  0.38386749967E+01 -0.28309766698E+01  0.90702381037E+01  0.00000000000E+00 0.  1.
</event>
<event>
 8    1  0.7311878E-012  0.9118800E+02  0.7816164E-02  0.1184000E+00
        -11   -1    0    0    0    0  0.00000000000E+00  0.00000000000E+00  0.45593999997E+02  0.45594000000E+02  0.51100000000E-03 0.  1.
         11   -1    0    0    0    0 -0.00000000000E+00 -0.00000000000E+00 -0.45593999997E+02  0.45594000000E+02  0.51100000000E-03 0. -1.
         23    2    1    2    0    0  0.00000000000E+00  0.00000000000E+00  0.00000000000E+00  0.91188000000E+02  0.91188000000E+02 0.  0.
    9900012    2    3    3    0    0  0.25584180716E+01 -0.39078563387E+02 -0.10930963015E+02  0.50528861152E+02  0.30000003958E+02 0.  0.
         12    1    3    3    0    0 -0.25584180716E+01  0.39078563387E+02  0.10930963015E+02  0.40659138848E+02  0.00000000000E+00 0. -1.
         11    1    4    4    0    0 -0.23156461001E+01  0.43132969474E+01  0.97150038449E+00  0.49910480538E+01  0.51100000000E-03 0. -1.
        -11    1    4    4    0    0  0.12469415832E+01 -0.52987022768E+01 -0.31318526857E+01  0.62800963875E+01  0.51100000000E-03 0.  1.
         12    1    4    4    0    0  0.36271225884E+01 -0.38093158057E+02 -0.87706107139E+01  0.39257716711E+02  0.00000000000E+00 0. -1.
</event>
<event>
 8    1  0.7722463E-012  0.9118800E+02  0.7816164E-02  0.1184000E+00
        -11   -1    0    0    0    0  0.00000000000E+00  0.00000000000E+00  0.45593999997E+02  0.45594000000E+02  0.51100000000E-03 0. -1.
         11   -1    0    0    0    0 -0.00000000000E+00 -0.00000000000E+00 -0.45593999997E+02  0.45594000000E+02  0.51100000000E-03 0.  1.
         23    2    1    2    0    0  0.00000000000E+00  0.17763568394E-14  0.00000000000E+00  0.91188000000E+02  0.91188000000E+02 0.  0.
    9900012    2    3    3    0    0 -0.80803522225E+01  0.10812543633E+02 -0.38353126683E+02  0.50528861812E+02  0.30000005963E+02 0.  0.
         12    1    3    3    0    0  0.80803522225E+01 -0.10812543633E+02  0.38353126683E+02  0.40659138188E+02  0.00000000000E+00 0. -1.
         11    1    4    4    0    0 -0.19213902123E+01 -0.41956430920E+01 -0.10183448455E+02  0.11180240784E+02  0.51100000000E-03 0.  1.
        -11    1    4    4    0    0  0.46446227660E+01  0.43408384982E+01 -0.22102632575E+02  0.22998734020E+02  0.51100000000E-03 0. -1.
         12    1    4    4    0    0 -0.10803584776E+02  0.10667348227E+02 -0.60670456531E+01  0.16349887008E+02  0.00000000000E+00 0. -1.
</event>
<event>
 8    1  0.7311878E-012  0.9118800E+02  0.7816164E-02  0.1184000E+00
        -11   -1    0    0    0    0  0.00000000000E+00  0.00000000000E+00  0.45593999997E+02  0.45594000000E+02  0.51100000000E-03 0. -1.
         11   -1    0    0    0    0 -0.00000000000E+00 -0.00000000000E+00 -0.45593999997E+02  0.45594000000E+02  0.51100000000E-03 0.  1.
         23    2    1    2    0    0  0.71054273576E-14  0.44408920985E-15 -0.35527136788E-14  0.91188000000E+02  0.91188000000E+02 0.  0.
    9900012    2    3    3    0    0  0.37562063072E+02  0.15801714477E+01 -0.15484163039E+02  0.50528870287E+02  0.30000031723E+02 0.  0.
         12    1    3    3    0    0 -0.37562063072E+02 -0.15801714477E+01  0.15484163039E+02  0.40659129713E+02  0.00000000000E+00 0. -1.
         11    1    4    4    0    0  0.25324292307E+02 -0.31918898968E+01 -0.12141983960E+02  0.28265450937E+02  0.51100000000E-03 0. -1.
        -11    1    4    4    0    0  0.11244659114E+02 -0.39795601934E+01  0.18019965184E+01  0.12063434405E+02  0.51100000000E-03 0.  1.
         12    1    4    4    0    0  0.99311165155E+00  0.87516215379E+01 -0.51441755968E+01  0.10199984944E+02  0.00000000000E+00 0. -1.
</event>
<event>
 8    1  0.7311878E-012  0.9118800E+02  0.7816164E-02  0.1184000E+00
        -11   -1    0    0    0    0  0.00000000000E+00  0.00000000000E+00  0.45593999997E+02  0.45594000000E+02  0.51100000000E-03 0.  1.
         11   -1    0    0    0    0 -0.00000000000E+00 -0.00000000000E+00 -0.45593999997E+02  0.45594000000E+02  0.51100000000E-03 0. -1.
         23    2    1    2    0    0 -0.11102230246E-14  0.00000000000E+00  0.88817841970E-15  0.91188000000E+02  0.91188000000E+02 0.  0.
    9900012    2    3    3    0    0 -0.63455495738E+00  0.40143887931E+02  0.64208912443E+01  0.50528902093E+02  0.30000128403E+02 0.  0.
        -12    1    3    3    0    0  0.63455495738E+00 -0.40143887931E+02 -0.64208912443E+01  0.40659097907E+02  0.00000000000E+00 0.  1.
         11    1    4    4    0    0 -0.10628911790E+00  0.68300082285E+01 -0.68742748590E+01  0.96910249652E+01  0.51100000000E-03 0. -1.
        -11    1    4    4    0    0  0.87825792233E+01  0.90679506794E+01  0.37818390223E+01  0.13178153664E+02  0.51100000000E-03 0.  1.
        -12    1    4    4    0    0 -0.93108450628E+01  0.24245929023E+02  0.95133270810E+01  0.27659723464E+02  0.00000000000E+00 0.  1.
</event>
<event>
 8    1  0.7311878E-012  0.9118800E+02  0.7816164E-02  0.1184000E+00
        -11   -1    0    0    0    0  0.00000000000E+00  0.00000000000E+00  0.45593999997E+02  0.45594000000E+02  0.51100000000E-03 0. -1.
         11   -1    0    0    0    0 -0.00000000000E+00 -0.00000000000E+00 -0.45593999997E+02  0.45594000000E+02  0.51100000000E-03 0.  1.
         23    2    1    2    0    0 -0.17763568394E-14  0.00000000000E+00  0.00000000000E+00  0.91188000000E+02  0.91188000000E+02 0.  0.
    9900012    2    3    3    0    0 -0.84413709890E+01  0.17931791957E+02  0.35501548391E+02  0.50528857792E+02  0.29999993745E+02 0.  0.
        -12    1    3    3    0    0  0.84413709890E+01 -0.17931791957E+02 -0.35501548391E+02  0.40659142208E+02  0.00000000000E+00 0.  1.
         11    1    4    4    0    0 -0.75186203576E+01  0.94185893127E+01  0.42595067845E+01  0.12782131083E+02  0.51100000000E-03 0. -1.
        -11    1    4    4    0    0 -0.57988668119E+01  0.61336506230E+01  0.29537072401E+01  0.89427575718E+01  0.51100000000E-03 0.  1.
         12    1    4    4    0    0  0.48761161805E+01  0.23795520208E+01  0.28288334366E+02  0.28803969137E+02  0.00000000000E+00 0. -1.
</event>
<event>
 8    1  0.7311878E-012  0.9118800E+02  0.7816164E-02  0.1184000E+00
        -11   -1    0    0    0    0  0.00000000000E+00  0.00000000000E+00  0.45593999997E+02  0.45594000000E+02  0.51100000000E-03 0. -1.
         11   -1    0    0    0    0 -0.00000000000E+00 -0.00000000000E+00 -0.45593999997E+02  0.45594000000E+02  0.51100000000E-03 0.  1.
         23    2    1    2    0    0  0.00000000000E+00  0.00000000000E+00  0.00000000000E+00  0.91188000000E+02  0.91188000000E+02 0.  0.
    9900012    2    3    3    0    0 -0.13905373743E+02 -0.18483566061E+02 -0.33438961029E+02  0.50528858986E+02  0.29999997375E+02 0.  0.
         12    1    3    3    0    0  0.13905373743E+02  0.18483566061E+02  0.33438961029E+02  0.40659141014E+02  0.00000000000E+00 0. -1.
         11    1    4    4    0    0 -0.13314849014E+02 -0.12621058887E+02 -0.24318723073E+02  0.30462708741E+02  0.51100000000E-03 0.  1.
        -11    1    4    4    0    0 -0.65981972754E+01 -0.31677936216E+01  0.15936690594E+01  0.74907212634E+01  0.51100000000E-03 0. -1.
        -12    1    4    4    0    0  0.60076725455E+01 -0.26947135531E+01 -0.10713907015E+02  0.12575428982E+02  0.00000000000E+00 0.  1.
</event>
<event>
 8    1  0.7311878E-012  0.9118800E+02  0.7816164E-02  0.1184000E+00
        -11   -1    0    0    0    0  0.00000000000E+00  0.00000000000E+00  0.45593999997E+02  0.45594000000E+02  0.51100000000E-03 0. -1.
         11   -1    0    0    0    0 -0.00000000000E+00 -0.00000000000E+00 -0.45593999997E+02  0.45594000000E+02  0.51100000000E-03 0.  1.
         23    2    1    2    0    0  0.17763568394E-14 -0.71054273576E-14 -0.17763568394E-14  0.91188000000E+02  0.91188000000E+02 0.  0.
    9900012    2    3    3    0    0 -0.10156143620E+02  0.37928960462E+02  0.10555232376E+02  0.50528853114E+02  0.29999979526E+02 0.  0.
        -12    1    3    3    0    0  0.10156143620E+02 -0.37928960462E+02 -0.10555232376E+02  0.40659146886E+02  0.00000000000E+00 0.  1.
         11    1    4    4    0    0  0.12721863095E+01  0.32236840353E+01  0.11303618318E+02  0.11822960040E+02  0.51100000000E-03 0. -1.
        -11    1    4    4    0    0 -0.57875919496E+01  0.13278831082E+02  0.57979207954E+01  0.15602546628E+02  0.51100000000E-03 0.  1.
        -12    1    4    4    0    0 -0.56407379804E+01  0.21426445345E+02 -0.65463067378E+01  0.23103346446E+02  0.00000000000E+00 0.  1.
</event>
<event>
 8    1  0.7311878E-012  0.9118800E+02  0.7816164E-02  0.1184000E+00
        -11   -1    0    0    0    0  0.00000000000E+00  0.00000000000E+00  0.45593999997E+02  0.45594000000E+02  0.51100000000E-03 0. -1.
         11   -1    0    0    0    0 -0.00000000000E+00 -0.00000000000E+00 -0.45593999997E+02  0.45594000000E+02  0.51100000000E-03 0.  1.
         23    2    1    2    0    0  0.00000000000E+00  0.35527136788E-14  0.00000000000E+00  0.91188000000E+02  0.91188000000E+02 0.  0.
    9900012    2    3    3    0    0 -0.13982969815E+02  0.16795314614E+02  0.34286476802E+02  0.50528824783E+02  0.29999893410E+02 0.  0.
        -12    1    3    3    0    0  0.13982969815E+02 -0.16795314614E+02 -0.34286476802E+02  0.40659175217E+02  0.00000000000E+00 0.  1.
         11    1    4    4    0    0 -0.17843219559E+02  0.93677171076E+01  0.21992374289E+02  0.29829501088E+02  0.51100000000E-03 0.  1.
        -11    1    4    4    0    0 -0.26024518028E+01  0.92808950298E+01  0.53086077257E+01  0.11004048536E+02  0.51100000000E-03 0. -1.
        -12    1    4    4    0    0  0.64627015462E+01 -0.18532975235E+01  0.69854947875E+01  0.96952751592E+01  0.00000000000E+00 0.  1.
</event>
<event>
 8    1  0.7311878E-012  0.9118800E+02  0.7816164E-02  0.1184000E+00
        -11   -1    0    0    0    0  0.00000000000E+00  0.00000000000E+00  0.45593999997E+02  0.45594000000E+02  0.51100000000E-03 0. -1.
         11   -1    0    0    0    0 -0.00000000000E+00 -0.00000000000E+00 -0.45593999997E+02  0.45594000000E+02  0.51100000000E-03 0.  1.
         23    2    1    2    0    0  0.17763568394E-14  0.22204460493E-15  0.00000000000E+00  0.91188000000E+02  0.91188000000E+02 0.  0.
    9900012    2    3    3    0    0  0.91224913993E+01 -0.13016410667E+01  0.39601161929E+02  0.50528854104E+02  0.29999982536E+02 0.  0.
        -12    1    3    3    0    0 -0.91224913993E+01  0.13016410667E+01 -0.39601161929E+02  0.40659145896E+02  0.00000000000E+00 0.  1.
         11    1    4    4    0    0  0.16182217855E+02  0.13745219836E+01  0.30425874236E+02  0.34488944731E+02  0.51100000000E-03 0. -1.
        -11    1    4    4    0    0  0.21955123677E+01 -0.17298538226E+01 -0.23761162327E+00  0.28051966685E+01  0.51100000000E-03 0.  1.
        -12    1    4    4    0    0 -0.92552388233E+01 -0.94630922775E+00  0.94128993166E+01  0.13234712705E+02  0.00000000000E+00 0.  1.
</event>
<event>
 8    1  0.7311878E-012  0.9118800E+02  0.7816164E-02  0.1184000E+00
        -11   -1    0    0    0    0  0.00000000000E+00  0.00000000000E+00  0.45593999997E+02  0.45594000000E+02  0.51100000000E-03 0. -1.
         11   -1    0    0    0    0 -0.00000000000E+00 -0.00000000000E+00 -0.45593999997E+02  0.45594000000E+02  0.51100000000E-03 0.  1.
         23    2    1    2    0    0  0.00000000000E+00  0.00000000000E+00 -0.35527136788E-14  0.91188000000E+02  0.91188000000E+02 0.  0.
    9900012    2    3    3    0    0  0.10692556608E+02  0.23532351992E+02 -0.31385726962E+02  0.50528853255E+02  0.29999979953E+02 0.  0.
         12    1    3    3    0    0 -0.10692556608E+02 -0.23532351992E+02  0.31385726962E+02  0.40659146745E+02  0.00000000000E+00 0. -1.
         11    1    4    4    0    0  0.93698930592E+01  0.90991745905E+01 -0.18916807120E+02  0.22987724246E+02  0.51100000000E-03 0. -1.
        -11    1    4    4    0    0 -0.50106015131E+01  0.14111825185E+02 -0.14537595200E+02  0.20870826817E+02  0.51100000000E-03 0.  1.
         12    1    4    4    0    0  0.63332650617E+01  0.32135221654E+00  0.20686753571E+01  0.66703021912E+01  0.00000000000E+00 0. -1.
</event>
<event>
 8    1  0.1239491E-011  0.9118800E+02  0.7816164E-02  0.1184000E+00
        -11   -1    0    0    0    0  0.00000000000E+00  0.00000000000E+00  0.45593999997E+02  0.45594000000E+02  0.51100000000E-03 0. -1.
         11   -1    0    0    0    0 -0.00000000000E+00 -0.00000000000E+00 -0.45593999997E+02  0.45594000000E+02  0.51100000000E-03 0.  1.
         23    2    1    2    0    0 -0.17763568394E-14  0.00000000000E+00  0.00000000000E+00  0.91188000000E+02  0.91188000000E+02 0.  0.
    9900012    2    3    3    0    0  0.90178910037E+01  0.33489515980E+02 -0.21220161215E+02  0.50528864732E+02  0.30000014839E+02 0.  0.
         12    1    3    3    0    0 -0.90178910037E+01 -0.33489515980E+02  0.21220161215E+02  0.40659135268E+02  0.00000000000E+00 0. -1.
         11    1    4    4    0    0  0.16625610401E+01  0.81717337063E+01  0.35979486830E+01  0.90822120634E+01  0.51100000000E-03 0. -1.
        -11    1    4    4    0    0  0.36064215496E+01  0.27943328637E+02 -0.23485393416E+02  0.36679689146E+02  0.51100000000E-03 0.  1.
         12    1    4    4    0    0  0.37489084140E+01 -0.26255463627E+01 -0.13327164821E+01  0.47669635221E+01  0.00000000000E+00 0. -1.
</event>
<event>
 8    1  0.7889353E-012  0.9118800E+02  0.7816164E-02  0.1184000E+00
        -11   -1    0    0    0    0  0.00000000000E+00  0.00000000000E+00  0.45593999997E+02  0.45594000000E+02  0.51100000000E-03 0. -1.
         11   -1    0    0    0    0 -0.00000000000E+00 -0.00000000000E+00 -0.45593999997E+02  0.45594000000E+02  0.51100000000E-03 0.  1.
         23    2    1    2    0    0  0.00000000000E+00  0.00000000000E+00  0.00000000000E+00  0.91188000000E+02  0.91188000000E+02 0.  0.
    9900012    2    3    3    0    0 -0.10507729660E+02 -0.31665800179E+02 -0.23238560345E+02  0.50528856250E+02  0.29999989057E+02 0.  0.
         12    1    3    3    0    0  0.10507729660E+02  0.31665800179E+02  0.23238560345E+02  0.40659143750E+02  0.00000000000E+00 0. -1.
         11    1    4    4    0    0 -0.18624884316E+01 -0.12518566568E+02 -0.38149886140E+00  0.12662105422E+02  0.51100000000E-03 0. -1.
        -11    1    4    4    0    0 -0.96870521778E+00  0.35755134549E+01  0.12022866486E+01  0.38946347340E+01  0.51100000000E-03 0.  1.
        -12    1    4    4    0    0 -0.76765360110E+01 -0.22722747066E+02 -0.24059348132E+02  0.33972116094E+02  0.00000000000E+00 0.  1.
</event>
<event>
 8    1  0.7311878E-012  0.9118800E+02  0.7816164E-02  0.1184000E+00
        -11   -1    0    0    0    0  0.00000000000E+00  0.00000000000E+00  0.45593999997E+02  0.45594000000E+02  0.51100000000E-03 0. -1.
         11   -1    0    0    0    0 -0.00000000000E+00 -0.00000000000E+00 -0.45593999997E+02  0.45594000000E+02  0.51100000000E-03 0.  1.
         23    2    1    2    0    0  0.35527136788E-14  0.00000000000E+00  0.71054273576E-14  0.91188000000E+02  0.91188000000E+02 0.  0.
    9900012    2    3    3    0    0  0.21527013806E+02 -0.88967345514E+01  0.33325695500E+02  0.50528853554E+02  0.29999980864E+02 0.  0.
        -12    1    3    3    0    0 -0.21527013806E+02  0.88967345514E+01 -0.33325695500E+02  0.40659146446E+02  0.00000000000E+00 0.  1.
         11    1    4    4    0    0  0.43937024015E+01 -0.56483393940E+01  0.92355667235E+01  0.11683494840E+02  0.51100000000E-03 0. -1.
        -11    1    4    4    0    0  0.22689747896E+02  0.18967448454E+00  0.13503452614E+02  0.26404618322E+02  0.51100000000E-03 0.  1.
         12    1    4    4    0    0 -0.55564364908E+01 -0.34380696419E+01  0.10586676163E+02  0.12440740393E+02  0.00000000000E+00 0. -1.
</event>
<event>
 8    1  0.7311878E-012  0.9118800E+02  0.7816164E-02  0.1184000E+00
        -11   -1    0    0    0    0  0.00000000000E+00  0.00000000000E+00  0.45593999997E+02  0.45594000000E+02  0.51100000000E-03 0. -1.
         11   -1    0    0    0    0 -0.00000000000E+00 -0.00000000000E+00 -0.45593999997E+02  0.45594000000E+02  0.51100000000E-03 0.  1.
         23    2    1    2    0    0  0.44408920985E-15  0.35527136788E-14  0.00000000000E+00  0.91188000000E+02  0.91188000000E+02 0.  0.
    9900012    2    3    3    0    0  0.24817993167E+01 -0.16413427168E+02 -0.37116111360E+02  0.50528860293E+02  0.30000001345E+02 0.  0.
         12    1    3    3    0    0 -0.24817993167E+01  0.16413427168E+02  0.37116111360E+02  0.40659139707E+02  0.00000000000E+00 0. -1.
         11    1    4    4    0    0 -0.30637692416E+01 -0.11810202072E+02 -0.30854130897E+02  0.33178983538E+02  0.51100000000E-03 0. -1.
        -11    1    4    4    0    0  0.83891637642E+01 -0.63311108602E+01 -0.83485629738E+01  0.13422352155E+02  0.51100000000E-03 0.  1.
         12    1    4    4    0    0 -0.28435952059E+01  0.17278857649E+01  0.20865825100E+01  0.39275245998E+01  0.00000000000E+00 0. -1.
</event>
<event>
 8    1  0.7311878E-012  0.9118800E+02  0.7816164E-02  0.1184000E+00
        -11   -1    0    0    0    0  0.00000000000E+00  0.00000000000E+00  0.45593999997E+02  0.45594000000E+02  0.51100000000E-03 0. -1.
         11   -1    0    0    0    0 -0.00000000000E+00 -0.00000000000E+00 -0.45593999997E+02  0.45594000000E+02  0.51100000000E-03 0.  1.
         23    2    1    2    0    0  0.00000000000E+00  0.35527136788E-14  0.00000000000E+00  0.91188000000E+02  0.91188000000E+02 0.  0.
    9900012    2    3    3    0    0  0.18268363195E+02  0.27412922218E+02 -0.23831987734E+02  0.50528867720E+02  0.30000023922E+02 0.  0.
         12    1    3    3    0    0 -0.18268363195E+02 -0.27412922218E+02  0.23831987734E+02  0.40659132280E+02  0.00000000000E+00 0. -1.
         11    1    4    4    0    0  0.27457746727E+01  0.45673345547E+01 -0.17435470454E+02  0.18231715600E+02  0.51100000000E-03 0. -1.
        -11    1    4    4    0    0  0.74003081454E+01  0.15798487358E+02 -0.10973794033E+02  0.20610213953E+02  0.51100000000E-03 0.  1.
         12    1    4    4    0    0  0.81222803773E+01  0.70471003060E+01  0.45772767536E+01  0.11686938167E+02  0.00000000000E+00 0. -1.
</event>
<event>
 8    1  0.7311878E-012  0.9118800E+02  0.7816164E-02  0.1184000E+00
        -11   -1    0    0    0    0  0.00000000000E+00  0.00000000000E+00  0.45593999997E+02  0.45594000000E+02  0.51100000000E-03 0. -1.
         11   -1    0    0    0    0 -0.00000000000E+00 -0.00000000000E+00 -0.45593999997E+02  0.45594000000E+02  0.51100000000E-03 0.  1.
         23    2    1    2    0    0 -0.88817841970E-15 -0.88817841970E-15  0.00000000000E+00  0.91188000000E+02  0.91188000000E+02 0.  0.
    9900012    2    3    3    0    0 -0.75839108265E+01  0.68188680940E+01 -0.39359279385E+02  0.50528861553E+02  0.30000005177E+02 0.  0.
         12    1    3    3    0    0  0.75839108265E+01 -0.68188680940E+01  0.39359279385E+02  0.40659138447E+02  0.00000000000E+00 0. -1.
         11    1    4    4    0    0  0.82531702849E-01  0.62884323817E+01 -0.11445798193E+01  0.63922810111E+01  0.51100000000E-03 0. -1.
        -11    1    4    4    0    0  0.55608185653E+01  0.55929519532E+01 -0.14849459182E+02  0.16813989798E+02  0.51100000000E-03 0.  1.
        -12    1    4    4    0    0 -0.13227261095E+02 -0.50625162409E+01 -0.23365240384E+02  0.27322590744E+02  0.00000000000E+00 0.  1.
</event>
<event>
 8    1  0.7311878E-012  0.9118800E+02  0.7816164E-02  0.1184000E+00
        -11   -1    0    0    0    0  0.00000000000E+00  0.00000000000E+00  0.45593999997E+02  0.45594000000E+02  0.51100000000E-03 0. -1.
         11   -1    0    0    0    0 -0.00000000000E+00 -0.00000000000E+00 -0.45593999997E+02  0.45594000000E+02  0.51100000000E-03 0.  1.
         23    2    1    2    0    0  0.00000000000E+00  0.00000000000E+00  0.00000000000E+00  0.91188000000E+02  0.91188000000E+02 0.  0.
    9900012    2    3    3    0    0 -0.30243970812E+02  0.17785771858E+02 -0.20545887195E+02  0.50528869024E+02  0.30000027886E+02 0.  0.
         12    1    3    3    0    0  0.30243970812E+02 -0.17785771858E+02  0.20545887195E+02  0.40659130976E+02  0.00000000000E+00 0. -1.
         11    1    4    4    0    0 -0.91078490245E+01 -0.49493204292E+01 -0.65029034402E+01  0.12236684190E+02  0.51100000000E-03 0. -1.
        -11    1    4    4    0    0 -0.42306190466E+01  0.30526039436E+01  0.40973124201E+01  0.66335885977E+01  0.51100000000E-03 0.  1.
        -12    1    4    4    0    0 -0.16905502740E+02  0.19682488344E+02 -0.18140296175E+02  0.31658596236E+02  0.00000000000E+00 0.  1.
</event>
<event>
 8    1  0.7311878E-012  0.9118800E+02  0.7816164E-02  0.1184000E+00
        -11   -1    0    0    0    0  0.00000000000E+00  0.00000000000E+00  0.45593999997E+02  0.45594000000E+02  0.51100000000E-03 0. -1.
         11   -1    0    0    0    0 -0.00000000000E+00 -0.00000000000E+00 -0.45593999997E+02  0.45594000000E+02  0.51100000000E-03 0.  1.
         23    2    1    2    0    0  0.00000000000E+00  0.00000000000E+00  0.00000000000E+00  0.91188000000E+02  0.91188000000E+02 0.  0.
    9900012    2    3    3    0    0  0.38575265191E+02 -0.20236080400E+01 -0.12689339749E+02  0.50528863053E+02  0.30000009735E+02 0.  0.
         12    1    3    3    0    0 -0.38575265191E+02  0.20236080400E+01  0.12689339749E+02  0.40659136947E+02  0.00000000000E+00 0. -1.
         11    1    4    4    0    0 -0.19590748919E+01 -0.30959024195E+01 -0.77341010728E+01  0.85579732348E+01  0.51100000000E-03 0. -1.
        -11    1    4    4    0    0  0.82124745422E+01  0.11507505103E+00 -0.50369067138E+01  0.96347501202E+01  0.51100000000E-03 0.  1.
         12    1    4    4    0    0  0.32321865541E+02  0.95721932854E+00  0.81668037773E-01  0.32336139698E+02  0.00000000000E+00 0. -1.
</event>
<event>
 8    1  0.7311878E-012  0.9118800E+02  0.7816164E-02  0.1184000E+00
        -11   -1    0    0    0    0  0.00000000000E+00  0.00000000000E+00  0.45593999997E+02  0.45594000000E+02  0.51100000000E-03 0. -1.
         11   -1    0    0    0    0 -0.00000000000E+00 -0.00000000000E+00 -0.45593999997E+02  0.45594000000E+02  0.51100000000E-03 0.  1.
         23    2    1    2    0    0  0.00000000000E+00 -0.17763568394E-14  0.35527136788E-14  0.91188000000E+02  0.91188000000E+02 0.  0.
    9900012    2    3    3    0    0  0.30955187586E+02 -0.57526363573E+01  0.25726377211E+02  0.50528893419E+02  0.30000102037E+02 0.  0.
        -12    1    3    3    0    0 -0.30955187586E+02  0.57526363573E+01 -0.25726377211E+02  0.40659106581E+02  0.00000000000E+00 0.  1.
         11    1    4    4    0    0  0.68436341444E+01 -0.96122424953E+01  0.94547288860E+01  0.15120265628E+02  0.51100000000E-03 0.  1.
        -11    1    4    4    0    0  0.55007533277E+01  0.38153229824E+01 -0.40726580446E+01  0.78359122278E+01  0.51100000000E-03 0. -1.
         12    1    4    4    0    0  0.18610800114E+02  0.44283155649E-01  0.20344306370E+02  0.27572715563E+02  0.00000000000E+00 0. -1.
</event>
<event>
 8    1  0.7311878E-012  0.9118800E+02  0.7816164E-02  0.1184000E+00
        -11   -1    0    0    0    0  0.00000000000E+00  0.00000000000E+00  0.45593999997E+02  0.45594000000E+02  0.51100000000E-03 0. -1.
         11   -1    0    0    0    0 -0.00000000000E+00 -0.00000000000E+00 -0.45593999997E+02  0.45594000000E+02  0.51100000000E-03 0.  1.
         23    2    1    2    0    0  0.88817841970E-15 -0.17763568394E-14  0.00000000000E+00  0.91188000000E+02  0.91188000000E+02 0.  0.
    9900012    2    3    3    0    0 -0.26580326042E+01  0.31791503754E+01 -0.40447401971E+02  0.50528874818E+02  0.30000045495E+02 0.  0.
         12    1    3    3    0    0  0.26580326042E+01 -0.31791503754E+01  0.40447401971E+02  0.40659125182E+02  0.00000000000E+00 0. -1.
         11    1    4    4    0    0 -0.72328406763E+01  0.97245617928E+01 -0.47499667216E+01  0.13017037698E+02  0.51100000000E-03 0. -1.
        -11    1    4    4    0    0  0.10758820640E+01  0.14327708644E+01 -0.14256322127E+02  0.14368475055E+02  0.51100000000E-03 0.  1.
        -12    1    4    4    0    0  0.34989260081E+01 -0.79781822818E+01 -0.21441113122E+02  0.23143362065E+02  0.00000000000E+00 0.  1.
</event>
<event>
 8    1  0.7311878E-012  0.9118800E+02  0.7816164E-02  0.1184000E+00
        -11   -1    0    0    0    0  0.00000000000E+00  0.00000000000E+00  0.45593999997E+02  0.45594000000E+02  0.51100000000E-03 0. -1.
         11   -1    0    0    0    0 -0.00000000000E+00 -0.00000000000E+00 -0.45593999997E+02  0.45594000000E+02  0.51100000000E-03 0.  1.
         23    2    1    2    0    0  0.00000000000E+00  0.00000000000E+00  0.00000000000E+00  0.91188000000E+02  0.91188000000E+02 0.  0.
    9900012    2    3    3    0    0 -0.19318769919E+02  0.12200111743E+02 -0.33631939042E+02  0.50528869150E+02  0.30000028269E+02 0.  0.
         12    1    3    3    0    0  0.19318769919E+02 -0.12200111743E+02  0.33631939042E+02  0.40659130850E+02  0.00000000000E+00 0. -1.
         11    1    4    4    0    0 -0.21063082466E+02 -0.47714764230E-01 -0.14364125151E+02  0.25494780080E+02  0.51100000000E-03 0. -1.
        -11    1    4    4    0    0  0.13077514370E+01 -0.15836327457E+01 -0.34714589634E+01  0.40335014677E+01  0.51100000000E-03 0.  1.
        -12    1    4    4    0    0  0.43656111004E+00  0.13831459253E+02 -0.15796354927E+02  0.21000587603E+02  0.00000000000E+00 0.  1.
</event>
<event>
 8    1  0.7311878E-012  0.9118800E+02  0.7816164E-02  0.1184000E+00
        -11   -1    0    0    0    0  0.00000000000E+00  0.00000000000E+00  0.45593999997E+02  0.45594000000E+02  0.51100000000E-03 0. -1.
         11   -1    0    0    0    0 -0.00000000000E+00 -0.00000000000E+00 -0.45593999997E+02  0.45594000000E+02  0.51100000000E-03 0.  1.
         23    2    1    2    0    0  0.00000000000E+00  0.00000000000E+00  0.00000000000E+00  0.91188000000E+02  0.91188000000E+02 0.  0.
    9900012    2    3    3    0    0 -0.75968419266E+01 -0.30400520271E+02  0.25908753910E+02  0.50528841510E+02  0.29999944252E+02 0.  0.
        -12    1    3    3    0    0  0.75968419266E+01  0.30400520271E+02 -0.25908753910E+02  0.40659158490E+02  0.00000000000E+00 0.  1.
         11    1    4    4    0    0  0.89847500157E+01 -0.13872087418E+02  0.83696127955E+01  0.18525953708E+02  0.51100000000E-03 0.  1.
        -11    1    4    4    0    0 -0.10198352278E+02 -0.12472360044E+02  0.41686089859E+01  0.16641618172E+02  0.51100000000E-03 0. -1.
        -12    1    4    4    0    0 -0.63832396640E+01 -0.40560728094E+01  0.13370532128E+02  0.15361269630E+02  0.00000000000E+00 0.  1.
</event>
<event>
 8    1  0.7311878E-012  0.9118800E+02  0.7816164E-02  0.1184000E+00
        -11   -1    0    0    0    0  0.00000000000E+00  0.00000000000E+00  0.45593999997E+02  0.45594000000E+02  0.51100000000E-03 0. -1.
         11   -1    0    0    0    0 -0.00000000000E+00 -0.00000000000E+00 -0.45593999997E+02  0.45594000000E+02  0.51100000000E-03 0.  1.
         23    2    1    2    0    0  0.35527136788E-14  0.00000000000E+00 -0.35527136788E-14  0.91188000000E+02  0.91188000000E+02 0.  0.
    9900012    2    3    3    0    0 -0.25848932881E+02  0.72962899638E+01  0.30524785937E+02  0.50528859148E+02  0.29999997867E+02 0.  0.
        -12    1    3    3    0    0  0.25848932881E+02 -0.72962899638E+01 -0.30524785937E+02  0.40659140852E+02  0.00000000000E+00 0.  1.
         11    1    4    4    0    0 -0.18751365474E+02  0.59850793376E+01  0.98813278864E+01  0.22024430138E+02  0.51100000000E-03 0. -1.
        -11    1    4    4    0    0 -0.53548970261E+01 -0.42013414480E+01 -0.26488015923E+00  0.68114869069E+01  0.51100000000E-03 0.  1.
         12    1    4    4    0    0 -0.17426703801E+01  0.55125520742E+01  0.20908338210E+02  0.21692942104E+02  0.00000000000E+00 0. -1.
</event>
<event>
 8    1  0.7311878E-012  0.9118800E+02  0.7816164E-02  0.1184000E+00
        -11   -1    0    0    0    0  0.00000000000E+00  0.00000000000E+00  0.45593999997E+02  0.45594000000E+02  0.51100000000E-03 0. -1.
         11   -1    0    0    0    0 -0.00000000000E+00 -0.00000000000E+00 -0.45593999997E+02  0.45594000000E+02  0.51100000000E-03 0.  1.
         23    2    1    2    0    0  0.88817841970E-15  0.17763568394E-14  0.00000000000E+00  0.91188000000E+02  0.91188000000E+02 0.  0.
    9900012    2    3    3    0    0 -0.64225514236E+01  0.14304142012E+02 -0.37514115625E+02  0.50528849534E+02  0.29999968643E+02 0.  0.
         12    1    3    3    0    0  0.64225514236E+01 -0.14304142012E+02  0.37514115625E+02  0.40659150466E+02  0.00000000000E+00 0. -1.
         11    1    4    4    0    0 -0.38351864258E+01  0.11078668303E+02 -0.11723979141E+01  0.11782192641E+02  0.51100000000E-03 0. -1.
        -11    1    4    4    0    0 -0.25075176950E+01 -0.20799152639E+01 -0.16506665712E+01  0.36521764588E+01  0.51100000000E-03 0.  1.
        -12    1    4    4    0    0 -0.79847302752E-01  0.53053889727E+01 -0.34691051140E+02  0.35094480434E+02  0.00000000000E+00 0.  1.
</event>
<event>
 8    1  0.7311878E-012  0.9118800E+02  0.7816164E-02  0.1184000E+00
        -11   -1    0    0    0    0  0.00000000000E+00  0.00000000000E+00  0.45593999997E+02  0.45594000000E+02  0.51100000000E-03 0. -1.
         11   -1    0    0    0    0 -0.00000000000E+00 -0.00000000000E+00 -0.45593999997E+02  0.45594000000E+02  0.51100000000E-03 0.  1.
         23    2    1    2    0    0  0.00000000000E+00  0.00000000000E+00  0.35527136788E-14  0.91188000000E+02  0.91188000000E+02 0.  0.
    9900012    2    3    3    0    0 -0.22571026431E+02  0.18373942282E+02  0.28392143684E+02  0.50528845900E+02  0.29999957598E+02 0.  0.
        -12    1    3    3    0    0  0.22571026431E+02 -0.18373942282E+02 -0.28392143684E+02  0.40659154100E+02  0.00000000000E+00 0.  1.
         11    1    4    4    0    0 -0.91291612564E+01  0.67113330143E+01  0.27891261601E+02  0.30104917373E+02  0.51100000000E-03 0. -1.
        -11    1    4    4    0    0 -0.78680800298E+01  0.27747259893E+01  0.41476880552E+01  0.93171403411E+01  0.51100000000E-03 0.  1.
        -12    1    4    4    0    0 -0.55737851444E+01  0.88878832789E+01 -0.36468059720E+01  0.11106788186E+02  0.00000000000E+00 0.  1.
</event>
<event>
 8    1  0.7553951E-012  0.9118800E+02  0.7816164E-02  0.1184000E+00
        -11   -1    0    0    0    0  0.00000000000E+00  0.00000000000E+00  0.45593999997E+02  0.45594000000E+02  0.51100000000E-03 0. -1.
         11   -1    0    0    0    0 -0.00000000000E+00 -0.00000000000E+00 -0.45593999997E+02  0.45594000000E+02  0.51100000000E-03 0.  1.
         23    2    1    2    0    0  0.00000000000E+00  0.35527136788E-14  0.35527136788E-14  0.91188000000E+02  0.91188000000E+02 0.  0.
    9900012    2    3    3    0    0  0.18601586049E+02 -0.29980852626E+02 -0.20206313495E+02  0.50528860403E+02  0.30000001681E+02 0.  0.
         12    1    3    3    0    0 -0.18601586049E+02  0.29980852626E+02  0.20206313495E+02  0.40659139597E+02  0.00000000000E+00 0. -1.
         11    1    4    4    0    0 -0.52943260974E+01 -0.89226279464E+01 -0.57110825956E+01  0.11843126402E+02  0.51100000000E-03 0. -1.
        -11    1    4    4    0    0  0.40917616129E+01 -0.15034501445E+01  0.34595832145E+01  0.55652126386E+01  0.51100000000E-03 0.  1.
        -12    1    4    4    0    0  0.19804150533E+02 -0.19554774535E+02 -0.17954814114E+02  0.33120521362E+02  0.00000000000E+00 0.  1.
</event>
<event>
 8    1  0.7311878E-012  0.9118800E+02  0.7816164E-02  0.1184000E+00
        -11   -1    0    0    0    0  0.00000000000E+00  0.00000000000E+00  0.45593999997E+02  0.45594000000E+02  0.51100000000E-03 0. -1.
         11   -1    0    0    0    0 -0.00000000000E+00 -0.00000000000E+00 -0.45593999997E+02  0.45594000000E+02  0.51100000000E-03 0.  1.
         23    2    1    2    0    0  0.00000000000E+00 -0.17763568394E-14  0.00000000000E+00  0.91188000000E+02  0.91188000000E+02 0.  0.
    9900012    2    3    3    0    0 -0.34980196587E+02  0.10425121225E+02 -0.17912743671E+02  0.50528884273E+02  0.30000074237E+02 0.  0.
         12    1    3    3    0    0  0.34980196587E+02 -0.10425121225E+02  0.17912743671E+02  0.40659115727E+02  0.00000000000E+00 0. -1.
         11    1    4    4    0    0 -0.13291442344E+02  0.93518101622E+01 -0.15737511093E+02  0.22622733004E+02  0.51100000000E-03 0. -1.
        -11    1    4    4    0    0 -0.16818496001E+02  0.85731073951E+01 -0.13474108113E+01  0.18925524941E+02  0.51100000000E-03 0.  1.
         12    1    4    4    0    0 -0.48702582425E+01 -0.74997963323E+01 -0.82782176660E+00  0.89806263285E+01  0.00000000000E+00 0. -1.
</event>
<event>
 8    1  0.7311878E-012  0.9118800E+02  0.7816164E-02  0.1184000E+00
        -11   -1    0    0    0    0  0.00000000000E+00  0.00000000000E+00  0.45593999997E+02  0.45594000000E+02  0.51100000000E-03 0. -1.
         11   -1    0    0    0    0 -0.00000000000E+00 -0.00000000000E+00 -0.45593999997E+02  0.45594000000E+02  0.51100000000E-03 0.  1.
         23    2    1    2    0    0  0.11102230246E-15  0.00000000000E+00 -0.71054273576E-14  0.91188000000E+02  0.91188000000E+02 0.  0.
    9900012    2    3    3    0    0  0.89392633619E+00  0.85255076173E+01 -0.39745220779E+02  0.50528856388E+02  0.29999989478E+02 0.  0.
         12    1    3    3    0    0 -0.89392633619E+00 -0.85255076173E+01  0.39745220779E+02  0.40659143612E+02  0.00000000000E+00 0. -1.
         11    1    4    4    0    0  0.62119341212E+01 -0.27107104267E+01 -0.78269589537E+01  0.10353615951E+02  0.51100000000E-03 0. -1.
        -11    1    4    4    0    0 -0.12155371861E+01  0.11317371345E+02 -0.33797030654E+02  0.35662300909E+02  0.51100000000E-03 0.  1.
         12    1    4    4    0    0 -0.41024705989E+01 -0.81153300927E-01  0.18787688285E+01  0.45129395281E+01  0.00000000000E+00 0. -1.
</event>
<event>
 8    1  0.7311878E-012  0.9118800E+02  0.7816164E-02  0.1184000E+00
        -11   -1    0    0    0    0  0.00000000000E+00  0.00000000000E+00  0.45593999997E+02  0.45594000000E+02  0.51100000000E-03 0. -1.
         11   -1    0    0    0    0 -0.00000000000E+00 -0.00000000000E+00 -0.45593999997E+02  0.45594000000E+02  0.51100000000E-03 0.  1.
         23    2    1    2    0    0  0.00000000000E+00  0.00000000000E+00  0.17763568394E-14  0.91188000000E+02  0.91188000000E+02 0.  0.
    9900012    2    3    3    0    0  0.27600931803E+02 -0.28528954107E+02 -0.88007077604E+01  0.50528866759E+02  0.30000021001E+02 0.  0.
         12    1    3    3    0    0 -0.27600931803E+02  0.28528954107E+02  0.88007077604E+01  0.40659133241E+02  0.00000000000E+00 0. -1.
         11    1    4    4    0    0  0.85722032211E+01  0.64521390835E+00  0.46374727847E+01  0.97675546142E+01  0.51100000000E-03 0. -1.
        -11    1    4    4    0    0  0.30584613049E+01 -0.12078470637E+02  0.21571094195E+01  0.12645029054E+02  0.51100000000E-03 0.  1.
        -12    1    4    4    0    0  0.15970267277E+02 -0.17095697379E+02 -0.15595289965E+02  0.28116283091E+02  0.00000000000E+00 0.  1.
</event>
<event>
 8    1  0.7311878E-012  0.9118800E+02  0.7816164E-02  0.1184000E+00
        -11   -1    0    0    0    0  0.00000000000E+00  0.00000000000E+00  0.45593999997E+02  0.45594000000E+02  0.51100000000E-03 0. -1.
         11   -1    0    0    0    0 -0.00000000000E+00 -0.00000000000E+00 -0.45593999997E+02  0.45594000000E+02  0.51100000000E-03 0.  1.
         23    2    1    2    0    0  0.00000000000E+00 -0.35527136788E-14  0.00000000000E+00  0.91188000000E+02  0.91188000000E+02 0.  0.
    9900012    2    3    3    0    0  0.18453798314E+02 -0.26295126374E+02 -0.24923709436E+02  0.50528835777E+02  0.29999926829E+02 0.  0.
         12    1    3    3    0    0 -0.18453798314E+02  0.26295126374E+02  0.24923709436E+02  0.40659164223E+02  0.00000000000E+00 0. -1.
         11    1    4    4    0    0  0.83429208115E+00 -0.13525567188E+02 -0.56692452117E+01  0.14689361884E+02  0.51100000000E-03 0. -1.
        -11    1    4    4    0    0  0.61009651022E+01 -0.53746271926E+01 -0.20540489399E+02  0.22091176919E+02  0.51100000000E-03 0.  1.
         12    1    4    4    0    0  0.11518541130E+02 -0.73949319934E+01  0.12860251746E+01  0.13748296975E+02  0.00000000000E+00 0. -1.
</event>
<event>
 8    1  0.7311878E-012  0.9118800E+02  0.7816164E-02  0.1184000E+00
        -11   -1    0    0    0    0  0.00000000000E+00  0.00000000000E+00  0.45593999997E+02  0.45594000000E+02  0.51100000000E-03 0. -1.
         11   -1    0    0    0    0 -0.00000000000E+00 -0.00000000000E+00 -0.45593999997E+02  0.45594000000E+02  0.51100000000E-03 0.  1.
         23    2    1    2    0    0  0.00000000000E+00  0.00000000000E+00  0.00000000000E+00  0.91188000000E+02  0.91188000000E+02 0.  0.
    9900012    2    3    3    0    0  0.19989309072E+02  0.17895190328E+02 -0.30550912905E+02  0.50528823996E+02  0.29999891017E+02 0.  0.
         12    1    3    3    0    0 -0.19989309072E+02 -0.17895190328E+02  0.30550912905E+02  0.40659176004E+02  0.00000000000E+00 0. -1.
         11    1    4    4    0    0 -0.11252098731E+01  0.18676902141E+01 -0.22247139004E+00  0.21917704658E+01  0.51100000000E-03 0. -1.
        -11    1    4    4    0    0  0.22055805190E+02  0.15662321391E+01 -0.12636648992E+02  0.25467558260E+02  0.51100000000E-03 0.  1.
        -12    1    4    4    0    0 -0.94128624564E+00  0.14461267975E+02 -0.17691792522E+02  0.22869495270E+02  0.00000000000E+00 0.  1.
</event>
<event>
 8    1  0.7311878E-012  0.9118800E+02  0.7816164E-02  0.1184000E+00
        -11   -1    0    0    0    0  0.00000000000E+00  0.00000000000E+00  0.45593999997E+02  0.45594000000E+02  0.51100000000E-03 0. -1.
         11   -1    0    0    0    0 -0.00000000000E+00 -0.00000000000E+00 -0.45593999997E+02  0.45594000000E+02  0.51100000000E-03 0.  1.
         23    2    1    2    0    0  0.00000000000E+00  0.00000000000E+00  0.00000000000E+00  0.91188000000E+02  0.91188000000E+02 0.  0.
    9900012    2    3    3    0    0  0.30147853842E+02  0.13128285417E+02  0.23914866495E+02  0.50528858239E+02  0.29999995103E+02 0.  0.
        -12    1    3    3    0    0 -0.30147853842E+02 -0.13128285417E+02 -0.23914866495E+02  0.40659141761E+02  0.00000000000E+00 0.  1.
         11    1    4    4    0    0  0.12159181640E+02 -0.20404863086E+01  0.12206826893E+02  0.17349809958E+02  0.51100000000E-03 0. -1.
        -11    1    4    4    0    0  0.15223628021E+02  0.52551247592E+00  0.19276902974E+01  0.15354185215E+02  0.51100000000E-03 0.  1.
        -12    1    4    4    0    0  0.27650441809E+01  0.14643259250E+02  0.97803493045E+01  0.17824863065E+02  0.00000000000E+00 0.  1.
</event>
<event>
 8    1  0.7311878E-012  0.9118800E+02  0.7816164E-02  0.1184000E+00
        -11   -1    0    0    0    0  0.00000000000E+00  0.00000000000E+00  0.45593999997E+02  0.45594000000E+02  0.51100000000E-03 0. -1.
         11   -1    0    0    0    0 -0.00000000000E+00 -0.00000000000E+00 -0.45593999997E+02  0.45594000000E+02  0.51100000000E-03 0.  1.
         23    2    1    2    0    0  0.00000000000E+00  0.00000000000E+00  0.00000000000E+00  0.91188000000E+02  0.91188000000E+02 0.  0.
    9900012    2    3    3    0    0 -0.36948524985E+01  0.20386733100E+02  0.34984213083E+02  0.50528856053E+02  0.29999988458E+02 0.  0.
        -12    1    3    3    0    0  0.36948524985E+01 -0.20386733100E+02 -0.34984213083E+02  0.40659143947E+02  0.00000000000E+00 0.  1.
         11    1    4    4    0    0  0.41098140661E+01  0.14930879658E+02  0.27408905303E+02  0.31481261557E+02  0.51100000000E-03 0. -1.
        -11    1    4    4    0    0 -0.79125876808E+01  0.96475328080E+01  0.80176282125E+01  0.14831260752E+02  0.51100000000E-03 0.  1.
        -12    1    4    4    0    0  0.10792111626E+00 -0.41916793661E+01 -0.44232043253E+00  0.42163337440E+01  0.00000000000E+00 0.  1.
</event>
<event>
 8    1  0.7311878E-012  0.9118800E+02  0.7816164E-02  0.1184000E+00
        -11   -1    0    0    0    0  0.00000000000E+00  0.00000000000E+00  0.45593999997E+02  0.45594000000E+02  0.51100000000E-03 0. -1.
         11   -1    0    0    0    0 -0.00000000000E+00 -0.00000000000E+00 -0.45593999997E+02  0.45594000000E+02  0.51100000000E-03 0.  1.
         23    2    1    2    0    0  0.00000000000E+00  0.35527136788E-14  0.00000000000E+00  0.91188000000E+02  0.91188000000E+02 0.  0.
    9900012    2    3    3    0    0 -0.20598767438E+02  0.27543563680E+02 -0.21684288439E+02  0.50528862217E+02  0.30000007194E+02 0.  0.
         12    1    3    3    0    0  0.20598767438E+02 -0.27543563680E+02  0.21684288439E+02  0.40659137783E+02  0.00000000000E+00 0. -1.
         11    1    4    4    0    0  0.26564862078E+00 -0.43452014153E+01 -0.12591983119E+01  0.45317684384E+01  0.51100000000E-03 0. -1.
        -11    1    4    4    0    0 -0.63643524849E+01  0.21348373205E+02 -0.62313369111E+01  0.23131960164E+02  0.51100000000E-03 0.  1.
         12    1    4    4    0    0 -0.14500063574E+02  0.10540391890E+02 -0.14193753216E+02  0.22865133615E+02  0.00000000000E+00 0. -1.
</event>
<event>
 8    1  0.7541136E-012  0.9118800E+02  0.7816164E-02  0.1184000E+00
        -11   -1    0    0    0    0  0.00000000000E+00  0.00000000000E+00  0.45593999997E+02  0.45594000000E+02  0.51100000000E-03 0. -1.
         11   -1    0    0    0    0 -0.00000000000E+00 -0.00000000000E+00 -0.45593999997E+02  0.45594000000E+02  0.51100000000E-03 0.  1.
         23    2    1    2    0    0  0.00000000000E+00  0.00000000000E+00  0.35527136788E-14  0.91188000000E+02  0.91188000000E+02 0.  0.
    9900012    2    3    3    0    0  0.47469063758E+01 -0.25832990201E+02 -0.31036888122E+02  0.50528869081E+02  0.30000028057E+02 0.  0.
         12    1    3    3    0    0 -0.47469063758E+01  0.25832990201E+02  0.31036888122E+02  0.40659130919E+02  0.00000000000E+00 0. -1.
         11    1    4    4    0    0 -0.17571169335E+01 -0.86017606950E+00 -0.17098889044E+02  0.17210443620E+02  0.51100000000E-03 0. -1.
        -11    1    4    4    0    0 -0.60059972238E+00 -0.18570273825E+02 -0.14745988994E+02  0.23720454921E+02  0.51100000000E-03 0.  1.
        -12    1    4    4    0    0  0.71046230317E+01 -0.64025403056E+01  0.80798991613E+00  0.95979705403E+01  0.00000000000E+00 0.  1.
</event>
<event>
 8    1  0.7311878E-012  0.9118800E+02  0.7816164E-02  0.1184000E+00
        -11   -1    0    0    0    0  0.00000000000E+00  0.00000000000E+00  0.45593999997E+02  0.45594000000E+02  0.51100000000E-03 0. -1.
         11   -1    0    0    0    0 -0.00000000000E+00 -0.00000000000E+00 -0.45593999997E+02  0.45594000000E+02  0.51100000000E-03 0.  1.
         23    2    1    2    0    0  0.00000000000E+00  0.88817841970E-15 -0.35527136788E-14  0.91188000000E+02  0.91188000000E+02 0.  0.
    9900012    2    3    3    0    0  0.29406027846E+02 -0.67225513804E+01 -0.27262768819E+02  0.50528859153E+02  0.29999997882E+02 0.  0.
         12    1    3    3    0    0 -0.29406027846E+02  0.67225513804E+01  0.27262768819E+02  0.40659140847E+02  0.00000000000E+00 0. -1.
         11    1    4    4    0    0  0.10002302075E+02 -0.55744940978E+01 -0.20730329055E+01  0.11636945343E+02  0.51100000000E-03 0.  1.
        -11    1    4    4    0    0  0.43799585756E+01 -0.84805917720E+00 -0.23327414096E+02  0.23750189266E+02  0.51100000000E-03 0. -1.
         12    1    4    4    0    0  0.15023767195E+02 -0.29999810540E+00 -0.18623218174E+01  0.15141724544E+02  0.00000000000E+00 0. -1.
</event>
<event>
 8    1  0.7311878E-012  0.9118800E+02  0.7816164E-02  0.1184000E+00
        -11   -1    0    0    0    0  0.00000000000E+00  0.00000000000E+00  0.45593999997E+02  0.45594000000E+02  0.51100000000E-03 0. -1.
         11   -1    0    0    0    0 -0.00000000000E+00 -0.00000000000E+00 -0.45593999997E+02  0.45594000000E+02  0.51100000000E-03 0.  1.
         23    2    1    2    0    0  0.71054273576E-14  0.00000000000E+00  0.88817841970E-15  0.91188000000E+02  0.91188000000E+02 0.  0.
    9900012    2    3    3    0    0 -0.40073190308E+02  0.49574620389E+01 -0.47673364985E+01  0.50528874227E+02  0.30000043701E+02 0.  0.
         12    1    3    3    0    0  0.40073190308E+02 -0.49574620389E+01  0.47673364985E+01  0.40659125773E+02  0.00000000000E+00 0. -1.
         11    1    4    4    0    0 -0.58398241932E+01 -0.36817441652E+01  0.97364928628E+00  0.69718562736E+01  0.51100000000E-03 0. -1.
        -11    1    4    4    0    0 -0.37426569855E+02  0.43632079946E+01 -0.37709088474E+01  0.37868264667E+02  0.51100000000E-03 0.  1.
         12    1    4    4    0    0  0.31932037403E+01  0.42759982094E+01 -0.19700769373E+01  0.56887532864E+01  0.00000000000E+00 0. -1.
</event>
<event>
 8    1  0.7311878E-012  0.9118800E+02  0.7816164E-02  0.1184000E+00
        -11   -1    0    0    0    0  0.00000000000E+00  0.00000000000E+00  0.45593999997E+02  0.45594000000E+02  0.51100000000E-03 0. -1.
         11   -1    0    0    0    0 -0.00000000000E+00 -0.00000000000E+00 -0.45593999997E+02  0.45594000000E+02  0.51100000000E-03 0.  1.
         23    2    1    2    0    0  0.00000000000E+00  0.00000000000E+00  0.00000000000E+00  0.91188000000E+02  0.91188000000E+02 0.  0.
    9900012    2    3    3    0    0 -0.58015431616E+01 -0.17699895521E+01 -0.40204168592E+02  0.50528856646E+02  0.29999990262E+02 0.  0.
         12    1    3    3    0    0  0.58015431616E+01  0.17699895521E+01  0.40204168592E+02  0.40659143354E+02  0.00000000000E+00 0. -1.
         11    1    4    4    0    0 -0.21308922065E+01 -0.51138672836E+01 -0.12634923693E+01  0.56823193696E+01  0.51100000000E-03 0. -1.
        -11    1    4    4    0    0  0.78582075209E+01  0.22655902541E+01 -0.66441861263E+01  0.10537055290E+02  0.51100000000E-03 0.  1.
         12    1    4    4    0    0 -0.11528858476E+02  0.10782874774E+01 -0.32296490097E+02  0.34309481987E+02  0.00000000000E+00 0. -1.
</event>
<event>
 8    1  0.7311878E-012  0.9118800E+02  0.7816164E-02  0.1184000E+00
        -11   -1    0    0    0    0  0.00000000000E+00  0.00000000000E+00  0.45593999997E+02  0.45594000000E+02  0.51100000000E-03 0.  1.
         11   -1    0    0    0    0 -0.00000000000E+00 -0.00000000000E+00 -0.45593999997E+02  0.45594000000E+02  0.51100000000E-03 0. -1.
         23    2    1    2    0    0 -0.71054273576E-14  0.35527136788E-14  0.88817841970E-15  0.91188000000E+02  0.91188000000E+02 0.  0.
    9900012    2    3    3    0    0 -0.27816410043E+02  0.29267425674E+02  0.47781341036E+01  0.50528862789E+02  0.30000008933E+02 0.  0.
        -12    1    3    3    0    0  0.27816410043E+02 -0.29267425674E+02 -0.47781341036E+01  0.40659137211E+02  0.00000000000E+00 0.  1.
         11    1    4    4    0    0 -0.18958303702E+01  0.83162102251E+00  0.15574781964E+01  0.25906572353E+01  0.51100000000E-03 0. -1.
        -11    1    4    4    0    0  0.48972796236E+00  0.18813161371E+01 -0.84808818601E+01  0.87008356651E+01  0.51100000000E-03 0.  1.
         12    1    4    4    0    0 -0.26410307635E+02  0.26554488515E+02  0.11701537767E+02  0.39237369888E+02  0.00000000000E+00 0. -1.
</event>
<event>
 8    1  0.7311878E-012  0.9118800E+02  0.7816164E-02  0.1184000E+00
        -11   -1    0    0    0    0  0.00000000000E+00  0.00000000000E+00  0.45593999997E+02  0.45594000000E+02  0.51100000000E-03 0. -1.
         11   -1    0    0    0    0 -0.00000000000E+00 -0.00000000000E+00 -0.45593999997E+02  0.45594000000E+02  0.51100000000E-03 0.  1.
         23    2    1    2    0    0  0.71054273576E-14  0.00000000000E+00  0.00000000000E+00  0.91188000000E+02  0.91188000000E+02 0.  0.
    9900012    2    3    3    0    0  0.32778957720E+02  0.22072832476E+02 -0.95653309121E+01  0.50528861320E+02  0.30000004469E+02 0.  0.
         12    1    3    3    0    0 -0.32778957720E+02 -0.22072832476E+02  0.95653309121E+01  0.40659138680E+02  0.00000000000E+00 0. -1.
         11    1    4    4    0    0 -0.91656481491E+00  0.97978555336E+01  0.13197296304E+01  0.99287335887E+01  0.51100000000E-03 0. -1.
        -11    1    4    4    0    0  0.83759778481E+01  0.91999337807E+00  0.37557801864E+01  0.92254689743E+01  0.51100000000E-03 0.  1.
         12    1    4    4    0    0  0.25319544686E+02  0.11354983565E+02 -0.14640840729E+02  0.31374658757E+02  0.00000000000E+00 0. -1.
</event>
<event>
 8    1  0.7311878E-012  0.9118800E+02  0.7816164E-02  0.1184000E+00
        -11   -1    0    0    0    0  0.00000000000E+00  0.00000000000E+00  0.45593999997E+02  0.45594000000E+02  0.51100000000E-03 0. -1.
         11   -1    0    0    0    0 -0.00000000000E+00 -0.00000000000E+00 -0.45593999997E+02  0.45594000000E+02  0.51100000000E-03 0.  1.
         23    2    1    2    0    0 -0.17763568394E-14  0.00000000000E+00  0.00000000000E+00  0.91188000000E+02  0.91188000000E+02 0.  0.
    9900012    2    3    3    0    0 -0.27337118677E+01 -0.19345494815E+02 -0.35657314901E+02  0.50528862575E+02  0.30000008283E+02 0.  0.
         12    1    3    3    0    0  0.27337118677E+01  0.19345494815E+02  0.35657314901E+02  0.40659137425E+02  0.00000000000E+00 0. -1.
         11    1    4    4    0    0 -0.27970150318E+01  0.33205209295E+01 -0.59176647561E+01  0.73394760547E+01  0.51100000000E-03 0. -1.
        -11    1    4    4    0    0 -0.88653607829E+01 -0.91370402191E+01 -0.21546775518E+02  0.25026858797E+02  0.51100000000E-03 0.  1.
        -12    1    4    4    0    0  0.89286639470E+01 -0.13528975525E+02 -0.81928746272E+01  0.18162527723E+02  0.00000000000E+00 0.  1.
</event>
<event>
 8    1  0.7311878E-012  0.9118800E+02  0.7816164E-02  0.1184000E+00
        -11   -1    0    0    0    0  0.00000000000E+00  0.00000000000E+00  0.45593999997E+02  0.45594000000E+02  0.51100000000E-03 0. -1.
         11   -1    0    0    0    0 -0.00000000000E+00 -0.00000000000E+00 -0.45593999997E+02  0.45594000000E+02  0.51100000000E-03 0.  1.
         23    2    1    2    0    0  0.35527136788E-14  0.00000000000E+00  0.35527136788E-14  0.91188000000E+02  0.91188000000E+02 0.  0.
    9900012    2    3    3    0    0 -0.20568656963E+02 -0.26360137762E+02  0.23135239668E+02  0.50528858019E+02  0.29999994436E+02 0.  0.
        -12    1    3    3    0    0  0.20568656963E+02  0.26360137762E+02 -0.23135239668E+02  0.40659141981E+02  0.00000000000E+00 0.  1.
         11    1    4    4    0    0  0.95559816308E+00 -0.10997509143E+02  0.69424765510E+01  0.13040565790E+02  0.51100000000E-03 0. -1.
        -11    1    4    4    0    0 -0.96047736523E+00 -0.17428457729E+01 -0.47381625932E+01  0.51390868039E+01  0.51100000000E-03 0.  1.
         12    1    4    4    0    0 -0.20563777761E+02 -0.13619782846E+02  0.20930925710E+02  0.32349205425E+02  0.00000000000E+00 0. -1.
</event>
<event>
 8    1  0.7311878E-012  0.9118800E+02  0.7816164E-02  0.1184000E+00
        -11   -1    0    0    0    0  0.00000000000E+00  0.00000000000E+00  0.45593999997E+02  0.45594000000E+02  0.51100000000E-03 0. -1.
         11   -1    0    0    0    0 -0.00000000000E+00 -0.00000000000E+00 -0.45593999997E+02  0.45594000000E+02  0.51100000000E-03 0.  1.
         23    2    1    2    0    0 -0.17763568394E-14  0.00000000000E+00 -0.71054273576E-14  0.91188000000E+02  0.91188000000E+02 0.  0.
    9900012    2    3    3    0    0 -0.11309153403E+02 -0.70565577773E+01 -0.38411905961E+02  0.50528850010E+02  0.29999970090E+02 0.  0.
         12    1    3    3    0    0  0.11309153403E+02  0.70565577773E+01  0.38411905961E+02  0.40659149990E+02  0.00000000000E+00 0. -1.
         11    1    4    4    0    0  0.27313884222E+01 -0.42826980222E+01 -0.28818146494E+02  0.29262391438E+02  0.51100000000E-03 0. -1.
        -11    1    4    4    0    0 -0.67601775535E+00 -0.53105571625E+01 -0.31853365756E+01  0.62293969807E+01  0.51100000000E-03 0.  1.
         12    1    4    4    0    0 -0.13364524069E+02  0.25366974074E+01 -0.64084228919E+01  0.15037061591E+02  0.00000000000E+00 0. -1.
</event>
<event>
 8    1  0.7311878E-012  0.9118800E+02  0.7816164E-02  0.1184000E+00
        -11   -1    0    0    0    0  0.00000000000E+00  0.00000000000E+00  0.45593999997E+02  0.45594000000E+02  0.51100000000E-03 0. -1.
         11   -1    0    0    0    0 -0.00000000000E+00 -0.00000000000E+00 -0.45593999997E+02  0.45594000000E+02  0.51100000000E-03 0.  1.
         23    2    1    2    0    0  0.00000000000E+00 -0.35527136788E-14  0.00000000000E+00  0.91188000000E+02  0.91188000000E+02 0.  0.
    9900012    2    3    3    0    0 -0.30481290253E+02 -0.26310736413E+02  0.56393028382E+01  0.50528860283E+02  0.30000001315E+02 0.  0.
        -12    1    3    3    0    0  0.30481290253E+02  0.26310736413E+02 -0.56393028382E+01  0.40659139717E+02  0.00000000000E+00 0.  1.
         11    1    4    4    0    0 -0.12693828003E+02 -0.46272135999E+01  0.17939210842E+01  0.13629472778E+02  0.51100000000E-03 0. -1.
        -11    1    4    4    0    0 -0.12980976642E+01  0.50725421119E+01  0.11028613779E+01  0.53508919353E+01  0.51100000000E-03 0.  1.
         12    1    4    4    0    0 -0.16489364585E+02 -0.26756064925E+02  0.27425203761E+01  0.31548495570E+02  0.00000000000E+00 0. -1.
</event>
<event>
 8    1  0.7311878E-012  0.9118800E+02  0.7816164E-02  0.1184000E+00
        -11   -1    0    0    0    0  0.00000000000E+00  0.00000000000E+00  0.45593999997E+02  0.45594000000E+02  0.51100000000E-03 0. -1.
         11   -1    0    0    0    0 -0.00000000000E+00 -0.00000000000E+00 -0.45593999997E+02  0.45594000000E+02  0.51100000000E-03 0.  1.
         23    2    1    2    0    0  0.35527136788E-14 -0.35527136788E-14 -0.35527136788E-14  0.91188000000E+02  0.91188000000E+02 0.  0.
    9900012    2    3    3    0    0 -0.21277873628E+02  0.31906578604E+02  0.13505010312E+02  0.50528893175E+02  0.30000101293E+02 0.  0.
        -12    1    3    3    0    0  0.21277873628E+02 -0.31906578604E+02 -0.13505010312E+02  0.40659106825E+02  0.00000000000E+00 0.  1.
         11    1    4    4    0    0  0.56688380736E+01  0.14948148101E+02  0.72388423499E+01  0.17549464253E+02  0.51100000000E-03 0.  1.
        -11    1    4    4    0    0 -0.82809549506E+01  0.56238958463E+01  0.47757480229E+01  0.11090995845E+02  0.51100000000E-03 0. -1.
        -12    1    4    4    0    0 -0.18665756751E+02  0.11334534657E+02  0.14904199394E+01  0.21888433077E+02  0.00000000000E+00 0.  1.
</event>
<event>
 8    1  0.7311878E-012  0.9118800E+02  0.7816164E-02  0.1184000E+00
        -11   -1    0    0    0    0  0.00000000000E+00  0.00000000000E+00  0.45593999997E+02  0.45594000000E+02  0.51100000000E-03 0.  1.
         11   -1    0    0    0    0 -0.00000000000E+00 -0.00000000000E+00 -0.45593999997E+02  0.45594000000E+02  0.51100000000E-03 0. -1.
         23    2    1    2    0    0 -0.71054273576E-14  0.00000000000E+00  0.00000000000E+00  0.91188000000E+02  0.91188000000E+02 0.  0.
    9900012    2    3    3    0    0 -0.39118982398E+02 -0.10063515348E+02 -0.46472241414E+01  0.50528858135E+02  0.29999994786E+02 0.  0.
         12    1    3    3    0    0  0.39118982398E+02  0.10063515348E+02  0.46472241414E+01  0.40659141865E+02  0.00000000000E+00 0. -1.
         11    1    4    4    0    0 -0.56877281248E+01  0.25008468955E+01 -0.40707597470E+01  0.74280260901E+01  0.51100000000E-03 0. -1.
        -11    1    4    4    0    0 -0.23983439471E+02 -0.26403806336E+01 -0.10366128094E+02  0.26260875665E+02  0.51100000000E-03 0.  1.
        -12    1    4    4    0    0 -0.94478148023E+01 -0.99239816095E+01  0.97896637000E+01  0.16839956380E+02  0.00000000000E+00 0.  1.
</event>
<event>
 8    1  0.7311878E-012  0.9118800E+02  0.7816164E-02  0.1184000E+00
        -11   -1    0    0    0    0  0.00000000000E+00  0.00000000000E+00  0.45593999997E+02  0.45594000000E+02  0.51100000000E-03 0. -1.
         11   -1    0    0    0    0 -0.00000000000E+00 -0.00000000000E+00 -0.45593999997E+02  0.45594000000E+02  0.51100000000E-03 0.  1.
         23    2    1    2    0    0 -0.88817841970E-15  0.00000000000E+00  0.00000000000E+00  0.91188000000E+02  0.91188000000E+02 0.  0.
    9900012    2    3    3    0    0 -0.40922076135E+01 -0.32258505446E+02 -0.24409185767E+02  0.50528859741E+02  0.29999999670E+02 0.  0.
         12    1    3    3    0    0  0.40922076135E+01  0.32258505446E+02  0.24409185767E+02  0.40659140259E+02  0.00000000000E+00 0. -1.
         11    1    4    4    0    0  0.50889326867E+01  0.73461321833E+00 -0.36421865954E+01  0.63009853139E+01  0.51100000000E-03 0. -1.
        -11    1    4    4    0    0 -0.38858215183E+01 -0.43672076277E+01 -0.12759902023E+02  0.14035213259E+02  0.51100000000E-03 0.  1.
         12    1    4    4    0    0 -0.52953187818E+01 -0.28625911036E+02 -0.80070971489E+01  0.30192661168E+02  0.00000000000E+00 0. -1.
</event>
<event>
 8    1  0.7311878E-012  0.9118800E+02  0.7816164E-02  0.1184000E+00
        -11   -1    0    0    0    0  0.00000000000E+00  0.00000000000E+00  0.45593999997E+02  0.45594000000E+02  0.51100000000E-03 0.  1.
         11   -1    0    0    0    0 -0.00000000000E+00 -0.00000000000E+00 -0.45593999997E+02  0.45594000000E+02  0.51100000000E-03 0. -1.
         23    2    1    2    0    0  0.00000000000E+00  0.71054273576E-14  0.00000000000E+00  0.91188000000E+02  0.91188000000E+02 0.  0.
    9900012    2    3    3    0    0 -0.21288888044E+02  0.34246638846E+02  0.52073266771E+01  0.50528864771E+02  0.30000014959E+02 0.  0.
         12    1    3    3    0    0  0.21288888044E+02 -0.34246638846E+02 -0.52073266771E+01  0.40659135229E+02  0.00000000000E+00 0. -1.
         11    1    4    4    0    0 -0.19174178246E+02  0.27242016847E+02  0.16918280835E+01  0.33356241932E+02  0.51100000000E-03 0. -1.
        -11    1    4    4    0    0 -0.31573541877E+01  0.91917099476E+01  0.76581141367E+01  0.12373484942E+02  0.51100000000E-03 0.  1.
        -12    1    4    4    0    0  0.10426443896E+01 -0.21870879484E+01 -0.41426155430E+01  0.47991378970E+01  0.00000000000E+00 0.  1.
</event>
<event>
 8    1  0.7311878E-012  0.9118800E+02  0.7816164E-02  0.1184000E+00
        -11   -1    0    0    0    0  0.00000000000E+00  0.00000000000E+00  0.45593999997E+02  0.45594000000E+02  0.51100000000E-03 0. -1.
         11   -1    0    0    0    0 -0.00000000000E+00 -0.00000000000E+00 -0.45593999997E+02  0.45594000000E+02  0.51100000000E-03 0.  1.
         23    2    1    2    0    0  0.35527136788E-14  0.17763568394E-14  0.35527136788E-14  0.91188000000E+02  0.91188000000E+02 0.  0.
    9900012    2    3    3    0    0  0.25066654813E+02 -0.61054839657E+01 -0.31425343383E+02  0.50528851894E+02  0.29999975818E+02 0.  0.
         12    1    3    3    0    0 -0.25066654813E+02  0.61054839657E+01  0.31425343383E+02  0.40659148106E+02  0.00000000000E+00 0. -1.
         11    1    4    4    0    0  0.15867681189E+01 -0.12359052639E+01 -0.22518280630E+01  0.30192755374E+01  0.51100000000E-03 0. -1.
        -11    1    4    4    0    0  0.24370084427E+02 -0.97453233092E+01 -0.32323084736E+02  0.41637172676E+02  0.51100000000E-03 0.  1.
         12    1    4    4    0    0 -0.89019773333E+00  0.48757446074E+01  0.31495694160E+01  0.58724036805E+01  0.00000000000E+00 0. -1.
</event>
<event>
 8    1  0.7311878E-012  0.9118800E+02  0.7816164E-02  0.1184000E+00
        -11   -1    0    0    0    0  0.00000000000E+00  0.00000000000E+00  0.45593999997E+02  0.45594000000E+02  0.51100000000E-03 0. -1.
         11   -1    0    0    0    0 -0.00000000000E+00 -0.00000000000E+00 -0.45593999997E+02  0.45594000000E+02  0.51100000000E-03 0.  1.
         23    2    1    2    0    0 -0.35527136788E-14  0.00000000000E+00  0.00000000000E+00  0.91188000000E+02  0.91188000000E+02 0.  0.
    9900012    2    3    3    0    0 -0.30693842399E+02 -0.99637200179E+01  0.24734156023E+02  0.50528854018E+02  0.29999982274E+02 0.  0.
        -12    1    3    3    0    0  0.30693842399E+02  0.99637200179E+01 -0.24734156023E+02  0.40659145982E+02  0.00000000000E+00 0.  1.
         11    1    4    4    0    0 -0.79108368510E+00 -0.51891481073E+01  0.84035204878E+01  0.99081899622E+01  0.51100000000E-03 0. -1.
        -11    1    4    4    0    0 -0.10325826977E+02 -0.10841477832E+02  0.96151349387E+00  0.15002828160E+02  0.51100000000E-03 0.  1.
        -12    1    4    4    0    0 -0.19576931737E+02  0.60669059216E+01  0.15369122041E+02  0.25617835896E+02  0.00000000000E+00 0.  1.
</event>
<event>
 8    1  0.7311878E-012  0.9118800E+02  0.7816164E-02  0.1184000E+00
        -11   -1    0    0    0    0  0.00000000000E+00  0.00000000000E+00  0.45593999997E+02  0.45594000000E+02  0.51100000000E-03 0. -1.
         11   -1    0    0    0    0 -0.00000000000E+00 -0.00000000000E+00 -0.45593999997E+02  0.45594000000E+02  0.51100000000E-03 0.  1.
         23    2    1    2    0    0 -0.17763568394E-14 -0.88817841970E-15  0.00000000000E+00  0.91188000000E+02  0.91188000000E+02 0.  0.
    9900012    2    3    3    0    0 -0.72666623447E+01 -0.64436520569E+01  0.39482156704E+02  0.50528859189E+02  0.29999997991E+02 0.  0.
        -12    1    3    3    0    0  0.72666623447E+01  0.64436520569E+01 -0.39482156704E+02  0.40659140811E+02  0.00000000000E+00 0.  1.
         11    1    4    4    0    0  0.48300762132E+01 -0.76615716017E+01  0.27403001264E+01  0.94624817399E+01  0.51100000000E-03 0. -1.
        -11    1    4    4    0    0  0.25610351882E+01  0.14857659544E+01  0.11510105285E+02  0.11884819126E+02  0.51100000000E-03 0.  1.
         12    1    4    4    0    0 -0.14657773746E+02 -0.26784640956E+00  0.25231751293E+02  0.29181558323E+02  0.00000000000E+00 0. -1.
</event>
<event>
 8    1  0.7739810E-012  0.9118800E+02  0.7816164E-02  0.1184000E+00
        -11   -1    0    0    0    0  0.00000000000E+00  0.00000000000E+00  0.45593999997E+02  0.45594000000E+02  0.51100000000E-03 0.  1.
         11   -1    0    0    0    0 -0.00000000000E+00 -0.00000000000E+00 -0.45593999997E+02  0.45594000000E+02  0.51100000000E-03 0. -1.
         23    2    1    2    0    0  0.00000000000E+00  0.00000000000E+00 -0.35527136788E-14  0.91188000000E+02  0.91188000000E+02 0.  0.
    9900012    2    3    3    0    0 -0.16734097679E+02  0.33364007438E+02 -0.16123857893E+02  0.50528858214E+02  0.29999995026E+02 0.  0.
         12    1    3    3    0    0  0.16734097679E+02 -0.33364007438E+02  0.16123857893E+02  0.40659141786E+02  0.00000000000E+00 0. -1.
         11    1    4    4    0    0  0.25405208118E+01  0.19965975352E+02 -0.93261603836E+01  0.22182688870E+02  0.51100000000E-03 0. -1.
        -11    1    4    4    0    0 -0.62573331027E+01  0.11990768655E+02  0.14535598958E+00  0.13526044475E+02  0.51100000000E-03 0.  1.
         12    1    4    4    0    0 -0.13017285388E+02  0.14072634306E+01 -0.69430534991E+01  0.14820124868E+02  0.00000000000E+00 0. -1.
</event>
<event>
 8    1  0.7311878E-012  0.9118800E+02  0.7816164E-02  0.1184000E+00
        -11   -1    0    0    0    0  0.00000000000E+00  0.00000000000E+00  0.45593999997E+02  0.45594000000E+02  0.51100000000E-03 0.  1.
         11   -1    0    0    0    0 -0.00000000000E+00 -0.00000000000E+00 -0.45593999997E+02  0.45594000000E+02  0.51100000000E-03 0. -1.
         23    2    1    2    0    0  0.35527136788E-14 -0.35527136788E-14  0.00000000000E+00  0.91188000000E+02  0.91188000000E+02 0.  0.
    9900012    2    3    3    0    0  0.10633156713E+02 -0.30092931705E+02 -0.25189619406E+02  0.50528862207E+02  0.30000007163E+02 0.  0.
         12    1    3    3    0    0 -0.10633156713E+02  0.30092931705E+02  0.25189619406E+02  0.40659137793E+02  0.00000000000E+00 0. -1.
         11    1    4    4    0    0  0.15826070598E+02 -0.21419584296E+02 -0.24183945355E+02  0.35973967187E+02  0.51100000000E-03 0. -1.
        -11    1    4    4    0    0 -0.25448724848E+01  0.21736018780E+01 -0.30854927516E-01  0.33469199834E+01  0.51100000000E-03 0.  1.
        -12    1    4    4    0    0 -0.26480414000E+01 -0.10846949287E+02 -0.97481912364E+00  0.11207975036E+02  0.00000000000E+00 0.  1.
</event>
<event>
 8    1  0.7311878E-012  0.9118800E+02  0.7816164E-02  0.1184000E+00
        -11   -1    0    0    0    0  0.00000000000E+00  0.00000000000E+00  0.45593999997E+02  0.45594000000E+02  0.51100000000E-03 0. -1.
         11   -1    0    0    0    0 -0.00000000000E+00 -0.00000000000E+00 -0.45593999997E+02  0.45594000000E+02  0.51100000000E-03 0.  1.
         23    2    1    2    0    0  0.35527136788E-14 -0.33306690739E-15 -0.71054273576E-14  0.91188000000E+02  0.91188000000E+02 0.  0.
    9900012    2    3    3    0    0 -0.20221314457E+02 -0.62842395690E+00  0.35268529202E+02  0.50528860472E+02  0.30000001891E+02 0.  0.
        -12    1    3    3    0    0  0.20221314457E+02  0.62842395690E+00 -0.35268529202E+02  0.40659139528E+02  0.00000000000E+00 0.  1.
         11    1    4    4    0    0 -0.18064941021E+02 -0.64961875547E+01  0.21995724142E+02  0.29195109653E+02  0.51100000000E-03 0. -1.
        -11    1    4    4    0    0 -0.75133404302E+01  0.60474068923E+01  0.12694355681E+02  0.15942649747E+02  0.51100000000E-03 0.  1.
         12    1    4    4    0    0  0.53569669939E+01 -0.17964329452E+00  0.57844937929E+00  0.53911010723E+01  0.00000000000E+00 0. -1.
</event>
<event>
 8    1  0.7311878E-012  0.9118800E+02  0.7816164E-02  0.1184000E+00
        -11   -1    0    0    0    0  0.00000000000E+00  0.00000000000E+00  0.45593999997E+02  0.45594000000E+02  0.51100000000E-03 0. -1.
         11   -1    0    0    0    0 -0.00000000000E+00 -0.00000000000E+00 -0.45593999997E+02  0.45594000000E+02  0.51100000000E-03 0.  1.
         23    2    1    2    0    0  0.35527136788E-14  0.00000000000E+00  0.00000000000E+00  0.91188000000E+02  0.91188000000E+02 0.  0.
    9900012    2    3    3    0    0  0.22094033594E+02  0.57482718074E+01  0.33644860708E+02  0.50528860790E+02  0.30000002858E+02 0.  0.
        -12    1    3    3    0    0 -0.22094033594E+02 -0.57482718074E+01 -0.33644860708E+02  0.40659139210E+02  0.00000000000E+00 0.  1.
         11    1    4    4    0    0  0.19565750048E+02 -0.38645129926E+01  0.12107327035E+02  0.23331103784E+02  0.51100000000E-03 0. -1.
        -11    1    4    4    0    0  0.14600947964E+01 -0.21828958941E+01  0.11114645752E+02  0.11420694451E+02  0.51100000000E-03 0.  1.
        -12    1    4    4    0    0  0.10681887501E+01  0.11795680694E+02  0.10422887921E+02  0.15777062555E+02  0.00000000000E+00 0.  1.
</event>
<event>
 8    1  0.7311878E-012  0.9118800E+02  0.7816164E-02  0.1184000E+00
        -11   -1    0    0    0    0  0.00000000000E+00  0.00000000000E+00  0.45593999997E+02  0.45594000000E+02  0.51100000000E-03 0. -1.
         11   -1    0    0    0    0 -0.00000000000E+00 -0.00000000000E+00 -0.45593999997E+02  0.45594000000E+02  0.51100000000E-03 0.  1.
         23    2    1    2    0    0  0.35527136788E-14  0.00000000000E+00 -0.71054273576E-14  0.91188000000E+02  0.91188000000E+02 0.  0.
    9900012    2    3    3    0    0 -0.18689988996E+02  0.10387477803E+02  0.34582510076E+02  0.50528863427E+02  0.30000010871E+02 0.  0.
        -12    1    3    3    0    0  0.18689988996E+02 -0.10387477803E+02 -0.34582510076E+02  0.40659136573E+02  0.00000000000E+00 0.  1.
         11    1    4    4    0    0 -0.17600741487E+02  0.10166327661E+02  0.29548501263E+02  0.35864386878E+02  0.51100000000E-03 0. -1.
        -11    1    4    4    0    0  0.34239864732E+01  0.64035175843E+00  0.83506030326E+01  0.90480000559E+01  0.51100000000E-03 0.  1.
        -12    1    4    4    0    0 -0.45132339817E+01 -0.41920161696E+00 -0.33165942198E+01  0.56164764923E+01  0.00000000000E+00 0.  1.
</event>
<event>
 8    1  0.7311878E-012  0.9118800E+02  0.7816164E-02  0.1184000E+00
        -11   -1    0    0    0    0  0.00000000000E+00  0.00000000000E+00  0.45593999997E+02  0.45594000000E+02  0.51100000000E-03 0. -1.
         11   -1    0    0    0    0 -0.00000000000E+00 -0.00000000000E+00 -0.45593999997E+02  0.45594000000E+02  0.51100000000E-03 0.  1.
         23    2    1    2    0    0  0.00000000000E+00  0.00000000000E+00  0.00000000000E+00  0.91188000000E+02  0.91188000000E+02 0.  0.
    9900012    2    3    3    0    0  0.93786177778E+01  0.88708445348E+01 -0.38555324872E+02  0.50528887489E+02  0.30000084012E+02 0.  0.
         12    1    3    3    0    0 -0.93786177778E+01 -0.88708445348E+01  0.38555324872E+02  0.40659112511E+02  0.00000000000E+00 0. -1.
         11    1    4    4    0    0  0.36892827784E+01 -0.38651943523E+01  0.24118388075E+01  0.58623801902E+01  0.51100000000E-03 0. -1.
        -11    1    4    4    0    0 -0.13486048884E+01  0.51562124668E+01 -0.52475134691E+01  0.74794157538E+01  0.51100000000E-03 0.  1.
        -12    1    4    4    0    0  0.70379398878E+01  0.75798264202E+01 -0.35719650210E+02  0.37187091545E+02  0.00000000000E+00 0.  1.
</event>
<event>
 8    1  0.7311878E-012  0.9118800E+02  0.7816164E-02  0.1184000E+00
        -11   -1    0    0    0    0  0.00000000000E+00  0.00000000000E+00  0.45593999997E+02  0.45594000000E+02  0.51100000000E-03 0. -1.
         11   -1    0    0    0    0 -0.00000000000E+00 -0.00000000000E+00 -0.45593999997E+02  0.45594000000E+02  0.51100000000E-03 0.  1.
         23    2    1    2    0    0  0.00000000000E+00 -0.35527136788E-14  0.00000000000E+00  0.91188000000E+02  0.91188000000E+02 0.  0.
    9900012    2    3    3    0    0  0.22685120949E+02 -0.26317738375E+02  0.21116990016E+02  0.50528864089E+02  0.30000012886E+02 0.  0.
        -12    1    3    3    0    0 -0.22685120949E+02  0.26317738375E+02 -0.21116990016E+02  0.40659135911E+02  0.00000000000E+00 0.  1.
         11    1    4    4    0    0  0.12815280653E+02 -0.16958894471E+02  0.10455262143E+02  0.23688563203E+02  0.51100000000E-03 0. -1.
        -11    1    4    4    0    0  0.13003939972E+01 -0.12543493907E+02 -0.23959304509E+00  0.12612996037E+02  0.51100000000E-03 0.  1.
         12    1    4    4    0    0  0.85694462992E+01  0.31846500024E+01  0.10901320919E+02  0.14227304850E+02  0.00000000000E+00 0. -1.
</event>
<event>
 8    1  0.7311878E-012  0.9118800E+02  0.7816164E-02  0.1184000E+00
        -11   -1    0    0    0    0  0.00000000000E+00  0.00000000000E+00  0.45593999997E+02  0.45594000000E+02  0.51100000000E-03 0. -1.
         11   -1    0    0    0    0 -0.00000000000E+00 -0.00000000000E+00 -0.45593999997E+02  0.45594000000E+02  0.51100000000E-03 0.  1.
         23    2    1    2    0    0 -0.53290705182E-14  0.00000000000E+00  0.00000000000E+00  0.91188000000E+02  0.91188000000E+02 0.  0.
    9900012    2    3    3    0    0  0.14157398355E+02  0.70676767112E+01 -0.37453768195E+02  0.50528822262E+02  0.29999885749E+02 0.  0.
         12    1    3    3    0    0 -0.14157398355E+02 -0.70676767112E+01  0.37453768195E+02  0.40659177738E+02  0.00000000000E+00 0. -1.
         11    1    4    4    0    0  0.18345686294E+02  0.40236093786E+01 -0.21137374961E+02  0.28276178287E+02  0.51100000000E-03 0. -1.
        -11    1    4    4    0    0  0.14532822181E+01 -0.16640592547E+01  0.17050316738E+01  0.27907446458E+01  0.51100000000E-03 0.  1.
        -12    1    4    4    0    0 -0.56415701567E+01  0.47081265873E+01 -0.18021424908E+02  0.19461899330E+02  0.00000000000E+00 0.  1.
</event>
<event>
 8    1  0.7311878E-012  0.9118800E+02  0.7816164E-02  0.1184000E+00
        -11   -1    0    0    0    0  0.00000000000E+00  0.00000000000E+00  0.45593999997E+02  0.45594000000E+02  0.51100000000E-03 0. -1.
         11   -1    0    0    0    0 -0.00000000000E+00 -0.00000000000E+00 -0.45593999997E+02  0.45594000000E+02  0.51100000000E-03 0.  1.
         23    2    1    2    0    0 -0.26645352591E-14  0.00000000000E+00  0.00000000000E+00  0.91188000000E+02  0.91188000000E+02 0.  0.
    9900012    2    3    3    0    0 -0.29147792179E+01  0.21104623260E+02 -0.34630408214E+02  0.50528853010E+02  0.29999979210E+02 0.  0.
         12    1    3    3    0    0  0.29147792179E+01 -0.21104623260E+02  0.34630408214E+02  0.40659146990E+02  0.00000000000E+00 0. -1.
         11    1    4    4    0    0  0.16246409021E+01 -0.30726659577E+01 -0.70516658222E+01  0.78617253372E+01  0.51100000000E-03 0. -1.
        -11    1    4    4    0    0  0.72320608579E+01  0.51542615428E+01 -0.13746018106E+02  0.16365272082E+02  0.51100000000E-03 0.  1.
        -12    1    4    4    0    0 -0.11771480978E+02  0.19023027675E+02 -0.13832724286E+02  0.26301855591E+02  0.00000000000E+00 0.  1.
</event>
<event>
 8    1  0.7311878E-012  0.9118800E+02  0.7816164E-02  0.1184000E+00
        -11   -1    0    0    0    0  0.00000000000E+00  0.00000000000E+00  0.45593999997E+02  0.45594000000E+02  0.51100000000E-03 0.  1.
         11   -1    0    0    0    0 -0.00000000000E+00 -0.00000000000E+00 -0.45593999997E+02  0.45594000000E+02  0.51100000000E-03 0. -1.
         23    2    1    2    0    0  0.00000000000E+00 -0.17763568394E-14  0.00000000000E+00  0.91188000000E+02  0.91188000000E+02 0.  0.
    9900012    2    3    3    0    0 -0.16431623820E+02 -0.15861519000E+02 -0.33638959273E+02  0.50528860469E+02  0.30000001883E+02 0.  0.
         12    1    3    3    0    0  0.16431623820E+02  0.15861519000E+02  0.33638959273E+02  0.40659139531E+02  0.00000000000E+00 0. -1.
         11    1    4    4    0    0 -0.10050612672E+02  0.20125463510E+01 -0.15870675887E+02  0.18892948718E+02  0.51100000000E-03 0. -1.
        -11    1    4    4    0    0  0.21164248207E+00  0.32574618415E+01 -0.21790779607E-01  0.32644027460E+01  0.51100000000E-03 0.  1.
        -12    1    4    4    0    0 -0.65926536298E+01 -0.21131527193E+02 -0.17746492607E+02  0.28371509005E+02  0.00000000000E+00 0.  1.
</event>
<event>
 8    1  0.7311878E-012  0.9118800E+02  0.7816164E-02  0.1184000E+00
        -11   -1    0    0    0    0  0.00000000000E+00  0.00000000000E+00  0.45593999997E+02  0.45594000000E+02  0.51100000000E-03 0.  1.
         11   -1    0    0    0    0 -0.00000000000E+00 -0.00000000000E+00 -0.45593999997E+02  0.45594000000E+02  0.51100000000E-03 0. -1.
         23    2    1    2    0    0  0.00000000000E+00  0.00000000000E+00  0.00000000000E+00  0.91188000000E+02  0.91188000000E+02 0.  0.
    9900012    2    3    3    0    0  0.22151285529E+02  0.33015293431E+02 -0.85133809807E+01  0.50528847197E+02  0.29999961541E+02 0.  0.
         12    1    3    3    0    0 -0.22151285529E+02 -0.33015293431E+02  0.85133809807E+01  0.40659152803E+02  0.00000000000E+00 0. -1.
         11    1    4    4    0    0 -0.20154796266E+01  0.13921117584E+02 -0.14459857657E+01  0.14140387124E+02  0.51100000000E-03 0. -1.
        -11    1    4    4    0    0  0.57628034842E+01  0.75459440562E+01  0.58105008626E+01  0.11131625947E+02  0.51100000000E-03 0.  1.
         12    1    4    4    0    0  0.18403961672E+02  0.11548231790E+02 -0.12877896078E+02  0.25256834126E+02  0.00000000000E+00 0. -1.
</event>
<event>
 8    1  0.7311878E-012  0.9118800E+02  0.7816164E-02  0.1184000E+00
        -11   -1    0    0    0    0  0.00000000000E+00  0.00000000000E+00  0.45593999997E+02  0.45594000000E+02  0.51100000000E-03 0. -1.
         11   -1    0    0    0    0 -0.00000000000E+00 -0.00000000000E+00 -0.45593999997E+02  0.45594000000E+02  0.51100000000E-03 0.  1.
         23    2    1    2    0    0  0.00000000000E+00  0.17763568394E-14  0.00000000000E+00  0.91188000000E+02  0.91188000000E+02 0.  0.
    9900012    2    3    3    0    0  0.28247644557E+02 -0.13278676687E+02 -0.26055945107E+02  0.50528868762E+02  0.30000027090E+02 0.  0.
         12    1    3    3    0    0 -0.28247644557E+02  0.13278676687E+02  0.26055945107E+02  0.40659131238E+02  0.00000000000E+00 0. -1.
         11    1    4    4    0    0  0.13549934494E+02 -0.12915635957E+02 -0.14450367647E+00  0.18719916093E+02  0.51100000000E-03 0. -1.
        -11    1    4    4    0    0  0.14679771339E+02 -0.34728730884E+01 -0.19242701353E+02  0.24450727794E+02  0.51100000000E-03 0.  1.
        -12    1    4    4    0    0  0.17938724309E-01  0.31098323581E+01 -0.66687400770E+01  0.73582248748E+01  0.00000000000E+00 0.  1.
</event>
<event>
 8    1  0.7311878E-012  0.9118800E+02  0.7816164E-02  0.1184000E+00
        -11   -1    0    0    0    0  0.00000000000E+00  0.00000000000E+00  0.45593999997E+02  0.45594000000E+02  0.51100000000E-03 0.  1.
         11   -1    0    0    0    0 -0.00000000000E+00 -0.00000000000E+00 -0.45593999997E+02  0.45594000000E+02  0.51100000000E-03 0. -1.
         23    2    1    2    0    0 -0.17763568394E-14  0.00000000000E+00  0.00000000000E+00  0.91188000000E+02  0.91188000000E+02 0.  0.
    9900012    2    3    3    0    0 -0.12069343884E+02 -0.37643651719E+02 -0.95106273617E+01  0.50528860691E+02  0.30000002555E+02 0.  0.
         12    1    3    3    0    0  0.12069343884E+02  0.37643651719E+02  0.95106273617E+01  0.40659139309E+02  0.00000000000E+00 0. -1.
         11    1    4    4    0    0 -0.77404154766E+00 -0.48518739633E+00  0.59988495490E+01  0.60680098302E+01  0.51100000000E-03 0. -1.
        -11    1    4    4    0    0 -0.81638493723E+01 -0.91846928629E+01  0.69679592626E-01  0.12288688908E+02  0.51100000000E-03 0.  1.
         12    1    4    4    0    0 -0.31314529641E+01 -0.27973771460E+02 -0.15579156503E+02  0.32172161953E+02  0.00000000000E+00 0. -1.
</event>
<event>
 8    1  0.7311878E-012  0.9118800E+02  0.7816164E-02  0.1184000E+00
        -11   -1    0    0    0    0  0.00000000000E+00  0.00000000000E+00  0.45593999997E+02  0.45594000000E+02  0.51100000000E-03 0. -1.
         11   -1    0    0    0    0 -0.00000000000E+00 -0.00000000000E+00 -0.45593999997E+02  0.45594000000E+02  0.51100000000E-03 0.  1.
         23    2    1    2    0    0  0.17763568394E-14 -0.17763568394E-14  0.00000000000E+00  0.91188000000E+02  0.91188000000E+02 0.  0.
    9900012    2    3    3    0    0 -0.51870676290E+01  0.14547250802E+02  0.37611684091E+02  0.50528844123E+02  0.29999952195E+02 0.  0.
        -12    1    3    3    0    0  0.51870676290E+01 -0.14547250802E+02 -0.37611684091E+02  0.40659155877E+02  0.00000000000E+00 0.  1.
         11    1    4    4    0    0 -0.14503171397E+01  0.12576399383E+02  0.19796372386E+02  0.23498204212E+02  0.51100000000E-03 0. -1.
        -11    1    4    4    0    0 -0.10303444313E+02  0.65611614616E+01  0.12062347803E+02  0.17167120878E+02  0.51100000000E-03 0.  1.
         12    1    4    4    0    0  0.65666938239E+01 -0.45903100432E+01  0.57529639015E+01  0.98635190334E+01  0.00000000000E+00 0. -1.
</event>
<event>
 8    1  0.7311878E-012  0.9118800E+02  0.7816164E-02  0.1184000E+00
        -11   -1    0    0    0    0  0.00000000000E+00  0.00000000000E+00  0.45593999997E+02  0.45594000000E+02  0.51100000000E-03 0. -1.
         11   -1    0    0    0    0 -0.00000000000E+00 -0.00000000000E+00 -0.45593999997E+02  0.45594000000E+02  0.51100000000E-03 0.  1.
         23    2    1    2    0    0  0.35527136788E-14  0.35527136788E-14  0.17763568394E-14  0.91188000000E+02  0.91188000000E+02 0.  0.
    9900012    2    3    3    0    0 -0.24091191156E+02 -0.29290183005E+02 -0.14658318813E+02  0.50528848236E+02  0.29999964697E+02 0.  0.
         12    1    3    3    0    0  0.24091191156E+02  0.29290183005E+02  0.14658318813E+02  0.40659151764E+02  0.00000000000E+00 0. -1.
         11    1    4    4    0    0 -0.91671918626E+01 -0.18840621792E+02 -0.19082627359E+02  0.28339955952E+02  0.51100000000E-03 0.  1.
        -11    1    4    4    0    0 -0.28397960812E+01  0.26724540916E+01  0.98049300133E+00  0.40209227102E+01  0.51100000000E-03 0. -1.
        -12    1    4    4    0    0 -0.12084203212E+02 -0.13122015304E+02  0.34438155448E+01  0.18167969574E+02  0.00000000000E+00 0.  1.
</event>
<event>
 8    1  0.7311878E-012  0.9118800E+02  0.7816164E-02  0.1184000E+00
        -11   -1    0    0    0    0  0.00000000000E+00  0.00000000000E+00  0.45593999997E+02  0.45594000000E+02  0.51100000000E-03 0. -1.
         11   -1    0    0    0    0 -0.00000000000E+00 -0.00000000000E+00 -0.45593999997E+02  0.45594000000E+02  0.51100000000E-03 0.  1.
         23    2    1    2    0    0  0.00000000000E+00 -0.26645352591E-14  0.00000000000E+00  0.91188000000E+02  0.91188000000E+02 0.  0.
    9900012    2    3    3    0    0  0.71336019334E+01 -0.28227091025E+01 -0.39928801989E+02  0.50528865830E+02  0.30000018176E+02 0.  0.
         12    1    3    3    0    0 -0.71336019334E+01  0.28227091025E+01  0.39928801989E+02  0.40659134170E+02  0.00000000000E+00 0. -1.
         11    1    4    4    0    0  0.40432503439E+01 -0.58590386545E+00 -0.19806743266E+01  0.45402893886E+01  0.51100000000E-03 0. -1.
        -11    1    4    4    0    0 -0.16729329185E+01 -0.13386991936E+02 -0.16135277011E+02  0.21032294742E+02  0.51100000000E-03 0.  1.
         12    1    4    4    0    0  0.47632845080E+01  0.11150186699E+02 -0.21812850651E+02  0.24956281699E+02  0.00000000000E+00 0. -1.
</event>
<event>
 8    1  0.7311878E-012  0.9118800E+02  0.7816164E-02  0.1184000E+00
        -11   -1    0    0    0    0  0.00000000000E+00  0.00000000000E+00  0.45593999997E+02  0.45594000000E+02  0.51100000000E-03 0. -1.
         11   -1    0    0    0    0 -0.00000000000E+00 -0.00000000000E+00 -0.45593999997E+02  0.45594000000E+02  0.51100000000E-03 0.  1.
         23    2    1    2    0    0  0.00000000000E+00  0.00000000000E+00  0.00000000000E+00  0.91188000000E+02  0.91188000000E+02 0.  0.
    9900012    2    3    3    0    0 -0.93938286012E+01 -0.92729983839E+01  0.38456960883E+02  0.50528802330E+02  0.29999825162E+02 0.  0.
        -12    1    3    3    0    0  0.93938286012E+01  0.92729983839E+01 -0.38456960883E+02  0.40659197670E+02  0.00000000000E+00 0.  1.
         11    1    4    4    0    0 -0.42280692796E+01  0.47698566757E+01  0.10596439270E+02  0.12365784569E+02  0.51100000000E-03 0. -1.
        -11    1    4    4    0    0 -0.89077423534E+00  0.10512907419E+01 -0.31344936281E+01  0.34239949661E+01  0.51100000000E-03 0.  1.
        -12    1    4    4    0    0 -0.42749850863E+01 -0.15094145802E+02  0.30995015241E+02  0.34739022795E+02  0.00000000000E+00 0.  1.
</event>
<event>
 8    1  0.7311878E-012  0.9118800E+02  0.7816164E-02  0.1184000E+00
        -11   -1    0    0    0    0  0.00000000000E+00  0.00000000000E+00  0.45593999997E+02  0.45594000000E+02  0.51100000000E-03 0. -1.
         11   -1    0    0    0    0 -0.00000000000E+00 -0.00000000000E+00 -0.45593999997E+02  0.45594000000E+02  0.51100000000E-03 0.  1.
         23    2    1    2    0    0 -0.35527136788E-14 -0.88817841970E-15  0.00000000000E+00  0.91188000000E+02  0.91188000000E+02 0.  0.
    9900012    2    3    3    0    0 -0.19392430345E+02  0.64710063811E+01 -0.35145779040E+02  0.50528855117E+02  0.29999985614E+02 0.  0.
         12    1    3    3    0    0  0.19392430345E+02 -0.64710063811E+01  0.35145779040E+02  0.40659144883E+02  0.00000000000E+00 0. -1.
         11    1    4    4    0    0 -0.15837704327E+02  0.67854114608E+01 -0.13974308160E+02  0.22184588701E+02  0.51100000000E-03 0. -1.
        -11    1    4    4    0    0 -0.48716333516E+01  0.63639268285E+01 -0.19854554639E+02  0.21411111983E+02  0.51100000000E-03 0.  1.
         12    1    4    4    0    0  0.13169073338E+01 -0.66783319081E+01 -0.13169162416E+01  0.69331544327E+01  0.00000000000E+00 0. -1.
</event>
<event>
 8    1  0.7311878E-012  0.9118800E+02  0.7816164E-02  0.1184000E+00
        -11   -1    0    0    0    0  0.00000000000E+00  0.00000000000E+00  0.45593999997E+02  0.45594000000E+02  0.51100000000E-03 0.  1.
         11   -1    0    0    0    0 -0.00000000000E+00 -0.00000000000E+00 -0.45593999997E+02  0.45594000000E+02  0.51100000000E-03 0. -1.
         23    2    1    2    0    0  0.35527136788E-14  0.00000000000E+00  0.00000000000E+00  0.91188000000E+02  0.91188000000E+02 0.  0.
    9900012    2    3    3    0    0 -0.26288358579E+02  0.76596447017E+01  0.30056918108E+02  0.50528852445E+02  0.29999977493E+02 0.  0.
        -12    1    3    3    0    0  0.26288358579E+02 -0.76596447017E+01 -0.30056918108E+02  0.40659147555E+02  0.00000000000E+00 0.  1.
         11    1    4    4    0    0  0.15774114944E+01  0.57680033552E+01  0.18953181310E+01  0.62729834057E+01  0.51100000000E-03 0. -1.
        -11    1    4    4    0    0 -0.25234065859E+01 -0.19503351430E+00 -0.30719513999E+01  0.39802643799E+01  0.51100000000E-03 0.  1.
         12    1    4    4    0    0 -0.25342363488E+02  0.20866748607E+01  0.31233551377E+02  0.40275604660E+02  0.00000000000E+00 0. -1.
</event>
<event>
 8    1  0.7311878E-012  0.9118800E+02  0.7816164E-02  0.1184000E+00
        -11   -1    0    0    0    0  0.00000000000E+00  0.00000000000E+00  0.45593999997E+02  0.45594000000E+02  0.51100000000E-03 0. -1.
         11   -1    0    0    0    0 -0.00000000000E+00 -0.00000000000E+00 -0.45593999997E+02  0.45594000000E+02  0.51100000000E-03 0.  1.
         23    2    1    2    0    0  0.35527136788E-14 -0.35527136788E-14 -0.35527136788E-14  0.91188000000E+02  0.91188000000E+02 0.  0.
    9900012    2    3    3    0    0 -0.17385549739E+02  0.30303066148E+02  0.20799890278E+02  0.50528823996E+02  0.29999891018E+02 0.  0.
        -12    1    3    3    0    0  0.17385549739E+02 -0.30303066148E+02 -0.20799890278E+02  0.40659176004E+02  0.00000000000E+00 0.  1.
         11    1    4    4    0    0  0.21892108563E+01 -0.11513315339E+01  0.24955514242E+01  0.35136854791E+01  0.51100000000E-03 0. -1.
        -11    1    4    4    0    0 -0.21318655934E+02  0.18893064454E+02  0.55351452200E+01  0.29018456337E+02  0.51100000000E-03 0.  1.
         12    1    4    4    0    0  0.17438953389E+01  0.12561333229E+02  0.12769193634E+02  0.17996682180E+02  0.00000000000E+00 0. -1.
</event>
<event>
 8    1  0.7311878E-012  0.9118800E+02  0.7816164E-02  0.1184000E+00
        -11   -1    0    0    0    0  0.00000000000E+00  0.00000000000E+00  0.45593999997E+02  0.45594000000E+02  0.51100000000E-03 0. -1.
         11   -1    0    0    0    0 -0.00000000000E+00 -0.00000000000E+00 -0.45593999997E+02  0.45594000000E+02  0.51100000000E-03 0.  1.
         23    2    1    2    0    0  0.00000000000E+00  0.00000000000E+00  0.00000000000E+00  0.91188000000E+02  0.91188000000E+02 0.  0.
    9900012    2    3    3    0    0 -0.73748958530E+01 -0.54997739610E+01  0.39604669827E+02  0.50528850051E+02  0.29999970216E+02 0.  0.
        -12    1    3    3    0    0  0.73748958530E+01  0.54997739610E+01 -0.39604669827E+02  0.40659149949E+02  0.00000000000E+00 0.  1.
         11    1    4    4    0    0  0.48004599370E+01  0.58103078341E+01  0.10347250708E+02  0.12801159721E+02  0.51100000000E-03 0. -1.
        -11    1    4    4    0    0 -0.74384607220E+01  0.35361203782E+01  0.10135641295E+02  0.13060094562E+02  0.51100000000E-03 0.  1.
         12    1    4    4    0    0 -0.47368950680E+01 -0.14846202173E+02  0.19121777824E+02  0.24667595768E+02  0.00000000000E+00 0. -1.
</event>
<event>
 8    1  0.7311878E-012  0.9118800E+02  0.7816164E-02  0.1184000E+00
        -11   -1    0    0    0    0  0.00000000000E+00  0.00000000000E+00  0.45593999997E+02  0.45594000000E+02  0.51100000000E-03 0. -1.
         11   -1    0    0    0    0 -0.00000000000E+00 -0.00000000000E+00 -0.45593999997E+02  0.45594000000E+02  0.51100000000E-03 0.  1.
         23    2    1    2    0    0 -0.35527136788E-14  0.35527136788E-14  0.00000000000E+00  0.91188000000E+02  0.91188000000E+02 0.  0.
    9900012    2    3    3    0    0  0.24324579555E+02 -0.26781233480E+02 -0.18553867747E+02  0.50528860245E+02  0.30000001201E+02 0.  0.
         12    1    3    3    0    0 -0.24324579555E+02  0.26781233480E+02  0.18553867747E+02  0.40659139755E+02  0.00000000000E+00 0. -1.
         11    1    4    4    0    0  0.87379278352E+01 -0.21792802829E+02 -0.78066960758E+01  0.24743123123E+02  0.51100000000E-03 0. -1.
        -11    1    4    4    0    0  0.13946125772E+02 -0.10008467362E+02 -0.47836983913E+01  0.17819865700E+02  0.51100000000E-03 0.  1.
         12    1    4    4    0    0  0.16405259479E+01  0.50200367108E+01 -0.59634732799E+01  0.79658714228E+01  0.00000000000E+00 0. -1.
</event>
<event>
 8    1  0.7311878E-012  0.9118800E+02  0.7816164E-02  0.1184000E+00
        -11   -1    0    0    0    0  0.00000000000E+00  0.00000000000E+00  0.45593999997E+02  0.45594000000E+02  0.51100000000E-03 0. -1.
         11   -1    0    0    0    0 -0.00000000000E+00 -0.00000000000E+00 -0.45593999997E+02  0.45594000000E+02  0.51100000000E-03 0.  1.
         23    2    1    2    0    0  0.00000000000E+00  0.00000000000E+00  0.00000000000E+00  0.91188000000E+02  0.91188000000E+02 0.  0.
    9900012    2    3    3    0    0 -0.17986553975E+02  0.16391033261E+02 -0.32572740707E+02  0.50528861637E+02  0.30000005431E+02 0.  0.
         12    1    3    3    0    0  0.17986553975E+02 -0.16391033261E+02  0.32572740707E+02  0.40659138363E+02  0.00000000000E+00 0. -1.
         11    1    4    4    0    0 -0.13975912637E+02 -0.42291818470E+01 -0.60946341120E+01  0.15822663441E+02  0.51100000000E-03 0. -1.
        -11    1    4    4    0    0 -0.54082950585E+01  0.10047242397E+02 -0.10569281979E+02  0.15553342311E+02  0.51100000000E-03 0.  1.
        -12    1    4    4    0    0  0.13976537208E+01  0.10572972711E+02 -0.15908824616E+02  0.19152855885E+02  0.00000000000E+00 0.  1.
</event>
<event>
 8    1  0.7311878E-012  0.9118800E+02  0.7816164E-02  0.1184000E+00
        -11   -1    0    0    0    0  0.00000000000E+00  0.00000000000E+00  0.45593999997E+02  0.45594000000E+02  0.51100000000E-03 0. -1.
         11   -1    0    0    0    0 -0.00000000000E+00 -0.00000000000E+00 -0.45593999997E+02  0.45594000000E+02  0.51100000000E-03 0.  1.
         23    2    1    2    0    0  0.00000000000E+00  0.35527136788E-14  0.00000000000E+00  0.91188000000E+02  0.91188000000E+02 0.  0.
    9900012    2    3    3    0    0  0.34744588658E+02  0.18349601780E+02 -0.10453285182E+02  0.50528862065E+02  0.30000006734E+02 0.  0.
         12    1    3    3    0    0 -0.34744588658E+02 -0.18349601780E+02  0.10453285182E+02  0.40659137935E+02  0.00000000000E+00 0. -1.
         11    1    4    4    0    0  0.88479893544E+01  0.82631405228E+01 -0.11968917466E+02  0.17024141461E+02  0.51100000000E-03 0.  1.
        -11    1    4    4    0    0  0.16103823278E+02 -0.36880119296E+01  0.16549832011E+01  0.16603419100E+02  0.51100000000E-03 0. -1.
         12    1    4    4    0    0  0.97927760252E+01  0.13774473187E+02 -0.13935091764E+00  0.16901301504E+02  0.00000000000E+00 0. -1.
</event>
<event>
 8    1  0.7311878E-012  0.9118800E+02  0.7816164E-02  0.1184000E+00
        -11   -1    0    0    0    0  0.00000000000E+00  0.00000000000E+00  0.45593999997E+02  0.45594000000E+02  0.51100000000E-03 0. -1.
         11   -1    0    0    0    0 -0.00000000000E+00 -0.00000000000E+00 -0.45593999997E+02  0.45594000000E+02  0.51100000000E-03 0.  1.
         23    2    1    2    0    0  0.35527136788E-14  0.00000000000E+00  0.00000000000E+00  0.91188000000E+02  0.91188000000E+02 0.  0.
    9900012    2    3    3    0    0 -0.29837567766E+02  0.86978104863E+01  0.26215147604E+02  0.50528851935E+02  0.29999975943E+02 0.  0.
        -12    1    3    3    0    0  0.29837567766E+02 -0.86978104863E+01 -0.26215147604E+02  0.40659148065E+02  0.00000000000E+00 0.  1.
         11    1    4    4    0    0 -0.16946468243E+02  0.78843706916E+01  0.15875175915E+02  0.24522791393E+02  0.51100000000E-03 0. -1.
        -11    1    4    4    0    0 -0.17044128211E+02 -0.30973856189E+01  0.10576183496E+02  0.20296594831E+02  0.51100000000E-03 0.  1.
        -12    1    4    4    0    0  0.41530286877E+01  0.39108254135E+01 -0.23621180639E+00  0.57094657117E+01  0.00000000000E+00 0.  1.
</event>
<event>
 8    1  0.7311878E-012  0.9118800E+02  0.7816164E-02  0.1184000E+00
        -11   -1    0    0    0    0  0.00000000000E+00  0.00000000000E+00  0.45593999997E+02  0.45594000000E+02  0.51100000000E-03 0. -1.
         11   -1    0    0    0    0 -0.00000000000E+00 -0.00000000000E+00 -0.45593999997E+02  0.45594000000E+02  0.51100000000E-03 0.  1.
         23    2    1    2    0    0 -0.71054273576E-14  0.00000000000E+00  0.00000000000E+00  0.91188000000E+02  0.91188000000E+02 0.  0.
    9900012    2    3    3    0    0 -0.35180428507E+02 -0.17888315818E+02 -0.97732707139E+01  0.50528791779E+02  0.29999793089E+02 0.  0.
         12    1    3    3    0    0  0.35180428507E+02  0.17888315818E+02  0.97732707139E+01  0.40659208221E+02  0.00000000000E+00 0. -1.
         11    1    4    4    0    0 -0.26797986780E+02 -0.63072027553E+01  0.10198084873E+01  0.27549100015E+02  0.51100000000E-03 0. -1.
        -11    1    4    4    0    0 -0.41797000299E+01  0.18334907122E+01 -0.71079284791E+01  0.84471431891E+01  0.51100000000E-03 0.  1.
        -12    1    4    4    0    0 -0.42027416974E+01 -0.13414603775E+02 -0.36851507221E+01  0.14532548574E+02  0.00000000000E+00 0.  1.
</event>
<event>
 8    1  0.7311878E-012  0.9118800E+02  0.7816164E-02  0.1184000E+00
        -11   -1    0    0    0    0  0.00000000000E+00  0.00000000000E+00  0.45593999997E+02  0.45594000000E+02  0.51100000000E-03 0. -1.
         11   -1    0    0    0    0 -0.00000000000E+00 -0.00000000000E+00 -0.45593999997E+02  0.45594000000E+02  0.51100000000E-03 0.  1.
         23    2    1    2    0    0  0.35527136788E-14  0.00000000000E+00 -0.17763568394E-14  0.91188000000E+02  0.91188000000E+02 0.  0.
    9900012    2    3    3    0    0 -0.23304313886E+02  0.29293852816E+02  0.15872789994E+02  0.50528851943E+02  0.29999975967E+02 0.  0.
        -12    1    3    3    0    0  0.23304313886E+02 -0.29293852816E+02 -0.15872789994E+02  0.40659148057E+02  0.00000000000E+00 0.  1.
         11    1    4    4    0    0  0.27154299640E+01  0.60293641603E+01  0.11707977819E+02  0.13446320572E+02  0.51100000000E-03 0. -1.
        -11    1    4    4    0    0 -0.33763747476E+00  0.15500470638E+01 -0.23405372216E+01  0.28275006121E+01  0.51100000000E-03 0.  1.
        -12    1    4    4    0    0 -0.25682106375E+02  0.21714441592E+02  0.65053493972E+01  0.34255030759E+02  0.00000000000E+00 0.  1.
</event>
<event>
 8    1  0.7311878E-012  0.9118800E+02  0.7816164E-02  0.1184000E+00
        -11   -1    0    0    0    0  0.00000000000E+00  0.00000000000E+00  0.45593999997E+02  0.45594000000E+02  0.51100000000E-03 0. -1.
         11   -1    0    0    0    0 -0.00000000000E+00 -0.00000000000E+00 -0.45593999997E+02  0.45594000000E+02  0.51100000000E-03 0.  1.
         23    2    1    2    0    0  0.00000000000E+00 -0.35527136788E-14  0.00000000000E+00  0.91188000000E+02  0.91188000000E+02 0.  0.
    9900012    2    3    3    0    0 -0.24201363456E+02 -0.25116488995E+02 -0.20895489420E+02  0.50528862150E+02  0.30000006992E+02 0.  0.
         12    1    3    3    0    0  0.24201363456E+02  0.25116488995E+02  0.20895489420E+02  0.40659137850E+02  0.00000000000E+00 0. -1.
         11    1    4    4    0    0 -0.31676615204E+01 -0.19542877479E+01 -0.11237602933E+02  0.11837949149E+02  0.51100000000E-03 0. -1.
        -11    1    4    4    0    0 -0.21117779652E+02 -0.23922718213E+02 -0.13591125602E+02  0.34683940946E+02  0.51100000000E-03 0.  1.
         12    1    4    4    0    0  0.84077715640E-01  0.76051696579E+00  0.39332391154E+01  0.40069720559E+01  0.00000000000E+00 0. -1.
</event>
<event>
 8    1  0.7311878E-012  0.9118800E+02  0.7816164E-02  0.1184000E+00
        -11   -1    0    0    0    0  0.00000000000E+00  0.00000000000E+00  0.45593999997E+02  0.45594000000E+02  0.51100000000E-03 0. -1.
         11   -1    0    0    0    0 -0.00000000000E+00 -0.00000000000E+00 -0.45593999997E+02  0.45594000000E+02  0.51100000000E-03 0.  1.
         23    2    1    2    0    0  0.00000000000E+00 -0.22204460493E-15  0.35527136788E-14  0.91188000000E+02  0.91188000000E+02 0.  0.
    9900012    2    3    3    0    0  0.29742520435E+02  0.19206762943E+01  0.27656069456E+02  0.50528871910E+02  0.30000036657E+02 0.  0.
        -12    1    3    3    0    0 -0.29742520435E+02 -0.19206762943E+01 -0.27656069456E+02  0.40659128090E+02  0.00000000000E+00 0.  1.
         11    1    4    4    0    0  0.10125669783E+01 -0.46593972441E+01  0.94903330041E+01  0.10620814251E+02  0.51100000000E-03 0. -1.
        -11    1    4    4    0    0  0.10039953634E+02  0.12822451303E+00 -0.34465709835E+01  0.10615835450E+02  0.51100000000E-03 0.  1.
         12    1    4    4    0    0  0.18689999823E+02  0.64518490253E+01  0.21612307436E+02  0.29292222209E+02  0.00000000000E+00 0. -1.
</event>
<event>
 8    1  0.7311878E-012  0.9118800E+02  0.7816164E-02  0.1184000E+00
        -11   -1    0    0    0    0  0.00000000000E+00  0.00000000000E+00  0.45593999997E+02  0.45594000000E+02  0.51100000000E-03 0. -1.
         11   -1    0    0    0    0 -0.00000000000E+00 -0.00000000000E+00 -0.45593999997E+02  0.45594000000E+02  0.51100000000E-03 0.  1.
         23    2    1    2    0    0 -0.71054273576E-14  0.17763568394E-14  0.35527136788E-14  0.91188000000E+02  0.91188000000E+02 0.  0.
    9900012    2    3    3    0    0 -0.34611423275E+02  0.12823132212E+02  0.17052328155E+02  0.50528865278E+02  0.30000016499E+02 0.  0.
        -12    1    3    3    0    0  0.34611423275E+02 -0.12823132212E+02 -0.17052328155E+02  0.40659134722E+02  0.00000000000E+00 0.  1.
         11    1    4    4    0    0 -0.88135569028E+01 -0.31687751922E+00  0.10613503636E+02  0.13799480292E+02  0.51100000000E-03 0. -1.
        -11    1    4    4    0    0 -0.28594200120E+02  0.75147096648E+01  0.71204295660E+01  0.30410518892E+02  0.51100000000E-03 0.  1.
        -12    1    4    4    0    0  0.27963337480E+01  0.56253000664E+01 -0.68160504699E+00  0.63188660935E+01  0.00000000000E+00 0.  1.
</event>
<event>
 8    1  0.7311878E-012  0.9118800E+02  0.7816164E-02  0.1184000E+00
        -11   -1    0    0    0    0  0.00000000000E+00  0.00000000000E+00  0.45593999997E+02  0.45594000000E+02  0.51100000000E-03 0. -1.
         11   -1    0    0    0    0 -0.00000000000E+00 -0.00000000000E+00 -0.45593999997E+02  0.45594000000E+02  0.51100000000E-03 0.  1.
         23    2    1    2    0    0  0.00000000000E+00 -0.26645352591E-14  0.00000000000E+00  0.91188000000E+02  0.91188000000E+02 0.  0.
    9900012    2    3    3    0    0  0.16292193330E+02  0.48724951501E+01  0.36932224674E+02  0.50528855987E+02  0.29999988259E+02 0.  0.
        -12    1    3    3    0    0 -0.16292193330E+02 -0.48724951501E+01 -0.36932224674E+02  0.40659144013E+02  0.00000000000E+00 0.  1.
         11    1    4    4    0    0  0.28704582149E+01 -0.12023458205E+01 -0.49290773830E+00  0.31508925934E+01  0.51100000000E-03 0. -1.
        -11    1    4    4    0    0 -0.26307216816E+01 -0.70657338756E+01  0.56133298719E+01  0.93997215001E+01  0.51100000000E-03 0.  1.
         12    1    4    4    0    0  0.16052456797E+02  0.13140574846E+02  0.31811802540E+02  0.37978241894E+02  0.00000000000E+00 0. -1.
</event>
<event>
 8    1  0.7311878E-012  0.9118800E+02  0.7816164E-02  0.1184000E+00
        -11   -1    0    0    0    0  0.00000000000E+00  0.00000000000E+00  0.45593999997E+02  0.45594000000E+02  0.51100000000E-03 0. -1.
         11   -1    0    0    0    0 -0.00000000000E+00 -0.00000000000E+00 -0.45593999997E+02  0.45594000000E+02  0.51100000000E-03 0.  1.
         23    2    1    2    0    0  0.00000000000E+00  0.00000000000E+00  0.35527136788E-14  0.91188000000E+02  0.91188000000E+02 0.  0.
    9900012    2    3    3    0    0  0.16856993861E+02  0.20618743279E+02  0.30722528510E+02  0.50528873418E+02  0.30000041240E+02 0.  0.
        -12    1    3    3    0    0 -0.16856993861E+02 -0.20618743279E+02 -0.30722528510E+02  0.40659126582E+02  0.00000000000E+00 0.  1.
         11    1    4    4    0    0  0.92003591892E+01  0.78717162396E+00  0.13162523870E+02  0.16078503763E+02  0.51100000000E-03 0. -1.
        -11    1    4    4    0    0  0.67016827797E+01  0.24212150882E+02  0.15471112710E+02  0.29504171419E+02  0.51100000000E-03 0.  1.
         12    1    4    4    0    0  0.95495189175E+00 -0.43805792275E+01  0.20888919303E+01  0.49461982350E+01  0.00000000000E+00 0. -1.
</event>
<event>
 8    1  0.7311878E-012  0.9118800E+02  0.7816164E-02  0.1184000E+00
        -11   -1    0    0    0    0  0.00000000000E+00  0.00000000000E+00  0.45593999997E+02  0.45594000000E+02  0.51100000000E-03 0. -1.
         11   -1    0    0    0    0 -0.00000000000E+00 -0.00000000000E+00 -0.45593999997E+02  0.45594000000E+02  0.51100000000E-03 0.  1.
         23    2    1    2    0    0  0.00000000000E+00  0.35527136788E-14  0.00000000000E+00  0.91188000000E+02  0.91188000000E+02 0.  0.
    9900012    2    3    3    0    0  0.23542716040E+02 -0.26648132715E+02 -0.19717588931E+02  0.50528858728E+02  0.29999996589E+02 0.  0.
         12    1    3    3    0    0 -0.23542716040E+02  0.26648132715E+02  0.19717588931E+02  0.40659141272E+02  0.00000000000E+00 0. -1.
         11    1    4    4    0    0 -0.50536741455E+01 -0.50221127547E+01 -0.95073454784E+00  0.71878463625E+01  0.51100000000E-03 0. -1.
        -11    1    4    4    0    0  0.12483168668E+02 -0.13721541295E+02 -0.17903743225E+01  0.18636406198E+02  0.51100000000E-03 0.  1.
         12    1    4    4    0    0  0.16113221518E+02 -0.79044786655E+01 -0.16976480060E+02  0.24704606167E+02  0.00000000000E+00 0. -1.
</event>
<event>
 8    1  0.7311878E-012  0.9118800E+02  0.7816164E-02  0.1184000E+00
        -11   -1    0    0    0    0  0.00000000000E+00  0.00000000000E+00  0.45593999997E+02  0.45594000000E+02  0.51100000000E-03 0. -1.
         11   -1    0    0    0    0 -0.00000000000E+00 -0.00000000000E+00 -0.45593999997E+02  0.45594000000E+02  0.51100000000E-03 0.  1.
         23    2    1    2    0    0  0.71054273576E-14  0.00000000000E+00  0.35527136788E-14  0.91188000000E+02  0.91188000000E+02 0.  0.
    9900012    2    3    3    0    0 -0.32062043795E+02  0.23089838022E+02 -0.95943074177E+01  0.50528855801E+02  0.29999987692E+02 0.  0.
         12    1    3    3    0    0  0.32062043795E+02 -0.23089838022E+02  0.95943074177E+01  0.40659144199E+02  0.00000000000E+00 0. -1.
         11    1    4    4    0    0 -0.16929662695E+02  0.10755595146E+02 -0.16835166353E+02  0.26186239369E+02  0.51100000000E-03 0.  1.
        -11    1    4    4    0    0 -0.85779275128E+01  0.10487048514E+02 -0.10788853162E+01  0.13591284734E+02  0.51100000000E-03 0. -1.
         12    1    4    4    0    0 -0.65544535878E+01  0.18471943619E+01  0.83197442517E+01  0.10751331697E+02  0.00000000000E+00 0. -1.
</event>
<event>
 8    1  0.7311878E-012  0.9118800E+02  0.7816164E-02  0.1184000E+00
        -11   -1    0    0    0    0  0.00000000000E+00  0.00000000000E+00  0.45593999997E+02  0.45594000000E+02  0.51100000000E-03 0. -1.
         11   -1    0    0    0    0 -0.00000000000E+00 -0.00000000000E+00 -0.45593999997E+02  0.45594000000E+02  0.51100000000E-03 0.  1.
         23    2    1    2    0    0  0.00000000000E+00  0.00000000000E+00 -0.35527136788E-14  0.91188000000E+02  0.91188000000E+02 0.  0.
    9900012    2    3    3    0    0 -0.24606540221E+02 -0.83543886250E+01 -0.31271200281E+02  0.50528860831E+02  0.30000002983E+02 0.  0.
         12    1    3    3    0    0  0.24606540221E+02  0.83543886250E+01  0.31271200281E+02  0.40659139169E+02  0.00000000000E+00 0. -1.
         11    1    4    4    0    0 -0.10185543979E+02 -0.45663603335E+00 -0.93385844077E+01  0.13826170171E+02  0.51100000000E-03 0.  1.
        -11    1    4    4    0    0 -0.11850625320E+02 -0.24081742489E+01  0.17839992775E+01  0.12223717821E+02  0.51100000000E-03 0. -1.
        -12    1    4    4    0    0 -0.25703709227E+01 -0.54895783427E+01 -0.23716615151E+02  0.24478972839E+02  0.00000000000E+00 0.  1.
</event>
<event>
 8    1  0.7311878E-012  0.9118800E+02  0.7816164E-02  0.1184000E+00
        -11   -1    0    0    0    0  0.00000000000E+00  0.00000000000E+00  0.45593999997E+02  0.45594000000E+02  0.51100000000E-03 0. -1.
         11   -1    0    0    0    0 -0.00000000000E+00 -0.00000000000E+00 -0.45593999997E+02  0.45594000000E+02  0.51100000000E-03 0.  1.
         23    2    1    2    0    0  0.00000000000E+00  0.00000000000E+00  0.35527136788E-14  0.91188000000E+02  0.91188000000E+02 0.  0.
    9900012    2    3    3    0    0 -0.32259354652E+02 -0.39886273972E+01 -0.24424981190E+02  0.50528993406E+02  0.30000405954E+02 0.  0.
         12    1    3    3    0    0  0.32259354652E+02  0.39886273972E+01  0.24424981190E+02  0.40659006594E+02  0.00000000000E+00 0. -1.
         11    1    4    4    0    0 -0.24092359157E+02 -0.27856295197E+01 -0.10296657038E+02  0.26348105207E+02  0.51100000000E-03 0.  1.
        -11    1    4    4    0    0 -0.12304112464E+02  0.49028435484E+00 -0.15221728039E+02  0.19578880638E+02  0.51100000000E-03 0. -1.
         12    1    4    4    0    0  0.41371169690E+01 -0.16932822323E+01  0.10934038871E+01  0.46020075612E+01  0.00000000000E+00 0. -1.
</event>
<event>
 8    1  0.7311878E-012  0.9118800E+02  0.7816164E-02  0.1184000E+00
        -11   -1    0    0    0    0  0.00000000000E+00  0.00000000000E+00  0.45593999997E+02  0.45594000000E+02  0.51100000000E-03 0. -1.
         11   -1    0    0    0    0 -0.00000000000E+00 -0.00000000000E+00 -0.45593999997E+02  0.45594000000E+02  0.51100000000E-03 0.  1.
         23    2    1    2    0    0 -0.17763568394E-14  0.17763568394E-14 -0.71054273576E-14  0.91188000000E+02  0.91188000000E+02 0.  0.
    9900012    2    3    3    0    0 -0.14606549621E+02 -0.10588825369E+02  0.36437500300E+02  0.50528856593E+02  0.29999990099E+02 0.  0.
        -12    1    3    3    0    0  0.14606549621E+02  0.10588825369E+02 -0.36437500300E+02  0.40659143407E+02  0.00000000000E+00 0.  1.
         11    1    4    4    0    0  0.16085480847E+01 -0.13556309366E+02  0.10116395205E+02  0.16991244886E+02  0.51100000000E-03 0. -1.
        -11    1    4    4    0    0  0.96838981518E+00 -0.21105414257E+01  0.60620417495E+01  0.64915725658E+01  0.51100000000E-03 0.  1.
        -12    1    4    4    0    0 -0.17183487521E+02  0.50780254230E+01  0.20259063346E+02  0.27046039141E+02  0.00000000000E+00 0.  1.
</event>
<event>
 8    1  0.7311878E-012  0.9118800E+02  0.7816164E-02  0.1184000E+00
        -11   -1    0    0    0    0  0.00000000000E+00  0.00000000000E+00  0.45593999997E+02  0.45594000000E+02  0.51100000000E-03 0.  1.
         11   -1    0    0    0    0 -0.00000000000E+00 -0.00000000000E+00 -0.45593999997E+02  0.45594000000E+02  0.51100000000E-03 0. -1.
         23    2    1    2    0    0  0.71054273576E-14 -0.35527136788E-14 -0.35527136788E-14  0.91188000000E+02  0.91188000000E+02 0.  0.
    9900012    2    3    3    0    0  0.32142623114E+02 -0.18434378620E+02 -0.16738920277E+02  0.50528856037E+02  0.29999988411E+02 0.  0.
         12    1    3    3    0    0 -0.32142623114E+02  0.18434378620E+02  0.16738920277E+02  0.40659143963E+02  0.00000000000E+00 0. -1.
         11    1    4    4    0    0  0.83210055476E+01 -0.24150324529E+01 -0.13999493876E+01  0.87767518833E+01  0.51100000000E-03 0. -1.
        -11    1    4    4    0    0 -0.86748810008E+00 -0.52465344701E+01  0.55336780241E+01  0.76746499781E+01  0.51100000000E-03 0.  1.
         12    1    4    4    0    0  0.24689105666E+02 -0.10772811697E+02 -0.20872648913E+02  0.34077454176E+02  0.00000000000E+00 0. -1.
</event>
<event>
 8    1  0.7311878E-012  0.9118800E+02  0.7816164E-02  0.1184000E+00
        -11   -1    0    0    0    0  0.00000000000E+00  0.00000000000E+00  0.45593999997E+02  0.45594000000E+02  0.51100000000E-03 0. -1.
         11   -1    0    0    0    0 -0.00000000000E+00 -0.00000000000E+00 -0.45593999997E+02  0.45594000000E+02  0.51100000000E-03 0.  1.
         23    2    1    2    0    0  0.35527136788E-14  0.44408920985E-15 -0.71054273576E-14  0.91188000000E+02  0.91188000000E+02 0.  0.
    9900012    2    3    3    0    0 -0.13271197184E+02 -0.15320008592E+01  0.38401746876E+02  0.50528857554E+02  0.29999993021E+02 0.  0.
        -12    1    3    3    0    0  0.13271197184E+02  0.15320008592E+01 -0.38401746876E+02  0.40659142446E+02  0.00000000000E+00 0.  1.
         11    1    4    4    0    0 -0.12246188382E+02  0.15112769486E+01  0.30020529994E+02  0.32457438428E+02  0.51100000000E-03 0. -1.
        -11    1    4    4    0    0 -0.76054237816E+01  0.12383900422E+01  0.20172733899E+01  0.79652666613E+01  0.51100000000E-03 0.  1.
        -12    1    4    4    0    0  0.65804149796E+01 -0.42816678500E+01  0.63639434919E+01  0.10106152465E+02  0.00000000000E+00 0.  1.
</event>
<event>
 8    1  0.7311878E-012  0.9118800E+02  0.7816164E-02  0.1184000E+00
        -11   -1    0    0    0    0  0.00000000000E+00  0.00000000000E+00  0.45593999997E+02  0.45594000000E+02  0.51100000000E-03 0. -1.
         11   -1    0    0    0    0 -0.00000000000E+00 -0.00000000000E+00 -0.45593999997E+02  0.45594000000E+02  0.51100000000E-03 0.  1.
         23    2    1    2    0    0 -0.17763568394E-14  0.31086244690E-14  0.00000000000E+00  0.91188000000E+02  0.91188000000E+02 0.  0.
    9900012    2    3    3    0    0 -0.13735933844E+02  0.28548438869E+01  0.38162030210E+02  0.50528848977E+02  0.29999966950E+02 0.  0.
        -12    1    3    3    0    0  0.13735933844E+02 -0.28548438869E+01 -0.38162030210E+02  0.40659151023E+02  0.00000000000E+00 0.  1.
         11    1    4    4    0    0 -0.73108622429E+01 -0.10262447715E+02  0.12130391227E+02  0.17490366818E+02  0.51100000000E-03 0. -1.
        -11    1    4    4    0    0 -0.10559332888E+01 -0.29314652064E+01  0.64095961443E+01  0.71268089886E+01  0.51100000000E-03 0.  1.
        -12    1    4    4    0    0 -0.53691383123E+01  0.16048756809E+02  0.19622042838E+02  0.25911673170E+02  0.00000000000E+00 0.  1.
</event>
<event>
 8    1  0.7311878E-012  0.9118800E+02  0.7816164E-02  0.1184000E+00
        -11   -1    0    0    0    0  0.00000000000E+00  0.00000000000E+00  0.45593999997E+02  0.45594000000E+02  0.51100000000E-03 0. -1.
         11   -1    0    0    0    0 -0.00000000000E+00 -0.00000000000E+00 -0.45593999997E+02  0.45594000000E+02  0.51100000000E-03 0.  1.
         23    2    1    2    0    0  0.00000000000E+00  0.00000000000E+00  0.35527136788E-14  0.91188000000E+02  0.91188000000E+02 0.  0.
    9900012    2    3    3    0    0 -0.22660130957E+02  0.15914178875E+02 -0.29772856724E+02  0.50528860538E+02  0.30000002092E+02 0.  0.
         12    1    3    3    0    0  0.22660130957E+02 -0.15914178875E+02  0.29772856724E+02  0.40659139462E+02  0.00000000000E+00 0. -1.
         11    1    4    4    0    0  0.74540300368E+00  0.70774960811E+01 -0.15019986022E+02  0.16620666556E+02  0.51100000000E-03 0. -1.
        -11    1    4    4    0    0 -0.37469751483E+01 -0.34471204329E+01 -0.84843142864E+01  0.98947486685E+01  0.51100000000E-03 0.  1.
         12    1    4    4    0    0 -0.19658558812E+02  0.12283803227E+02 -0.62685564164E+01  0.24013445314E+02  0.00000000000E+00 0. -1.
</event>
<event>
 8    1  0.7311878E-012  0.9118800E+02  0.7816164E-02  0.1184000E+00
        -11   -1    0    0    0    0  0.00000000000E+00  0.00000000000E+00  0.45593999997E+02  0.45594000000E+02  0.51100000000E-03 0. -1.
         11   -1    0    0    0    0 -0.00000000000E+00 -0.00000000000E+00 -0.45593999997E+02  0.45594000000E+02  0.51100000000E-03 0.  1.
         23    2    1    2    0    0  0.00000000000E+00  0.00000000000E+00  0.00000000000E+00  0.91188000000E+02  0.91188000000E+02 0.  0.
    9900012    2    3    3    0    0 -0.18450950374E+02 -0.16131765729E+02  0.32442151035E+02  0.50528873115E+02  0.30000040322E+02 0.  0.
        -12    1    3    3    0    0  0.18450950374E+02  0.16131765729E+02 -0.32442151035E+02  0.40659126885E+02  0.00000000000E+00 0.  1.
         11    1    4    4    0    0 -0.46084052684E+01 -0.17110157219E+02  0.13310666762E+02  0.22162326797E+02  0.51100000000E-03 0. -1.
        -11    1    4    4    0    0 -0.11395157635E+02 -0.64565507334E+01  0.12559797870E+02  0.18146216897E+02  0.51100000000E-03 0.  1.
        -12    1    4    4    0    0 -0.24473874704E+01  0.74349422227E+01  0.65716864034E+01  0.10220329421E+02  0.00000000000E+00 0.  1.
</event>
<event>
 8    1  0.7311878E-012  0.9118800E+02  0.7816164E-02  0.1184000E+00
        -11   -1    0    0    0    0  0.00000000000E+00  0.00000000000E+00  0.45593999997E+02  0.45594000000E+02  0.51100000000E-03 0. -1.
         11   -1    0    0    0    0 -0.00000000000E+00 -0.00000000000E+00 -0.45593999997E+02  0.45594000000E+02  0.51100000000E-03 0.  1.
         23    2    1    2    0    0  0.35527136788E-14  0.00000000000E+00  0.00000000000E+00  0.91188000000E+02  0.91188000000E+02 0.  0.
    9900012    2    3    3    0    0 -0.29696626489E+02 -0.16573743258E+02 -0.22284235940E+02  0.50528858816E+02  0.29999996858E+02 0.  0.
         12    1    3    3    0    0  0.29696626489E+02  0.16573743258E+02  0.22284235940E+02  0.40659141184E+02  0.00000000000E+00 0. -1.
         11    1    4    4    0    0 -0.42069457411E+01  0.82900730485E+00 -0.13091311817E+02  0.13775633957E+02  0.51100000000E-03 0. -1.
        -11    1    4    4    0    0 -0.33786638620E+01 -0.10899768434E+02  0.11932307542E+01  0.11473627207E+02  0.51100000000E-03 0.  1.
        -12    1    4    4    0    0 -0.22111016886E+02 -0.65029821293E+01 -0.10386154877E+02  0.25279597652E+02  0.00000000000E+00 0.  1.
</event>
<event>
 8    1  0.7311878E-012  0.9118800E+02  0.7816164E-02  0.1184000E+00
        -11   -1    0    0    0    0  0.00000000000E+00  0.00000000000E+00  0.45593999997E+02  0.45594000000E+02  0.51100000000E-03 0. -1.
         11   -1    0    0    0    0 -0.00000000000E+00 -0.00000000000E+00 -0.45593999997E+02  0.45594000000E+02  0.51100000000E-03 0.  1.
         23    2    1    2    0    0  0.17763568394E-14  0.35527136788E-14 -0.71054273576E-14  0.91188000000E+02  0.91188000000E+02 0.  0.
    9900012    2    3    3    0    0 -0.13389264858E+02 -0.17851353045E+02  0.33988572620E+02  0.50528852349E+02  0.29999977199E+02 0.  0.
        -12    1    3    3    0    0  0.13389264858E+02  0.17851353045E+02 -0.33988572620E+02  0.40659147651E+02  0.00000000000E+00 0.  1.
         11    1    4    4    0    0 -0.85132945968E+01 -0.11922044160E+02  0.15749422346E+02  0.21509431102E+02  0.51100000000E-03 0. -1.
        -11    1    4    4    0    0 -0.12571320049E+01  0.23194812420E+00  0.21233507368E+02  0.21271953747E+02  0.51100000000E-03 0.  1.
         12    1    4    4    0    0 -0.36188382566E+01 -0.61612570089E+01 -0.29943570935E+01  0.77474674998E+01  0.00000000000E+00 0. -1.
</event>
<event>
 8    1  0.7311878E-012  0.9118800E+02  0.7816164E-02  0.1184000E+00
        -11   -1    0    0    0    0  0.00000000000E+00  0.00000000000E+00  0.45593999997E+02  0.45594000000E+02  0.51100000000E-03 0. -1.
         11   -1    0    0    0    0 -0.00000000000E+00 -0.00000000000E+00 -0.45593999997E+02  0.45594000000E+02  0.51100000000E-03 0.  1.
         23    2    1    2    0    0  0.00000000000E+00  0.13322676296E-14  0.35527136788E-14  0.91188000000E+02  0.91188000000E+02 0.  0.
    9900012    2    3    3    0    0 -0.32353719124E+02  0.78413666182E+00 -0.24612807046E+02  0.50528827823E+02  0.29999902649E+02 0.  0.
         12    1    3    3    0    0  0.32353719124E+02 -0.78413666182E+00  0.24612807046E+02  0.40659172177E+02  0.00000000000E+00 0. -1.
         11    1    4    4    0    0 -0.24537218462E+02  0.52386348994E+01 -0.11372771534E+02  0.27547383144E+02  0.51100000000E-03 0. -1.
        -11    1    4    4    0    0 -0.69441581699E+01 -0.90665316609E+01 -0.14167081482E+02  0.18196964775E+02  0.51100000000E-03 0.  1.
         12    1    4    4    0    0 -0.87234249194E+00  0.46120334233E+01  0.92704596894E+00  0.47844799038E+01  0.00000000000E+00 0. -1.
</event>
<event>
 8    1  0.7311878E-012  0.9118800E+02  0.7816164E-02  0.1184000E+00
        -11   -1    0    0    0    0  0.00000000000E+00  0.00000000000E+00  0.45593999997E+02  0.45594000000E+02  0.51100000000E-03 0. -1.
         11   -1    0    0    0    0 -0.00000000000E+00 -0.00000000000E+00 -0.45593999997E+02  0.45594000000E+02  0.51100000000E-03 0.  1.
         23    2    1    2    0    0 -0.17763568394E-14  0.00000000000E+00 -0.35527136788E-14  0.91188000000E+02  0.91188000000E+02 0.  0.
    9900012    2    3    3    0    0  0.11523314379E+02  0.28255871495E+02  0.26869775393E+02  0.50528857389E+02  0.29999992518E+02 0.  0.
        -12    1    3    3    0    0 -0.11523314379E+02 -0.28255871495E+02 -0.26869775393E+02  0.40659142611E+02  0.00000000000E+00 0.  1.
         11    1    4    4    0    0  0.60832956810E+01  0.17525428344E+02  0.13322562831E+02  0.22839391534E+02  0.51100000000E-03 0. -1.
        -11    1    4    4    0    0 -0.25554258405E+00  0.80492053722E+01  0.18173053511E+02  0.19877496907E+02  0.51100000000E-03 0.  1.
        -12    1    4    4    0    0  0.56955612825E+01  0.26812377794E+01 -0.46258409494E+01  0.78119689478E+01  0.00000000000E+00 0.  1.
</event>
<event>
 8    1  0.7311878E-012  0.9118800E+02  0.7816164E-02  0.1184000E+00
        -11   -1    0    0    0    0  0.00000000000E+00  0.00000000000E+00  0.45593999997E+02  0.45594000000E+02  0.51100000000E-03 0. -1.
         11   -1    0    0    0    0 -0.00000000000E+00 -0.00000000000E+00 -0.45593999997E+02  0.45594000000E+02  0.51100000000E-03 0.  1.
         23    2    1    2    0    0  0.00000000000E+00  0.88817841970E-15 -0.71054273576E-14  0.91188000000E+02  0.91188000000E+02 0.  0.
    9900012    2    3    3    0    0 -0.55899311909E+01  0.37935247600E+01  0.40094055125E+02  0.50528789270E+02  0.29999785464E+02 0.  0.
        -12    1    3    3    0    0  0.55899311909E+01 -0.37935247600E+01 -0.40094055125E+02  0.40659210730E+02  0.00000000000E+00 0.  1.
         11    1    4    4    0    0  0.81776670915E+01  0.99531122763E+00  0.16176252088E+02  0.18153126876E+02  0.51100000000E-03 0. -1.
        -11    1    4    4    0    0 -0.50144431814E+01 -0.69692060456E+01  0.11140322602E+02  0.14064894641E+02  0.51100000000E-03 0.  1.
         12    1    4    4    0    0 -0.87531551009E+01  0.97674195780E+01  0.12777480435E+02  0.18310767753E+02  0.00000000000E+00 0. -1.
</event>
<event>
 8    1  0.7311878E-012  0.9118800E+02  0.7816164E-02  0.1184000E+00
        -11   -1    0    0    0    0  0.00000000000E+00  0.00000000000E+00  0.45593999997E+02  0.45594000000E+02  0.51100000000E-03 0. -1.
         11   -1    0    0    0    0 -0.00000000000E+00 -0.00000000000E+00 -0.45593999997E+02  0.45594000000E+02  0.51100000000E-03 0.  1.
         23    2    1    2    0    0 -0.17763568394E-14  0.00000000000E+00 -0.71054273576E-14  0.91188000000E+02  0.91188000000E+02 0.  0.
    9900012    2    3    3    0    0  0.14478641001E+02  0.10402671919E+02  0.36542004028E+02  0.50528872038E+02  0.30000037046E+02 0.  0.
        -12    1    3    3    0    0 -0.14478641001E+02 -0.10402671919E+02 -0.36542004028E+02  0.40659127962E+02  0.00000000000E+00 0.  1.
         11    1    4    4    0    0  0.10715002714E+02 -0.29867849786E+01  0.13304945736E+02  0.17342253284E+02  0.51100000000E-03 0.  1.
        -11    1    4    4    0    0  0.96947466871E+01  0.47217212469E+01  0.44549771378E+01  0.11667458439E+02  0.51100000000E-03 0. -1.
        -12    1    4    4    0    0 -0.59311084006E+01  0.86677356509E+01  0.18782081154E+02  0.21519160315E+02  0.00000000000E+00 0.  1.
</event>
<event>
 8    1  0.7311878E-012  0.9118800E+02  0.7816164E-02  0.1184000E+00
        -11   -1    0    0    0    0  0.00000000000E+00  0.00000000000E+00  0.45593999997E+02  0.45594000000E+02  0.51100000000E-03 0. -1.
         11   -1    0    0    0    0 -0.00000000000E+00 -0.00000000000E+00 -0.45593999997E+02  0.45594000000E+02  0.51100000000E-03 0.  1.
         23    2    1    2    0    0 -0.35527136788E-14  0.00000000000E+00  0.35527136788E-14  0.91188000000E+02  0.91188000000E+02 0.  0.
    9900012    2    3    3    0    0  0.27101088876E+02  0.25067284676E+02 -0.17039001805E+02  0.50528863735E+02  0.30000011809E+02 0.  0.
         12    1    3    3    0    0 -0.27101088876E+02 -0.25067284676E+02  0.17039001805E+02  0.40659136265E+02  0.00000000000E+00 0. -1.
         11    1    4    4    0    0  0.78317535352E+01  0.96156530961E+01 -0.11161840713E+02  0.16684838515E+02  0.51100000000E-03 0. -1.
        -11    1    4    4    0    0 -0.50620858978E+01  0.15956117626E+01 -0.13902868410E+01  0.54866737004E+01  0.51100000000E-03 0.  1.
        -12    1    4    4    0    0  0.24331421239E+02  0.13856019817E+02 -0.44868742508E+01  0.28357351520E+02  0.00000000000E+00 0.  1.
</event>
<event>
 8    1  0.7311878E-012  0.9118800E+02  0.7816164E-02  0.1184000E+00
        -11   -1    0    0    0    0  0.00000000000E+00  0.00000000000E+00  0.45593999997E+02  0.45594000000E+02  0.51100000000E-03 0. -1.
         11   -1    0    0    0    0 -0.00000000000E+00 -0.00000000000E+00 -0.45593999997E+02  0.45594000000E+02  0.51100000000E-03 0.  1.
         23    2    1    2    0    0 -0.44408920985E-15  0.00000000000E+00  0.00000000000E+00  0.91188000000E+02  0.91188000000E+02 0.  0.
    9900012    2    3    3    0    0 -0.21206911482E+01 -0.73445313755E+01 -0.39934023739E+02  0.50528859280E+02  0.29999998267E+02 0.  0.
         12    1    3    3    0    0  0.21206911482E+01  0.73445313755E+01  0.39934023739E+02  0.40659140720E+02  0.00000000000E+00 0. -1.
         11    1    4    4    0    0  0.48830522167E+01 -0.46080826921E+01 -0.20617784506E+01  0.70235002448E+01  0.51100000000E-03 0. -1.
        -11    1    4    4    0    0  0.50699579202E+01 -0.59872165478E+01 -0.84186147200E+01  0.11507576173E+02  0.51100000000E-03 0.  1.
        -12    1    4    4    0    0 -0.12073701285E+02  0.32507678644E+01 -0.29453630569E+02  0.31997782863E+02  0.00000000000E+00 0.  1.
</event>
<event>
 8    1  0.7311878E-012  0.9118800E+02  0.7816164E-02  0.1184000E+00
        -11   -1    0    0    0    0  0.00000000000E+00  0.00000000000E+00  0.45593999997E+02  0.45594000000E+02  0.51100000000E-03 0. -1.
         11   -1    0    0    0    0 -0.00000000000E+00 -0.00000000000E+00 -0.45593999997E+02  0.45594000000E+02  0.51100000000E-03 0.  1.
         23    2    1    2    0    0  0.35527136788E-14  0.00000000000E+00  0.00000000000E+00  0.91188000000E+02  0.91188000000E+02 0.  0.
    9900012    2    3    3    0    0 -0.28369919283E+02 -0.46300092647E+01 -0.28755457894E+02  0.50528860012E+02  0.30000000491E+02 0.  0.
         12    1    3    3    0    0  0.28369919283E+02  0.46300092647E+01  0.28755457894E+02  0.40659139988E+02  0.00000000000E+00 0. -1.
         11    1    4    4    0    0 -0.37424233890E+01  0.49455218035E+01 -0.11037932419E+02  0.12660958537E+02  0.51100000000E-03 0. -1.
        -11    1    4    4    0    0  0.19807477221E+01 -0.63617383837E+01 -0.37247813231E+01  0.76334181707E+01  0.51100000000E-03 0.  1.
         12    1    4    4    0    0 -0.26608243616E+02 -0.32137926845E+01 -0.13992744152E+02  0.30234483304E+02  0.00000000000E+00 0. -1.
</event>
<event>
 8    1  0.7311878E-012  0.9118800E+02  0.7816164E-02  0.1184000E+00
        -11   -1    0    0    0    0  0.00000000000E+00  0.00000000000E+00  0.45593999997E+02  0.45594000000E+02  0.51100000000E-03 0. -1.
         11   -1    0    0    0    0 -0.00000000000E+00 -0.00000000000E+00 -0.45593999997E+02  0.45594000000E+02  0.51100000000E-03 0.  1.
         23    2    1    2    0    0  0.00000000000E+00 -0.22204460493E-15  0.71054273576E-14  0.91188000000E+02  0.91188000000E+02 0.  0.
    9900012    2    3    3    0    0 -0.89438257173E+01 -0.80411105129E+00 -0.39655114482E+02  0.50528847062E+02  0.29999961131E+02 0.  0.
         12    1    3    3    0    0  0.89438257173E+01  0.80411105129E+00  0.39655114482E+02  0.40659152938E+02  0.00000000000E+00 0. -1.
         11    1    4    4    0    0 -0.55316163003E+01  0.41533846536E+01 -0.14743124278E+02  0.16285241684E+02  0.51100000000E-03 0. -1.
        -11    1    4    4    0    0  0.23872323298E+01 -0.80212321949E+00 -0.26756340028E+02  0.26874597891E+02  0.51100000000E-03 0.  1.
        -12    1    4    4    0    0 -0.57994417467E+01 -0.41553724854E+01  0.18443498244E+01  0.73690074868E+01  0.00000000000E+00 0.  1.
</event>
<event>
 8    1  0.7311878E-012  0.9118800E+02  0.7816164E-02  0.1184000E+00
        -11   -1    0    0    0    0  0.00000000000E+00  0.00000000000E+00  0.45593999997E+02  0.45594000000E+02  0.51100000000E-03 0. -1.
         11   -1    0    0    0    0 -0.00000000000E+00 -0.00000000000E+00 -0.45593999997E+02  0.45594000000E+02  0.51100000000E-03 0.  1.
         23    2    1    2    0    0  0.00000000000E+00  0.00000000000E+00  0.35527136788E-14  0.91188000000E+02  0.91188000000E+02 0.  0.
    9900012    2    3    3    0    0  0.16540614587E+02 -0.22497057651E+02  0.29554302445E+02  0.50528851867E+02  0.29999975736E+02 0.  0.
        -12    1    3    3    0    0 -0.16540614587E+02  0.22497057651E+02 -0.29554302445E+02  0.40659148133E+02  0.00000000000E+00 0.  1.
         11    1    4    4    0    0  0.29320255512E+01 -0.20140053265E+02  0.11105966944E+02  0.23185362222E+02  0.51100000000E-03 0. -1.
        -11    1    4    4    0    0  0.66272183647E+01 -0.65369981483E+01  0.16549435929E+02  0.18987790758E+02  0.51100000000E-03 0.  1.
        -12    1    4    4    0    0  0.69813706715E+01  0.41799937625E+01  0.18988995720E+01  0.83556988871E+01  0.00000000000E+00 0.  1.
</event>
<event>
 8    1  0.7311878E-012  0.9118800E+02  0.7816164E-02  0.1184000E+00
        -11   -1    0    0    0    0  0.00000000000E+00  0.00000000000E+00  0.45593999997E+02  0.45594000000E+02  0.51100000000E-03 0. -1.
         11   -1    0    0    0    0 -0.00000000000E+00 -0.00000000000E+00 -0.45593999997E+02  0.45594000000E+02  0.51100000000E-03 0.  1.
         23    2    1    2    0    0  0.17763568394E-14  0.00000000000E+00  0.71054273576E-14  0.91188000000E+02  0.91188000000E+02 0.  0.
    9900012    2    3    3    0    0  0.89293516535E+01  0.15541717677E+02  0.36495014263E+02  0.50528875866E+02  0.30000048681E+02 0.  0.
        -12    1    3    3    0    0 -0.89293516535E+01 -0.15541717677E+02 -0.36495014263E+02  0.40659124134E+02  0.00000000000E+00 0.  1.
         11    1    4    4    0    0  0.62733992245E+01  0.22077864602E+00 -0.40271330922E-01  0.62774121325E+01  0.51100000000E-03 0.  1.
        -11    1    4    4    0    0  0.95093245481E+01  0.24916468175E+01  0.19602659517E+02  0.21929428119E+02  0.51100000000E-03 0. -1.
        -12    1    4    4    0    0 -0.68533721190E+01  0.12829292213E+02  0.16932626077E+02  0.22322035614E+02  0.00000000000E+00 0.  1.
</event>
<event>
 8    1  0.7311878E-012  0.9118800E+02  0.7816164E-02  0.1184000E+00
        -11   -1    0    0    0    0  0.00000000000E+00  0.00000000000E+00  0.45593999997E+02  0.45594000000E+02  0.51100000000E-03 0. -1.
         11   -1    0    0    0    0 -0.00000000000E+00 -0.00000000000E+00 -0.45593999997E+02  0.45594000000E+02  0.51100000000E-03 0.  1.
         23    2    1    2    0    0 -0.44408920985E-15  0.88817841970E-15  0.71054273576E-14  0.91188000000E+02  0.91188000000E+02 0.  0.
    9900012    2    3    3    0    0 -0.23303209438E+01  0.62587107463E+01  0.40106774042E+02  0.50528988945E+02  0.30000392396E+02 0.  0.
        -12    1    3    3    0    0  0.23303209438E+01 -0.62587107463E+01 -0.40106774042E+02  0.40659011055E+02  0.00000000000E+00 0.  1.
         11    1    4    4    0    0  0.93006769359E+00 -0.44245865578E+01  0.11195337874E+02  0.12073838764E+02  0.51100000000E-03 0. -1.
        -11    1    4    4    0    0 -0.15291833766E+01  0.10779414744E+00 -0.37656661244E+01  0.40657426135E+01  0.51100000000E-03 0.  1.
         12    1    4    4    0    0 -0.17312052608E+01  0.10575503157E+02  0.32677102292E+02  0.34389407568E+02  0.00000000000E+00 0. -1.
</event>
<event>
 8    1  0.7311878E-012  0.9118800E+02  0.7816164E-02  0.1184000E+00
        -11   -1    0    0    0    0  0.00000000000E+00  0.00000000000E+00  0.45593999997E+02  0.45594000000E+02  0.51100000000E-03 0. -1.
         11   -1    0    0    0    0 -0.00000000000E+00 -0.00000000000E+00 -0.45593999997E+02  0.45594000000E+02  0.51100000000E-03 0.  1.
         23    2    1    2    0    0  0.00000000000E+00  0.35527136788E-14  0.00000000000E+00  0.91188000000E+02  0.91188000000E+02 0.  0.
    9900012    2    3    3    0    0 -0.20640855325E+01  0.28148649370E+02 -0.29266984871E+02  0.50528888919E+02  0.30000088359E+02 0.  0.
         12    1    3    3    0    0  0.20640855325E+01 -0.28148649370E+02  0.29266984871E+02  0.40659111081E+02  0.00000000000E+00 0. -1.
         11    1    4    4    0    0  0.34105293079E+01  0.13985811792E+01 -0.34864004142E+01  0.50737291595E+01  0.51100000000E-03 0. -1.
        -11    1    4    4    0    0  0.16688175872E+01  0.13876223179E+02  0.18979263974E+01  0.14104490304E+02  0.51100000000E-03 0.  1.
        -12    1    4    4    0    0 -0.71434324276E+01  0.12873845012E+02 -0.27678510854E+02  0.31350669456E+02  0.00000000000E+00 0.  1.
</event>
<event>
 8    1  0.7311878E-012  0.9118800E+02  0.7816164E-02  0.1184000E+00
        -11   -1    0    0    0    0  0.00000000000E+00  0.00000000000E+00  0.45593999997E+02  0.45594000000E+02  0.51100000000E-03 0. -1.
         11   -1    0    0    0    0 -0.00000000000E+00 -0.00000000000E+00 -0.45593999997E+02  0.45594000000E+02  0.51100000000E-03 0.  1.
         23    2    1    2    0    0 -0.17763568394E-14  0.88817841970E-15  0.00000000000E+00  0.91188000000E+02  0.91188000000E+02 0.  0.
    9900012    2    3    3    0    0 -0.90106921572E+01  0.40647016255E+01  0.39439226302E+02  0.50528844281E+02  0.29999952677E+02 0.  0.
        -12    1    3    3    0    0  0.90106921572E+01 -0.40647016255E+01 -0.39439226302E+02  0.40659155719E+02  0.00000000000E+00 0.  1.
         11    1    4    4    0    0  0.50416899060E+00 -0.45428414456E+01  0.45115354666E+01  0.64222696377E+01  0.51100000000E-03 0.  1.
        -11    1    4    4    0    0 -0.12673140229E+02 -0.11022460830E+01  0.30366939336E+02  0.32923767017E+02  0.51100000000E-03 0. -1.
         12    1    4    4    0    0  0.31582790812E+01  0.97097891541E+01  0.45607514999E+01  0.11182807627E+02  0.00000000000E+00 0. -1.
</event>
<event>
 8    1  0.7311878E-012  0.9118800E+02  0.7816164E-02  0.1184000E+00
        -11   -1    0    0    0    0  0.00000000000E+00  0.00000000000E+00  0.45593999997E+02  0.45594000000E+02  0.51100000000E-03 0. -1.
         11   -1    0    0    0    0 -0.00000000000E+00 -0.00000000000E+00 -0.45593999997E+02  0.45594000000E+02  0.51100000000E-03 0.  1.
         23    2    1    2    0    0  0.00000000000E+00  0.88817841970E-15  0.00000000000E+00  0.91188000000E+02  0.91188000000E+02 0.  0.
    9900012    2    3    3    0    0 -0.15691315362E+02  0.71847116412E+01  0.36814784075E+02  0.50528858523E+02  0.29999995966E+02 0.  0.
        -12    1    3    3    0    0  0.15691315362E+02 -0.71847116412E+01 -0.36814784075E+02  0.40659141477E+02  0.00000000000E+00 0.  1.
         11    1    4    4    0    0 -0.82978394249E+01  0.89562362894E+01  0.18667772063E+02  0.22305918982E+02  0.51100000000E-03 0. -1.
        -11    1    4    4    0    0  0.14537846284E+01  0.24403011927E+01 -0.34726455151E+01  0.44864046620E+01  0.51100000000E-03 0.  1.
         12    1    4    4    0    0 -0.88472605656E+01 -0.42118258409E+01  0.21619657528E+02  0.23736534879E+02  0.00000000000E+00 0. -1.
</event>
<event>
 8    1  0.7311878E-012  0.9118800E+02  0.7816164E-02  0.1184000E+00
        -11   -1    0    0    0    0  0.00000000000E+00  0.00000000000E+00  0.45593999997E+02  0.45594000000E+02  0.51100000000E-03 0.  1.
         11   -1    0    0    0    0 -0.00000000000E+00 -0.00000000000E+00 -0.45593999997E+02  0.45594000000E+02  0.51100000000E-03 0. -1.
         23    2    1    2    0    0 -0.35527136788E-14  0.35527136788E-14 -0.17763568394E-14  0.91188000000E+02  0.91188000000E+02 0.  0.
    9900012    2    3    3    0    0 -0.31473752672E+02  0.20489335713E+02 -0.15580654844E+02  0.50528846165E+02  0.29999958403E+02 0.  0.
         12    1    3    3    0    0  0.31473752672E+02 -0.20489335713E+02  0.15580654844E+02  0.40659153835E+02  0.00000000000E+00 0. -1.
         11    1    4    4    0    0  0.29131059339E+00  0.83279124654E+01 -0.14465491414E+01  0.84576292525E+01  0.51100000000E-03 0. -1.
        -11    1    4    4    0    0 -0.16715842056E+02  0.12250009036E+02  0.97362441889E+00  0.20746807990E+02  0.51100000000E-03 0.  1.
        -12    1    4    4    0    0 -0.15049221210E+02 -0.88585788025E-01 -0.15107730121E+02  0.21324408922E+02  0.00000000000E+00 0.  1.
</event>
<event>
 8    1  0.7311878E-012  0.9118800E+02  0.7816164E-02  0.1184000E+00
        -11   -1    0    0    0    0  0.00000000000E+00  0.00000000000E+00  0.45593999997E+02  0.45594000000E+02  0.51100000000E-03 0. -1.
         11   -1    0    0    0    0 -0.00000000000E+00 -0.00000000000E+00 -0.45593999997E+02  0.45594000000E+02  0.51100000000E-03 0.  1.
         23    2    1    2    0    0  0.00000000000E+00  0.88817841970E-15  0.00000000000E+00  0.91188000000E+02  0.91188000000E+02 0.  0.
    9900012    2    3    3    0    0  0.35580777285E+02  0.73053229633E+01  0.18270368370E+02  0.50528858147E+02  0.29999994825E+02 0.  0.
        -12    1    3    3    0    0 -0.35580777285E+02 -0.73053229633E+01 -0.18270368370E+02  0.40659141853E+02  0.00000000000E+00 0.  1.
         11    1    4    4    0    0  0.23084817867E+02  0.62722939559E-01  0.77447725454E+01  0.24349419956E+02  0.51100000000E-03 0. -1.
        -11    1    4    4    0    0  0.31560300295E+01 -0.56753203110E+00 -0.53108301363E+01  0.62038322956E+01  0.51100000000E-03 0.  1.
         12    1    4    4    0    0  0.93399293884E+01  0.78101320548E+01  0.15836425961E+02  0.19975605896E+02  0.00000000000E+00 0. -1.
</event>
<event>
 8    1  0.7311878E-012  0.9118800E+02  0.7816164E-02  0.1184000E+00
        -11   -1    0    0    0    0  0.00000000000E+00  0.00000000000E+00  0.45593999997E+02  0.45594000000E+02  0.51100000000E-03 0. -1.
         11   -1    0    0    0    0 -0.00000000000E+00 -0.00000000000E+00 -0.45593999997E+02  0.45594000000E+02  0.51100000000E-03 0.  1.
         23    2    1    2    0    0  0.00000000000E+00  0.00000000000E+00  0.00000000000E+00  0.91188000000E+02  0.91188000000E+02 0.  0.
    9900012    2    3    3    0    0  0.17832691996E+02  0.18640727514E+02 -0.31427359769E+02  0.50528922685E+02  0.30000190991E+02 0.  0.
         12    1    3    3    0    0 -0.17832691996E+02 -0.18640727514E+02  0.31427359769E+02  0.40659077315E+02  0.00000000000E+00 0. -1.
         11    1    4    4    0    0 -0.45942788160E+01  0.29383889571E+01 -0.50219082542E+01  0.74135747299E+01  0.51100000000E-03 0. -1.
        -11    1    4    4    0    0  0.14911002699E+02  0.16531046902E+02 -0.27600635671E+02  0.35459957739E+02  0.51100000000E-03 0.  1.
         12    1    4    4    0    0  0.75159681122E+01 -0.82870834445E+00  0.11951841558E+01  0.76553902154E+01  0.00000000000E+00 0. -1.
</event>
<event>
 8    1  0.7311878E-012  0.9118800E+02  0.7816164E-02  0.1184000E+00
        -11   -1    0    0    0    0  0.00000000000E+00  0.00000000000E+00  0.45593999997E+02  0.45594000000E+02  0.51100000000E-03 0. -1.
         11   -1    0    0    0    0 -0.00000000000E+00 -0.00000000000E+00 -0.45593999997E+02  0.45594000000E+02  0.51100000000E-03 0.  1.
         23    2    1    2    0    0  0.00000000000E+00  0.00000000000E+00  0.00000000000E+00  0.91188000000E+02  0.91188000000E+02 0.  0.
    9900012    2    3    3    0    0 -0.21250411139E+02  0.22160375205E+02 -0.26655273248E+02  0.50528858412E+02  0.29999995628E+02 0.  0.
         12    1    3    3    0    0  0.21250411139E+02 -0.22160375205E+02  0.26655273248E+02  0.40659141588E+02  0.00000000000E+00 0. -1.
         11    1    4    4    0    0 -0.69492810835E+01  0.75648695191E+01  0.14281594648E+01  0.10371084714E+02  0.51100000000E-03 0. -1.
        -11    1    4    4    0    0 -0.14025566778E+02  0.18045351473E+01 -0.77266387145E+01  0.16114397805E+02  0.51100000000E-03 0.  1.
         12    1    4    4    0    0 -0.27556327706E+00  0.12790970539E+02 -0.20356793998E+02  0.24043375893E+02  0.00000000000E+00 0. -1.
</event>
<event>
 8    1  0.7311878E-012  0.9118800E+02  0.7816164E-02  0.1184000E+00
        -11   -1    0    0    0    0  0.00000000000E+00  0.00000000000E+00  0.45593999997E+02  0.45594000000E+02  0.51100000000E-03 0. -1.
         11   -1    0    0    0    0 -0.00000000000E+00 -0.00000000000E+00 -0.45593999997E+02  0.45594000000E+02  0.51100000000E-03 0.  1.
         23    2    1    2    0    0  0.00000000000E+00  0.00000000000E+00  0.00000000000E+00  0.91188000000E+02  0.91188000000E+02 0.  0.
    9900012    2    3    3    0    0 -0.12153316655E+02  0.33450429132E+02 -0.19660408165E+02  0.50528856329E+02  0.29999989298E+02 0.  0.
         12    1    3    3    0    0  0.12153316655E+02 -0.33450429132E+02  0.19660408165E+02  0.40659143671E+02  0.00000000000E+00 0. -1.
         11    1    4    4    0    0 -0.67395244410E+01  0.12709681512E+02  0.42299654120E+01  0.14994992547E+02  0.51100000000E-03 0. -1.
        -11    1    4    4    0    0 -0.80095617582E+01  0.19049794653E+02 -0.13481720116E+02  0.24673964688E+02  0.51100000000E-03 0.  1.
         12    1    4    4    0    0  0.25957695444E+01  0.16909529668E+01 -0.10408653461E+02  0.10859899094E+02  0.00000000000E+00 0. -1.
</event>
<event>
 8    1  0.7311878E-012  0.9118800E+02  0.7816164E-02  0.1184000E+00
        -11   -1    0    0    0    0  0.00000000000E+00  0.00000000000E+00  0.45593999997E+02  0.45594000000E+02  0.51100000000E-03 0. -1.
         11   -1    0    0    0    0 -0.00000000000E+00 -0.00000000000E+00 -0.45593999997E+02  0.45594000000E+02  0.51100000000E-03 0.  1.
         23    2    1    2    0    0 -0.35527136788E-14  0.44408920985E-15  0.00000000000E+00  0.91188000000E+02  0.91188000000E+02 0.  0.
    9900012    2    3    3    0    0  0.16021814427E+02  0.26462532552E+01  0.37275480302E+02  0.50528897384E+02  0.30000114088E+02 0.  0.
        -12    1    3    3    0    0 -0.16021814427E+02 -0.26462532552E+01 -0.37275480302E+02  0.40659102616E+02  0.00000000000E+00 0.  1.
         11    1    4    4    0    0  0.10283236899E+02  0.10425934689E+02  0.12856635601E+02  0.19486871336E+02  0.51100000000E-03 0. -1.
        -11    1    4    4    0    0  0.15648599815E+01  0.32878886693E-01 -0.23624910187E+01  0.28339428112E+01  0.51100000000E-03 0.  1.
        -12    1    4    4    0    0  0.41737175460E+01 -0.78125603200E+01  0.26781335720E+02  0.28208083236E+02  0.00000000000E+00 0.  1.
</event>
<event>
 8    1  0.7311878E-012  0.9118800E+02  0.7816164E-02  0.1184000E+00
        -11   -1    0    0    0    0  0.00000000000E+00  0.00000000000E+00  0.45593999997E+02  0.45594000000E+02  0.51100000000E-03 0.  1.
         11   -1    0    0    0    0 -0.00000000000E+00 -0.00000000000E+00 -0.45593999997E+02  0.45594000000E+02  0.51100000000E-03 0. -1.
         23    2    1    2    0    0 -0.17763568394E-14  0.00000000000E+00  0.00000000000E+00  0.91188000000E+02  0.91188000000E+02 0.  0.
    9900012    2    3    3    0    0  0.86425893504E+01 -0.29822793473E+02  0.26250181657E+02  0.50528863287E+02  0.30000010446E+02 0.  0.
        -12    1    3    3    0    0 -0.86425893504E+01  0.29822793473E+02 -0.26250181657E+02  0.40659136713E+02  0.00000000000E+00 0.  1.
         11    1    4    4    0    0 -0.19112904094E+01 -0.14072967915E+02  0.13517263902E+02  0.19606577483E+02  0.51100000000E-03 0. -1.
        -11    1    4    4    0    0  0.90018613088E+01 -0.35154145138E+01  0.15516238448E+02  0.18279641738E+02  0.51100000000E-03 0.  1.
        -12    1    4    4    0    0  0.15520184510E+01 -0.12234411045E+02 -0.27833206926E+01  0.12642644065E+02  0.00000000000E+00 0.  1.
</event>
<event>
 8    1  0.7311878E-012  0.9118800E+02  0.7816164E-02  0.1184000E+00
        -11   -1    0    0    0    0  0.00000000000E+00  0.00000000000E+00  0.45593999997E+02  0.45594000000E+02  0.51100000000E-03 0. -1.
         11   -1    0    0    0    0 -0.00000000000E+00 -0.00000000000E+00 -0.45593999997E+02  0.45594000000E+02  0.51100000000E-03 0.  1.
         23    2    1    2    0    0  0.00000000000E+00  0.00000000000E+00  0.35527136788E-14  0.91188000000E+02  0.91188000000E+02 0.  0.
    9900012    2    3    3    0    0  0.32122007089E+02  0.13539414394E+02  0.20929095143E+02  0.50528854595E+02  0.29999984027E+02 0.  0.
        -12    1    3    3    0    0 -0.32122007089E+02 -0.13539414394E+02 -0.20929095143E+02  0.40659145405E+02  0.00000000000E+00 0.  1.
         11    1    4    4    0    0  0.20179284285E+02  0.12407864884E+02  0.83393408369E+01  0.25113805587E+02  0.51100000000E-03 0.  1.
        -11    1    4    4    0    0  0.60367425465E+01 -0.22574243202E+01 -0.39287954528E+01  0.75480897652E+01  0.51100000000E-03 0. -1.
         12    1    4    4    0    0  0.59059802575E+01  0.33889738309E+01  0.16518549759E+02  0.17866959242E+02  0.00000000000E+00 0. -1.
</event>
<event>
 8    1  0.7311878E-012  0.9118800E+02  0.7816164E-02  0.1184000E+00
        -11   -1    0    0    0    0  0.00000000000E+00  0.00000000000E+00  0.45593999997E+02  0.45594000000E+02  0.51100000000E-03 0. -1.
         11   -1    0    0    0    0 -0.00000000000E+00 -0.00000000000E+00 -0.45593999997E+02  0.45594000000E+02  0.51100000000E-03 0.  1.
         23    2    1    2    0    0 -0.35527136788E-14 -0.88817841970E-15  0.35527136788E-14  0.91188000000E+02  0.91188000000E+02 0.  0.
    9900012    2    3    3    0    0 -0.29264300113E+02 -0.61791569788E+01  0.27542447596E+02  0.50528835453E+02  0.29999925842E+02 0.  0.
        -12    1    3    3    0    0  0.29264300113E+02  0.61791569788E+01 -0.27542447596E+02  0.40659164547E+02  0.00000000000E+00 0.  1.
         11    1    4    4    0    0 -0.44988330983E+01  0.14983040811E+01  0.20091023018E+02  0.20643004155E+02  0.51100000000E-03 0. -1.
        -11    1    4    4    0    0 -0.13561178179E+02 -0.10724803722E+02  0.36741916118E+01  0.17675594834E+02  0.51100000000E-03 0.  1.
        -12    1    4    4    0    0 -0.11204288836E+02  0.30473426619E+01  0.37772329660E+01  0.12210236464E+02  0.00000000000E+00 0.  1.
</event>
<event>
 8    1  0.7311878E-012  0.9118800E+02  0.7816164E-02  0.1184000E+00
        -11   -1    0    0    0    0  0.00000000000E+00  0.00000000000E+00  0.45593999997E+02  0.45594000000E+02  0.51100000000E-03 0. -1.
         11   -1    0    0    0    0 -0.00000000000E+00 -0.00000000000E+00 -0.45593999997E+02  0.45594000000E+02  0.51100000000E-03 0.  1.
         23    2    1    2    0    0  0.00000000000E+00  0.44408920985E-15  0.22204460493E-14  0.91188000000E+02  0.91188000000E+02 0.  0.
    9900012    2    3    3    0    0  0.40463383671E+02 -0.23690502042E+01  0.32041626125E+01  0.50528874640E+02  0.30000044957E+02 0.  0.
        -12    1    3    3    0    0 -0.40463383671E+02  0.23690502042E+01 -0.32041626125E+01  0.40659125360E+02  0.00000000000E+00 0.  1.
         11    1    4    4    0    0  0.48801143720E+01 -0.57553258919E+01  0.83530644817E+01  0.11256685964E+02  0.51100000000E-03 0. -1.
        -11    1    4    4    0    0  0.10056123327E+01 -0.34777445817E+01  0.15251786032E+00  0.36234273137E+01  0.51100000000E-03 0.  1.
         12    1    4    4    0    0  0.34577656966E+02  0.68640202694E+01 -0.53014197296E+01  0.35648761362E+02  0.00000000000E+00 0. -1.
</event>
<event>
 8    1  0.7311878E-012  0.9118800E+02  0.7816164E-02  0.1184000E+00
        -11   -1    0    0    0    0  0.00000000000E+00  0.00000000000E+00  0.45593999997E+02  0.45594000000E+02  0.51100000000E-03 0. -1.
         11   -1    0    0    0    0 -0.00000000000E+00 -0.00000000000E+00 -0.45593999997E+02  0.45594000000E+02  0.51100000000E-03 0.  1.
         23    2    1    2    0    0  0.00000000000E+00  0.00000000000E+00  0.00000000000E+00  0.91188000000E+02  0.91188000000E+02 0.  0.
    9900012    2    3    3    0    0  0.41645987645E+01  0.21257301022E+02  0.34408553650E+02  0.50528864570E+02  0.30000014347E+02 0.  0.
        -12    1    3    3    0    0 -0.41645987645E+01 -0.21257301022E+02 -0.34408553650E+02  0.40659135430E+02  0.00000000000E+00 0.  1.
         11    1    4    4    0    0  0.87874779327E+01  0.10296342647E+01  0.32349412592E+01  0.94204437447E+01  0.51100000000E-03 0. -1.
        -11    1    4    4    0    0 -0.12723222278E+01 -0.13978865130E+01 -0.10456075454E+01  0.21601356334E+01  0.51100000000E-03 0.  1.
         12    1    4    4    0    0 -0.33505569403E+01  0.21625553271E+02  0.32219219936E+02  0.38948285192E+02  0.00000000000E+00 0. -1.
</event>
<event>
 8    1  0.7311878E-012  0.9118800E+02  0.7816164E-02  0.1184000E+00
        -11   -1    0    0    0    0  0.00000000000E+00  0.00000000000E+00  0.45593999997E+02  0.45594000000E+02  0.51100000000E-03 0. -1.
         11   -1    0    0    0    0 -0.00000000000E+00 -0.00000000000E+00 -0.45593999997E+02  0.45594000000E+02  0.51100000000E-03 0.  1.
         23    2    1    2    0    0  0.00000000000E+00  0.00000000000E+00  0.00000000000E+00  0.91188000000E+02  0.91188000000E+02 0.  0.
    9900012    2    3    3    0    0  0.72364780824E+01 -0.15731788193E+02 -0.36787355848E+02  0.50528864186E+02  0.30000013181E+02 0.  0.
         12    1    3    3    0    0 -0.72364780824E+01  0.15731788193E+02  0.36787355848E+02  0.40659135814E+02  0.00000000000E+00 0. -1.
         11    1    4    4    0    0  0.54764656114E+01 -0.30988537071E+01 -0.17764973862E+01  0.65383876541E+01  0.51100000000E-03 0.  1.
        -11    1    4    4    0    0  0.66217046097E+00  0.61330228033E+00 -0.29641556491E+02  0.29655294315E+02  0.51100000000E-03 0. -1.
         12    1    4    4    0    0  0.10978420101E+01 -0.13246236767E+02 -0.53693019710E+01  0.14335182218E+02  0.00000000000E+00 0. -1.
</event>
<event>
 8    1  0.7311878E-012  0.9118800E+02  0.7816164E-02  0.1184000E+00
        -11   -1    0    0    0    0  0.00000000000E+00  0.00000000000E+00  0.45593999997E+02  0.45594000000E+02  0.51100000000E-03 0. -1.
         11   -1    0    0    0    0 -0.00000000000E+00 -0.00000000000E+00 -0.45593999997E+02  0.45594000000E+02  0.51100000000E-03 0.  1.
         23    2    1    2    0    0  0.00000000000E+00  0.00000000000E+00  0.35527136788E-14  0.91188000000E+02  0.91188000000E+02 0.  0.
    9900012    2    3    3    0    0  0.29620085182E+02 -0.35149299455E+01 -0.27630808881E+02  0.50528858616E+02  0.29999996248E+02 0.  0.
         12    1    3    3    0    0 -0.29620085182E+02  0.35149299455E+01  0.27630808881E+02  0.40659141384E+02  0.00000000000E+00 0. -1.
         11    1    4    4    0    0 -0.22167766739E+01  0.23669944933E+01 -0.21711709796E+01  0.39026587652E+01  0.51100000000E-03 0. -1.
        -11    1    4    4    0    0  0.19660037036E+02 -0.22957653820E+01 -0.27382564587E+02  0.33787459783E+02  0.51100000000E-03 0.  1.
         12    1    4    4    0    0  0.12176824820E+02 -0.35861590568E+01  0.19229266860E+01  0.12838740068E+02  0.00000000000E+00 0. -1.
</event>
<event>
 8    1  0.7311878E-012  0.9118800E+02  0.7816164E-02  0.1184000E+00
        -11   -1    0    0    0    0  0.00000000000E+00  0.00000000000E+00  0.45593999997E+02  0.45594000000E+02  0.51100000000E-03 0. -1.
         11   -1    0    0    0    0 -0.00000000000E+00 -0.00000000000E+00 -0.45593999997E+02  0.45594000000E+02  0.51100000000E-03 0.  1.
         23    2    1    2    0    0 -0.35527136788E-14 -0.35527136788E-14  0.00000000000E+00  0.91188000000E+02  0.91188000000E+02 0.  0.
    9900012    2    3    3    0    0  0.12689945479E+02  0.19409998802E+02 -0.33397350373E+02  0.50528858571E+02  0.29999996114E+02 0.  0.
         12    1    3    3    0    0 -0.12689945479E+02 -0.19409998802E+02  0.33397350373E+02  0.40659141429E+02  0.00000000000E+00 0. -1.
         11    1    4    4    0    0  0.58549562898E+01  0.60229497498E+00 -0.92899127743E+01  0.10997533906E+02  0.51100000000E-03 0. -1.
        -11    1    4    4    0    0  0.13154399476E+02  0.18574079518E+02 -0.11668218760E+02  0.25576981542E+02  0.51100000000E-03 0.  1.
         12    1    4    4    0    0 -0.63194102863E+01  0.23362430836E+00 -0.12439218839E+02  0.13954343123E+02  0.00000000000E+00 0. -1.
</event>
<event>
 8    1  0.7311878E-012  0.9118800E+02  0.7816164E-02  0.1184000E+00
        -11   -1    0    0    0    0  0.00000000000E+00  0.00000000000E+00  0.45593999997E+02  0.45594000000E+02  0.51100000000E-03 0. -1.
         11   -1    0    0    0    0 -0.00000000000E+00 -0.00000000000E+00 -0.45593999997E+02  0.45594000000E+02  0.51100000000E-03 0.  1.
         23    2    1    2    0    0  0.00000000000E+00  0.00000000000E+00  0.35527136788E-14  0.91188000000E+02  0.91188000000E+02 0.  0.
    9900012    2    3    3    0    0  0.26782473524E+02  0.13103343379E+02 -0.27643570743E+02  0.50528862045E+02  0.30000006673E+02 0.  0.
         12    1    3    3    0    0 -0.26782473524E+02 -0.13103343379E+02  0.27643570743E+02  0.40659137955E+02  0.00000000000E+00 0. -1.
         11    1    4    4    0    0  0.15838152600E+02  0.19826210933E+02 -0.17368146443E+02  0.30750255752E+02  0.51100000000E-03 0. -1.
        -11    1    4    4    0    0  0.55651944922E+01  0.80235715391E+00 -0.87540375598E+01  0.10404246277E+02  0.51100000000E-03 0.  1.
        -12    1    4    4    0    0  0.53791264327E+01 -0.75252247082E+01 -0.15213867410E+01  0.93743600156E+01  0.00000000000E+00 0.  1.
</event>
<event>
 8    1  0.7311878E-012  0.9118800E+02  0.7816164E-02  0.1184000E+00
        -11   -1    0    0    0    0  0.00000000000E+00  0.00000000000E+00  0.45593999997E+02  0.45594000000E+02  0.51100000000E-03 0. -1.
         11   -1    0    0    0    0 -0.00000000000E+00 -0.00000000000E+00 -0.45593999997E+02  0.45594000000E+02  0.51100000000E-03 0.  1.
         23    2    1    2    0    0  0.00000000000E+00  0.00000000000E+00  0.00000000000E+00  0.91188000000E+02  0.91188000000E+02 0.  0.
    9900012    2    3    3    0    0  0.10158293536E+02  0.21999485083E+02 -0.32649709844E+02  0.50528784262E+02  0.29999770243E+02 0.  0.
         12    1    3    3    0    0 -0.10158293536E+02 -0.21999485083E+02  0.32649709844E+02  0.40659215738E+02  0.00000000000E+00 0. -1.
         11    1    4    4    0    0 -0.10128699094E+01  0.61710146856E+01 -0.13510836661E+02  0.14887915746E+02  0.51100000000E-03 0. -1.
        -11    1    4    4    0    0  0.53422642233E+01  0.20928289623E+02 -0.17317965208E+02  0.27684743321E+02  0.51100000000E-03 0.  1.
         12    1    4    4    0    0  0.58288992222E+01 -0.50998192251E+01 -0.18209079754E+01  0.79561251955E+01  0.00000000000E+00 0. -1.
</event>
<event>
 8    1  0.7311878E-012  0.9118800E+02  0.7816164E-02  0.1184000E+00
        -11   -1    0    0    0    0  0.00000000000E+00  0.00000000000E+00  0.45593999997E+02  0.45594000000E+02  0.51100000000E-03 0. -1.
         11   -1    0    0    0    0 -0.00000000000E+00 -0.00000000000E+00 -0.45593999997E+02  0.45594000000E+02  0.51100000000E-03 0.  1.
         23    2    1    2    0    0 -0.35527136788E-14  0.33306690739E-15  0.00000000000E+00  0.91188000000E+02  0.91188000000E+02 0.  0.
    9900012    2    3    3    0    0 -0.21950929336E+02  0.92505718748E+00 -0.34212064724E+02  0.50528875536E+02  0.30000047679E+02 0.  0.
         12    1    3    3    0    0  0.21950929336E+02 -0.92505718748E+00  0.34212064724E+02  0.40659124464E+02  0.00000000000E+00 0. -1.
         11    1    4    4    0    0 -0.23213599826E+02  0.68810942741E+01 -0.12723540272E+02  0.27351584097E+02  0.51100000000E-03 0. -1.
        -11    1    4    4    0    0  0.24199402350E+01  0.78580437422E-01 -0.79303880392E+01  0.82917634035E+01  0.51100000000E-03 0.  1.
        -12    1    4    4    0    0 -0.11572697449E+01 -0.60346175240E+01 -0.13558136412E+02  0.14885528036E+02  0.00000000000E+00 0.  1.
</event>
<event>
 8    1  0.7311878E-012  0.9118800E+02  0.7816164E-02  0.1184000E+00
        -11   -1    0    0    0    0  0.00000000000E+00  0.00000000000E+00  0.45593999997E+02  0.45594000000E+02  0.51100000000E-03 0.  1.
         11   -1    0    0    0    0 -0.00000000000E+00 -0.00000000000E+00 -0.45593999997E+02  0.45594000000E+02  0.51100000000E-03 0. -1.
         23    2    1    2    0    0  0.00000000000E+00 -0.71054273576E-14  0.35527136788E-14  0.91188000000E+02  0.91188000000E+02 0.  0.
    9900012    2    3    3    0    0  0.64225314563E+01 -0.35193770535E+02  0.19321401574E+02  0.50528844161E+02  0.29999952311E+02 0.  0.
        -12    1    3    3    0    0 -0.64225314563E+01  0.35193770535E+02 -0.19321401574E+02  0.40659155839E+02  0.00000000000E+00 0.  1.
         11    1    4    4    0    0  0.63891695205E+01 -0.98067718477E+01  0.30596978562E+01  0.12097768904E+02  0.51100000000E-03 0. -1.
        -11    1    4    4    0    0 -0.91448517341E+01 -0.20660898751E+02  0.16703334763E+02  0.28098086107E+02  0.51100000000E-03 0.  1.
         12    1    4    4    0    0  0.91782136699E+01 -0.47260999362E+01 -0.44163104460E+00  0.10332989149E+02  0.00000000000E+00 0. -1.
</event>
<event>
 8    1  0.7311878E-012  0.9118800E+02  0.7816164E-02  0.1184000E+00
        -11   -1    0    0    0    0  0.00000000000E+00  0.00000000000E+00  0.45593999997E+02  0.45594000000E+02  0.51100000000E-03 0. -1.
         11   -1    0    0    0    0 -0.00000000000E+00 -0.00000000000E+00 -0.45593999997E+02  0.45594000000E+02  0.51100000000E-03 0.  1.
         23    2    1    2    0    0  0.44408920985E-15  0.17763568394E-14  0.00000000000E+00  0.91188000000E+02  0.91188000000E+02 0.  0.
    9900012    2    3    3    0    0  0.19193922127E+01  0.10786596873E+02 -0.39155218838E+02  0.50528857107E+02  0.29999991662E+02 0.  0.
         12    1    3    3    0    0 -0.19193922127E+01 -0.10786596873E+02  0.39155218838E+02  0.40659142893E+02  0.00000000000E+00 0. -1.
         11    1    4    4    0    0  0.31974972603E+01  0.10119840485E+02 -0.13636019808E+02  0.17279357529E+02  0.51100000000E-03 0.  1.
        -11    1    4    4    0    0 -0.62659170191E+01  0.43279199669E+01 -0.67353027363E+00  0.76450147561E+01  0.51100000000E-03 0. -1.
        -12    1    4    4    0    0  0.49878119715E+01 -0.36611635788E+01 -0.24845668756E+02  0.25604484821E+02  0.00000000000E+00 0.  1.
</event>
<event>
 8    1  0.7311878E-012  0.9118800E+02  0.7816164E-02  0.1184000E+00
        -11   -1    0    0    0    0  0.00000000000E+00  0.00000000000E+00  0.45593999997E+02  0.45594000000E+02  0.51100000000E-03 0. -1.
         11   -1    0    0    0    0 -0.00000000000E+00 -0.00000000000E+00 -0.45593999997E+02  0.45594000000E+02  0.51100000000E-03 0.  1.
         23    2    1    2    0    0  0.17763568394E-14 -0.35527136788E-14 -0.35527136788E-14  0.91188000000E+02  0.91188000000E+02 0.  0.
    9900012    2    3    3    0    0 -0.95439323991E+01  0.28606113042E+02  0.27272134108E+02  0.50528860218E+02  0.30000001118E+02 0.  0.
        -12    1    3    3    0    0  0.95439323991E+01 -0.28606113042E+02 -0.27272134108E+02  0.40659139782E+02  0.00000000000E+00 0.  1.
         11    1    4    4    0    0 -0.80207364991E+01  0.22170661870E+02  0.13017007990E+02  0.26931634912E+02  0.51100000000E-03 0. -1.
        -11    1    4    4    0    0 -0.61199010019E+01 -0.36222415761E+01  0.27098015429E+01  0.76103118840E+01  0.51100000000E-03 0.  1.
         12    1    4    4    0    0  0.45967051018E+01  0.10057692748E+02  0.11545324576E+02  0.15986913422E+02  0.00000000000E+00 0. -1.
</event>
<event>
 8    1  0.7311878E-012  0.9118800E+02  0.7816164E-02  0.1184000E+00
        -11   -1    0    0    0    0  0.00000000000E+00  0.00000000000E+00  0.45593999997E+02  0.45594000000E+02  0.51100000000E-03 0.  1.
         11   -1    0    0    0    0 -0.00000000000E+00 -0.00000000000E+00 -0.45593999997E+02  0.45594000000E+02  0.51100000000E-03 0. -1.
         23    2    1    2    0    0  0.13322676296E-14 -0.71054273576E-14  0.88817841970E-15  0.91188000000E+02  0.91188000000E+02 0.  0.
    9900012    2    3    3    0    0  0.20049682571E+01 -0.40491720374E+02  0.30929223701E+01  0.50528862216E+02  0.30000007190E+02 0.  0.
        -12    1    3    3    0    0 -0.20049682571E+01  0.40491720374E+02 -0.30929223701E+01  0.40659137784E+02  0.00000000000E+00 0.  1.
         11    1    4    4    0    0 -0.89177245809E+01 -0.70003170540E+01 -0.74689821925E+01  0.13576300888E+02  0.51100000000E-03 0. -1.
        -11    1    4    4    0    0  0.48390568993E+00 -0.50026221820E+01  0.21539453911E+01  0.54680777630E+01  0.51100000000E-03 0.  1.
         12    1    4    4    0    0  0.10438787148E+02 -0.28488781138E+02  0.84079591715E+01  0.31484483564E+02  0.00000000000E+00 0. -1.
</event>
<event>
 8    1  0.7311878E-012  0.9118800E+02  0.7816164E-02  0.1184000E+00
        -11   -1    0    0    0    0  0.00000000000E+00  0.00000000000E+00  0.45593999997E+02  0.45594000000E+02  0.51100000000E-03 0.  1.
         11   -1    0    0    0    0 -0.00000000000E+00 -0.00000000000E+00 -0.45593999997E+02  0.45594000000E+02  0.51100000000E-03 0. -1.
         23    2    1    2    0    0  0.00000000000E+00 -0.35527136788E-14 -0.35527136788E-14  0.91188000000E+02  0.91188000000E+02 0.  0.
    9900012    2    3    3    0    0 -0.22778985840E+02  0.28749276319E+02  0.17542910032E+02  0.50528969304E+02  0.30000332694E+02 0.  0.
        -12    1    3    3    0    0  0.22778985840E+02 -0.28749276319E+02 -0.17542910032E+02  0.40659030696E+02  0.00000000000E+00 0.  1.
         11    1    4    4    0    0 -0.10185273995E+02  0.13845044154E+02  0.90562391934E+01  0.19427828560E+02  0.51100000000E-03 0. -1.
        -11    1    4    4    0    0  0.48878828451E+01  0.10941821822E+02  0.29717460683E+01  0.12346908052E+02  0.51100000000E-03 0.  1.
        -12    1    4    4    0    0 -0.17481594690E+02  0.39624103434E+01  0.55149247705E+01  0.18754232692E+02  0.00000000000E+00 0.  1.
</event>
<event>
 8    1  0.7311878E-012  0.9118800E+02  0.7816164E-02  0.1184000E+00
        -11   -1    0    0    0    0  0.00000000000E+00  0.00000000000E+00  0.45593999997E+02  0.45594000000E+02  0.51100000000E-03 0. -1.
         11   -1    0    0    0    0 -0.00000000000E+00 -0.00000000000E+00 -0.45593999997E+02  0.45594000000E+02  0.51100000000E-03 0.  1.
         23    2    1    2    0    0  0.00000000000E+00  0.00000000000E+00  0.00000000000E+00  0.91188000000E+02  0.91188000000E+02 0.  0.
    9900012    2    3    3    0    0 -0.16089403318E+02  0.14252853266E+02 -0.34513081295E+02  0.50528861964E+02  0.30000006426E+02 0.  0.
         12    1    3    3    0    0  0.16089403318E+02 -0.14252853266E+02  0.34513081295E+02  0.40659138036E+02  0.00000000000E+00 0. -1.
         11    1    4    4    0    0  0.23877241736E+01 -0.20186989598E+01 -0.22852724346E+01  0.38728339212E+01  0.51100000000E-03 0. -1.
        -11    1    4    4    0    0 -0.28650790982E+01  0.81443494173E+01 -0.26922643806E+02  0.28273094197E+02  0.51100000000E-03 0.  1.
        -12    1    4    4    0    0 -0.15612048394E+02  0.81272028080E+01 -0.53051650540E+01  0.18382933846E+02  0.00000000000E+00 0.  1.
</event>
<event>
 8    1  0.7311878E-012  0.9118800E+02  0.7816164E-02  0.1184000E+00
        -11   -1    0    0    0    0  0.00000000000E+00  0.00000000000E+00  0.45593999997E+02  0.45594000000E+02  0.51100000000E-03 0. -1.
         11   -1    0    0    0    0 -0.00000000000E+00 -0.00000000000E+00 -0.45593999997E+02  0.45594000000E+02  0.51100000000E-03 0.  1.
         23    2    1    2    0    0 -0.88817841970E-15  0.00000000000E+00  0.71054273576E-14  0.91188000000E+02  0.91188000000E+02 0.  0.
    9900012    2    3    3    0    0  0.65753206356E+01 -0.10677956958E+02 -0.38677022730E+02  0.50528859656E+02  0.29999999410E+02 0.  0.
         12    1    3    3    0    0 -0.65753206356E+01  0.10677956958E+02  0.38677022730E+02  0.40659140344E+02  0.00000000000E+00 0. -1.
         11    1    4    4    0    0  0.16548435343E+01 -0.95408712069E+01 -0.24934804874E+02  0.26749041569E+02  0.51100000000E-03 0.  1.
        -11    1    4    4    0    0  0.93372143395E+00 -0.39956522929E+00  0.47453910767E+01  0.48528573872E+01  0.51100000000E-03 0. -1.
         12    1    4    4    0    0  0.39867556674E+01 -0.73752052201E+00 -0.18487608932E+02  0.18926960699E+02  0.00000000000E+00 0. -1.
</event>
<event>
 8    1  0.7311878E-012  0.9118800E+02  0.7816164E-02  0.1184000E+00
        -11   -1    0    0    0    0  0.00000000000E+00  0.00000000000E+00  0.45593999997E+02  0.45594000000E+02  0.51100000000E-03 0. -1.
         11   -1    0    0    0    0 -0.00000000000E+00 -0.00000000000E+00 -0.45593999997E+02  0.45594000000E+02  0.51100000000E-03 0.  1.
         23    2    1    2    0    0  0.00000000000E+00  0.00000000000E+00  0.00000000000E+00  0.91188000000E+02  0.91188000000E+02 0.  0.
    9900012    2    3    3    0    0  0.55505600019E+01  0.36537703209E+02 -0.16951492202E+02  0.50528861298E+02  0.30000004401E+02 0.  0.
         12    1    3    3    0    0 -0.55505600019E+01 -0.36537703209E+02  0.16951492202E+02  0.40659138702E+02  0.00000000000E+00 0. -1.
         11    1    4    4    0    0 -0.90810245325E+00 -0.11513977876E+01 -0.39809283543E+01  0.42424235708E+01  0.51100000000E-03 0. -1.
        -11    1    4    4    0    0 -0.32868636071E+01  0.25089116762E+02 -0.16184026164E+02  0.30036477081E+02  0.51100000000E-03 0.  1.
        -12    1    4    4    0    0  0.97455260623E+01  0.12599984235E+02  0.32134623165E+01  0.16249960646E+02  0.00000000000E+00 0.  1.
</event>
<event>
 8    1  0.7311878E-012  0.9118800E+02  0.7816164E-02  0.1184000E+00
        -11   -1    0    0    0    0  0.00000000000E+00  0.00000000000E+00  0.45593999997E+02  0.45594000000E+02  0.51100000000E-03 0. -1.
         11   -1    0    0    0    0 -0.00000000000E+00 -0.00000000000E+00 -0.45593999997E+02  0.45594000000E+02  0.51100000000E-03 0.  1.
         23    2    1    2    0    0  0.00000000000E+00  0.00000000000E+00 -0.71054273576E-14  0.91188000000E+02  0.91188000000E+02 0.  0.
    9900012    2    3    3    0    0 -0.45696009295E+01 -0.60073911213E+01 -0.39952412068E+02  0.50528865347E+02  0.30000016708E+02 0.  0.
         12    1    3    3    0    0  0.45696009295E+01  0.60073911213E+01  0.39952412068E+02  0.40659134653E+02  0.00000000000E+00 0. -1.
         11    1    4    4    0    0 -0.73545976117E+01 -0.49541868486E+01 -0.13104260441E+01  0.89638881095E+01  0.51100000000E-03 0. -1.
        -11    1    4    4    0    0  0.44042727052E+01  0.19316129843E+01 -0.28050155679E+01  0.55674823197E+01  0.51100000000E-03 0.  1.
         12    1    4    4    0    0 -0.16192760230E+01 -0.29848172570E+01 -0.35836970456E+02  0.35997494917E+02  0.00000000000E+00 0. -1.
</event>
<event>
 8    1  0.7311878E-012  0.9118800E+02  0.7816164E-02  0.1184000E+00
        -11   -1    0    0    0    0  0.00000000000E+00  0.00000000000E+00  0.45593999997E+02  0.45594000000E+02  0.51100000000E-03 0. -1.
         11   -1    0    0    0    0 -0.00000000000E+00 -0.00000000000E+00 -0.45593999997E+02  0.45594000000E+02  0.51100000000E-03 0.  1.
         23    2    1    2    0    0  0.00000000000E+00  0.00000000000E+00  0.00000000000E+00  0.91188000000E+02  0.91188000000E+02 0.  0.
    9900012    2    3    3    0    0 -0.94830684235E+01  0.32825896605E+02 -0.22038721821E+02  0.50528765696E+02  0.29999713808E+02 0.  0.
         12    1    3    3    0    0  0.94830684235E+01 -0.32825896605E+02  0.22038721821E+02  0.40659234304E+02  0.00000000000E+00 0. -1.
         11    1    4    4    0    0 -0.69869907205E+01  0.25247844815E+01 -0.11951877796E+02  0.14072667093E+02  0.51100000000E-03 0. -1.
        -11    1    4    4    0    0 -0.87662257686E+01  0.86534996952E+01 -0.18261384240E+01  0.12452491839E+02  0.51100000000E-03 0.  1.
         12    1    4    4    0    0  0.62701480657E+01  0.21647612429E+02 -0.82607056010E+01  0.24003606763E+02  0.00000000000E+00 0. -1.
</event>
<event>
 8    1  0.7311878E-012  0.9118800E+02  0.7816164E-02  0.1184000E+00
        -11   -1    0    0    0    0  0.00000000000E+00  0.00000000000E+00  0.45593999997E+02  0.45594000000E+02  0.51100000000E-03 0.  1.
         11   -1    0    0    0    0 -0.00000000000E+00 -0.00000000000E+00 -0.45593999997E+02  0.45594000000E+02  0.51100000000E-03 0. -1.
         23    2    1    2    0    0 -0.88817841970E-15  0.00000000000E+00  0.00000000000E+00  0.91188000000E+02  0.91188000000E+02 0.  0.
    9900012    2    3    3    0    0 -0.41356169826E+01  0.36017163767E+02  0.18407234469E+02  0.50528859644E+02  0.29999999375E+02 0.  0.
        -12    1    3    3    0    0  0.41356169826E+01 -0.36017163767E+02 -0.18407234469E+02  0.40659140356E+02  0.00000000000E+00 0.  1.
         11    1    4    4    0    0  0.27308063828E+01  0.90165162456E+01 -0.67351451498E+01  0.11580891553E+02  0.51100000000E-03 0. -1.
        -11    1    4    4    0    0 -0.34789531803E+01  0.11700407456E+01  0.36290757988E+01  0.51616181563E+01  0.51100000000E-03 0.  1.
        -12    1    4    4    0    0 -0.33874701850E+01  0.25830606776E+02  0.21513303820E+02  0.33786349935E+02  0.00000000000E+00 0.  1.
</event>
<event>
 8    1  0.7311878E-012  0.9118800E+02  0.7816164E-02  0.1184000E+00
        -11   -1    0    0    0    0  0.00000000000E+00  0.00000000000E+00  0.45593999997E+02  0.45594000000E+02  0.51100000000E-03 0. -1.
         11   -1    0    0    0    0 -0.00000000000E+00 -0.00000000000E+00 -0.45593999997E+02  0.45594000000E+02  0.51100000000E-03 0.  1.
         23    2    1    2    0    0  0.00000000000E+00 -0.88817841970E-15  0.00000000000E+00  0.91188000000E+02  0.91188000000E+02 0.  0.
    9900012    2    3    3    0    0 -0.23584121719E+02  0.46928784469E+01  0.32786152499E+02  0.50528859563E+02  0.29999999128E+02 0.  0.
        -12    1    3    3    0    0  0.23584121719E+02 -0.46928784469E+01 -0.32786152499E+02  0.40659140437E+02  0.00000000000E+00 0.  1.
         11    1    4    4    0    0 -0.61712111815E+00  0.35122324490E+01  0.10599661004E+02  0.11183444412E+02  0.51100000000E-03 0. -1.
        -11    1    4    4    0    0 -0.56051625655E+01 -0.10248352114E+02  0.72258830771E+01  0.13735354198E+02  0.51100000000E-03 0.  1.
         12    1    4    4    0    0 -0.17361838036E+02  0.11428998112E+02  0.14960608417E+02  0.25610060953E+02  0.00000000000E+00 0. -1.
</event>
<event>
 8    1  0.7311878E-012  0.9118800E+02  0.7816164E-02  0.1184000E+00
        -11   -1    0    0    0    0  0.00000000000E+00  0.00000000000E+00  0.45593999997E+02  0.45594000000E+02  0.51100000000E-03 0. -1.
         11   -1    0    0    0    0 -0.00000000000E+00 -0.00000000000E+00 -0.45593999997E+02  0.45594000000E+02  0.51100000000E-03 0.  1.
         23    2    1    2    0    0 -0.11102230246E-14 -0.35527136788E-14  0.00000000000E+00  0.91188000000E+02  0.91188000000E+02 0.  0.
    9900012    2    3    3    0    0  0.63538677337E+00 -0.29487906893E+02 -0.27986182149E+02  0.50528846534E+02  0.29999959524E+02 0.  0.
         12    1    3    3    0    0 -0.63538677337E+00  0.29487906893E+02  0.27986182149E+02  0.40659153466E+02  0.00000000000E+00 0. -1.
         11    1    4    4    0    0 -0.34788405619E+01  0.71217067900E+00 -0.29540524438E+01  0.46190848480E+01  0.51100000000E-03 0. -1.
        -11    1    4    4    0    0 -0.73333276953E+01 -0.24519002665E+02 -0.15011993711E+02  0.29670172601E+02  0.51100000000E-03 0.  1.
        -12    1    4    4    0    0  0.11447555031E+02 -0.56810749077E+01 -0.10020135994E+02  0.16239589084E+02  0.00000000000E+00 0.  1.
</event>
<event>
 8    1  0.7311878E-012  0.9118800E+02  0.7816164E-02  0.1184000E+00
        -11   -1    0    0    0    0  0.00000000000E+00  0.00000000000E+00  0.45593999997E+02  0.45594000000E+02  0.51100000000E-03 0. -1.
         11   -1    0    0    0    0 -0.00000000000E+00 -0.00000000000E+00 -0.45593999997E+02  0.45594000000E+02  0.51100000000E-03 0.  1.
         23    2    1    2    0    0  0.00000000000E+00  0.00000000000E+00  0.00000000000E+00  0.91188000000E+02  0.91188000000E+02 0.  0.
    9900012    2    3    3    0    0  0.14209695077E+02  0.18279279909E+02  0.33423276897E+02  0.50528893435E+02  0.30000102084E+02 0.  0.
        -12    1    3    3    0    0 -0.14209695077E+02 -0.18279279909E+02 -0.33423276897E+02  0.40659106565E+02  0.00000000000E+00 0.  1.
         11    1    4    4    0    0 -0.23666082294E+01  0.32061168664E+01  0.30637966537E+01  0.50266161649E+01  0.51100000000E-03 0. -1.
        -11    1    4    4    0    0 -0.29564681960E+01 -0.44804340237E+01  0.93649432620E+01  0.10794311270E+02  0.51100000000E-03 0.  1.
         12    1    4    4    0    0  0.19532771502E+02  0.19553597067E+02  0.20994536981E+02  0.34707966000E+02  0.00000000000E+00 0. -1.
</event>
<event>
 8    1  0.7311878E-012  0.9118800E+02  0.7816164E-02  0.1184000E+00
        -11   -1    0    0    0    0  0.00000000000E+00  0.00000000000E+00  0.45593999997E+02  0.45594000000E+02  0.51100000000E-03 0. -1.
         11   -1    0    0    0    0 -0.00000000000E+00 -0.00000000000E+00 -0.45593999997E+02  0.45594000000E+02  0.51100000000E-03 0.  1.
         23    2    1    2    0    0 -0.17763568394E-14  0.35527136788E-14  0.35527136788E-14  0.91188000000E+02  0.91188000000E+02 0.  0.
    9900012    2    3    3    0    0 -0.97381517184E+01  0.25870677288E+02  0.29816799217E+02  0.50528867474E+02  0.30000023174E+02 0.  0.
        -12    1    3    3    0    0  0.97381517184E+01 -0.25870677288E+02 -0.29816799217E+02  0.40659132526E+02  0.00000000000E+00 0.  1.
         11    1    4    4    0    0  0.24701029306E+01 -0.16748857852E+01  0.61432110301E+00  0.30469725237E+01  0.51100000000E-03 0. -1.
        -11    1    4    4    0    0 -0.12841052314E+02  0.16351910836E+02  0.58834889666E+01  0.21607708235E+02  0.51100000000E-03 0.  1.
        -12    1    4    4    0    0  0.63279766454E+00  0.11193652237E+02  0.23318989148E+02  0.25874186715E+02  0.00000000000E+00 0.  1.
</event>
<event>
 8    1  0.7311878E-012  0.9118800E+02  0.7816164E-02  0.1184000E+00
        -11   -1    0    0    0    0  0.00000000000E+00  0.00000000000E+00  0.45593999997E+02  0.45594000000E+02  0.51100000000E-03 0. -1.
         11   -1    0    0    0    0 -0.00000000000E+00 -0.00000000000E+00 -0.45593999997E+02  0.45594000000E+02  0.51100000000E-03 0.  1.
         23    2    1    2    0    0  0.71054273576E-14  0.00000000000E+00  0.35527136788E-14  0.91188000000E+02  0.91188000000E+02 0.  0.
    9900012    2    3    3    0    0  0.35154008686E+02 -0.54290787965E+01  0.19694848863E+02  0.50528852259E+02  0.29999976927E+02 0.  0.
        -12    1    3    3    0    0 -0.35154008686E+02  0.54290787965E+01 -0.19694848863E+02  0.40659147741E+02  0.00000000000E+00 0.  1.
         11    1    4    4    0    0  0.25848780108E+02  0.42235048138E+01  0.36657535930E+01  0.26446836779E+02  0.51100000000E-03 0. -1.
        -11    1    4    4    0    0  0.11702126253E+02 -0.68591295813E+01  0.15075840746E+02  0.20279753251E+02  0.51100000000E-03 0.  1.
        -12    1    4    4    0    0 -0.23968976742E+01 -0.27934540291E+01  0.95325452375E+00  0.38022622293E+01  0.00000000000E+00 0.  1.
</event>
<event>
 8    1  0.7311878E-012  0.9118800E+02  0.7816164E-02  0.1184000E+00
        -11   -1    0    0    0    0  0.00000000000E+00  0.00000000000E+00  0.45593999997E+02  0.45594000000E+02  0.51100000000E-03 0. -1.
         11   -1    0    0    0    0 -0.00000000000E+00 -0.00000000000E+00 -0.45593999997E+02  0.45594000000E+02  0.51100000000E-03 0.  1.
         23    2    1    2    0    0  0.17763568394E-14  0.00000000000E+00  0.00000000000E+00  0.91188000000E+02  0.91188000000E+02 0.  0.
    9900012    2    3    3    0    0  0.11214217534E+02  0.15243456121E+02 -0.35986715095E+02  0.50528864585E+02  0.30000014392E+02 0.  0.
         12    1    3    3    0    0 -0.11214217534E+02 -0.15243456121E+02  0.35986715095E+02  0.40659135415E+02  0.00000000000E+00 0. -1.
         11    1    4    4    0    0 -0.23578656625E+01  0.40142426640E+01 -0.56671556606E+01  0.73341889933E+01  0.51100000000E-03 0. -1.
        -11    1    4    4    0    0 -0.11400664261E+01 -0.49728900798E+01  0.78554136592E+00  0.51620211837E+01  0.51100000000E-03 0.  1.
        -12    1    4    4    0    0  0.14712149623E+02  0.16202103537E+02 -0.31105100800E+02  0.38032654408E+02  0.00000000000E+00 0.  1.
</event>
<event>
 8    1  0.7311878E-012  0.9118800E+02  0.7816164E-02  0.1184000E+00
        -11   -1    0    0    0    0  0.00000000000E+00  0.00000000000E+00  0.45593999997E+02  0.45594000000E+02  0.51100000000E-03 0. -1.
         11   -1    0    0    0    0 -0.00000000000E+00 -0.00000000000E+00 -0.45593999997E+02  0.45594000000E+02  0.51100000000E-03 0.  1.
         23    2    1    2    0    0  0.00000000000E+00 -0.35527136788E-14 -0.71054273576E-14  0.91188000000E+02  0.91188000000E+02 0.  0.
    9900012    2    3    3    0    0 -0.37871522277E+01 -0.20187403417E+02 -0.35089804920E+02  0.50528828980E+02  0.29999906168E+02 0.  0.
         12    1    3    3    0    0  0.37871522277E+01  0.20187403417E+02  0.35089804920E+02  0.40659171020E+02  0.00000000000E+00 0. -1.
         11    1    4    4    0    0  0.28494505522E+01 -0.15729137957E+02 -0.11116524874E+02  0.19470548910E+02  0.51100000000E-03 0.  1.
        -11    1    4    4    0    0 -0.11972664635E+02 -0.63624281468E+01 -0.13399733258E+02  0.19062477332E+02  0.51100000000E-03 0. -1.
         12    1    4    4    0    0  0.53360618550E+01  0.19041626867E+01 -0.10573546788E+02  0.11995802738E+02  0.00000000000E+00 0. -1.
</event>
<event>
 8    1  0.7311878E-012  0.9118800E+02  0.7816164E-02  0.1184000E+00
        -11   -1    0    0    0    0  0.00000000000E+00  0.00000000000E+00  0.45593999997E+02  0.45594000000E+02  0.51100000000E-03 0. -1.
         11   -1    0    0    0    0 -0.00000000000E+00 -0.00000000000E+00 -0.45593999997E+02  0.45594000000E+02  0.51100000000E-03 0.  1.
         23    2    1    2    0    0  0.00000000000E+00  0.00000000000E+00  0.00000000000E+00  0.91188000000E+02  0.91188000000E+02 0.  0.
    9900012    2    3    3    0    0 -0.12946342406E+02 -0.88203333166E+01 -0.37520113188E+02  0.50528868736E+02  0.30000027009E+02 0.  0.
         12    1    3    3    0    0  0.12946342406E+02  0.88203333166E+01  0.37520113188E+02  0.40659131264E+02  0.00000000000E+00 0. -1.
         11    1    4    4    0    0 -0.29044127225E+01 -0.10612034774E+02 -0.30928159220E+01  0.11428753471E+02  0.51100000000E-03 0. -1.
        -11    1    4    4    0    0  0.12777022103E+00  0.46484400178E+01 -0.21216839447E+01  0.51113464812E+01  0.51100000000E-03 0.  1.
         12    1    4    4    0    0 -0.10169699904E+02 -0.28567385601E+01 -0.32305613322E+02  0.33988768784E+02  0.00000000000E+00 0. -1.
</event>
<event>
 8    1  0.7311878E-012  0.9118800E+02  0.7816164E-02  0.1184000E+00
        -11   -1    0    0    0    0  0.00000000000E+00  0.00000000000E+00  0.45593999997E+02  0.45594000000E+02  0.51100000000E-03 0. -1.
         11   -1    0    0    0    0 -0.00000000000E+00 -0.00000000000E+00 -0.45593999997E+02  0.45594000000E+02  0.51100000000E-03 0.  1.
         23    2    1    2    0    0 -0.35527136788E-14  0.00000000000E+00  0.35527136788E-14  0.91188000000E+02  0.91188000000E+02 0.  0.
    9900012    2    3    3    0    0  0.16595293817E+02  0.19817125232E+02 -0.31385388536E+02  0.50528870116E+02  0.30000031205E+02 0.  0.
         12    1    3    3    0    0 -0.16595293817E+02 -0.19817125232E+02  0.31385388536E+02  0.40659129884E+02  0.00000000000E+00 0. -1.
         11    1    4    4    0    0  0.96714093348E+01 -0.36687138509E+01 -0.94802228362E+01  0.14031045760E+02  0.51100000000E-03 0. -1.
        -11    1    4    4    0    0 -0.40009218193E+01  0.70513248757E+01 -0.11827005697E+02  0.14338989571E+02  0.51100000000E-03 0.  1.
         12    1    4    4    0    0  0.10924806302E+02  0.16434514208E+02 -0.10078160004E+02  0.22158834785E+02  0.00000000000E+00 0. -1.
</event>
<event>
 8    1  0.7311878E-012  0.9118800E+02  0.7816164E-02  0.1184000E+00
        -11   -1    0    0    0    0  0.00000000000E+00  0.00000000000E+00  0.45593999997E+02  0.45594000000E+02  0.51100000000E-03 0. -1.
         11   -1    0    0    0    0 -0.00000000000E+00 -0.00000000000E+00 -0.45593999997E+02  0.45594000000E+02  0.51100000000E-03 0.  1.
         23    2    1    2    0    0  0.17763568394E-14  0.71054273576E-14  0.17763568394E-14  0.91188000000E+02  0.91188000000E+02 0.  0.
    9900012    2    3    3    0    0  0.15683212119E+02  0.35478189125E+02 -0.12186376538E+02  0.50528772031E+02  0.29999733063E+02 0.  0.
         12    1    3    3    0    0 -0.15683212119E+02 -0.35478189125E+02  0.12186376538E+02  0.40659227969E+02  0.00000000000E+00 0. -1.
         11    1    4    4    0    0 -0.66049651552E+01  0.14932324431E+01 -0.19116453928E+01  0.70363126849E+01  0.51100000000E-03 0. -1.
        -11    1    4    4    0    0  0.98831348149E+01  0.16575339679E+02 -0.10788797322E+02  0.22109192368E+02  0.51100000000E-03 0.  1.
        -12    1    4    4    0    0  0.12405042460E+02  0.17409617002E+02  0.51406617689E+00  0.21383266977E+02  0.00000000000E+00 0.  1.
</event>
<event>
 8    1  0.7311878E-012  0.9118800E+02  0.7816164E-02  0.1184000E+00
        -11   -1    0    0    0    0  0.00000000000E+00  0.00000000000E+00  0.45593999997E+02  0.45594000000E+02  0.51100000000E-03 0. -1.
         11   -1    0    0    0    0 -0.00000000000E+00 -0.00000000000E+00 -0.45593999997E+02  0.45594000000E+02  0.51100000000E-03 0.  1.
         23    2    1    2    0    0  0.00000000000E+00  0.00000000000E+00  0.00000000000E+00  0.91188000000E+02  0.91188000000E+02 0.  0.
    9900012    2    3    3    0    0 -0.11936797847E+02  0.27958182561E+02  0.27000268315E+02  0.50528909945E+02  0.30000152269E+02 0.  0.
        -12    1    3    3    0    0  0.11936797847E+02 -0.27958182561E+02 -0.27000268315E+02  0.40659090055E+02  0.00000000000E+00 0.  1.
         11    1    4    4    0    0  0.43313484174E+01 -0.27940423762E+01  0.75369354477E+01  0.91308623972E+01  0.51100000000E-03 0. -1.
        -11    1    4    4    0    0 -0.25229768603E+01  0.14711163718E+02  0.11421722740E+02  0.18794666818E+02  0.51100000000E-03 0.  1.
        -12    1    4    4    0    0 -0.13745169404E+02  0.16041061219E+02  0.80416101274E+01  0.22603380730E+02  0.00000000000E+00 0.  1.
</event>
<event>
 8    1  0.7311878E-012  0.9118800E+02  0.7816164E-02  0.1184000E+00
        -11   -1    0    0    0    0  0.00000000000E+00  0.00000000000E+00  0.45593999997E+02  0.45594000000E+02  0.51100000000E-03 0. -1.
         11   -1    0    0    0    0 -0.00000000000E+00 -0.00000000000E+00 -0.45593999997E+02  0.45594000000E+02  0.51100000000E-03 0.  1.
         23    2    1    2    0    0  0.00000000000E+00  0.00000000000E+00  0.35527136788E-14  0.91188000000E+02  0.91188000000E+02 0.  0.
    9900012    2    3    3    0    0  0.10831405806E+02  0.27255031308E+02 -0.28160430910E+02  0.50528856473E+02  0.29999989735E+02 0.  0.
         12    1    3    3    0    0 -0.10831405806E+02 -0.27255031308E+02  0.28160430910E+02  0.40659143527E+02  0.00000000000E+00 0. -1.
         11    1    4    4    0    0  0.14463534505E+02  0.16814765833E+02 -0.19746926444E+02  0.29696317695E+02  0.51100000000E-03 0.  1.
        -11    1    4    4    0    0  0.36193799294E+01  0.10480870915E+02 -0.22471910442E+01  0.11313639293E+02  0.51100000000E-03 0. -1.
        -12    1    4    4    0    0 -0.72515086279E+01 -0.40605440108E-01 -0.61663134224E+01  0.95188994850E+01  0.00000000000E+00 0.  1.
</event>
<event>
 8    1  0.7311878E-012  0.9118800E+02  0.7816164E-02  0.1184000E+00
        -11   -1    0    0    0    0  0.00000000000E+00  0.00000000000E+00  0.45593999997E+02  0.45594000000E+02  0.51100000000E-03 0. -1.
         11   -1    0    0    0    0 -0.00000000000E+00 -0.00000000000E+00 -0.45593999997E+02  0.45594000000E+02  0.51100000000E-03 0.  1.
         23    2    1    2    0    0  0.35527136788E-14  0.00000000000E+00  0.00000000000E+00  0.91188000000E+02  0.91188000000E+02 0.  0.
    9900012    2    3    3    0    0 -0.26042708518E+02  0.15065401412E+02 -0.27349151766E+02  0.50528867090E+02  0.30000022007E+02 0.  0.
         12    1    3    3    0    0  0.26042708518E+02 -0.15065401412E+02  0.27349151766E+02  0.40659132910E+02  0.00000000000E+00 0. -1.
         11    1    4    4    0    0  0.26489258357E+01  0.52478334459E+01 -0.83133092997E+01  0.10181732452E+02  0.51100000000E-03 0. -1.
        -11    1    4    4    0    0 -0.93507230834E+01 -0.48281289998E+01 -0.98247416066E+01  0.14396958002E+02  0.51100000000E-03 0.  1.
         12    1    4    4    0    0 -0.19340911270E+02  0.14645696965E+02 -0.92111008602E+01  0.25950176636E+02  0.00000000000E+00 0. -1.
</event>
<event>
 8    1  0.7311878E-012  0.9118800E+02  0.7816164E-02  0.1184000E+00
        -11   -1    0    0    0    0  0.00000000000E+00  0.00000000000E+00  0.45593999997E+02  0.45594000000E+02  0.51100000000E-03 0. -1.
         11   -1    0    0    0    0 -0.00000000000E+00 -0.00000000000E+00 -0.45593999997E+02  0.45594000000E+02  0.51100000000E-03 0.  1.
         23    2    1    2    0    0  0.00000000000E+00  0.17763568394E-14 -0.35527136788E-14  0.91188000000E+02  0.91188000000E+02 0.  0.
    9900012    2    3    3    0    0 -0.25940835273E+02  0.12689567366E+02 -0.28621922609E+02  0.50528849634E+02  0.29999968948E+02 0.  0.
         12    1    3    3    0    0  0.25940835273E+02 -0.12689567366E+02  0.28621922609E+02  0.40659150366E+02  0.00000000000E+00 0. -1.
         11    1    4    4    0    0 -0.88146874794E+00  0.49523482990E+01 -0.63870133802E+00  0.50705700359E+01  0.51100000000E-03 0. -1.
        -11    1    4    4    0    0  0.16482556772E+01 -0.20218505061E+01 -0.13113039006E+02  0.13369981992E+02  0.51100000000E-03 0.  1.
         12    1    4    4    0    0 -0.26707622202E+02  0.97590695731E+01 -0.14870182266E+02  0.32088297606E+02  0.00000000000E+00 0. -1.
</event>
<event>
 8    1  0.7311878E-012  0.9118800E+02  0.7816164E-02  0.1184000E+00
        -11   -1    0    0    0    0  0.00000000000E+00  0.00000000000E+00  0.45593999997E+02  0.45594000000E+02  0.51100000000E-03 0. -1.
         11   -1    0    0    0    0 -0.00000000000E+00 -0.00000000000E+00 -0.45593999997E+02  0.45594000000E+02  0.51100000000E-03 0.  1.
         23    2    1    2    0    0 -0.88817841970E-15  0.00000000000E+00 -0.17763568394E-14  0.91188000000E+02  0.91188000000E+02 0.  0.
    9900012    2    3    3    0    0 -0.20769185411E+01  0.37364050610E+02  0.15899030537E+02  0.50528867685E+02  0.30000023815E+02 0.  0.
        -12    1    3    3    0    0  0.20769185411E+01 -0.37364050610E+02 -0.15899030537E+02  0.40659132315E+02  0.00000000000E+00 0.  1.
         11    1    4    4    0    0  0.62867059076E+00  0.21774963250E+02 -0.18369524886E+01  0.21861350507E+02  0.51100000000E-03 0. -1.
        -11    1    4    4    0    0  0.57384106174E+01  0.35916180911E+01  0.17965485195E+01  0.70040462427E+01  0.51100000000E-03 0.  1.
         12    1    4    4    0    0 -0.84439997492E+01  0.11997469268E+02  0.15939434506E+02  0.21663470936E+02  0.00000000000E+00 0. -1.
</event>
<event>
 8    1  0.7311878E-012  0.9118800E+02  0.7816164E-02  0.1184000E+00
        -11   -1    0    0    0    0  0.00000000000E+00  0.00000000000E+00  0.45593999997E+02  0.45594000000E+02  0.51100000000E-03 0. -1.
         11   -1    0    0    0    0 -0.00000000000E+00 -0.00000000000E+00 -0.45593999997E+02  0.45594000000E+02  0.51100000000E-03 0.  1.
         23    2    1    2    0    0 -0.71054273576E-14  0.35527136788E-14  0.00000000000E+00  0.91188000000E+02  0.91188000000E+02 0.  0.
    9900012    2    3    3    0    0  0.32082294211E+02 -0.17006156396E+02  0.18294331016E+02  0.50528861980E+02  0.30000006474E+02 0.  0.
        -12    1    3    3    0    0 -0.32082294211E+02  0.17006156396E+02 -0.18294331016E+02  0.40659138020E+02  0.00000000000E+00 0.  1.
         11    1    4    4    0    0  0.12653602174E+02 -0.60917145666E+01 -0.22952267601E+01  0.14229922715E+02  0.51100000000E-03 0.  1.
        -11    1    4    4    0    0  0.23116798602E+02 -0.10141373920E+02  0.14426165243E+02  0.29074870360E+02  0.51100000000E-03 0. -1.
         12    1    4    4    0    0 -0.36881065647E+01 -0.77306790982E+00  0.61633925330E+01  0.72240689048E+01  0.00000000000E+00 0. -1.
</event>
<event>
 8    1  0.7311878E-012  0.9118800E+02  0.7816164E-02  0.1184000E+00
        -11   -1    0    0    0    0  0.00000000000E+00  0.00000000000E+00  0.45593999997E+02  0.45594000000E+02  0.51100000000E-03 0. -1.
         11   -1    0    0    0    0 -0.00000000000E+00 -0.00000000000E+00 -0.45593999997E+02  0.45594000000E+02  0.51100000000E-03 0.  1.
         23    2    1    2    0    0  0.00000000000E+00  0.44408920985E-15  0.00000000000E+00  0.91188000000E+02  0.91188000000E+02 0.  0.
    9900012    2    3    3    0    0 -0.12762893990E+02 -0.18105566507E+01  0.38561589843E+02  0.50528858474E+02  0.29999995818E+02 0.  0.
        -12    1    3    3    0    0  0.12762893990E+02  0.18105566507E+01 -0.38561589843E+02  0.40659141526E+02  0.00000000000E+00 0.  1.
         11    1    4    4    0    0 -0.66368755842E+00 -0.46163365597E+01  0.25409530737E+02  0.25833994986E+02  0.51100000000E-03 0. -1.
        -11    1    4    4    0    0 -0.69874245353E+01  0.55502719356E+01  0.15932360273E+02  0.18261153422E+02  0.51100000000E-03 0.  1.
         12    1    4    4    0    0 -0.51117818961E+01 -0.27444920266E+01 -0.27803011660E+01  0.64337100658E+01  0.00000000000E+00 0. -1.
</event>
<event>
 8    1  0.7311878E-012  0.9118800E+02  0.7816164E-02  0.1184000E+00
        -11   -1    0    0    0    0  0.00000000000E+00  0.00000000000E+00  0.45593999997E+02  0.45594000000E+02  0.51100000000E-03 0. -1.
         11   -1    0    0    0    0 -0.00000000000E+00 -0.00000000000E+00 -0.45593999997E+02  0.45594000000E+02  0.51100000000E-03 0.  1.
         23    2    1    2    0    0 -0.35527136788E-14  0.17763568394E-14 -0.71054273576E-14  0.91188000000E+02  0.91188000000E+02 0.  0.
    9900012    2    3    3    0    0  0.13113850840E+02 -0.11401630007E+02  0.36758576106E+02  0.50528890713E+02  0.30000093810E+02 0.  0.
        -12    1    3    3    0    0 -0.13113850840E+02  0.11401630007E+02 -0.36758576106E+02  0.40659109287E+02  0.00000000000E+00 0.  1.
         11    1    4    4    0    0  0.10318497330E+02 -0.37562008736E+01  0.31960066268E+01  0.11436559394E+02  0.51100000000E-03 0. -1.
        -11    1    4    4    0    0  0.24267441916E+01  0.50293133597E+01  0.38373726605E+01  0.67755818524E+01  0.51100000000E-03 0.  1.
         12    1    4    4    0    0  0.36860931829E+00 -0.12674742493E+02  0.29725196819E+02  0.32316749466E+02  0.00000000000E+00 0. -1.
</event>
<event>
 8    1  0.7311878E-012  0.9118800E+02  0.7816164E-02  0.1184000E+00
        -11   -1    0    0    0    0  0.00000000000E+00  0.00000000000E+00  0.45593999997E+02  0.45594000000E+02  0.51100000000E-03 0. -1.
         11   -1    0    0    0    0 -0.00000000000E+00 -0.00000000000E+00 -0.45593999997E+02  0.45594000000E+02  0.51100000000E-03 0.  1.
         23    2    1    2    0    0 -0.35527136788E-14  0.35527136788E-14  0.00000000000E+00  0.91188000000E+02  0.91188000000E+02 0.  0.
    9900012    2    3    3    0    0  0.29319967313E+02 -0.19824906398E+02 -0.20011961623E+02  0.50528855826E+02  0.29999987770E+02 0.  0.
         12    1    3    3    0    0 -0.29319967313E+02  0.19824906398E+02  0.20011961623E+02  0.40659144174E+02  0.00000000000E+00 0. -1.
         11    1    4    4    0    0  0.32201225743E+00 -0.83656805755E+01 -0.15628507940E+01  0.85165019962E+01  0.51100000000E-03 0. -1.
        -11    1    4    4    0    0  0.14945420502E+02 -0.54050889474E+01  0.24813567307E+01  0.16085325984E+02  0.51100000000E-03 0.  1.
        -12    1    4    4    0    0  0.14052534554E+02 -0.60541368751E+01 -0.20930467560E+02  0.25927027846E+02  0.00000000000E+00 0.  1.
</event>
<event>
 8    1  0.7311878E-012  0.9118800E+02  0.7816164E-02  0.1184000E+00
        -11   -1    0    0    0    0  0.00000000000E+00  0.00000000000E+00  0.45593999997E+02  0.45594000000E+02  0.51100000000E-03 0. -1.
         11   -1    0    0    0    0 -0.00000000000E+00 -0.00000000000E+00 -0.45593999997E+02  0.45594000000E+02  0.51100000000E-03 0.  1.
         23    2    1    2    0    0 -0.17763568394E-14 -0.41633363423E-15  0.00000000000E+00  0.91188000000E+02  0.91188000000E+02 0.  0.
    9900012    2    3    3    0    0 -0.12928188871E+02  0.15975965013E+00 -0.38548693701E+02  0.50528863552E+02  0.30000011252E+02 0.  0.
         12    1    3    3    0    0  0.12928188871E+02 -0.15975965013E+00  0.38548693701E+02  0.40659136448E+02  0.00000000000E+00 0. -1.
         11    1    4    4    0    0  0.12737544646E+01 -0.47091302436E+01 -0.94784162717E+01  0.10660146967E+02  0.51100000000E-03 0. -1.
        -11    1    4    4    0    0  0.25764665620E+01  0.15048896748E+01  0.25434452173E+01  0.39207125261E+01  0.51100000000E-03 0.  1.
        -12    1    4    4    0    0 -0.16778409898E+02  0.33640002189E+01 -0.31613722647E+02  0.35948004058E+02  0.00000000000E+00 0.  1.
</event>
<event>
 8    1  0.7311878E-012  0.9118800E+02  0.7816164E-02  0.1184000E+00
        -11   -1    0    0    0    0  0.00000000000E+00  0.00000000000E+00  0.45593999997E+02  0.45594000000E+02  0.51100000000E-03 0. -1.
         11   -1    0    0    0    0 -0.00000000000E+00 -0.00000000000E+00 -0.45593999997E+02  0.45594000000E+02  0.51100000000E-03 0.  1.
         23    2    1    2    0    0 -0.35527136788E-14  0.00000000000E+00  0.00000000000E+00  0.91188000000E+02  0.91188000000E+02 0.  0.
    9900012    2    3    3    0    0  0.21753839428E+02 -0.89389706937E+01  0.33166712533E+02  0.50528861456E+02  0.30000004881E+02 0.  0.
        -12    1    3    3    0    0 -0.21753839428E+02  0.89389706937E+01 -0.33166712533E+02  0.40659138544E+02  0.00000000000E+00 0.  1.
         11    1    4    4    0    0  0.68557221976E+01  0.59575876728E+01  0.69783587236E+01  0.11453875696E+02  0.51100000000E-03 0. -1.
        -11    1    4    4    0    0  0.35092805403E+01 -0.39428704351E+01 -0.28626074738E+01  0.60046481153E+01  0.51100000000E-03 0.  1.
         12    1    4    4    0    0  0.11388836690E+02 -0.10953687931E+02  0.29050961283E+02  0.33070337644E+02  0.00000000000E+00 0. -1.
</event>
<event>
 8    1  0.7311878E-012  0.9118800E+02  0.7816164E-02  0.1184000E+00
        -11   -1    0    0    0    0  0.00000000000E+00  0.00000000000E+00  0.45593999997E+02  0.45594000000E+02  0.51100000000E-03 0. -1.
         11   -1    0    0    0    0 -0.00000000000E+00 -0.00000000000E+00 -0.45593999997E+02  0.45594000000E+02  0.51100000000E-03 0.  1.
         23    2    1    2    0    0  0.00000000000E+00  0.00000000000E+00  0.00000000000E+00  0.91188000000E+02  0.91188000000E+02 0.  0.
    9900012    2    3    3    0    0 -0.34094054948E+02  0.13713860906E+02  0.17398018416E+02  0.50528860701E+02  0.30000002586E+02 0.  0.
        -12    1    3    3    0    0  0.34094054948E+02 -0.13713860906E+02 -0.17398018416E+02  0.40659139299E+02  0.00000000000E+00 0.  1.
         11    1    4    4    0    0  0.10775714290E+01  0.31100139925E+01  0.52967688219E+01  0.62361131670E+01  0.51100000000E-03 0. -1.
        -11    1    4    4    0    0 -0.15207363953E+01 -0.29744553920E+01 -0.34602151005E+01  0.48096894771E+01  0.51100000000E-03 0.  1.
        -12    1    4    4    0    0 -0.33650889981E+02  0.13578302306E+02  0.15561464695E+02  0.39483058057E+02  0.00000000000E+00 0.  1.
</event>
<event>
 8    1  0.7311878E-012  0.9118800E+02  0.7816164E-02  0.1184000E+00
        -11   -1    0    0    0    0  0.00000000000E+00  0.00000000000E+00  0.45593999997E+02  0.45594000000E+02  0.51100000000E-03 0. -1.
         11   -1    0    0    0    0 -0.00000000000E+00 -0.00000000000E+00 -0.45593999997E+02  0.45594000000E+02  0.51100000000E-03 0.  1.
         23    2    1    2    0    0  0.35527136788E-14  0.88817841970E-15  0.00000000000E+00  0.91188000000E+02  0.91188000000E+02 0.  0.
    9900012    2    3    3    0    0 -0.27313473556E+02 -0.15180332784E+01  0.30080491958E+02  0.50528852700E+02  0.29999978268E+02 0.  0.
        -12    1    3    3    0    0  0.27313473556E+02  0.15180332784E+01 -0.30080491958E+02  0.40659147300E+02  0.00000000000E+00 0.  1.
         11    1    4    4    0    0 -0.88536671987E+01 -0.42729481595E+01  0.64363317524E+01  0.11750398952E+02  0.51100000000E-03 0.  1.
        -11    1    4    4    0    0 -0.20889750851E+02 -0.19920501029E+01  0.83561646505E+01  0.22587063602E+02  0.51100000000E-03 0. -1.
        -12    1    4    4    0    0  0.24299444934E+01  0.47469649840E+01  0.15287995555E+02  0.16191390147E+02  0.00000000000E+00 0.  1.
</event>
<event>
 8    1  0.7311878E-012  0.9118800E+02  0.7816164E-02  0.1184000E+00
        -11   -1    0    0    0    0  0.00000000000E+00  0.00000000000E+00  0.45593999997E+02  0.45594000000E+02  0.51100000000E-03 0. -1.
         11   -1    0    0    0    0 -0.00000000000E+00 -0.00000000000E+00 -0.45593999997E+02  0.45594000000E+02  0.51100000000E-03 0.  1.
         23    2    1    2    0    0  0.00000000000E+00 -0.35527136788E-14  0.35527136788E-14  0.91188000000E+02  0.91188000000E+02 0.  0.
    9900012    2    3    3    0    0  0.23664590034E+02 -0.28189260266E+02  0.17277621153E+02  0.50528887756E+02  0.30000084822E+02 0.  0.
        -12    1    3    3    0    0 -0.23664590034E+02  0.28189260266E+02 -0.17277621153E+02  0.40659112244E+02  0.00000000000E+00 0.  1.
         11    1    4    4    0    0  0.17522087213E+02 -0.16835713469E+02  0.20721583651E+02  0.31935071905E+02  0.51100000000E-03 0. -1.
        -11    1    4    4    0    0 -0.29642287164E+01 -0.51689935093E-01  0.14186770212E+01  0.32866348267E+01  0.51100000000E-03 0.  1.
         12    1    4    4    0    0  0.91067315373E+01 -0.11301856861E+02 -0.48626395194E+01  0.15307181024E+02  0.00000000000E+00 0. -1.
</event>
<event>
 8    1  0.7311878E-012  0.9118800E+02  0.7816164E-02  0.1184000E+00
        -11   -1    0    0    0    0  0.00000000000E+00  0.00000000000E+00  0.45593999997E+02  0.45594000000E+02  0.51100000000E-03 0. -1.
         11   -1    0    0    0    0 -0.00000000000E+00 -0.00000000000E+00 -0.45593999997E+02  0.45594000000E+02  0.51100000000E-03 0.  1.
         23    2    1    2    0    0  0.88817841970E-15  0.00000000000E+00  0.00000000000E+00  0.91188000000E+02  0.91188000000E+02 0.  0.
    9900012    2    3    3    0    0  0.40892194221E+01  0.33699792472E+02 -0.22377851632E+02  0.50528856233E+02  0.29999989007E+02 0.  0.
         12    1    3    3    0    0 -0.40892194221E+01 -0.33699792472E+02  0.22377851632E+02  0.40659143767E+02  0.00000000000E+00 0. -1.
         11    1    4    4    0    0  0.36313546128E+01 -0.96879012789E+00 -0.47550179771E+01  0.60609806846E+01  0.51100000000E-03 0. -1.
        -11    1    4    4    0    0  0.96031150153E+01  0.23021493678E+02 -0.15849535030E+02  0.29553624991E+02  0.51100000000E-03 0.  1.
         12    1    4    4    0    0 -0.91452502061E+01  0.11647088922E+02 -0.17732986250E+01  0.14914250558E+02  0.00000000000E+00 0. -1.
</event>
<event>
 8    1  0.7311878E-012  0.9118800E+02  0.7816164E-02  0.1184000E+00
        -11   -1    0    0    0    0  0.00000000000E+00  0.00000000000E+00  0.45593999997E+02  0.45594000000E+02  0.51100000000E-03 0. -1.
         11   -1    0    0    0    0 -0.00000000000E+00 -0.00000000000E+00 -0.45593999997E+02  0.45594000000E+02  0.51100000000E-03 0.  1.
         23    2    1    2    0    0 -0.53290705182E-14  0.35527136788E-14  0.35527136788E-14  0.91188000000E+02  0.91188000000E+02 0.  0.
    9900012    2    3    3    0    0 -0.13452210416E+02  0.23715956617E+02  0.30162178376E+02  0.50528861203E+02  0.30000004113E+02 0.  0.
        -12    1    3    3    0    0  0.13452210416E+02 -0.23715956617E+02 -0.30162178376E+02  0.40659138797E+02  0.00000000000E+00 0.  1.
         11    1    4    4    0    0 -0.16586788816E+02  0.63667855509E+01  0.14333544122E+02  0.22827790275E+02  0.51100000000E-03 0. -1.
        -11    1    4    4    0    0 -0.38220347350E+01  0.82539225353E+01  0.12781104907E+01  0.91852465085E+01  0.51100000000E-03 0.  1.
         12    1    4    4    0    0  0.69566131352E+01  0.90952485308E+01  0.14550523763E+02  0.18515824419E+02  0.00000000000E+00 0. -1.
</event>
<event>
 8    1  0.7311878E-012  0.9118800E+02  0.7816164E-02  0.1184000E+00
        -11   -1    0    0    0    0  0.00000000000E+00  0.00000000000E+00  0.45593999997E+02  0.45594000000E+02  0.51100000000E-03 0. -1.
         11   -1    0    0    0    0 -0.00000000000E+00 -0.00000000000E+00 -0.45593999997E+02  0.45594000000E+02  0.51100000000E-03 0.  1.
         23    2    1    2    0    0  0.35527136788E-14  0.35527136788E-14 -0.44408920985E-15  0.91188000000E+02  0.91188000000E+02 0.  0.
    9900012    2    3    3    0    0 -0.30054909667E+02  0.27358110808E+02  0.11836282884E+01  0.50528870668E+02  0.30000032883E+02 0.  0.
        -12    1    3    3    0    0  0.30054909667E+02 -0.27358110808E+02 -0.11836282884E+01  0.40659129332E+02  0.00000000000E+00 0.  1.
         11    1    4    4    0    0  0.12708950603E+01  0.13381509351E+02  0.45942425540E+01  0.14205176228E+02  0.51100000000E-03 0. -1.
        -11    1    4    4    0    0 -0.84073194880E+01  0.90208702429E+01  0.13246753771E+01  0.12402172633E+02  0.51100000000E-03 0.  1.
        -12    1    4    4    0    0 -0.22918485239E+02  0.49557312145E+01 -0.47352896427E+01  0.23921521807E+02  0.00000000000E+00 0.  1.
</event>
<event>
 8    1  0.7311878E-012  0.9118800E+02  0.7816164E-02  0.1184000E+00
        -11   -1    0    0    0    0  0.00000000000E+00  0.00000000000E+00  0.45593999997E+02  0.45594000000E+02  0.51100000000E-03 0. -1.
         11   -1    0    0    0    0 -0.00000000000E+00 -0.00000000000E+00 -0.45593999997E+02  0.45594000000E+02  0.51100000000E-03 0.  1.
         23    2    1    2    0    0  0.00000000000E+00  0.00000000000E+00  0.35527136788E-14  0.91188000000E+02  0.91188000000E+02 0.  0.
    9900012    2    3    3    0    0 -0.25054218106E+02  0.49373571340E+01  0.31639747896E+02  0.50528868341E+02  0.30000025808E+02 0.  0.
        -12    1    3    3    0    0  0.25054218106E+02 -0.49373571340E+01 -0.31639747896E+02  0.40659131659E+02  0.00000000000E+00 0.  1.
         11    1    4    4    0    0  0.11145134585E+01  0.22572364042E+01  0.10146715570E+01  0.27141877355E+01  0.51100000000E-03 0. -1.
        -11    1    4    4    0    0 -0.14758278205E+02 -0.52241194478E+01  0.17204555138E+01  0.15749862444E+02  0.51100000000E-03 0.  1.
         12    1    4    4    0    0 -0.11410453360E+02  0.79042401776E+01  0.28904620825E+02  0.32064818161E+02  0.00000000000E+00 0. -1.
</event>
<event>
 8    1  0.7311878E-012  0.9118800E+02  0.7816164E-02  0.1184000E+00
        -11   -1    0    0    0    0  0.00000000000E+00  0.00000000000E+00  0.45593999997E+02  0.45594000000E+02  0.51100000000E-03 0.  1.
         11   -1    0    0    0    0 -0.00000000000E+00 -0.00000000000E+00 -0.45593999997E+02  0.45594000000E+02  0.51100000000E-03 0. -1.
         23    2    1    2    0    0  0.00000000000E+00  0.88817841970E-15  0.00000000000E+00  0.91188000000E+02  0.91188000000E+02 0.  0.
    9900012    2    3    3    0    0  0.36148186606E+02  0.49285673391E+01 -0.17949387099E+02  0.50528896860E+02  0.30000112496E+02 0.  0.
         12    1    3    3    0    0 -0.36148186606E+02 -0.49285673391E+01  0.17949387099E+02  0.40659103140E+02  0.00000000000E+00 0. -1.
         11    1    4    4    0    0 -0.13892971917E+01 -0.12164362413E+01 -0.10645058094E+01  0.21314400520E+01  0.51100000000E-03 0. -1.
        -11    1    4    4    0    0  0.84242103526E+01  0.82255552569E+01  0.40800010030E+01  0.12460878291E+02  0.51100000000E-03 0.  1.
        -12    1    4    4    0    0  0.29113273445E+02 -0.20805516765E+01 -0.20964882292E+02  0.35936578517E+02  0.00000000000E+00 0.  1.
</event>
<event>
 8    1  0.7311878E-012  0.9118800E+02  0.7816164E-02  0.1184000E+00
        -11   -1    0    0    0    0  0.00000000000E+00  0.00000000000E+00  0.45593999997E+02  0.45594000000E+02  0.51100000000E-03 0. -1.
         11   -1    0    0    0    0 -0.00000000000E+00 -0.00000000000E+00 -0.45593999997E+02  0.45594000000E+02  0.51100000000E-03 0.  1.
         23    2    1    2    0    0 -0.17763568394E-14 -0.35527136788E-14 -0.71054273576E-14  0.91188000000E+02  0.91188000000E+02 0.  0.
    9900012    2    3    3    0    0  0.57296892386E+01  0.18919244585E+02 -0.35530243777E+02  0.50528863545E+02  0.30000011230E+02 0.  0.
         12    1    3    3    0    0 -0.57296892386E+01 -0.18919244585E+02  0.35530243777E+02  0.40659136455E+02  0.00000000000E+00 0. -1.
         11    1    4    4    0    0  0.44919978426E+01 -0.15779837380E+01 -0.61811227963E+01  0.78022020340E+01  0.51100000000E-03 0. -1.
        -11    1    4    4    0    0  0.10812269950E+02  0.17880260184E+02 -0.17389146782E+02  0.27184394637E+02  0.51100000000E-03 0.  1.
        -12    1    4    4    0    0 -0.95745785541E+01  0.26169681390E+01 -0.11959974199E+02  0.15542266873E+02  0.00000000000E+00 0.  1.
</event>
<event>
 8    1  0.7311878E-012  0.9118800E+02  0.7816164E-02  0.1184000E+00
        -11   -1    0    0    0    0  0.00000000000E+00  0.00000000000E+00  0.45593999997E+02  0.45594000000E+02  0.51100000000E-03 0. -1.
         11   -1    0    0    0    0 -0.00000000000E+00 -0.00000000000E+00 -0.45593999997E+02  0.45594000000E+02  0.51100000000E-03 0.  1.
         23    2    1    2    0    0  0.99920072216E-15  0.00000000000E+00  0.00000000000E+00  0.91188000000E+02  0.91188000000E+02 0.  0.
    9900012    2    3    3    0    0  0.80399840483E+00 -0.32687393841E+02 -0.24167207954E+02  0.50528855028E+02  0.29999985344E+02 0.  0.
         12    1    3    3    0    0 -0.80399840483E+00  0.32687393841E+02  0.24167207954E+02  0.40659144972E+02  0.00000000000E+00 0. -1.
         11    1    4    4    0    0  0.85657587510E+01 -0.62515941894E+01 -0.10884900815E+02  0.15196569313E+02  0.51100000000E-03 0. -1.
        -11    1    4    4    0    0 -0.29267188288E+01 -0.11536884856E+02 -0.15467378405E+02  0.19516792520E+02  0.51100000000E-03 0.  1.
         12    1    4    4    0    0 -0.48350415174E+01 -0.14898914796E+02  0.21850712660E+01  0.15815493195E+02  0.00000000000E+00 0. -1.
</event>
<event>
 8    1  0.7311878E-012  0.9118800E+02  0.7816164E-02  0.1184000E+00
        -11   -1    0    0    0    0  0.00000000000E+00  0.00000000000E+00  0.45593999997E+02  0.45594000000E+02  0.51100000000E-03 0. -1.
         11   -1    0    0    0    0 -0.00000000000E+00 -0.00000000000E+00 -0.45593999997E+02  0.45594000000E+02  0.51100000000E-03 0.  1.
         23    2    1    2    0    0 -0.88817841970E-15  0.00000000000E+00  0.71054273576E-14  0.91188000000E+02  0.91188000000E+02 0.  0.
    9900012    2    3    3    0    0 -0.75989497181E+01 -0.21731096336E+02  0.33513895594E+02  0.50528858559E+02  0.29999996077E+02 0.  0.
        -12    1    3    3    0    0  0.75989497181E+01  0.21731096336E+02 -0.33513895594E+02  0.40659141441E+02  0.00000000000E+00 0.  1.
         11    1    4    4    0    0 -0.16285471069E+01 -0.91893558539E+01  0.15844178011E+02  0.18388431249E+02  0.51100000000E-03 0. -1.
        -11    1    4    4    0    0  0.85714929226E+01 -0.58352553219E+01  0.99191000885E+01  0.14349538056E+02  0.51100000000E-03 0.  1.
         12    1    4    4    0    0 -0.14541895534E+02 -0.67064851604E+01  0.77506174949E+01  0.17790889255E+02  0.00000000000E+00 0. -1.
</event>
<event>
 8    1  0.7311878E-012  0.9118800E+02  0.7816164E-02  0.1184000E+00
        -11   -1    0    0    0    0  0.00000000000E+00  0.00000000000E+00  0.45593999997E+02  0.45594000000E+02  0.51100000000E-03 0. -1.
         11   -1    0    0    0    0 -0.00000000000E+00 -0.00000000000E+00 -0.45593999997E+02  0.45594000000E+02  0.51100000000E-03 0.  1.
         23    2    1    2    0    0  0.71054273576E-14  0.00000000000E+00  0.00000000000E+00  0.91188000000E+02  0.91188000000E+02 0.  0.
    9900012    2    3    3    0    0  0.35078913967E+02  0.87778298463E+01  0.18590112993E+02  0.50528772228E+02  0.29999733662E+02 0.  0.
        -12    1    3    3    0    0 -0.35078913967E+02 -0.87778298463E+01 -0.18590112993E+02  0.40659227772E+02  0.00000000000E+00 0.  1.
         11    1    4    4    0    0 -0.44526548433E+00  0.24718081232E+01 -0.23107157505E+01  0.34128440178E+01  0.51100000000E-03 0.  1.
        -11    1    4    4    0    0  0.27428975551E+02  0.46072713503E+01  0.37372403464E+01  0.28063189675E+02  0.51100000000E-03 0. -1.
        -12    1    4    4    0    0  0.80952039010E+01  0.16987503728E+01  0.17163588397E+02  0.19052738535E+02  0.00000000000E+00 0.  1.
</event>
<event>
 8    1  0.7311878E-012  0.9118800E+02  0.7816164E-02  0.1184000E+00
        -11   -1    0    0    0    0  0.00000000000E+00  0.00000000000E+00  0.45593999997E+02  0.45594000000E+02  0.51100000000E-03 0. -1.
         11   -1    0    0    0    0 -0.00000000000E+00 -0.00000000000E+00 -0.45593999997E+02  0.45594000000E+02  0.51100000000E-03 0.  1.
         23    2    1    2    0    0  0.00000000000E+00  0.35527136788E-14  0.00000000000E+00  0.91188000000E+02  0.91188000000E+02 0.  0.
    9900012    2    3    3    0    0 -0.51164258295E+01 -0.23039716058E+02  0.33108299453E+02  0.50528858076E+02  0.29999994609E+02 0.  0.
        -12    1    3    3    0    0  0.51164258295E+01  0.23039716058E+02 -0.33108299453E+02  0.40659141924E+02  0.00000000000E+00 0.  1.
         11    1    4    4    0    0 -0.14432687799E+00 -0.28786455042E+02  0.24992965841E+02  0.38122554557E+02  0.51100000000E-03 0. -1.
        -11    1    4    4    0    0 -0.18527099841E+01 -0.58572115764E-01  0.45506523656E+01  0.49136953702E+01  0.51100000000E-03 0.  1.
         12    1    4    4    0    0 -0.31193889674E+01  0.58053110995E+01  0.35646812462E+01  0.74926081493E+01  0.00000000000E+00 0. -1.
</event>
<event>
 8    1  0.7311878E-012  0.9118800E+02  0.7816164E-02  0.1184000E+00
        -11   -1    0    0    0    0  0.00000000000E+00  0.00000000000E+00  0.45593999997E+02  0.45594000000E+02  0.51100000000E-03 0.  1.
         11   -1    0    0    0    0 -0.00000000000E+00 -0.00000000000E+00 -0.45593999997E+02  0.45594000000E+02  0.51100000000E-03 0. -1.
         23    2    1    2    0    0  0.00000000000E+00  0.00000000000E+00  0.17763568394E-14  0.91188000000E+02  0.91188000000E+02 0.  0.
    9900012    2    3    3    0    0 -0.34856819969E+02 -0.17875270368E+02  0.10892326035E+02  0.50528856434E+02  0.29999989618E+02 0.  0.
        -12    1    3    3    0    0  0.34856819969E+02  0.17875270368E+02 -0.10892326035E+02  0.40659143566E+02  0.00000000000E+00 0.  1.
         11    1    4    4    0    0  0.18496927726E+01 -0.38613856470E+01 -0.77243890287E+00  0.43506694413E+01  0.51100000000E-03 0. -1.
        -11    1    4    4    0    0 -0.15065826798E+02 -0.14306461523E+02  0.12976538108E+02  0.24495806171E+02  0.51100000000E-03 0.  1.
         12    1    4    4    0    0 -0.21640685943E+02  0.29257680231E+00 -0.13117731706E+01  0.21682380822E+02  0.00000000000E+00 0. -1.
</event>
<event>
 8    1  0.7311878E-012  0.9118800E+02  0.7816164E-02  0.1184000E+00
        -11   -1    0    0    0    0  0.00000000000E+00  0.00000000000E+00  0.45593999997E+02  0.45594000000E+02  0.51100000000E-03 0. -1.
         11   -1    0    0    0    0 -0.00000000000E+00 -0.00000000000E+00 -0.45593999997E+02  0.45594000000E+02  0.51100000000E-03 0.  1.
         23    2    1    2    0    0  0.00000000000E+00 -0.69735883734E-15 -0.35527136788E-14  0.91188000000E+02  0.91188000000E+02 0.  0.
    9900012    2    3    3    0    0  0.25203984982E+02 -0.13890453810E-01  0.31904934326E+02  0.50528857286E+02  0.29999992205E+02 0.  0.
        -12    1    3    3    0    0 -0.25203984982E+02  0.13890453810E-01 -0.31904934326E+02  0.40659142714E+02  0.00000000000E+00 0.  1.
         11    1    4    4    0    0  0.72449149619E+01 -0.32030546927E+01  0.25209639274E+01  0.83128582061E+01  0.51100000000E-03 0. -1.
        -11    1    4    4    0    0  0.17072178566E+01 -0.36088316569E+01 -0.32386920845E+01  0.51407572805E+01  0.51100000000E-03 0.  1.
         12    1    4    4    0    0  0.16251852163E+02  0.67979958958E+01  0.32622662484E+02  0.37075241799E+02  0.00000000000E+00 0. -1.
</event>
<event>
 8    1  0.7311878E-012  0.9118800E+02  0.7816164E-02  0.1184000E+00
        -11   -1    0    0    0    0  0.00000000000E+00  0.00000000000E+00  0.45593999997E+02  0.45594000000E+02  0.51100000000E-03 0. -1.
         11   -1    0    0    0    0 -0.00000000000E+00 -0.00000000000E+00 -0.45593999997E+02  0.45594000000E+02  0.51100000000E-03 0.  1.
         23    2    1    2    0    0  0.71054273576E-14  0.88817841970E-15  0.17763568394E-14  0.91188000000E+02  0.91188000000E+02 0.  0.
    9900012    2    3    3    0    0  0.37532650751E+02  0.56607290648E+01  0.14574691571E+02  0.50528863753E+02  0.30000011864E+02 0.  0.
        -12    1    3    3    0    0 -0.37532650751E+02 -0.56607290648E+01 -0.14574691571E+02  0.40659136247E+02  0.00000000000E+00 0.  1.
         11    1    4    4    0    0  0.27094911688E+02  0.13980860751E+02  0.27640589229E+01  0.30614354945E+02  0.51100000000E-03 0. -1.
        -11    1    4    4    0    0  0.52340555174E+01  0.10270040676E+01  0.37687472608E+01  0.65309670564E+01  0.51100000000E-03 0.  1.
        -12    1    4    4    0    0  0.52036835460E+01 -0.93471357533E+01  0.80418853876E+01  0.13383541752E+02  0.00000000000E+00 0.  1.
</event>
<event>
 8    1  0.7311878E-012  0.9118800E+02  0.7816164E-02  0.1184000E+00
        -11   -1    0    0    0    0  0.00000000000E+00  0.00000000000E+00  0.45593999997E+02  0.45594000000E+02  0.51100000000E-03 0. -1.
         11   -1    0    0    0    0 -0.00000000000E+00 -0.00000000000E+00 -0.45593999997E+02  0.45594000000E+02  0.51100000000E-03 0.  1.
         23    2    1    2    0    0  0.88817841970E-15  0.17763568394E-14  0.00000000000E+00  0.91188000000E+02  0.91188000000E+02 0.  0.
    9900012    2    3    3    0    0 -0.55328603439E+01  0.14509048685E+02 -0.37577122651E+02  0.50528865921E+02  0.30000018454E+02 0.  0.
         12    1    3    3    0    0  0.55328603439E+01 -0.14509048685E+02  0.37577122651E+02  0.40659134079E+02  0.00000000000E+00 0. -1.
         11    1    4    4    0    0 -0.29507949923E+01  0.30847459736E+01  0.21420922716E+00  0.42741940365E+01  0.51100000000E-03 0. -1.
        -11    1    4    4    0    0 -0.72156840269E+01  0.16285603688E+02 -0.17868455390E+02  0.25230312756E+02  0.51100000000E-03 0.  1.
        -12    1    4    4    0    0  0.46336186753E+01 -0.48613009775E+01 -0.19922876488E+02  0.21024359129E+02  0.00000000000E+00 0.  1.
</event>
<event>
 8    1  0.7311878E-012  0.9118800E+02  0.7816164E-02  0.1184000E+00
        -11   -1    0    0    0    0  0.00000000000E+00  0.00000000000E+00  0.45593999997E+02  0.45594000000E+02  0.51100000000E-03 0. -1.
         11   -1    0    0    0    0 -0.00000000000E+00 -0.00000000000E+00 -0.45593999997E+02  0.45594000000E+02  0.51100000000E-03 0.  1.
         23    2    1    2    0    0  0.17763568394E-14  0.00000000000E+00  0.00000000000E+00  0.91188000000E+02  0.91188000000E+02 0.  0.
    9900012    2    3    3    0    0  0.94978551343E+01  0.15962377288E+02 -0.36168478193E+02  0.50528861351E+02  0.30000004564E+02 0.  0.
         12    1    3    3    0    0 -0.94978551343E+01 -0.15962377288E+02  0.36168478193E+02  0.40659138649E+02  0.00000000000E+00 0. -1.
         11    1    4    4    0    0  0.31209857218E+01 -0.94969588105E+00  0.78455162493E-01  0.32632238072E+01  0.51100000000E-03 0. -1.
        -11    1    4    4    0    0  0.15760399696E+02  0.99300915557E+01 -0.22878722929E+02  0.29503099498E+02  0.51100000000E-03 0.  1.
         12    1    4    4    0    0 -0.93835302832E+01  0.69819816135E+01 -0.13368210426E+02  0.17762538046E+02  0.00000000000E+00 0. -1.
</event>
<event>
 8    1  0.7311878E-012  0.9118800E+02  0.7816164E-02  0.1184000E+00
        -11   -1    0    0    0    0  0.00000000000E+00  0.00000000000E+00  0.45593999997E+02  0.45594000000E+02  0.51100000000E-03 0. -1.
         11   -1    0    0    0    0 -0.00000000000E+00 -0.00000000000E+00 -0.45593999997E+02  0.45594000000E+02  0.51100000000E-03 0.  1.
         23    2    1    2    0    0  0.17763568394E-14  0.00000000000E+00  0.00000000000E+00  0.91188000000E+02  0.91188000000E+02 0.  0.
    9900012    2    3    3    0    0 -0.11091017121E+02 -0.19740213373E+02 -0.33770974159E+02  0.50528863506E+02  0.30000011112E+02 0.  0.
         12    1    3    3    0    0  0.11091017121E+02  0.19740213373E+02  0.33770974159E+02  0.40659136494E+02  0.00000000000E+00 0. -1.
         11    1    4    4    0    0 -0.94016550469E+01 -0.11503240436E+02 -0.90460735010E+01  0.17393881229E+02  0.51100000000E-03 0.  1.
        -11    1    4    4    0    0 -0.31680463707E+01 -0.91450032284E+01 -0.27892149529E+02  0.29523543274E+02  0.51100000000E-03 0. -1.
         12    1    4    4    0    0  0.14786842967E+01  0.90803029144E+00  0.31672488707E+01  0.36114390025E+01  0.00000000000E+00 0. -1.
</event>
<event>
 8    1  0.7311878E-012  0.9118800E+02  0.7816164E-02  0.1184000E+00
        -11   -1    0    0    0    0  0.00000000000E+00  0.00000000000E+00  0.45593999997E+02  0.45594000000E+02  0.51100000000E-03 0. -1.
         11   -1    0    0    0    0 -0.00000000000E+00 -0.00000000000E+00 -0.45593999997E+02  0.45594000000E+02  0.51100000000E-03 0.  1.
         23    2    1    2    0    0 -0.17763568394E-14  0.88817841970E-15  0.71054273576E-14  0.91188000000E+02  0.91188000000E+02 0.  0.
    9900012    2    3    3    0    0  0.91801502738E+01 -0.71780153175E+01 -0.38953412428E+02  0.50528838637E+02  0.29999935520E+02 0.  0.
         12    1    3    3    0    0 -0.91801502738E+01  0.71780153175E+01  0.38953412428E+02  0.40659161363E+02  0.00000000000E+00 0. -1.
         11    1    4    4    0    0 -0.22990025152E+00  0.53717069671E+01 -0.16513820200E+01  0.56245135526E+01  0.51100000000E-03 0. -1.
        -11    1    4    4    0    0 -0.51855035833E+01 -0.80382855586E+01 -0.11974735774E+02  0.15326375281E+02  0.51100000000E-03 0.  1.
        -12    1    4    4    0    0  0.14595554109E+02 -0.45114367260E+01 -0.25327294634E+02  0.29577949803E+02  0.00000000000E+00 0.  1.
</event>
<event>
 8    1  0.7311878E-012  0.9118800E+02  0.7816164E-02  0.1184000E+00
        -11   -1    0    0    0    0  0.00000000000E+00  0.00000000000E+00  0.45593999997E+02  0.45594000000E+02  0.51100000000E-03 0. -1.
         11   -1    0    0    0    0 -0.00000000000E+00 -0.00000000000E+00 -0.45593999997E+02  0.45594000000E+02  0.51100000000E-03 0.  1.
         23    2    1    2    0    0  0.17763568394E-14  0.00000000000E+00  0.00000000000E+00  0.91188000000E+02  0.91188000000E+02 0.  0.
    9900012    2    3    3    0    0  0.99044052886E+01  0.51976027900E+01  0.39090315503E+02  0.50528867139E+02  0.30000022157E+02 0.  0.
        -12    1    3    3    0    0 -0.99044052886E+01 -0.51976027900E+01 -0.39090315503E+02  0.40659132861E+02  0.00000000000E+00 0.  1.
         11    1    4    4    0    0 -0.28313192536E+01 -0.76928022189E-01  0.45722544758E+01  0.53784568315E+01  0.51100000000E-03 0. -1.
        -11    1    4    4    0    0  0.92531470093E+01  0.84089212088E+01  0.37545090440E+02  0.39572269354E+02  0.51100000000E-03 0.  1.
        -12    1    4    4    0    0  0.34825775329E+01 -0.31343903966E+01 -0.30270294127E+01  0.55781409534E+01  0.00000000000E+00 0.  1.
</event>
<event>
 8    1  0.7311878E-012  0.9118800E+02  0.7816164E-02  0.1184000E+00
        -11   -1    0    0    0    0  0.00000000000E+00  0.00000000000E+00  0.45593999997E+02  0.45594000000E+02  0.51100000000E-03 0. -1.
         11   -1    0    0    0    0 -0.00000000000E+00 -0.00000000000E+00 -0.45593999997E+02  0.45594000000E+02  0.51100000000E-03 0.  1.
         23    2    1    2    0    0  0.00000000000E+00 -0.35527136788E-14  0.00000000000E+00  0.91188000000E+02  0.91188000000E+02 0.  0.
    9900012    2    3    3    0    0 -0.11847093777E+02  0.91950415907E+01 -0.37792370525E+02  0.50528859690E+02  0.29999999514E+02 0.  0.
         12    1    3    3    0    0  0.11847093777E+02 -0.91950415907E+01  0.37792370525E+02  0.40659140310E+02  0.00000000000E+00 0. -1.
         11    1    4    4    0    0 -0.14024300819E+01  0.12428541480E+02 -0.10595980706E+02  0.16392384233E+02  0.51100000000E-03 0. -1.
        -11    1    4    4    0    0  0.27109849639E+01 -0.41729735128E+01 -0.16255275501E+02  0.16999915567E+02  0.51100000000E-03 0.  1.
         12    1    4    4    0    0 -0.13155648659E+02  0.93947362339E+00 -0.10941114318E+02  0.17136559890E+02  0.00000000000E+00 0. -1.
</event>
<event>
 8    1  0.7311878E-012  0.9118800E+02  0.7816164E-02  0.1184000E+00
        -11   -1    0    0    0    0  0.00000000000E+00  0.00000000000E+00  0.45593999997E+02  0.45594000000E+02  0.51100000000E-03 0. -1.
         11   -1    0    0    0    0 -0.00000000000E+00 -0.00000000000E+00 -0.45593999997E+02  0.45594000000E+02  0.51100000000E-03 0.  1.
         23    2    1    2    0    0  0.00000000000E+00  0.00000000000E+00  0.00000000000E+00  0.91188000000E+02  0.91188000000E+02 0.  0.
    9900012    2    3    3    0    0 -0.18126091612E+02 -0.35683393440E+02  0.71628058649E+01  0.50528861392E+02  0.30000004687E+02 0.  0.
        -12    1    3    3    0    0  0.18126091612E+02  0.35683393440E+02 -0.71628058649E+01  0.40659138608E+02  0.00000000000E+00 0.  1.
         11    1    4    4    0    0 -0.38563329545E+01 -0.36964672475E+01  0.18481099169E+01  0.56524936527E+01  0.51100000000E-03 0. -1.
        -11    1    4    4    0    0 -0.19908810718E+02 -0.15692950543E+02 -0.33654324914E+01  0.25572555154E+02  0.51100000000E-03 0.  1.
         12    1    4    4    0    0  0.56390520613E+01 -0.16293975649E+02  0.86801284394E+01  0.19303812585E+02  0.00000000000E+00 0. -1.
</event>
<event>
 8    1  0.7311878E-012  0.9118800E+02  0.7816164E-02  0.1184000E+00
        -11   -1    0    0    0    0  0.00000000000E+00  0.00000000000E+00  0.45593999997E+02  0.45594000000E+02  0.51100000000E-03 0. -1.
         11   -1    0    0    0    0 -0.00000000000E+00 -0.00000000000E+00 -0.45593999997E+02  0.45594000000E+02  0.51100000000E-03 0.  1.
         23    2    1    2    0    0  0.00000000000E+00  0.00000000000E+00 -0.88817841970E-15  0.91188000000E+02  0.91188000000E+02 0.  0.
    9900012    2    3    3    0    0 -0.39067046167E+02  0.11249259997E+02 -0.62132779669E+00  0.50528855950E+02  0.29999988145E+02 0.  0.
        -12    1    3    3    0    0  0.39067046167E+02 -0.11249259997E+02  0.62132779669E+00  0.40659144050E+02  0.00000000000E+00 0.  1.
         11    1    4    4    0    0 -0.18241207113E+02  0.85792522713E+01  0.10583221761E+02  0.22767296492E+02  0.51100000000E-03 0. -1.
        -11    1    4    4    0    0 -0.10052533411E+02 -0.24948289162E+01  0.13331905369E+01  0.10442940035E+02  0.51100000000E-03 0.  1.
        -12    1    4    4    0    0 -0.10773305642E+02  0.51648366418E+01 -0.12537740095E+02  0.17318619422E+02  0.00000000000E+00 0.  1.
</event>
<event>
 8    1  0.7311878E-012  0.9118800E+02  0.7816164E-02  0.1184000E+00
        -11   -1    0    0    0    0  0.00000000000E+00  0.00000000000E+00  0.45593999997E+02  0.45594000000E+02  0.51100000000E-03 0. -1.
         11   -1    0    0    0    0 -0.00000000000E+00 -0.00000000000E+00 -0.45593999997E+02  0.45594000000E+02  0.51100000000E-03 0.  1.
         23    2    1    2    0    0  0.00000000000E+00 -0.35527136788E-14  0.00000000000E+00  0.91188000000E+02  0.91188000000E+02 0.  0.
    9900012    2    3    3    0    0  0.10220912666E+02 -0.21175006892E+02  0.33171071279E+02  0.50528832001E+02  0.29999915349E+02 0.  0.
        -12    1    3    3    0    0 -0.10220912666E+02  0.21175006892E+02 -0.33171071279E+02  0.40659167999E+02  0.00000000000E+00 0.  1.
         11    1    4    4    0    0 -0.27425882298E+01 -0.12100373338E+02  0.13893880440E+02  0.18627419012E+02  0.51100000000E-03 0. -1.
        -11    1    4    4    0    0  0.85634082897E+01 -0.13964411817E+02  0.19311432429E+02  0.25323273518E+02  0.51100000000E-03 0.  1.
        -12    1    4    4    0    0  0.44000926066E+01  0.48897782632E+01 -0.34241589559E-01  0.65781394707E+01  0.00000000000E+00 0.  1.
</event>
<event>
 8    1  0.7311878E-012  0.9118800E+02  0.7816164E-02  0.1184000E+00
        -11   -1    0    0    0    0  0.00000000000E+00  0.00000000000E+00  0.45593999997E+02  0.45594000000E+02  0.51100000000E-03 0. -1.
         11   -1    0    0    0    0 -0.00000000000E+00 -0.00000000000E+00 -0.45593999997E+02  0.45594000000E+02  0.51100000000E-03 0.  1.
         23    2    1    2    0    0 -0.35527136788E-14  0.00000000000E+00  0.00000000000E+00  0.91188000000E+02  0.91188000000E+02 0.  0.
    9900012    2    3    3    0    0  0.30160973398E+02 -0.13800650835E+02  0.23516444860E+02  0.50528862544E+02  0.30000008189E+02 0.  0.
        -12    1    3    3    0    0 -0.30160973398E+02  0.13800650835E+02 -0.23516444860E+02  0.40659137456E+02  0.00000000000E+00 0.  1.
         11    1    4    4    0    0  0.35672301990E+01  0.50369704374E+01  0.11545484233E+02  0.13091768747E+02  0.51100000000E-03 0. -1.
        -11    1    4    4    0    0  0.44369451005E+01 -0.14117980472E+01 -0.29810680489E+01  0.55286908508E+01  0.51100000000E-03 0.  1.
        -12    1    4    4    0    0  0.22156798099E+02 -0.17425823225E+02  0.14952028676E+02  0.31908402946E+02  0.00000000000E+00 0.  1.
</event>
<event>
 8    1  0.7311878E-012  0.9118800E+02  0.7816164E-02  0.1184000E+00
        -11   -1    0    0    0    0  0.00000000000E+00  0.00000000000E+00  0.45593999997E+02  0.45594000000E+02  0.51100000000E-03 0. -1.
         11   -1    0    0    0    0 -0.00000000000E+00 -0.00000000000E+00 -0.45593999997E+02  0.45594000000E+02  0.51100000000E-03 0.  1.
         23    2    1    2    0    0  0.00000000000E+00 -0.35527136788E-14 -0.35527136788E-14  0.91188000000E+02  0.91188000000E+02 0.  0.
    9900012    2    3    3    0    0 -0.65930201399E+01  0.26185427596E+02 -0.30397707578E+02  0.50528866229E+02  0.30000019390E+02 0.  0.
         12    1    3    3    0    0  0.65930201399E+01 -0.26185427596E+02  0.30397707578E+02  0.40659133771E+02  0.00000000000E+00 0. -1.
         11    1    4    4    0    0 -0.41390019942E+01 -0.28201364267E+00 -0.16553427248E+02  0.17065369117E+02  0.51100000000E-03 0. -1.
        -11    1    4    4    0    0  0.53645621508E+01  0.11821475702E+02 -0.21560443947E+01  0.13159572277E+02  0.51100000000E-03 0.  1.
         12    1    4    4    0    0 -0.78185802966E+01  0.14645965538E+02 -0.11688235936E+02  0.20303924834E+02  0.00000000000E+00 0. -1.
</event>
<event>
 8    1  0.7311878E-012  0.9118800E+02  0.7816164E-02  0.1184000E+00
        -11   -1    0    0    0    0  0.00000000000E+00  0.00000000000E+00  0.45593999997E+02  0.45594000000E+02  0.51100000000E-03 0.  1.
         11   -1    0    0    0    0 -0.00000000000E+00 -0.00000000000E+00 -0.45593999997E+02  0.45594000000E+02  0.51100000000E-03 0. -1.
         23    2    1    2    0    0  0.00000000000E+00  0.00000000000E+00  0.00000000000E+00  0.91188000000E+02  0.91188000000E+02 0.  0.
    9900012    2    3    3    0    0 -0.30834613722E+02 -0.14566996431E+02  0.22140360946E+02  0.50528851322E+02  0.29999974078E+02 0.  0.
        -12    1    3    3    0    0  0.30834613722E+02  0.14566996431E+02 -0.22140360946E+02  0.40659148678E+02  0.00000000000E+00 0.  1.
         11    1    4    4    0    0 -0.23102318705E+02 -0.69619358496E+01  0.90420813293E+01  0.25767128581E+02  0.51100000000E-03 0. -1.
        -11    1    4    4    0    0 -0.59195436638E+01  0.32925495797E+01 -0.10039049839E+01  0.68476058152E+01  0.51100000000E-03 0.  1.
        -12    1    4    4    0    0 -0.18127513535E+01 -0.10897610161E+02  0.14102184601E+02  0.17914116925E+02  0.00000000000E+00 0.  1.
</event>
<event>
 8    1  0.7311878E-012  0.9118800E+02  0.7816164E-02  0.1184000E+00
        -11   -1    0    0    0    0  0.00000000000E+00  0.00000000000E+00  0.45593999997E+02  0.45594000000E+02  0.51100000000E-03 0.  1.
         11   -1    0    0    0    0 -0.00000000000E+00 -0.00000000000E+00 -0.45593999997E+02  0.45594000000E+02  0.51100000000E-03 0. -1.
         23    2    1    2    0    0  0.00000000000E+00 -0.33306690739E-15  0.00000000000E+00  0.91188000000E+02  0.91188000000E+02 0.  0.
    9900012    2    3    3    0    0  0.17156131179E+02  0.24473719634E+00  0.36861534703E+02  0.50528862356E+02  0.30000007617E+02 0.  0.
        -12    1    3    3    0    0 -0.17156131179E+02 -0.24473719634E+00 -0.36861534703E+02  0.40659137644E+02  0.00000000000E+00 0.  1.
         11    1    4    4    0    0  0.11645201750E+02 -0.83626688357E+01  0.30136680177E+01  0.14650158669E+02  0.51100000000E-03 0. -1.
        -11    1    4    4    0    0  0.30146934431E+00  0.34838689252E+01  0.48801782353E+01  0.60036960552E+01  0.51100000000E-03 0.  1.
         12    1    4    4    0    0  0.52094600842E+01  0.51235371069E+01  0.28967688450E+02  0.29875007631E+02  0.00000000000E+00 0. -1.
</event>
<event>
 8    1  0.7311878E-012  0.9118800E+02  0.7816164E-02  0.1184000E+00
        -11   -1    0    0    0    0  0.00000000000E+00  0.00000000000E+00  0.45593999997E+02  0.45594000000E+02  0.51100000000E-03 0. -1.
         11   -1    0    0    0    0 -0.00000000000E+00 -0.00000000000E+00 -0.45593999997E+02  0.45594000000E+02  0.51100000000E-03 0.  1.
         23    2    1    2    0    0  0.00000000000E+00 -0.22204460493E-15  0.35527136788E-14  0.91188000000E+02  0.91188000000E+02 0.  0.
    9900012    2    3    3    0    0 -0.32416882196E+02  0.12306977537E+01 -0.24511193925E+02  0.50528837492E+02  0.29999932040E+02 0.  0.
         12    1    3    3    0    0  0.32416882196E+02 -0.12306977537E+01  0.24511193925E+02  0.40659162508E+02  0.00000000000E+00 0. -1.
         11    1    4    4    0    0 -0.18393004792E+02  0.32324118318E+01 -0.28973087913E+02  0.34470145560E+02  0.51100000000E-03 0.  1.
        -11    1    4    4    0    0 -0.40342094266E+00 -0.14528112839E+01  0.14636306289E+01  0.21013386121E+01  0.51100000000E-03 0. -1.
        -12    1    4    4    0    0 -0.13620456462E+02 -0.54890279423E+00  0.29982633590E+01  0.13957353319E+02  0.00000000000E+00 0.  1.
</event>
<event>
 8    1  0.7311878E-012  0.9118800E+02  0.7816164E-02  0.1184000E+00
        -11   -1    0    0    0    0  0.00000000000E+00  0.00000000000E+00  0.45593999997E+02  0.45594000000E+02  0.51100000000E-03 0. -1.
         11   -1    0    0    0    0 -0.00000000000E+00 -0.00000000000E+00 -0.45593999997E+02  0.45594000000E+02  0.51100000000E-03 0.  1.
         23    2    1    2    0    0  0.35527136788E-14  0.00000000000E+00 -0.35527136788E-14  0.91188000000E+02  0.91188000000E+02 0.  0.
    9900012    2    3    3    0    0  0.17704487912E+02 -0.24329671415E+02  0.27345634249E+02  0.50528861841E+02  0.30000006051E+02 0.  0.
        -12    1    3    3    0    0 -0.17704487912E+02  0.24329671415E+02 -0.27345634249E+02  0.40659138159E+02  0.00000000000E+00 0.  1.
         11    1    4    4    0    0  0.18679372524E+02 -0.10730637947E+02  0.70542503038E+01  0.22667774400E+02  0.51100000000E-03 0. -1.
        -11    1    4    4    0    0 -0.49915473138E+00  0.25413475009E+00 -0.17422071167E+01  0.18300343755E+01  0.51100000000E-03 0.  1.
         12    1    4    4    0    0 -0.47572988089E+00 -0.13853168218E+02  0.22033591062E+02  0.26031053065E+02  0.00000000000E+00 0. -1.
</event>
<event>
 8    1  0.7311878E-012  0.9118800E+02  0.7816164E-02  0.1184000E+00
        -11   -1    0    0    0    0  0.00000000000E+00  0.00000000000E+00  0.45593999997E+02  0.45594000000E+02  0.51100000000E-03 0. -1.
         11   -1    0    0    0    0 -0.00000000000E+00 -0.00000000000E+00 -0.45593999997E+02  0.45594000000E+02  0.51100000000E-03 0.  1.
         23    2    1    2    0    0 -0.11102230246E-15  0.71054273576E-14  0.00000000000E+00  0.91188000000E+02  0.91188000000E+02 0.  0.
    9900012    2    3    3    0    0 -0.90716665828E+00 -0.32001556477E+02  0.25064783052E+02  0.50528856898E+02  0.29999991028E+02 0.  0.
        -12    1    3    3    0    0  0.90716665828E+00  0.32001556477E+02 -0.25064783052E+02  0.40659143102E+02  0.00000000000E+00 0.  1.
         11    1    4    4    0    0 -0.98317532561E+00 -0.19207278463E+02  0.27147027991E+02  0.33269314822E+02  0.51100000000E-03 0. -1.
        -11    1    4    4    0    0  0.51937633622E+01 -0.31020378158E+01 -0.17355121809E+01  0.62936332324E+01  0.51100000000E-03 0.  1.
        -12    1    4    4    0    0 -0.51177546949E+01 -0.96922401982E+01 -0.34673275825E+00  0.10965908844E+02  0.00000000000E+00 0.  1.
</event>
<event>
 8    1  0.7311878E-012  0.9118800E+02  0.7816164E-02  0.1184000E+00
        -11   -1    0    0    0    0  0.00000000000E+00  0.00000000000E+00  0.45593999997E+02  0.45594000000E+02  0.51100000000E-03 0. -1.
         11   -1    0    0    0    0 -0.00000000000E+00 -0.00000000000E+00 -0.45593999997E+02  0.45594000000E+02  0.51100000000E-03 0.  1.
         23    2    1    2    0    0 -0.13322676296E-14  0.00000000000E+00  0.00000000000E+00  0.91188000000E+02  0.91188000000E+02 0.  0.
    9900012    2    3    3    0    0 -0.25025921712E+01 -0.21168738492E+02 -0.34623516169E+02  0.50528851843E+02  0.29999975663E+02 0.  0.
         12    1    3    3    0    0  0.25025921712E+01  0.21168738492E+02  0.34623516169E+02  0.40659148157E+02  0.00000000000E+00 0. -1.
         11    1    4    4    0    0  0.36730417934E+01  0.56321540089E-01 -0.86919184406E+00  0.37749043505E+01  0.51100000000E-03 0. -1.
        -11    1    4    4    0    0 -0.78614622383E+01  0.21184066708E+01 -0.13681636777E+02  0.15920974232E+02  0.51100000000E-03 0.  1.
         12    1    4    4    0    0  0.16858282737E+01 -0.23343466703E+02 -0.20072687548E+02  0.30832973260E+02  0.00000000000E+00 0. -1.
</event>
<event>
 8    1  0.7311878E-012  0.9118800E+02  0.7816164E-02  0.1184000E+00
        -11   -1    0    0    0    0  0.00000000000E+00  0.00000000000E+00  0.45593999997E+02  0.45594000000E+02  0.51100000000E-03 0.  1.
         11   -1    0    0    0    0 -0.00000000000E+00 -0.00000000000E+00 -0.45593999997E+02  0.45594000000E+02  0.51100000000E-03 0. -1.
         23    2    1    2    0    0  0.00000000000E+00 -0.88817841970E-15  0.00000000000E+00  0.91188000000E+02  0.91188000000E+02 0.  0.
    9900012    2    3    3    0    0 -0.37455077531E+02 -0.47304918263E+01  0.15096531639E+02  0.50528860151E+02  0.30000000914E+02 0.  0.
        -12    1    3    3    0    0  0.37455077531E+02  0.47304918263E+01 -0.15096531639E+02  0.40659139849E+02  0.00000000000E+00 0.  1.
         11    1    4    4    0    0 -0.71723026894E+00  0.24832559173E+01 -0.25961117364E+01  0.36634376777E+01  0.51100000000E-03 0. -1.
        -11    1    4    4    0    0 -0.17890943896E+02  0.43935874583E+01  0.16446810655E+02  0.24695891667E+02  0.51100000000E-03 0.  1.
        -12    1    4    4    0    0 -0.18846903366E+02 -0.11607335202E+02  0.12458327196E+01  0.22169530806E+02  0.00000000000E+00 0.  1.
</event>
<event>
 8    1  0.7311878E-012  0.9118800E+02  0.7816164E-02  0.1184000E+00
        -11   -1    0    0    0    0  0.00000000000E+00  0.00000000000E+00  0.45593999997E+02  0.45594000000E+02  0.51100000000E-03 0.  1.
         11   -1    0    0    0    0 -0.00000000000E+00 -0.00000000000E+00 -0.45593999997E+02  0.45594000000E+02  0.51100000000E-03 0. -1.
         23    2    1    2    0    0  0.35527136788E-14 -0.71054273576E-14 -0.35527136788E-14  0.91188000000E+02  0.91188000000E+02 0.  0.
    9900012    2    3    3    0    0  0.15304416666E+02 -0.36716425461E+02 -0.84169303528E+01  0.50528858535E+02  0.29999996002E+02 0.  0.
        -12    1    3    3    0    0 -0.15304416666E+02  0.36716425461E+02  0.84169303528E+01  0.40659141465E+02  0.00000000000E+00 0.  1.
         11    1    4    4    0    0  0.11417096595E+02 -0.11307930573E+02  0.18650334529E+01  0.16177074475E+02  0.51100000000E-03 0. -1.
        -11    1    4    4    0    0 -0.87006420780E+00 -0.17909090500E+02  0.31940610693E+01  0.18212483649E+02  0.51100000000E-03 0.  1.
        -12    1    4    4    0    0  0.47573842784E+01 -0.74994043875E+01 -0.13476024875E+02  0.16139300411E+02  0.00000000000E+00 0.  1.
</event>
<event>
 8    1  0.7311878E-012  0.9118800E+02  0.7816164E-02  0.1184000E+00
        -11   -1    0    0    0    0  0.00000000000E+00  0.00000000000E+00  0.45593999997E+02  0.45594000000E+02  0.51100000000E-03 0. -1.
         11   -1    0    0    0    0 -0.00000000000E+00 -0.00000000000E+00 -0.45593999997E+02  0.45594000000E+02  0.51100000000E-03 0.  1.
         23    2    1    2    0    0 -0.17763568394E-14 -0.35527136788E-14  0.00000000000E+00  0.91188000000E+02  0.91188000000E+02 0.  0.
    9900012    2    3    3    0    0 -0.69999728443E+01 -0.22796262145E+02  0.32931735899E+02  0.50528826165E+02  0.29999897612E+02 0.  0.
        -12    1    3    3    0    0  0.69999728443E+01  0.22796262145E+02 -0.32931735899E+02  0.40659173835E+02  0.00000000000E+00 0.  1.
         11    1    4    4    0    0  0.17236674451E+01 -0.10762189619E+02  0.20155778966E+02  0.22913995305E+02  0.51100000000E-03 0. -1.
        -11    1    4    4    0    0  0.30107632853E+01  0.22227702370E+01  0.75467850496E+01  0.84237383585E+01  0.51100000000E-03 0.  1.
         12    1    4    4    0    0 -0.11734403575E+02 -0.14256842763E+02  0.52291718829E+01  0.19191092502E+02  0.00000000000E+00 0. -1.
</event>
<event>
 8    1  0.7311878E-012  0.9118800E+02  0.7816164E-02  0.1184000E+00
        -11   -1    0    0    0    0  0.00000000000E+00  0.00000000000E+00  0.45593999997E+02  0.45594000000E+02  0.51100000000E-03 0. -1.
         11   -1    0    0    0    0 -0.00000000000E+00 -0.00000000000E+00 -0.45593999997E+02  0.45594000000E+02  0.51100000000E-03 0.  1.
         23    2    1    2    0    0  0.35527136788E-14  0.44408920985E-15 -0.71054273576E-14  0.91188000000E+02  0.91188000000E+02 0.  0.
    9900012    2    3    3    0    0 -0.19272571444E+02 -0.26347546282E+01  0.35704369770E+02  0.50528733373E+02  0.29999615557E+02 0.  0.
        -12    1    3    3    0    0  0.19272571444E+02  0.26347546282E+01 -0.35704369770E+02  0.40659266627E+02  0.00000000000E+00 0.  1.
         11    1    4    4    0    0 -0.11874248141E+02 -0.10654751415E+01  0.97230555061E+01  0.15384109166E+02  0.51100000000E-03 0. -1.
        -11    1    4    4    0    0 -0.12585305299E+02 -0.52971594572E+01  0.74747009001E+01  0.15566661864E+02  0.51100000000E-03 0.  1.
        -12    1    4    4    0    0  0.51869819962E+01  0.37278799705E+01  0.18506613363E+02  0.19577962343E+02  0.00000000000E+00 0.  1.
</event>
<event>
 8    1  0.7311878E-012  0.9118800E+02  0.7816164E-02  0.1184000E+00
        -11   -1    0    0    0    0  0.00000000000E+00  0.00000000000E+00  0.45593999997E+02  0.45594000000E+02  0.51100000000E-03 0. -1.
         11   -1    0    0    0    0 -0.00000000000E+00 -0.00000000000E+00 -0.45593999997E+02  0.45594000000E+02  0.51100000000E-03 0.  1.
         23    2    1    2    0    0  0.00000000000E+00  0.00000000000E+00 -0.17763568394E-14  0.91188000000E+02  0.91188000000E+02 0.  0.
    9900012    2    3    3    0    0  0.74289429426E+01  0.37611756658E+02 -0.13540022005E+02  0.50528860461E+02  0.30000001858E+02 0.  0.
         12    1    3    3    0    0 -0.74289429426E+01 -0.37611756658E+02  0.13540022005E+02  0.40659139539E+02  0.00000000000E+00 0. -1.
         11    1    4    4    0    0 -0.63167156549E+00 -0.18862249790E+01  0.20481781420E+01  0.28551510644E+01  0.51100000000E-03 0. -1.
        -11    1    4    4    0    0  0.50154866109E+01 -0.13718295900E+00 -0.12148040872E+00  0.50188328184E+01  0.51100000000E-03 0.  1.
        -12    1    4    4    0    0  0.30451278972E+01  0.39635164596E+02 -0.15466719738E+02  0.42654876578E+02  0.00000000000E+00 0.  1.
</event>
<event>
 8    1  0.7311878E-012  0.9118800E+02  0.7816164E-02  0.1184000E+00
        -11   -1    0    0    0    0  0.00000000000E+00  0.00000000000E+00  0.45593999997E+02  0.45594000000E+02  0.51100000000E-03 0. -1.
         11   -1    0    0    0    0 -0.00000000000E+00 -0.00000000000E+00 -0.45593999997E+02  0.45594000000E+02  0.51100000000E-03 0.  1.
         23    2    1    2    0    0  0.00000000000E+00 -0.71054273576E-14  0.00000000000E+00  0.91188000000E+02  0.91188000000E+02 0.  0.
    9900012    2    3    3    0    0  0.51983390858E+01  0.39323758760E+02 -0.89322240052E+01  0.50528863783E+02  0.30000011954E+02 0.  0.
         12    1    3    3    0    0 -0.51983390858E+01 -0.39323758760E+02  0.89322240052E+01  0.40659136217E+02  0.00000000000E+00 0. -1.
         11    1    4    4    0    0 -0.20363226680E+01 -0.17042115470E+01 -0.13935004592E+01  0.29987982253E+01  0.51100000000E-03 0. -1.
        -11    1    4    4    0    0 -0.58155688730E+01  0.27590502628E+02 -0.45503572560E+01  0.28561555070E+02  0.51100000000E-03 0.  1.
         12    1    4    4    0    0  0.13050230627E+02  0.13437467679E+02 -0.29883662900E+01  0.18968510488E+02  0.00000000000E+00 0. -1.
</event>
<event>
 8    1  0.7311878E-012  0.9118800E+02  0.7816164E-02  0.1184000E+00
        -11   -1    0    0    0    0  0.00000000000E+00  0.00000000000E+00  0.45593999997E+02  0.45594000000E+02  0.51100000000E-03 0. -1.
         11   -1    0    0    0    0 -0.00000000000E+00 -0.00000000000E+00 -0.45593999997E+02  0.45594000000E+02  0.51100000000E-03 0.  1.
         23    2    1    2    0    0  0.88817841970E-15  0.00000000000E+00  0.14210854715E-13  0.91188000000E+02  0.91188000000E+02 0.  0.
    9900012    2    3    3    0    0  0.53141318022E+01 -0.14321348213E+02 -0.37680566342E+02  0.50528854764E+02  0.29999984542E+02 0.  0.
         12    1    3    3    0    0 -0.53141318022E+01  0.14321348213E+02  0.37680566342E+02  0.40659145236E+02  0.00000000000E+00 0. -1.
         11    1    4    4    0    0  0.94032535780E+01 -0.75258140446E+00 -0.42637057987E+01  0.10352137172E+02  0.51100000000E-03 0. -1.
        -11    1    4    4    0    0  0.12510511414E+01 -0.53856689984E+01 -0.28878089354E+02  0.29402629211E+02  0.51100000000E-03 0.  1.
         12    1    4    4    0    0 -0.53401729172E+01 -0.81830978098E+01 -0.45387711892E+01  0.10774088382E+02  0.00000000000E+00 0. -1.
</event>
<event>
 8    1  0.7311878E-012  0.9118800E+02  0.7816164E-02  0.1184000E+00
        -11   -1    0    0    0    0  0.00000000000E+00  0.00000000000E+00  0.45593999997E+02  0.45594000000E+02  0.51100000000E-03 0.  1.
         11   -1    0    0    0    0 -0.00000000000E+00 -0.00000000000E+00 -0.45593999997E+02  0.45594000000E+02  0.51100000000E-03 0. -1.
         23    2    1    2    0    0  0.35527136788E-14  0.00000000000E+00 -0.71054273576E-14  0.91188000000E+02  0.91188000000E+02 0.  0.
    9900012    2    3    3    0    0  0.21479504569E+02 -0.68339193038E+01 -0.33839243957E+02  0.50528855873E+02  0.29999987912E+02 0.  0.
         12    1    3    3    0    0 -0.21479504569E+02  0.68339193038E+01  0.33839243957E+02  0.40659144127E+02  0.00000000000E+00 0. -1.
         11    1    4    4    0    0 -0.33951011083E+01  0.53867381907E+00 -0.15291095335E+02  0.15672730388E+02  0.51100000000E-03 0. -1.
        -11    1    4    4    0    0  0.11885506390E+02 -0.10803457860E+02 -0.95465962633E+01  0.18684685289E+02  0.51100000000E-03 0.  1.
         12    1    4    4    0    0  0.12989099287E+02  0.34308647375E+01 -0.90015523584E+01  0.16171440196E+02  0.00000000000E+00 0. -1.
</event>
<event>
 8    1  0.7311878E-012  0.9118800E+02  0.7816164E-02  0.1184000E+00
        -11   -1    0    0    0    0  0.00000000000E+00  0.00000000000E+00  0.45593999997E+02  0.45594000000E+02  0.51100000000E-03 0.  1.
         11   -1    0    0    0    0 -0.00000000000E+00 -0.00000000000E+00 -0.45593999997E+02  0.45594000000E+02  0.51100000000E-03 0. -1.
         23    2    1    2    0    0  0.00000000000E+00  0.44408920985E-15 -0.35527136788E-14  0.91188000000E+02  0.91188000000E+02 0.  0.
    9900012    2    3    3    0    0  0.38154217709E+02  0.39537234797E+01  0.13482905082E+02  0.50528868334E+02  0.30000025789E+02 0.  0.
        -12    1    3    3    0    0 -0.38154217709E+02 -0.39537234797E+01 -0.13482905082E+02  0.40659131666E+02  0.00000000000E+00 0.  1.
         11    1    4    4    0    0  0.22789196596E+01 -0.29866691402E+01  0.20467813175E+01  0.42781983814E+01  0.51100000000E-03 0.  1.
        -11    1    4    4    0    0  0.38767796519E+02  0.71303842699E+01  0.14530217484E+02  0.42010851541E+02  0.51100000000E-03 0. -1.
         12    1    4    4    0    0 -0.28924984699E+01 -0.18999165010E+00 -0.30940937189E+01  0.42398184120E+01  0.00000000000E+00 0. -1.
</event>
<event>
 8    1  0.7311878E-012  0.9118800E+02  0.7816164E-02  0.1184000E+00
        -11   -1    0    0    0    0  0.00000000000E+00  0.00000000000E+00  0.45593999997E+02  0.45594000000E+02  0.51100000000E-03 0. -1.
         11   -1    0    0    0    0 -0.00000000000E+00 -0.00000000000E+00 -0.45593999997E+02  0.45594000000E+02  0.51100000000E-03 0.  1.
         23    2    1    2    0    0 -0.17763568394E-14  0.00000000000E+00  0.00000000000E+00  0.91188000000E+02  0.91188000000E+02 0.  0.
    9900012    2    3    3    0    0  0.95497853990E+01 -0.15481543909E+02  0.36363294381E+02  0.50528858578E+02  0.29999996133E+02 0.  0.
        -12    1    3    3    0    0 -0.95497853990E+01  0.15481543909E+02 -0.36363294381E+02  0.40659141422E+02  0.00000000000E+00 0.  1.
         11    1    4    4    0    0  0.63685207299E+00 -0.16280592178E+02  0.10862758320E+02  0.19582205718E+02  0.51100000000E-03 0. -1.
        -11    1    4    4    0    0  0.85499746424E+01 -0.61038682465E+01  0.13608792210E+02  0.17191814903E+02  0.51100000000E-03 0.  1.
         12    1    4    4    0    0  0.36295868360E+00  0.69029165153E+01  0.11891743850E+02  0.13754837957E+02  0.00000000000E+00 0. -1.
</event>
<event>
 8    1  0.7662006E-012  0.9118800E+02  0.7816164E-02  0.1184000E+00
        -11   -1    0    0    0    0  0.00000000000E+00  0.00000000000E+00  0.45593999997E+02  0.45594000000E+02  0.51100000000E-03 0. -1.
         11   -1    0    0    0    0 -0.00000000000E+00 -0.00000000000E+00 -0.45593999997E+02  0.45594000000E+02  0.51100000000E-03 0.  1.
         23    2    1    2    0    0  0.00000000000E+00  0.00000000000E+00 -0.35527136788E-14  0.91188000000E+02  0.91188000000E+02 0.  0.
    9900012    2    3    3    0    0  0.89053568058E+01  0.30303035233E+02 -0.25604421212E+02  0.50528859456E+02  0.29999998802E+02 0.  0.
         12    1    3    3    0    0 -0.89053568058E+01 -0.30303035233E+02  0.25604421212E+02  0.40659140544E+02  0.00000000000E+00 0. -1.
         11    1    4    4    0    0  0.11675468008E+02  0.63845211993E+01 -0.44652975500E+01  0.14036293906E+02  0.51100000000E-03 0. -1.
        -11    1    4    4    0    0  0.49943249457E+01  0.63860351389E+01 -0.13712489354E+02  0.15929754895E+02  0.51100000000E-03 0.  1.
         12    1    4    4    0    0 -0.77644361480E+01  0.17532478895E+02 -0.74266343084E+01  0.20562810655E+02  0.00000000000E+00 0. -1.
</event>
<event>
 8    1  0.7311878E-012  0.9118800E+02  0.7816164E-02  0.1184000E+00
        -11   -1    0    0    0    0  0.00000000000E+00  0.00000000000E+00  0.45593999997E+02  0.45594000000E+02  0.51100000000E-03 0.  1.
         11   -1    0    0    0    0 -0.00000000000E+00 -0.00000000000E+00 -0.45593999997E+02  0.45594000000E+02  0.51100000000E-03 0. -1.
         23    2    1    2    0    0 -0.17763568394E-14  0.00000000000E+00 -0.88817841970E-15  0.91188000000E+02  0.91188000000E+02 0.  0.
    9900012    2    3    3    0    0 -0.12078489059E+02  0.38341761201E+02 -0.60979491678E+01  0.50528861618E+02  0.30000005373E+02 0.  0.
         12    1    3    3    0    0  0.12078489059E+02 -0.38341761201E+02  0.60979491678E+01  0.40659138382E+02  0.00000000000E+00 0. -1.
         11    1    4    4    0    0 -0.51465525379E+01  0.16698637422E+02 -0.26522314818E+01  0.17673874133E+02  0.51100000000E-03 0. -1.
        -11    1    4    4    0    0  0.54352570202E+01  0.17264361470E+02 -0.67640724351E+01  0.19322341266E+02  0.51100000000E-03 0.  1.
        -12    1    4    4    0    0 -0.12367193541E+02  0.43787623096E+01  0.33183547491E+01  0.13532646219E+02  0.00000000000E+00 0.  1.
</event>
<event>
 8    1  0.7311878E-012  0.9118800E+02  0.7816164E-02  0.1184000E+00
        -11   -1    0    0    0    0  0.00000000000E+00  0.00000000000E+00  0.45593999997E+02  0.45594000000E+02  0.51100000000E-03 0. -1.
         11   -1    0    0    0    0 -0.00000000000E+00 -0.00000000000E+00 -0.45593999997E+02  0.45594000000E+02  0.51100000000E-03 0.  1.
         23    2    1    2    0    0 -0.35527136788E-14  0.35527136788E-14  0.35527136788E-14  0.91188000000E+02  0.91188000000E+02 0.  0.
    9900012    2    3    3    0    0 -0.26687334093E+02  0.26629233870E+02  0.15226186051E+02  0.50528848027E+02  0.29999964063E+02 0.  0.
        -12    1    3    3    0    0  0.26687334093E+02 -0.26629233870E+02 -0.15226186051E+02  0.40659151973E+02  0.00000000000E+00 0.  1.
         11    1    4    4    0    0 -0.36531031270E+01  0.49443675675E+01  0.81696137567E+01  0.10224212551E+02  0.51100000000E-03 0. -1.
        -11    1    4    4    0    0 -0.45846572717E+01  0.20301562190E+02  0.99863446962E+00  0.20836741125E+02  0.51100000000E-03 0.  1.
         12    1    4    4    0    0 -0.18449573694E+02  0.13833041132E+01  0.60579378248E+01  0.19467894351E+02  0.00000000000E+00 0. -1.
</event>
<event>
 8    1  0.7311878E-012  0.9118800E+02  0.7816164E-02  0.1184000E+00
        -11   -1    0    0    0    0  0.00000000000E+00  0.00000000000E+00  0.45593999997E+02  0.45594000000E+02  0.51100000000E-03 0. -1.
         11   -1    0    0    0    0 -0.00000000000E+00 -0.00000000000E+00 -0.45593999997E+02  0.45594000000E+02  0.51100000000E-03 0.  1.
         23    2    1    2    0    0  0.17763568394E-14  0.00000000000E+00 -0.35527136788E-14  0.91188000000E+02  0.91188000000E+02 0.  0.
    9900012    2    3    3    0    0  0.12951839728E+02 -0.28046602418E+02  0.26434886448E+02  0.50528864728E+02  0.30000014828E+02 0.  0.
        -12    1    3    3    0    0 -0.12951839728E+02  0.28046602418E+02 -0.26434886448E+02  0.40659135272E+02  0.00000000000E+00 0.  1.
         11    1    4    4    0    0  0.17976498039E+01 -0.59307834564E+01  0.11581020288E+02  0.13134906486E+02  0.51100000000E-03 0. -1.
        -11    1    4    4    0    0  0.11268768903E+02 -0.20550695453E+02  0.20743578911E+02  0.31298758801E+02  0.51100000000E-03 0.  1.
        -12    1    4    4    0    0 -0.11457897839E+00 -0.15651235091E+01 -0.58897127510E+01  0.60951994414E+01  0.00000000000E+00 0.  1.
</event>
<event>
 8    1  0.7311878E-012  0.9118800E+02  0.7816164E-02  0.1184000E+00
        -11   -1    0    0    0    0  0.00000000000E+00  0.00000000000E+00  0.45593999997E+02  0.45594000000E+02  0.51100000000E-03 0. -1.
         11   -1    0    0    0    0 -0.00000000000E+00 -0.00000000000E+00 -0.45593999997E+02  0.45594000000E+02  0.51100000000E-03 0.  1.
         23    2    1    2    0    0  0.00000000000E+00  0.00000000000E+00  0.00000000000E+00  0.91188000000E+02  0.91188000000E+02 0.  0.
    9900012    2    3    3    0    0  0.28684133930E+02 -0.17500970528E+02 -0.22893279825E+02  0.50528858717E+02  0.29999996556E+02 0.  0.
         12    1    3    3    0    0 -0.28684133930E+02  0.17500970528E+02  0.22893279825E+02  0.40659141283E+02  0.00000000000E+00 0. -1.
         11    1    4    4    0    0 -0.28797973464E+00 -0.30357847837E+01  0.32508020118E+01  0.44572004175E+01  0.51100000000E-03 0. -1.
        -11    1    4    4    0    0  0.15396531589E+01 -0.10655238460E+01 -0.12486103244E+02  0.12625713738E+02  0.51100000000E-03 0.  1.
         12    1    4    4    0    0  0.27432460506E+02 -0.13399661898E+02 -0.13657978593E+02  0.33445944562E+02  0.00000000000E+00 0. -1.
</event>
<event>
 8    1  0.7311878E-012  0.9118800E+02  0.7816164E-02  0.1184000E+00
        -11   -1    0    0    0    0  0.00000000000E+00  0.00000000000E+00  0.45593999997E+02  0.45594000000E+02  0.51100000000E-03 0. -1.
         11   -1    0    0    0    0 -0.00000000000E+00 -0.00000000000E+00 -0.45593999997E+02  0.45594000000E+02  0.51100000000E-03 0.  1.
         23    2    1    2    0    0 -0.17763568394E-14  0.00000000000E+00  0.00000000000E+00  0.91188000000E+02  0.91188000000E+02 0.  0.
    9900012    2    3    3    0    0 -0.20755260138E+01 -0.91068541928E+01 -0.39571750155E+02  0.50528855741E+02  0.29999987511E+02 0.  0.
         12    1    3    3    0    0  0.20755260138E+01  0.91068541928E+01  0.39571750155E+02  0.40659144259E+02  0.00000000000E+00 0. -1.
         11    1    4    4    0    0 -0.12018342550E+01 -0.95071141687E+01 -0.11607896117E+02  0.15052337955E+02  0.51100000000E-03 0. -1.
        -11    1    4    4    0    0 -0.10535909776E+02  0.33903032237E+01 -0.18863640160E+02  0.21870904670E+02  0.51100000000E-03 0.  1.
         12    1    4    4    0    0  0.96622180168E+01 -0.29900432478E+01 -0.91002138787E+01  0.13605613116E+02  0.00000000000E+00 0. -1.
</event>
<event>
 8    1  0.7311878E-012  0.9118800E+02  0.7816164E-02  0.1184000E+00
        -11   -1    0    0    0    0  0.00000000000E+00  0.00000000000E+00  0.45593999997E+02  0.45594000000E+02  0.51100000000E-03 0. -1.
         11   -1    0    0    0    0 -0.00000000000E+00 -0.00000000000E+00 -0.45593999997E+02  0.45594000000E+02  0.51100000000E-03 0.  1.
         23    2    1    2    0    0  0.00000000000E+00  0.00000000000E+00  0.00000000000E+00  0.91188000000E+02  0.91188000000E+02 0.  0.
    9900012    2    3    3    0    0  0.26907382645E+02  0.28819043912E+02 -0.99308912664E+01  0.50528841940E+02  0.29999945560E+02 0.  0.
         12    1    3    3    0    0 -0.26907382645E+02 -0.28819043912E+02  0.99308912664E+01  0.40659158060E+02  0.00000000000E+00 0. -1.
         11    1    4    4    0    0  0.87332287917E+01  0.69970392364E+01  0.14051940910E+01  0.11278404759E+02  0.51100000000E-03 0. -1.
        -11    1    4    4    0    0 -0.33669232074E+01  0.36851324492E+01  0.46904738106E+01  0.68495925340E+01  0.51100000000E-03 0.  1.
         12    1    4    4    0    0  0.21541077060E+02  0.18136872227E+02 -0.16026559168E+02  0.32400844647E+02  0.00000000000E+00 0. -1.
</event>
<event>
 8    1  0.7311878E-012  0.9118800E+02  0.7816164E-02  0.1184000E+00
        -11   -1    0    0    0    0  0.00000000000E+00  0.00000000000E+00  0.45593999997E+02  0.45594000000E+02  0.51100000000E-03 0.  1.
         11   -1    0    0    0    0 -0.00000000000E+00 -0.00000000000E+00 -0.45593999997E+02  0.45594000000E+02  0.51100000000E-03 0. -1.
         23    2    1    2    0    0 -0.35527136788E-14 -0.35527136788E-14  0.71054273576E-14  0.91188000000E+02  0.91188000000E+02 0.  0.
    9900012    2    3    3    0    0 -0.18282154600E+02 -0.23443853454E+02  0.27736505551E+02  0.50528865949E+02  0.30000018539E+02 0.  0.
        -12    1    3    3    0    0  0.18282154600E+02  0.23443853454E+02 -0.27736505551E+02  0.40659134051E+02  0.00000000000E+00 0.  1.
         11    1    4    4    0    0 -0.16953199894E+02 -0.12057401236E+02  0.12338750481E+02  0.24187531393E+02  0.51100000000E-03 0. -1.
        -11    1    4    4    0    0 -0.18194672483E+01  0.11390180567E+01 -0.32362860623E+01  0.38834740812E+01  0.51100000000E-03 0.  1.
         12    1    4    4    0    0  0.49051254236E+00 -0.12525470275E+02  0.18634041133E+02  0.22457860475E+02  0.00000000000E+00 0. -1.
</event>
<event>
 8    1  0.7311878E-012  0.9118800E+02  0.7816164E-02  0.1184000E+00
        -11   -1    0    0    0    0  0.00000000000E+00  0.00000000000E+00  0.45593999997E+02  0.45594000000E+02  0.51100000000E-03 0. -1.
         11   -1    0    0    0    0 -0.00000000000E+00 -0.00000000000E+00 -0.45593999997E+02  0.45594000000E+02  0.51100000000E-03 0.  1.
         23    2    1    2    0    0  0.88817841970E-15  0.17763568394E-14  0.00000000000E+00  0.91188000000E+02  0.91188000000E+02 0.  0.
    9900012    2    3    3    0    0  0.31127374326E+01 -0.12946850158E+02  0.38416919779E+02  0.50528809297E+02  0.29999846338E+02 0.  0.
        -12    1    3    3    0    0 -0.31127374326E+01  0.12946850158E+02 -0.38416919779E+02  0.40659190703E+02  0.00000000000E+00 0.  1.
         11    1    4    4    0    0  0.55647497728E+01 -0.35322466446E+01  0.58848563747E+01  0.88359912406E+01  0.51100000000E-03 0. -1.
        -11    1    4    4    0    0 -0.33913874434E+01 -0.14680487775E+02  0.33046352714E+02  0.36319136251E+02  0.51100000000E-03 0.  1.
        -12    1    4    4    0    0  0.93937510314E+00  0.52658842619E+01 -0.51428930938E+00  0.53736818047E+01  0.00000000000E+00 0.  1.
</event>
<event>
 8    1  0.7311878E-012  0.9118800E+02  0.7816164E-02  0.1184000E+00
        -11   -1    0    0    0    0  0.00000000000E+00  0.00000000000E+00  0.45593999997E+02  0.45594000000E+02  0.51100000000E-03 0. -1.
         11   -1    0    0    0    0 -0.00000000000E+00 -0.00000000000E+00 -0.45593999997E+02  0.45594000000E+02  0.51100000000E-03 0.  1.
         23    2    1    2    0    0  0.00000000000E+00  0.00000000000E+00  0.71054273576E-14  0.91188000000E+02  0.91188000000E+02 0.  0.
    9900012    2    3    3    0    0 -0.25740546031E+01 -0.95142793235E+01  0.39446388927E+02  0.50528869813E+02  0.30000030284E+02 0.  0.
        -12    1    3    3    0    0  0.25740546031E+01  0.95142793235E+01 -0.39446388927E+02  0.40659130187E+02  0.00000000000E+00 0.  1.
         11    1    4    4    0    0 -0.21390914069E+00 -0.11737382240E+02  0.69584009972E+01  0.13646656868E+02  0.51100000000E-03 0. -1.
        -11    1    4    4    0    0 -0.58250607770E+01  0.51626135529E+01  0.55399754423E+01  0.95538076134E+01  0.51100000000E-03 0.  1.
         12    1    4    4    0    0  0.34649153146E+01 -0.29395106362E+01  0.26948012488E+02  0.27328405332E+02  0.00000000000E+00 0. -1.
</event>
<event>
 8    1  0.7311878E-012  0.9118800E+02  0.7816164E-02  0.1184000E+00
        -11   -1    0    0    0    0  0.00000000000E+00  0.00000000000E+00  0.45593999997E+02  0.45594000000E+02  0.51100000000E-03 0. -1.
         11   -1    0    0    0    0 -0.00000000000E+00 -0.00000000000E+00 -0.45593999997E+02  0.45594000000E+02  0.51100000000E-03 0.  1.
         23    2    1    2    0    0  0.00000000000E+00 -0.35527136788E-14  0.00000000000E+00  0.91188000000E+02  0.91188000000E+02 0.  0.
    9900012    2    3    3    0    0 -0.23042953884E+02  0.19520322982E+02  0.27223991284E+02  0.50528850544E+02  0.29999971715E+02 0.  0.
        -12    1    3    3    0    0  0.23042953884E+02 -0.19520322982E+02 -0.27223991284E+02  0.40659149456E+02  0.00000000000E+00 0.  1.
         11    1    4    4    0    0 -0.11285996382E+02  0.74914966698E+00  0.12475400917E+02  0.16839553672E+02  0.51100000000E-03 0. -1.
        -11    1    4    4    0    0 -0.99123770272E+01  0.83109879300E+01 -0.27450546949E+01  0.13223579857E+02  0.51100000000E-03 0.  1.
         12    1    4    4    0    0 -0.18445804751E+01  0.10460185385E+02  0.17493645062E+02  0.20465717015E+02  0.00000000000E+00 0. -1.
</event>
<event>
 8    1  0.7311878E-012  0.9118800E+02  0.7816164E-02  0.1184000E+00
        -11   -1    0    0    0    0  0.00000000000E+00  0.00000000000E+00  0.45593999997E+02  0.45594000000E+02  0.51100000000E-03 0.  1.
         11   -1    0    0    0    0 -0.00000000000E+00 -0.00000000000E+00 -0.45593999997E+02  0.45594000000E+02  0.51100000000E-03 0. -1.
         23    2    1    2    0    0  0.35527136788E-14  0.00000000000E+00  0.15543122345E-14  0.91188000000E+02  0.91188000000E+02 0.  0.
    9900012    2    3    3    0    0  0.17542295877E+02  0.36657851055E+02  0.12790233020E+01  0.50528854790E+02  0.29999984621E+02 0.  0.
         12    1    3    3    0    0 -0.17542295877E+02 -0.36657851055E+02 -0.12790233020E+01  0.40659145210E+02  0.00000000000E+00 0. -1.
         11    1    4    4    0    0  0.63106398209E+01  0.69118470174E+01 -0.66277698627E+01  0.11468440947E+02  0.51100000000E-03 0. -1.
        -11    1    4    4    0    0 -0.56842466811E+00  0.13065899631E+02  0.12529933460E+02  0.18111876561E+02  0.51100000000E-03 0.  1.
         12    1    4    4    0    0  0.11800080724E+02  0.16680104406E+02 -0.46231402956E+01  0.20948537282E+02  0.00000000000E+00 0. -1.
</event>
<event>
 8    1  0.7311878E-012  0.9118800E+02  0.7816164E-02  0.1184000E+00
        -11   -1    0    0    0    0  0.00000000000E+00  0.00000000000E+00  0.45593999997E+02  0.45594000000E+02  0.51100000000E-03 0. -1.
         11   -1    0    0    0    0 -0.00000000000E+00 -0.00000000000E+00 -0.45593999997E+02  0.45594000000E+02  0.51100000000E-03 0.  1.
         23    2    1    2    0    0  0.35527136788E-14 -0.35527136788E-14 -0.17763568394E-14  0.91188000000E+02  0.91188000000E+02 0.  0.
    9900012    2    3    3    0    0  0.30333076322E+02  0.22346015048E+02 -0.15288091226E+02  0.50528860302E+02  0.30000001373E+02 0.  0.
         12    1    3    3    0    0 -0.30333076322E+02 -0.22346015048E+02  0.15288091226E+02  0.40659139698E+02  0.00000000000E+00 0. -1.
         11    1    4    4    0    0  0.99093271363E+01 -0.19810166112E+01 -0.18916893224E+01  0.10280937694E+02  0.51100000000E-03 0. -1.
        -11    1    4    4    0    0  0.62903852143E+01  0.16092673564E+02 -0.16161420035E+02  0.23658710582E+02  0.51100000000E-03 0.  1.
         12    1    4    4    0    0  0.14133363971E+02  0.82343580954E+01  0.27650181318E+01  0.16589212026E+02  0.00000000000E+00 0. -1.
</event>
<event>
 8    1  0.7311878E-012  0.9118800E+02  0.7816164E-02  0.1184000E+00
        -11   -1    0    0    0    0  0.00000000000E+00  0.00000000000E+00  0.45593999997E+02  0.45594000000E+02  0.51100000000E-03 0. -1.
         11   -1    0    0    0    0 -0.00000000000E+00 -0.00000000000E+00 -0.45593999997E+02  0.45594000000E+02  0.51100000000E-03 0.  1.
         23    2    1    2    0    0 -0.83266726847E-15  0.88817841970E-15  0.71054273576E-14  0.91188000000E+02  0.91188000000E+02 0.  0.
    9900012    2    3    3    0    0 -0.47990994365E+00 -0.77690429289E+01  0.39907100179E+02  0.50528868353E+02  0.30000025847E+02 0.  0.
        -12    1    3    3    0    0  0.47990994365E+00  0.77690429289E+01 -0.39907100179E+02  0.40659131647E+02  0.00000000000E+00 0.  1.
         11    1    4    4    0    0  0.39676521313E+01 -0.40204410240E+00  0.15986430900E+02  0.16476342922E+02  0.51100000000E-03 0. -1.
        -11    1    4    4    0    0 -0.12178331562E+02 -0.40329869993E+01  0.21921470692E+02  0.25399362617E+02  0.51100000000E-03 0.  1.
        -12    1    4    4    0    0  0.77307694866E+01 -0.33340118272E+01  0.19991985869E+01  0.86531628153E+01  0.00000000000E+00 0.  1.
</event>
<event>
 8    1  0.7311878E-012  0.9118800E+02  0.7816164E-02  0.1184000E+00
        -11   -1    0    0    0    0  0.00000000000E+00  0.00000000000E+00  0.45593999997E+02  0.45594000000E+02  0.51100000000E-03 0. -1.
         11   -1    0    0    0    0 -0.00000000000E+00 -0.00000000000E+00 -0.45593999997E+02  0.45594000000E+02  0.51100000000E-03 0.  1.
         23    2    1    2    0    0 -0.11102230246E-14  0.17763568394E-14  0.00000000000E+00  0.91188000000E+02  0.91188000000E+02 0.  0.
    9900012    2    3    3    0    0  0.89893474871E+00  0.13719610834E+02  0.38263951411E+02  0.50528858559E+02  0.29999996077E+02 0.  0.
        -12    1    3    3    0    0 -0.89893474871E+00 -0.13719610834E+02 -0.38263951411E+02  0.40659141441E+02  0.00000000000E+00 0.  1.
         11    1    4    4    0    0  0.83061905996E+00  0.10979899399E+02  0.72018339467E+01  0.13157299544E+02  0.51100000000E-03 0.  1.
        -11    1    4    4    0    0  0.76246819531E+01  0.75233955332E+01  0.22822705463E+02  0.25211369264E+02  0.51100000000E-03 0. -1.
         12    1    4    4    0    0 -0.75563662644E+01 -0.47836840978E+01  0.82394120010E+01  0.12160189751E+02  0.00000000000E+00 0. -1.
</event>
<event>
 8    1  0.7311878E-012  0.9118800E+02  0.7816164E-02  0.1184000E+00
        -11   -1    0    0    0    0  0.00000000000E+00  0.00000000000E+00  0.45593999997E+02  0.45594000000E+02  0.51100000000E-03 0. -1.
         11   -1    0    0    0    0 -0.00000000000E+00 -0.00000000000E+00 -0.45593999997E+02  0.45594000000E+02  0.51100000000E-03 0.  1.
         23    2    1    2    0    0  0.88817841970E-15  0.00000000000E+00  0.00000000000E+00  0.91188000000E+02  0.91188000000E+02 0.  0.
    9900012    2    3    3    0    0  0.70863094429E+01 -0.33197109357E+02 -0.22380829451E+02  0.50528863535E+02  0.30000011202E+02 0.  0.
         12    1    3    3    0    0 -0.70863094429E+01  0.33197109357E+02  0.22380829451E+02  0.40659136465E+02  0.00000000000E+00 0. -1.
         11    1    4    4    0    0 -0.47471075342E+01 -0.15223778628E+01 -0.10275124895E+02  0.11420632915E+02  0.51100000000E-03 0. -1.
        -11    1    4    4    0    0  0.23333450105E+01 -0.24201732851E+02 -0.11778627646E+02  0.27016743723E+02  0.51100000000E-03 0.  1.
         12    1    4    4    0    0  0.95000719666E+01 -0.74729986425E+01 -0.32707690990E+00  0.12091486897E+02  0.00000000000E+00 0. -1.
</event>
<event>
 8    1  0.7311878E-012  0.9118800E+02  0.7816164E-02  0.1184000E+00
        -11   -1    0    0    0    0  0.00000000000E+00  0.00000000000E+00  0.45593999997E+02  0.45594000000E+02  0.51100000000E-03 0. -1.
         11   -1    0    0    0    0 -0.00000000000E+00 -0.00000000000E+00 -0.45593999997E+02  0.45594000000E+02  0.51100000000E-03 0.  1.
         23    2    1    2    0    0  0.35527136788E-14 -0.44408920985E-15  0.00000000000E+00  0.91188000000E+02  0.91188000000E+02 0.  0.
    9900012    2    3    3    0    0  0.19392791398E+02 -0.14189390435E+01 -0.35708073080E+02  0.50528926851E+02  0.30000203656E+02 0.  0.
         12    1    3    3    0    0 -0.19392791398E+02  0.14189390435E+01  0.35708073080E+02  0.40659073149E+02  0.00000000000E+00 0. -1.
         11    1    4    4    0    0 -0.51223371848E+01 -0.62076960979E+01 -0.59904556443E+01  0.10032915238E+02  0.51100000000E-03 0. -1.
        -11    1    4    4    0    0  0.54918836566E+01 -0.37275548331E+01 -0.63869779540E+01  0.92113483692E+01  0.51100000000E-03 0.  1.
         12    1    4    4    0    0  0.19023244926E+02  0.85163118874E+01 -0.23330639482E+02  0.31284663244E+02  0.00000000000E+00 0. -1.
</event>
<event>
 8    1  0.7311878E-012  0.9118800E+02  0.7816164E-02  0.1184000E+00
        -11   -1    0    0    0    0  0.00000000000E+00  0.00000000000E+00  0.45593999997E+02  0.45594000000E+02  0.51100000000E-03 0. -1.
         11   -1    0    0    0    0 -0.00000000000E+00 -0.00000000000E+00 -0.45593999997E+02  0.45594000000E+02  0.51100000000E-03 0.  1.
         23    2    1    2    0    0  0.88817841970E-15  0.00000000000E+00 -0.88817841970E-15  0.91188000000E+02  0.91188000000E+02 0.  0.
    9900012    2    3    3    0    0  0.34400909951E+01 -0.40279277802E+02 -0.43486585597E+01  0.50528864771E+02  0.30000014957E+02 0.  0.
         12    1    3    3    0    0 -0.34400909951E+01  0.40279277802E+02  0.43486585597E+01  0.40659135229E+02  0.00000000000E+00 0. -1.
         11    1    4    4    0    0 -0.60986771837E+01 -0.20303000148E+02 -0.11076893223E+01  0.21228110003E+02  0.51100000000E-03 0. -1.
        -11    1    4    4    0    0  0.53108954843E+01 -0.21034774877E+02 -0.77424935110E+01  0.23035050922E+02  0.51100000000E-03 0.  1.
        -12    1    4    4    0    0  0.42278726945E+01  0.10584972227E+01  0.45015242736E+01  0.62657038453E+01  0.00000000000E+00 0.  1.
</event>
<event>
 8    1  0.1060368E-011  0.9118800E+02  0.7816164E-02  0.1184000E+00
        -11   -1    0    0    0    0  0.00000000000E+00  0.00000000000E+00  0.45593999997E+02  0.45594000000E+02  0.51100000000E-03 0. -1.
         11   -1    0    0    0    0 -0.00000000000E+00 -0.00000000000E+00 -0.45593999997E+02  0.45594000000E+02  0.51100000000E-03 0.  1.
         23    2    1    2    0    0  0.00000000000E+00  0.00000000000E+00  0.00000000000E+00  0.91188000000E+02  0.91188000000E+02 0.  0.
    9900012    2    3    3    0    0 -0.16243386951E+02 -0.16960030654E+02 -0.33191496034E+02  0.50528859965E+02  0.30000000350E+02 0.  0.
         12    1    3    3    0    0  0.16243386951E+02  0.16960030654E+02  0.33191496034E+02  0.40659140035E+02  0.00000000000E+00 0. -1.
         11    1    4    4    0    0  0.21930935668E+00 -0.31046131649E+01 -0.18351525211E+02  0.18613575620E+02  0.51100000000E-03 0. -1.
        -11    1    4    4    0    0 -0.12256087700E+02 -0.60388825334E+01 -0.17906604453E+02  0.22523904441E+02  0.51100000000E-03 0.  1.
         12    1    4    4    0    0 -0.42066086075E+01 -0.78165349553E+01  0.30666336308E+01  0.93913799045E+01  0.00000000000E+00 0. -1.
</event>
<event>
 8    1  0.7311878E-012  0.9118800E+02  0.7816164E-02  0.1184000E+00
        -11   -1    0    0    0    0  0.00000000000E+00  0.00000000000E+00  0.45593999997E+02  0.45594000000E+02  0.51100000000E-03 0. -1.
         11   -1    0    0    0    0 -0.00000000000E+00 -0.00000000000E+00 -0.45593999997E+02  0.45594000000E+02  0.51100000000E-03 0.  1.
         23    2    1    2    0    0  0.00000000000E+00  0.00000000000E+00  0.00000000000E+00  0.91188000000E+02  0.91188000000E+02 0.  0.
    9900012    2    3    3    0    0  0.24526059164E+02  0.26988406236E+02  0.17979459036E+02  0.50528897741E+02  0.30000115173E+02 0.  0.
        -12    1    3    3    0    0 -0.24526059164E+02 -0.26988406236E+02 -0.17979459036E+02  0.40659102259E+02  0.00000000000E+00 0.  1.
         11    1    4    4    0    0  0.33973117299E+01  0.15640356844E+02  0.18713518415E+02  0.24624342853E+02  0.51100000000E-03 0. -1.
        -11    1    4    4    0    0  0.38546146344E+01 -0.10639900811E+01  0.19782592429E+01  0.44613494333E+01  0.51100000000E-03 0.  1.
        -12    1    4    4    0    0  0.17274132800E+02  0.12412039473E+02 -0.27123186224E+01  0.21443205455E+02  0.00000000000E+00 0.  1.
</event>
<event>
 8    1  0.7311878E-012  0.9118800E+02  0.7816164E-02  0.1184000E+00
        -11   -1    0    0    0    0  0.00000000000E+00  0.00000000000E+00  0.45593999997E+02  0.45594000000E+02  0.51100000000E-03 0. -1.
         11   -1    0    0    0    0 -0.00000000000E+00 -0.00000000000E+00 -0.45593999997E+02  0.45594000000E+02  0.51100000000E-03 0.  1.
         23    2    1    2    0    0 -0.33306690739E-15  0.00000000000E+00  0.00000000000E+00  0.91188000000E+02  0.91188000000E+02 0.  0.
    9900012    2    3    3    0    0  0.72788445292E+00 -0.17941846943E+02 -0.36479119791E+02  0.50528857508E+02  0.29999992880E+02 0.  0.
         12    1    3    3    0    0 -0.72788445292E+00  0.17941846943E+02  0.36479119791E+02  0.40659142492E+02  0.00000000000E+00 0. -1.
         11    1    4    4    0    0 -0.37616970470E+01 -0.52331408522E+01 -0.19251293458E+02  0.20301439060E+02  0.51100000000E-03 0. -1.
        -11    1    4    4    0    0 -0.24238860351E+01 -0.15807608742E+02 -0.15870408954E+02  0.22530548113E+02  0.51100000000E-03 0.  1.
        -12    1    4    4    0    0  0.69134675350E+01  0.30989026513E+01 -0.13574173785E+01  0.76968703341E+01  0.00000000000E+00 0.  1.
</event>
<event>
 8    1  0.7311878E-012  0.9118800E+02  0.7816164E-02  0.1184000E+00
        -11   -1    0    0    0    0  0.00000000000E+00  0.00000000000E+00  0.45593999997E+02  0.45594000000E+02  0.51100000000E-03 0. -1.
         11   -1    0    0    0    0 -0.00000000000E+00 -0.00000000000E+00 -0.45593999997E+02  0.45594000000E+02  0.51100000000E-03 0.  1.
         23    2    1    2    0    0  0.00000000000E+00  0.71054273576E-14  0.00000000000E+00  0.91188000000E+02  0.91188000000E+02 0.  0.
    9900012    2    3    3    0    0 -0.22224873635E+02  0.32928851135E+02 -0.86551726786E+01  0.50528852699E+02  0.29999978264E+02 0.  0.
         12    1    3    3    0    0  0.22224873635E+02 -0.32928851135E+02  0.86551726786E+01  0.40659147301E+02  0.00000000000E+00 0. -1.
         11    1    4    4    0    0  0.32333874685E+01  0.26888358003E+01 -0.49609476868E+01  0.65035094137E+01  0.51100000000E-03 0. -1.
        -11    1    4    4    0    0 -0.91697971503E+01  0.45413939812E+01 -0.83984596002E+01  0.13237959170E+02  0.51100000000E-03 0.  1.
         12    1    4    4    0    0 -0.16288463953E+02  0.25698621354E+02  0.47042346084E+01  0.30787384115E+02  0.00000000000E+00 0. -1.
</event>
<event>
 8    1  0.7311878E-012  0.9118800E+02  0.7816164E-02  0.1184000E+00
        -11   -1    0    0    0    0  0.00000000000E+00  0.00000000000E+00  0.45593999997E+02  0.45594000000E+02  0.51100000000E-03 0. -1.
         11   -1    0    0    0    0 -0.00000000000E+00 -0.00000000000E+00 -0.45593999997E+02  0.45594000000E+02  0.51100000000E-03 0.  1.
         23    2    1    2    0    0  0.13322676296E-14 -0.35527136788E-14 -0.71054273576E-14  0.91188000000E+02  0.91188000000E+02 0.  0.
    9900012    2    3    3    0    0 -0.17555685270E+01 -0.15661081892E+02 -0.37480829763E+02  0.50528879170E+02  0.30000058726E+02 0.  0.
         12    1    3    3    0    0  0.17555685270E+01  0.15661081892E+02  0.37480829763E+02  0.40659120830E+02  0.00000000000E+00 0. -1.
         11    1    4    4    0    0  0.87660763462E+01 -0.61287478350E+01 -0.51975480464E+01  0.11892020454E+02  0.51100000000E-03 0. -1.
        -11    1    4    4    0    0 -0.20425975328E+01  0.30086528528E+01 -0.82984347236E+00  0.37299915710E+01  0.51100000000E-03 0.  1.
        -12    1    4    4    0    0 -0.84790473404E+01 -0.12540986910E+02 -0.31453438244E+02  0.34906867145E+02  0.00000000000E+00 0.  1.
</event>
<event>
 8    1  0.7311878E-012  0.9118800E+02  0.7816164E-02  0.1184000E+00
        -11   -1    0    0    0    0  0.00000000000E+00  0.00000000000E+00  0.45593999997E+02  0.45594000000E+02  0.51100000000E-03 0.  1.
         11   -1    0    0    0    0 -0.00000000000E+00 -0.00000000000E+00 -0.45593999997E+02  0.45594000000E+02  0.51100000000E-03 0. -1.
         23    2    1    2    0    0  0.00000000000E+00  0.00000000000E+00 -0.88817841970E-15  0.91188000000E+02  0.91188000000E+02 0.  0.
    9900012    2    3    3    0    0  0.19758416330E+02 -0.35526750749E+02  0.78773679870E+00  0.50528861250E+02  0.30000004256E+02 0.  0.
        -12    1    3    3    0    0 -0.19758416330E+02  0.35526750749E+02 -0.78773679870E+00  0.40659138750E+02  0.00000000000E+00 0.  1.
         11    1    4    4    0    0  0.14564007985E+02 -0.58424824525E+01 -0.52515432230E+01  0.16547617239E+02  0.51100000000E-03 0. -1.
        -11    1    4    4    0    0  0.10078104099E+01 -0.13985169907E+02 -0.43681151122E+01  0.14686084878E+02  0.51100000000E-03 0.  1.
         12    1    4    4    0    0  0.41865979349E+01 -0.15699098389E+02  0.10407395134E+02  0.19295159133E+02  0.00000000000E+00 0. -1.
</event>
<event>
 8    1  0.7311878E-012  0.9118800E+02  0.7816164E-02  0.1184000E+00
        -11   -1    0    0    0    0  0.00000000000E+00  0.00000000000E+00  0.45593999997E+02  0.45594000000E+02  0.51100000000E-03 0. -1.
         11   -1    0    0    0    0 -0.00000000000E+00 -0.00000000000E+00 -0.45593999997E+02  0.45594000000E+02  0.51100000000E-03 0.  1.
         23    2    1    2    0    0  0.35527136788E-14  0.00000000000E+00  0.00000000000E+00  0.91188000000E+02  0.91188000000E+02 0.  0.
    9900012    2    3    3    0    0 -0.27994287181E+02 -0.54033429456E+01 -0.28987759935E+02  0.50528850282E+02  0.29999970916E+02 0.  0.
         12    1    3    3    0    0  0.27994287181E+02  0.54033429456E+01  0.28987759935E+02  0.40659149718E+02  0.00000000000E+00 0. -1.
         11    1    4    4    0    0  0.17894493067E+01  0.25561267226E+01  0.72825205141E+00  0.32041011149E+01  0.51100000000E-03 0. -1.
        -11    1    4    4    0    0 -0.24392258981E+02 -0.98029613108E+01 -0.12344261768E+02  0.29042402579E+02  0.51100000000E-03 0.  1.
         12    1    4    4    0    0 -0.53914775069E+01  0.18434916427E+01 -0.17371750218E+02  0.18282346588E+02  0.00000000000E+00 0. -1.
</event>
<event>
 8    1  0.7311878E-012  0.9118800E+02  0.7816164E-02  0.1184000E+00
        -11   -1    0    0    0    0  0.00000000000E+00  0.00000000000E+00  0.45593999997E+02  0.45594000000E+02  0.51100000000E-03 0. -1.
         11   -1    0    0    0    0 -0.00000000000E+00 -0.00000000000E+00 -0.45593999997E+02  0.45594000000E+02  0.51100000000E-03 0.  1.
         23    2    1    2    0    0 -0.71054273576E-14  0.35527136788E-14  0.00000000000E+00  0.91188000000E+02  0.91188000000E+02 0.  0.
    9900012    2    3    3    0    0  0.30232448136E+02 -0.22375022040E+02 -0.15444202708E+02  0.50528856761E+02  0.29999990612E+02 0.  0.
         12    1    3    3    0    0 -0.30232448136E+02  0.22375022040E+02  0.15444202708E+02  0.40659143239E+02  0.00000000000E+00 0. -1.
         11    1    4    4    0    0  0.41340956756E+01 -0.12657483450E+01 -0.12542496119E+02  0.13266765811E+02  0.51100000000E-03 0. -1.
        -11    1    4    4    0    0  0.22108127548E+02 -0.83983625260E+01 -0.35965624777E+01  0.23921476935E+02  0.51100000000E-03 0.  1.
         12    1    4    4    0    0  0.39902249123E+01 -0.12710911169E+02  0.69485588881E+00  0.13340614016E+02  0.00000000000E+00 0. -1.
</event>
<event>
 8    1  0.7311878E-012  0.9118800E+02  0.7816164E-02  0.1184000E+00
        -11   -1    0    0    0    0  0.00000000000E+00  0.00000000000E+00  0.45593999997E+02  0.45594000000E+02  0.51100000000E-03 0. -1.
         11   -1    0    0    0    0 -0.00000000000E+00 -0.00000000000E+00 -0.45593999997E+02  0.45594000000E+02  0.51100000000E-03 0.  1.
         23    2    1    2    0    0  0.71054273576E-14  0.00000000000E+00 -0.35527136788E-14  0.91188000000E+02  0.91188000000E+02 0.  0.
    9900012    2    3    3    0    0 -0.33077626123E+02 -0.92722067788E+01  0.21750002247E+02  0.50528858762E+02  0.29999996692E+02 0.  0.
        -12    1    3    3    0    0  0.33077626123E+02  0.92722067788E+01 -0.21750002247E+02  0.40659141238E+02  0.00000000000E+00 0.  1.
         11    1    4    4    0    0 -0.62874333868E+01 -0.17737461082E+01  0.10278910473E+02  0.12179244420E+02  0.51100000000E-03 0. -1.
        -11    1    4    4    0    0 -0.52069682047E+01  0.82312471271E+01  0.15657310328E+01  0.98649612812E+01  0.51100000000E-03 0.  1.
        -12    1    4    4    0    0 -0.21583224531E+02 -0.15729707798E+02  0.99053607412E+01  0.28484653061E+02  0.00000000000E+00 0.  1.
</event>
<event>
 8    1  0.7311878E-012  0.9118800E+02  0.7816164E-02  0.1184000E+00
        -11   -1    0    0    0    0  0.00000000000E+00  0.00000000000E+00  0.45593999997E+02  0.45594000000E+02  0.51100000000E-03 0. -1.
         11   -1    0    0    0    0 -0.00000000000E+00 -0.00000000000E+00 -0.45593999997E+02  0.45594000000E+02  0.51100000000E-03 0.  1.
         23    2    1    2    0    0  0.00000000000E+00  0.00000000000E+00  0.00000000000E+00  0.91188000000E+02  0.91188000000E+02 0.  0.
    9900012    2    3    3    0    0 -0.63839581735E+01 -0.34300393084E+02  0.20878068231E+02  0.50528860551E+02  0.30000002130E+02 0.  0.
        -12    1    3    3    0    0  0.63839581735E+01  0.34300393084E+02 -0.20878068231E+02  0.40659139449E+02  0.00000000000E+00 0.  1.
         11    1    4    4    0    0 -0.26500129274E+01 -0.19535974253E+02 -0.33907190317E+00  0.19717804861E+02  0.51100000000E-03 0. -1.
        -11    1    4    4    0    0 -0.89516325088E+00  0.36191517423E+01  0.31720836777E+01  0.48950680995E+01  0.51100000000E-03 0.  1.
         12    1    4    4    0    0 -0.28387819952E+01 -0.18383570573E+02  0.18045056457E+02  0.25915987590E+02  0.00000000000E+00 0. -1.
</event>
<event>
 8    1  0.7311878E-012  0.9118800E+02  0.7816164E-02  0.1184000E+00
        -11   -1    0    0    0    0  0.00000000000E+00  0.00000000000E+00  0.45593999997E+02  0.45594000000E+02  0.51100000000E-03 0. -1.
         11   -1    0    0    0    0 -0.00000000000E+00 -0.00000000000E+00 -0.45593999997E+02  0.45594000000E+02  0.51100000000E-03 0.  1.
         23    2    1    2    0    0  0.00000000000E+00  0.71054273576E-14  0.00000000000E+00  0.91188000000E+02  0.91188000000E+02 0.  0.
    9900012    2    3    3    0    0  0.23248619060E+02  0.32419332759E+02  0.78520976042E+01  0.50528845292E+02  0.29999955751E+02 0.  0.
        -12    1    3    3    0    0 -0.23248619060E+02 -0.32419332759E+02 -0.78520976042E+01  0.40659154708E+02  0.00000000000E+00 0.  1.
         11    1    4    4    0    0  0.73128128393E+01  0.13406525588E+02  0.99658391660E+01  0.18235408153E+02  0.51100000000E-03 0. -1.
        -11    1    4    4    0    0  0.16939278416E+02  0.75620920458E+01  0.44224231688E+01  0.19070454014E+02  0.51100000000E-03 0.  1.
        -12    1    4    4    0    0 -0.10034721957E+01  0.11450715126E+02 -0.65361647305E+01  0.13222983125E+02  0.00000000000E+00 0.  1.
</event>
<event>
 8    1  0.7311878E-012  0.9118800E+02  0.7816164E-02  0.1184000E+00
        -11   -1    0    0    0    0  0.00000000000E+00  0.00000000000E+00  0.45593999997E+02  0.45594000000E+02  0.51100000000E-03 0. -1.
         11   -1    0    0    0    0 -0.00000000000E+00 -0.00000000000E+00 -0.45593999997E+02  0.45594000000E+02  0.51100000000E-03 0.  1.
         23    2    1    2    0    0 -0.17763568394E-14 -0.35527136788E-14  0.35527136788E-14  0.91188000000E+02  0.91188000000E+02 0.  0.
    9900012    2    3    3    0    0 -0.15091286371E+02 -0.31961711437E+02  0.20096463049E+02  0.50528858969E+02  0.29999997322E+02 0.  0.
        -12    1    3    3    0    0  0.15091286371E+02  0.31961711437E+02 -0.20096463049E+02  0.40659141031E+02  0.00000000000E+00 0.  1.
         11    1    4    4    0    0  0.65677912357E+01 -0.14342300936E+02  0.46140493912E+01  0.16435538625E+02  0.51100000000E-03 0. -1.
        -11    1    4    4    0    0 -0.20836124122E+01  0.51207377833E+00 -0.13596285666E+01  0.25401280163E+01  0.51100000000E-03 0.  1.
        -12    1    4    4    0    0 -0.19575465195E+02 -0.18131484279E+02  0.16842042224E+02  0.31553192327E+02  0.00000000000E+00 0.  1.
</event>
<event>
 8    1  0.7311878E-012  0.9118800E+02  0.7816164E-02  0.1184000E+00
        -11   -1    0    0    0    0  0.00000000000E+00  0.00000000000E+00  0.45593999997E+02  0.45594000000E+02  0.51100000000E-03 0. -1.
         11   -1    0    0    0    0 -0.00000000000E+00 -0.00000000000E+00 -0.45593999997E+02  0.45594000000E+02  0.51100000000E-03 0.  1.
         23    2    1    2    0    0 -0.35527136788E-14  0.17763568394E-14  0.00000000000E+00  0.91188000000E+02  0.91188000000E+02 0.  0.
    9900012    2    3    3    0    0 -0.26813103506E+02 -0.12289852773E+02 -0.27985401468E+02  0.50528859624E+02  0.29999999313E+02 0.  0.
         12    1    3    3    0    0  0.26813103506E+02  0.12289852773E+02  0.27985401468E+02  0.40659140376E+02  0.00000000000E+00 0. -1.
         11    1    4    4    0    0 -0.38297659956E+01  0.20944092855E+01  0.26955299676E+01  0.51302572941E+01  0.51100000000E-03 0. -1.
        -11    1    4    4    0    0 -0.18219388967E+02 -0.12329992693E+02 -0.10160347185E+02  0.24232364914E+02  0.51100000000E-03 0.  1.
        -12    1    4    4    0    0 -0.47639485433E+01 -0.20542693647E+01 -0.20520584251E+02  0.21166237416E+02  0.00000000000E+00 0.  1.
</event>
<event>
 8    1  0.7311878E-012  0.9118800E+02  0.7816164E-02  0.1184000E+00
        -11   -1    0    0    0    0  0.00000000000E+00  0.00000000000E+00  0.45593999997E+02  0.45594000000E+02  0.51100000000E-03 0. -1.
         11   -1    0    0    0    0 -0.00000000000E+00 -0.00000000000E+00 -0.45593999997E+02  0.45594000000E+02  0.51100000000E-03 0.  1.
         23    2    1    2    0    0 -0.71054273576E-14 -0.27755575616E-16  0.00000000000E+00  0.91188000000E+02  0.91188000000E+02 0.  0.
    9900012    2    3    3    0    0  0.38404324607E+02 -0.16492136224E+00  0.13350915378E+02  0.50528852333E+02  0.29999977152E+02 0.  0.
        -12    1    3    3    0    0 -0.38404324607E+02  0.16492136224E+00 -0.13350915378E+02  0.40659147667E+02  0.00000000000E+00 0.  1.
         11    1    4    4    0    0  0.16712951651E+01 -0.28281079404E+01  0.79022273431E+00  0.33787385638E+01  0.51100000000E-03 0. -1.
        -11    1    4    4    0    0  0.39612206459E+02  0.14198113207E+01  0.62828446800E+01  0.40132491852E+02  0.51100000000E-03 0.  1.
        -12    1    4    4    0    0 -0.28791770169E+01  0.12433752574E+01  0.62778479633E+01  0.70176219175E+01  0.00000000000E+00 0.  1.
</event>
<event>
 8    1  0.7311878E-012  0.9118800E+02  0.7816164E-02  0.1184000E+00
        -11   -1    0    0    0    0  0.00000000000E+00  0.00000000000E+00  0.45593999997E+02  0.45594000000E+02  0.51100000000E-03 0. -1.
         11   -1    0    0    0    0 -0.00000000000E+00 -0.00000000000E+00 -0.45593999997E+02  0.45594000000E+02  0.51100000000E-03 0.  1.
         23    2    1    2    0    0  0.71054273576E-14  0.00000000000E+00  0.17763568394E-14  0.91188000000E+02  0.91188000000E+02 0.  0.
    9900012    2    3    3    0    0  0.28021534929E+02 -0.24907325358E+02  0.15734810886E+02  0.50528861422E+02  0.30000004777E+02 0.  0.
        -12    1    3    3    0    0 -0.28021534929E+02  0.24907325358E+02 -0.15734810886E+02  0.40659138578E+02  0.00000000000E+00 0.  1.
         11    1    4    4    0    0  0.19369350947E+02 -0.15014194644E+02  0.35051916005E+01  0.24756497437E+02  0.51100000000E-03 0. -1.
        -11    1    4    4    0    0  0.10377554066E+02  0.17690581267E+01  0.34674091714E+01  0.11083596964E+02  0.51100000000E-03 0.  1.
        -12    1    4    4    0    0 -0.17253700838E+01 -0.11662188841E+02  0.87622101145E+01  0.14688767020E+02  0.00000000000E+00 0.  1.
</event>
<event>
 8    1  0.7311878E-012  0.9118800E+02  0.7816164E-02  0.1184000E+00
        -11   -1    0    0    0    0  0.00000000000E+00  0.00000000000E+00  0.45593999997E+02  0.45594000000E+02  0.51100000000E-03 0. -1.
         11   -1    0    0    0    0 -0.00000000000E+00 -0.00000000000E+00 -0.45593999997E+02  0.45594000000E+02  0.51100000000E-03 0.  1.
         23    2    1    2    0    0  0.00000000000E+00 -0.17763568394E-14  0.00000000000E+00  0.91188000000E+02  0.91188000000E+02 0.  0.
    9900012    2    3    3    0    0  0.16687821836E+02 -0.10774557398E+02 -0.35476628478E+02  0.50528860155E+02  0.30000000928E+02 0.  0.
         12    1    3    3    0    0 -0.16687821836E+02  0.10774557398E+02  0.35476628478E+02  0.40659139845E+02  0.00000000000E+00 0. -1.
         11    1    4    4    0    0 -0.32965967772E+01  0.13757633972E+01  0.36511977560E+00  0.35907642568E+01  0.51100000000E-03 0. -1.
        -11    1    4    4    0    0  0.12738074938E+02  0.31022106633E+01 -0.19037910786E+02  0.23115456117E+02  0.51100000000E-03 0.  1.
        -12    1    4    4    0    0  0.72463436749E+01 -0.15252531458E+02 -0.16803837468E+02  0.23822639782E+02  0.00000000000E+00 0.  1.
</event>
<event>
 8    1  0.7311878E-012  0.9118800E+02  0.7816164E-02  0.1184000E+00
        -11   -1    0    0    0    0  0.00000000000E+00  0.00000000000E+00  0.45593999997E+02  0.45594000000E+02  0.51100000000E-03 0. -1.
         11   -1    0    0    0    0 -0.00000000000E+00 -0.00000000000E+00 -0.45593999997E+02  0.45594000000E+02  0.51100000000E-03 0.  1.
         23    2    1    2    0    0  0.11102230246E-15  0.00000000000E+00  0.00000000000E+00  0.91188000000E+02  0.91188000000E+02 0.  0.
    9900012    2    3    3    0    0 -0.13892235666E+00  0.12096451936E+02 -0.38817837186E+02  0.50528832120E+02  0.29999915713E+02 0.  0.
         12    1    3    3    0    0  0.13892235666E+00 -0.12096451936E+02  0.38817837186E+02  0.40659167880E+02  0.00000000000E+00 0. -1.
         11    1    4    4    0    0 -0.21666243490E+01 -0.42914564708E+01 -0.49929735541E+01  0.69311359014E+01  0.51100000000E-03 0. -1.
        -11    1    4    4    0    0  0.88480050268E+01 -0.47097060727E+00 -0.15010615866E+02  0.17430651026E+02  0.51100000000E-03 0.  1.
         12    1    4    4    0    0 -0.68203030346E+01  0.16858879014E+02 -0.18814247766E+02  0.26167045192E+02  0.00000000000E+00 0. -1.
</event>
<event>
 8    1  0.7311878E-012  0.9118800E+02  0.7816164E-02  0.1184000E+00
        -11   -1    0    0    0    0  0.00000000000E+00  0.00000000000E+00  0.45593999997E+02  0.45594000000E+02  0.51100000000E-03 0. -1.
         11   -1    0    0    0    0 -0.00000000000E+00 -0.00000000000E+00 -0.45593999997E+02  0.45594000000E+02  0.51100000000E-03 0.  1.
         23    2    1    2    0    0  0.69388939039E-15  0.18041124150E-15  0.71054273576E-14  0.91188000000E+02  0.91188000000E+02 0.  0.
    9900012    2    3    3    0    0 -0.85270117346E-01 -0.12465476049E+00 -0.40658836741E+02  0.50528882758E+02  0.30000069631E+02 0.  0.
         12    1    3    3    0    0  0.85270117346E-01  0.12465476049E+00  0.40658836741E+02  0.40659117242E+02  0.00000000000E+00 0. -1.
         11    1    4    4    0    0  0.53908859915E+00 -0.10579509962E+01 -0.71495317726E+01  0.72474603591E+01  0.51100000000E-03 0. -1.
        -11    1    4    4    0    0  0.10349988360E+02 -0.62543248134E+01 -0.24635181906E+02  0.27443232785E+02  0.51100000000E-03 0.  1.
         12    1    4    4    0    0 -0.10974347077E+02  0.71876210491E+01 -0.88741230624E+01  0.15838189613E+02  0.00000000000E+00 0. -1.
</event>
<event>
 8    1  0.7311878E-012  0.9118800E+02  0.7816164E-02  0.1184000E+00
        -11   -1    0    0    0    0  0.00000000000E+00  0.00000000000E+00  0.45593999997E+02  0.45594000000E+02  0.51100000000E-03 0.  1.
         11   -1    0    0    0    0 -0.00000000000E+00 -0.00000000000E+00 -0.45593999997E+02  0.45594000000E+02  0.51100000000E-03 0. -1.
         23    2    1    2    0    0  0.71054273576E-14  0.17763568394E-14 -0.17763568394E-14  0.91188000000E+02  0.91188000000E+02 0.  0.
    9900012    2    3    3    0    0  0.36871259017E+02  0.11976491587E+02 -0.12257241244E+02  0.50528855209E+02  0.29999985893E+02 0.  0.
         12    1    3    3    0    0 -0.36871259017E+02 -0.11976491587E+02  0.12257241244E+02  0.40659144791E+02  0.00000000000E+00 0. -1.
         11    1    4    4    0    0  0.14021832617E+02  0.11654236799E+01 -0.15262253893E+02  0.20758285008E+02  0.51100000000E-03 0. -1.
        -11    1    4    4    0    0  0.11736666526E+02  0.92760354834E+01 -0.52371416725E+01  0.15849978820E+02  0.51100000000E-03 0.  1.
        -12    1    4    4    0    0  0.11112759873E+02  0.15350324237E+01  0.82421543214E+01  0.13920591381E+02  0.00000000000E+00 0.  1.
</event>
<event>
 8    1  0.7311878E-012  0.9118800E+02  0.7816164E-02  0.1184000E+00
        -11   -1    0    0    0    0  0.00000000000E+00  0.00000000000E+00  0.45593999997E+02  0.45594000000E+02  0.51100000000E-03 0. -1.
         11   -1    0    0    0    0 -0.00000000000E+00 -0.00000000000E+00 -0.45593999997E+02  0.45594000000E+02  0.51100000000E-03 0.  1.
         23    2    1    2    0    0  0.17763568394E-14  0.71054273576E-14  0.35527136788E-14  0.91188000000E+02  0.91188000000E+02 0.  0.
    9900012    2    3    3    0    0  0.12577794238E+02 -0.32638007700E+02 -0.20729813258E+02  0.50528860655E+02  0.30000002447E+02 0.  0.
         12    1    3    3    0    0 -0.12577794238E+02  0.32638007700E+02  0.20729813258E+02  0.40659139345E+02  0.00000000000E+00 0. -1.
         11    1    4    4    0    0  0.27031853895E+01  0.36713877181E+01 -0.20752921908E+01  0.50093050381E+01  0.51100000000E-03 0. -1.
        -11    1    4    4    0    0  0.67993310249E+01 -0.35905111112E+01 -0.76923497734E+01  0.10876346709E+02  0.51100000000E-03 0.  1.
        -12    1    4    4    0    0  0.30752778238E+01 -0.32718884307E+02 -0.10962171294E+02  0.34643208908E+02  0.00000000000E+00 0.  1.
</event>
<event>
 8    1  0.7311878E-012  0.9118800E+02  0.7816164E-02  0.1184000E+00
        -11   -1    0    0    0    0  0.00000000000E+00  0.00000000000E+00  0.45593999997E+02  0.45594000000E+02  0.51100000000E-03 0. -1.
         11   -1    0    0    0    0 -0.00000000000E+00 -0.00000000000E+00 -0.45593999997E+02  0.45594000000E+02  0.51100000000E-03 0.  1.
         23    2    1    2    0    0  0.00000000000E+00  0.00000000000E+00  0.00000000000E+00  0.91188000000E+02  0.91188000000E+02 0.  0.
    9900012    2    3    3    0    0 -0.61773198438E+01  0.25426570732E+02  0.31120688971E+02  0.50528842831E+02  0.29999948269E+02 0.  0.
        -12    1    3    3    0    0  0.61773198438E+01 -0.25426570732E+02 -0.31120688971E+02  0.40659157169E+02  0.00000000000E+00 0.  1.
         11    1    4    4    0    0 -0.63684140967E+01  0.22675624448E+02  0.10682974943E+02  0.25862455338E+02  0.51100000000E-03 0. -1.
        -11    1    4    4    0    0 -0.58581979337E+01  0.36930863745E+01  0.14816380024E+02  0.16354891845E+02  0.51100000000E-03 0.  1.
        -12    1    4    4    0    0  0.60492921865E+01 -0.94214009062E+00  0.56213340038E+01  0.83114956470E+01  0.00000000000E+00 0.  1.
</event>
<event>
 8    1  0.7311878E-012  0.9118800E+02  0.7816164E-02  0.1184000E+00
        -11   -1    0    0    0    0  0.00000000000E+00  0.00000000000E+00  0.45593999997E+02  0.45594000000E+02  0.51100000000E-03 0. -1.
         11   -1    0    0    0    0 -0.00000000000E+00 -0.00000000000E+00 -0.45593999997E+02  0.45594000000E+02  0.51100000000E-03 0.  1.
         23    2    1    2    0    0  0.00000000000E+00 -0.17763568394E-14 -0.71054273576E-14  0.91188000000E+02  0.91188000000E+02 0.  0.
    9900012    2    3    3    0    0 -0.29480812422E+02  0.13487429258E+02  0.24538479426E+02  0.50528855621E+02  0.29999987147E+02 0.  0.
        -12    1    3    3    0    0  0.29480812422E+02 -0.13487429258E+02 -0.24538479426E+02  0.40659144379E+02  0.00000000000E+00 0.  1.
         11    1    4    4    0    0 -0.30061680077E+01 -0.28170551942E+01  0.11889373230E+02  0.12582926612E+02  0.51100000000E-03 0. -1.
        -11    1    4    4    0    0 -0.21994804395E+02  0.71781650911E+01  0.14918409438E+02  0.27529192049E+02  0.51100000000E-03 0.  1.
        -12    1    4    4    0    0 -0.44798400199E+01  0.91263193613E+01 -0.22693032432E+01  0.10416736960E+02  0.00000000000E+00 0.  1.
</event>
<event>
 8    1  0.7311878E-012  0.9118800E+02  0.7816164E-02  0.1184000E+00
        -11   -1    0    0    0    0  0.00000000000E+00  0.00000000000E+00  0.45593999997E+02  0.45594000000E+02  0.51100000000E-03 0. -1.
         11   -1    0    0    0    0 -0.00000000000E+00 -0.00000000000E+00 -0.45593999997E+02  0.45594000000E+02  0.51100000000E-03 0.  1.
         23    2    1    2    0    0  0.00000000000E+00  0.00000000000E+00  0.00000000000E+00  0.91188000000E+02  0.91188000000E+02 0.  0.
    9900012    2    3    3    0    0 -0.11081139826E+02  0.25502707498E+02  0.29664576998E+02  0.50528845089E+02  0.29999955133E+02 0.  0.
        -12    1    3    3    0    0  0.11081139826E+02 -0.25502707498E+02 -0.29664576998E+02  0.40659154911E+02  0.00000000000E+00 0.  1.
         11    1    4    4    0    0 -0.15933336667E+02  0.26907348707E+02  0.15969353584E+02  0.35112631430E+02  0.51100000000E-03 0.  1.
        -11    1    4    4    0    0  0.10465722934E+01  0.52781961969E+00  0.89798666590E+01  0.90560428770E+01  0.51100000000E-03 0. -1.
        -12    1    4    4    0    0  0.38056245476E+01 -0.19324608283E+01  0.47153567548E+01  0.63601707819E+01  0.00000000000E+00 0.  1.
</event>
<event>
 8    1  0.7311878E-012  0.9118800E+02  0.7816164E-02  0.1184000E+00
        -11   -1    0    0    0    0  0.00000000000E+00  0.00000000000E+00  0.45593999997E+02  0.45594000000E+02  0.51100000000E-03 0.  1.
         11   -1    0    0    0    0 -0.00000000000E+00 -0.00000000000E+00 -0.45593999997E+02  0.45594000000E+02  0.51100000000E-03 0. -1.
         23    2    1    2    0    0  0.00000000000E+00  0.00000000000E+00  0.00000000000E+00  0.91188000000E+02  0.91188000000E+02 0.  0.
    9900012    2    3    3    0    0 -0.17966836796E+02 -0.34355032822E+02  0.12251077435E+02  0.50528875526E+02  0.30000047648E+02 0.  0.
        -12    1    3    3    0    0  0.17966836796E+02  0.34355032822E+02 -0.12251077435E+02  0.40659124474E+02  0.00000000000E+00 0.  1.
         11    1    4    4    0    0  0.22396838781E+01 -0.10184363940E+02  0.70593927936E+01  0.12592556516E+02  0.51100000000E-03 0. -1.
        -11    1    4    4    0    0 -0.21411993129E+01 -0.34435059386E+01 -0.68181855754E+01  0.79328508399E+01  0.51100000000E-03 0.  1.
        -12    1    4    4    0    0 -0.18065321362E+02 -0.20727162944E+02  0.12009870217E+02  0.30003468170E+02  0.00000000000E+00 0.  1.
</event>
<event>
 8    1  0.7311878E-012  0.9118800E+02  0.7816164E-02  0.1184000E+00
        -11   -1    0    0    0    0  0.00000000000E+00  0.00000000000E+00  0.45593999997E+02  0.45594000000E+02  0.51100000000E-03 0. -1.
         11   -1    0    0    0    0 -0.00000000000E+00 -0.00000000000E+00 -0.45593999997E+02  0.45594000000E+02  0.51100000000E-03 0.  1.
         23    2    1    2    0    0  0.35527136788E-14  0.00000000000E+00  0.00000000000E+00  0.91188000000E+02  0.91188000000E+02 0.  0.
    9900012    2    3    3    0    0  0.21221623853E+02 -0.30180320747E+02 -0.17086792566E+02  0.50528836708E+02  0.29999929659E+02 0.  0.
         12    1    3    3    0    0 -0.21221623853E+02  0.30180320747E+02  0.17086792566E+02  0.40659163292E+02  0.00000000000E+00 0. -1.
         11    1    4    4    0    0 -0.67500966952E+00 -0.64011470617E+01  0.22000142447E+01  0.68022338020E+01  0.51100000000E-03 0. -1.
        -11    1    4    4    0    0  0.22228560008E+02 -0.27284123110E+02 -0.15207056302E+02  0.38337798783E+02  0.51100000000E-03 0.  1.
         12    1    4    4    0    0 -0.33192648487E+00  0.35049494248E+01 -0.40797505086E+01  0.53888041228E+01  0.00000000000E+00 0. -1.
</event>
<event>
 8    1  0.7311878E-012  0.9118800E+02  0.7816164E-02  0.1184000E+00
        -11   -1    0    0    0    0  0.00000000000E+00  0.00000000000E+00  0.45593999997E+02  0.45594000000E+02  0.51100000000E-03 0. -1.
         11   -1    0    0    0    0 -0.00000000000E+00 -0.00000000000E+00 -0.45593999997E+02  0.45594000000E+02  0.51100000000E-03 0.  1.
         23    2    1    2    0    0  0.00000000000E+00  0.00000000000E+00  0.00000000000E+00  0.91188000000E+02  0.91188000000E+02 0.  0.
    9900012    2    3    3    0    0 -0.94665069332E+01  0.19834489439E+02 -0.34207271912E+02  0.50528939798E+02  0.30000243010E+02 0.  0.
         12    1    3    3    0    0  0.94665069332E+01 -0.19834489439E+02  0.34207271912E+02  0.40659060202E+02  0.00000000000E+00 0. -1.
         11    1    4    4    0    0 -0.33428684980E+01  0.12871720946E+01 -0.35921314327E+01  0.50729666160E+01  0.51100000000E-03 0. -1.
        -11    1    4    4    0    0  0.56065653873E+01  0.20611983316E+02 -0.22613613204E+02  0.31107281046E+02  0.51100000000E-03 0.  1.
         12    1    4    4    0    0 -0.11730203822E+02 -0.20646659716E+01 -0.80015272746E+01  0.14348692136E+02  0.00000000000E+00 0. -1.
</event>
<event>
 8    1  0.7311878E-012  0.9118800E+02  0.7816164E-02  0.1184000E+00
        -11   -1    0    0    0    0  0.00000000000E+00  0.00000000000E+00  0.45593999997E+02  0.45594000000E+02  0.51100000000E-03 0.  1.
         11   -1    0    0    0    0 -0.00000000000E+00 -0.00000000000E+00 -0.45593999997E+02  0.45594000000E+02  0.51100000000E-03 0. -1.
         23    2    1    2    0    0  0.00000000000E+00  0.00000000000E+00  0.00000000000E+00  0.91188000000E+02  0.91188000000E+02 0.  0.
    9900012    2    3    3    0    0  0.10192017371E+02 -0.72628968240E+01  0.38685128554E+02  0.50528855154E+02  0.29999985726E+02 0.  0.
        -12    1    3    3    0    0 -0.10192017371E+02  0.72628968240E+01 -0.38685128554E+02  0.40659144846E+02  0.00000000000E+00 0.  1.
         11    1    4    4    0    0  0.47441840966E-01 -0.21150917085E+01  0.15099879983E+01  0.25992167435E+01  0.51100000000E-03 0. -1.
        -11    1    4    4    0    0 -0.82829223047E+01 -0.77651308174E+01  0.10971937988E+02  0.15788840426E+02  0.51100000000E-03 0.  1.
         12    1    4    4    0    0  0.18427497835E+02  0.26173257018E+01  0.26203202568E+02  0.32140797985E+02  0.00000000000E+00 0. -1.
</event>
<event>
 8    1  0.7311878E-012  0.9118800E+02  0.7816164E-02  0.1184000E+00
        -11   -1    0    0    0    0  0.00000000000E+00  0.00000000000E+00  0.45593999997E+02  0.45594000000E+02  0.51100000000E-03 0. -1.
         11   -1    0    0    0    0 -0.00000000000E+00 -0.00000000000E+00 -0.45593999997E+02  0.45594000000E+02  0.51100000000E-03 0.  1.
         23    2    1    2    0    0  0.00000000000E+00  0.00000000000E+00  0.00000000000E+00  0.91188000000E+02  0.91188000000E+02 0.  0.
    9900012    2    3    3    0    0  0.27486246969E+01 -0.14392118775E+02 -0.37927267936E+02  0.50528859900E+02  0.30000000151E+02 0.  0.
         12    1    3    3    0    0 -0.27486246969E+01  0.14392118775E+02  0.37927267936E+02  0.40659140100E+02  0.00000000000E+00 0. -1.
         11    1    4    4    0    0  0.12187632276E+01 -0.91276268574E+00  0.41835909370E+00  0.15790959812E+01  0.51100000000E-03 0. -1.
        -11    1    4    4    0    0 -0.20002522905E+01  0.11127768069E+01 -0.32900072899E+02  0.32979600944E+02  0.51100000000E-03 0.  1.
        -12    1    4    4    0    0  0.35301137598E+01 -0.14592132896E+02 -0.54455541315E+01  0.15970162974E+02  0.00000000000E+00 0.  1.
</event>
<event>
 8    1  0.7311878E-012  0.9118800E+02  0.7816164E-02  0.1184000E+00
        -11   -1    0    0    0    0  0.00000000000E+00  0.00000000000E+00  0.45593999997E+02  0.45594000000E+02  0.51100000000E-03 0. -1.
         11   -1    0    0    0    0 -0.00000000000E+00 -0.00000000000E+00 -0.45593999997E+02  0.45594000000E+02  0.51100000000E-03 0.  1.
         23    2    1    2    0    0  0.00000000000E+00  0.35527136788E-14  0.71054273576E-14  0.91188000000E+02  0.91188000000E+02 0.  0.
    9900012    2    3    3    0    0 -0.29320255802E+01  0.15500348823E+02  0.37474092691E+02  0.50528865594E+02  0.30000017460E+02 0.  0.
        -12    1    3    3    0    0  0.29320255802E+01 -0.15500348823E+02 -0.37474092691E+02  0.40659134406E+02  0.00000000000E+00 0.  1.
         11    1    4    4    0    0 -0.28729391470E+01 -0.39256541399E+01  0.19164474593E+02  0.19772243839E+02  0.51100000000E-03 0. -1.
        -11    1    4    4    0    0 -0.73600822503E+01  0.10284618951E+02  0.12138765051E+02  0.17529797914E+02  0.51100000000E-03 0.  1.
         12    1    4    4    0    0  0.73009958171E+01  0.91413840122E+01  0.61708530469E+01  0.13226823840E+02  0.00000000000E+00 0. -1.
</event>
<event>
 8    1  0.7311878E-012  0.9118800E+02  0.7816164E-02  0.1184000E+00
        -11   -1    0    0    0    0  0.00000000000E+00  0.00000000000E+00  0.45593999997E+02  0.45594000000E+02  0.51100000000E-03 0. -1.
         11   -1    0    0    0    0 -0.00000000000E+00 -0.00000000000E+00 -0.45593999997E+02  0.45594000000E+02  0.51100000000E-03 0.  1.
         23    2    1    2    0    0  0.00000000000E+00 -0.17763568394E-14  0.35527136788E-14  0.91188000000E+02  0.91188000000E+02 0.  0.
    9900012    2    3    3    0    0  0.30863575852E+02 -0.69018810649E+01  0.25553268157E+02  0.50528858469E+02  0.29999995802E+02 0.  0.
        -12    1    3    3    0    0 -0.30863575852E+02  0.69018810649E+01 -0.25553268157E+02  0.40659141531E+02  0.00000000000E+00 0.  1.
         11    1    4    4    0    0  0.83849600157E+00  0.23084455448E+01  0.12960449439E+01  0.27770000244E+01  0.51100000000E-03 0. -1.
        -11    1    4    4    0    0  0.29509913809E+00  0.53946910041E+01  0.10650229548E+02  0.11942242847E+02  0.51100000000E-03 0.  1.
         12    1    4    4    0    0  0.29729980712E+02 -0.14605017614E+02  0.13606993664E+02  0.35809615597E+02  0.00000000000E+00 0. -1.
</event>
<event>
 8    1  0.7311878E-012  0.9118800E+02  0.7816164E-02  0.1184000E+00
        -11   -1    0    0    0    0  0.00000000000E+00  0.00000000000E+00  0.45593999997E+02  0.45594000000E+02  0.51100000000E-03 0. -1.
         11   -1    0    0    0    0 -0.00000000000E+00 -0.00000000000E+00 -0.45593999997E+02  0.45594000000E+02  0.51100000000E-03 0.  1.
         23    2    1    2    0    0  0.00000000000E+00 -0.17763568394E-14 -0.35527136788E-14  0.91188000000E+02  0.91188000000E+02 0.  0.
    9900012    2    3    3    0    0 -0.33503062919E+02 -0.55167190214E+01 -0.22366836551E+02  0.50528870755E+02  0.30000033146E+02 0.  0.
         12    1    3    3    0    0  0.33503062919E+02  0.55167190214E+01  0.22366836551E+02  0.40659129245E+02  0.00000000000E+00 0. -1.
         11    1    4    4    0    0 -0.48702929512E+01 -0.10432829878E+02 -0.51267028884E+01  0.12603443000E+02  0.51100000000E-03 0. -1.
        -11    1    4    4    0    0 -0.15974656852E+02 -0.54977810621E+01 -0.11979866082E+02  0.20710684435E+02  0.51100000000E-03 0.  1.
        -12    1    4    4    0    0 -0.12658113116E+02  0.10413891919E+02 -0.52602675798E+01  0.17214743320E+02  0.00000000000E+00 0.  1.
</event>
<event>
 8    1  0.7311878E-012  0.9118800E+02  0.7816164E-02  0.1184000E+00
        -11   -1    0    0    0    0  0.00000000000E+00  0.00000000000E+00  0.45593999997E+02  0.45594000000E+02  0.51100000000E-03 0. -1.
         11   -1    0    0    0    0 -0.00000000000E+00 -0.00000000000E+00 -0.45593999997E+02  0.45594000000E+02  0.51100000000E-03 0.  1.
         23    2    1    2    0    0 -0.35527136788E-14  0.35527136788E-14  0.00000000000E+00  0.91188000000E+02  0.91188000000E+02 0.  0.
    9900012    2    3    3    0    0 -0.26089657472E+02  0.26360617479E+02 -0.16661523532E+02  0.50528945076E+02  0.30000259052E+02 0.  0.
         12    1    3    3    0    0  0.26089657472E+02 -0.26360617479E+02  0.16661523532E+02  0.40659054924E+02  0.00000000000E+00 0. -1.
         11    1    4    4    0    0 -0.88841755545E+01  0.16652451675E+01 -0.91945764294E+01  0.12893481017E+02  0.51100000000E-03 0. -1.
        -11    1    4    4    0    0 -0.10998452467E+02  0.26245809843E+02 -0.10780319395E+02  0.30430638796E+02  0.51100000000E-03 0.  1.
         12    1    4    4    0    0 -0.62070294502E+01 -0.15504375310E+01  0.33133722924E+01  0.72048252638E+01  0.00000000000E+00 0. -1.
</event>
<event>
 8    1  0.7311878E-012  0.9118800E+02  0.7816164E-02  0.1184000E+00
        -11   -1    0    0    0    0  0.00000000000E+00  0.00000000000E+00  0.45593999997E+02  0.45594000000E+02  0.51100000000E-03 0. -1.
         11   -1    0    0    0    0 -0.00000000000E+00 -0.00000000000E+00 -0.45593999997E+02  0.45594000000E+02  0.51100000000E-03 0.  1.
         23    2    1    2    0    0  0.00000000000E+00  0.00000000000E+00  0.00000000000E+00  0.91188000000E+02  0.91188000000E+02 0.  0.
    9900012    2    3    3    0    0 -0.17024554112E+02 -0.15748578262E+02 -0.33396398518E+02  0.50528774799E+02  0.29999741478E+02 0.  0.
         12    1    3    3    0    0  0.17024554112E+02  0.15748578262E+02  0.33396398518E+02  0.40659225201E+02  0.00000000000E+00 0. -1.
         11    1    4    4    0    0 -0.12612747519E+02 -0.13095300023E+01 -0.24747349590E+02  0.27806970004E+02  0.51100000000E-03 0. -1.
        -11    1    4    4    0    0 -0.80492477865E+00  0.93870786466E+00 -0.66927483354E+01  0.68060235745E+01  0.51100000000E-03 0.  1.
         12    1    4    4    0    0 -0.36068818146E+01 -0.15377756124E+02 -0.19563005919E+01  0.15915781220E+02  0.00000000000E+00 0. -1.
</event>
<event>
 8    1  0.7311878E-012  0.9118800E+02  0.7816164E-02  0.1184000E+00
        -11   -1    0    0    0    0  0.00000000000E+00  0.00000000000E+00  0.45593999997E+02  0.45594000000E+02  0.51100000000E-03 0. -1.
         11   -1    0    0    0    0 -0.00000000000E+00 -0.00000000000E+00 -0.45593999997E+02  0.45594000000E+02  0.51100000000E-03 0.  1.
         23    2    1    2    0    0  0.00000000000E+00  0.88817841970E-15  0.00000000000E+00  0.91188000000E+02  0.91188000000E+02 0.  0.
    9900012    2    3    3    0    0  0.12920893484E+02 -0.45037916556E+01 -0.38287491075E+02  0.50528860800E+02  0.30000002888E+02 0.  0.
         12    1    3    3    0    0 -0.12920893484E+02  0.45037916556E+01  0.38287491075E+02  0.40659139200E+02  0.00000000000E+00 0. -1.
         11    1    4    4    0    0  0.16203145161E+02 -0.13389030212E+00 -0.25756399453E+02  0.30429458634E+02  0.51100000000E-03 0. -1.
        -11    1    4    4    0    0 -0.23308640498E+01  0.21821302178E+01 -0.13072290954E+02  0.13456574994E+02  0.51100000000E-03 0.  1.
        -12    1    4    4    0    0 -0.95138762734E+00 -0.65520315713E+01  0.54119933243E+00  0.66428271727E+01  0.00000000000E+00 0.  1.
</event>
<event>
 8    1  0.7311878E-012  0.9118800E+02  0.7816164E-02  0.1184000E+00
        -11   -1    0    0    0    0  0.00000000000E+00  0.00000000000E+00  0.45593999997E+02  0.45594000000E+02  0.51100000000E-03 0. -1.
         11   -1    0    0    0    0 -0.00000000000E+00 -0.00000000000E+00 -0.45593999997E+02  0.45594000000E+02  0.51100000000E-03 0.  1.
         23    2    1    2    0    0 -0.71054273576E-14  0.17763568394E-14 -0.35527136788E-14  0.91188000000E+02  0.91188000000E+02 0.  0.
    9900012    2    3    3    0    0 -0.27949629636E+02  0.12999681101E+02 -0.26513980771E+02  0.50528872097E+02  0.30000037226E+02 0.  0.
         12    1    3    3    0    0  0.27949629636E+02 -0.12999681101E+02  0.26513980771E+02  0.40659127903E+02  0.00000000000E+00 0. -1.
         11    1    4    4    0    0 -0.88652322948E+01  0.17759679146E+02 -0.80462159046E+01  0.21418219759E+02  0.51100000000E-03 0. -1.
        -11    1    4    4    0    0 -0.12296370940E+02  0.21503193672E+01 -0.78883884222E+01  0.14766559648E+02  0.51100000000E-03 0.  1.
         12    1    4    4    0    0 -0.67880264018E+01 -0.69103174120E+01 -0.10579376444E+02  0.14344092691E+02  0.00000000000E+00 0. -1.
</event>
<event>
 8    1  0.7311878E-012  0.9118800E+02  0.7816164E-02  0.1184000E+00
        -11   -1    0    0    0    0  0.00000000000E+00  0.00000000000E+00  0.45593999997E+02  0.45594000000E+02  0.51100000000E-03 0. -1.
         11   -1    0    0    0    0 -0.00000000000E+00 -0.00000000000E+00 -0.45593999997E+02  0.45594000000E+02  0.51100000000E-03 0.  1.
         23    2    1    2    0    0  0.35527136788E-14  0.00000000000E+00 -0.35527136788E-14  0.91188000000E+02  0.91188000000E+02 0.  0.
    9900012    2    3    3    0    0 -0.25840097720E+02 -0.82810624347E+01  0.30280008611E+02  0.50528861215E+02  0.30000004150E+02 0.  0.
        -12    1    3    3    0    0  0.25840097720E+02  0.82810624347E+01 -0.30280008611E+02  0.40659138785E+02  0.00000000000E+00 0.  1.
         11    1    4    4    0    0  0.10205442352E+01  0.23370894975E+01  0.41463079047E+01  0.48677887544E+01  0.51100000000E-03 0. -1.
        -11    1    4    4    0    0 -0.20934564985E+02  0.35962142599E+01  0.19702288535E+02  0.28971864660E+02  0.51100000000E-03 0.  1.
         12    1    4    4    0    0 -0.59260769696E+01 -0.14214366192E+02  0.64314121716E+01  0.16689207801E+02  0.00000000000E+00 0. -1.
</event>
<event>
 8    1  0.7311878E-012  0.9118800E+02  0.7816164E-02  0.1184000E+00
        -11   -1    0    0    0    0  0.00000000000E+00  0.00000000000E+00  0.45593999997E+02  0.45594000000E+02  0.51100000000E-03 0. -1.
         11   -1    0    0    0    0 -0.00000000000E+00 -0.00000000000E+00 -0.45593999997E+02  0.45594000000E+02  0.51100000000E-03 0.  1.
         23    2    1    2    0    0  0.00000000000E+00  0.00000000000E+00  0.00000000000E+00  0.91188000000E+02  0.91188000000E+02 0.  0.
    9900012    2    3    3    0    0  0.25409062271E+02 -0.18838159814E+02 -0.25547403692E+02  0.50528849172E+02  0.29999967542E+02 0.  0.
         12    1    3    3    0    0 -0.25409062271E+02  0.18838159814E+02  0.25547403692E+02  0.40659150828E+02  0.00000000000E+00 0. -1.
         11    1    4    4    0    0  0.43093081413E+01 -0.10799718867E+02  0.70455629577E+00  0.11649054215E+02  0.51100000000E-03 0. -1.
        -11    1    4    4    0    0  0.71510876439E+01  0.95114690573E+00  0.67976295777E+00  0.72460204849E+01  0.51100000000E-03 0.  1.
         12    1    4    4    0    0  0.13948666486E+02 -0.89895878522E+01 -0.26931722946E+02  0.31633774472E+02  0.00000000000E+00 0. -1.
</event>
<event>
 8    1  0.7311878E-012  0.9118800E+02  0.7816164E-02  0.1184000E+00
        -11   -1    0    0    0    0  0.00000000000E+00  0.00000000000E+00  0.45593999997E+02  0.45594000000E+02  0.51100000000E-03 0. -1.
         11   -1    0    0    0    0 -0.00000000000E+00 -0.00000000000E+00 -0.45593999997E+02  0.45594000000E+02  0.51100000000E-03 0.  1.
         23    2    1    2    0    0  0.00000000000E+00 -0.17763568394E-14  0.00000000000E+00  0.91188000000E+02  0.91188000000E+02 0.  0.
    9900012    2    3    3    0    0  0.23825545461E+02 -0.86127558103E+01  0.31801408686E+02  0.50528858672E+02  0.29999996419E+02 0.  0.
        -12    1    3    3    0    0 -0.23825545461E+02  0.86127558103E+01 -0.31801408686E+02  0.40659141328E+02  0.00000000000E+00 0.  1.
         11    1    4    4    0    0 -0.51155983979E+01  0.25251534759E+00  0.94208797268E+00  0.52077481678E+01  0.51100000000E-03 0. -1.
        -11    1    4    4    0    0  0.11369509200E+02  0.32053446372E+01  0.97020442927E+01  0.15286256488E+02  0.51100000000E-03 0.  1.
         12    1    4    4    0    0  0.17571634659E+02 -0.12070615795E+02  0.21157276420E+02  0.30034854016E+02  0.00000000000E+00 0. -1.
</event>
<event>
 8    1  0.7311878E-012  0.9118800E+02  0.7816164E-02  0.1184000E+00
        -11   -1    0    0    0    0  0.00000000000E+00  0.00000000000E+00  0.45593999997E+02  0.45594000000E+02  0.51100000000E-03 0.  1.
         11   -1    0    0    0    0 -0.00000000000E+00 -0.00000000000E+00 -0.45593999997E+02  0.45594000000E+02  0.51100000000E-03 0. -1.
         23    2    1    2    0    0  0.00000000000E+00  0.00000000000E+00 -0.35527136788E-14  0.91188000000E+02  0.91188000000E+02 0.  0.
    9900012    2    3    3    0    0 -0.20668958652E+02  0.26577185529E+02 -0.22795014915E+02  0.50528863913E+02  0.30000012350E+02 0.  0.
        -12    1    3    3    0    0  0.20668958652E+02 -0.26577185529E+02  0.22795014915E+02  0.40659136087E+02  0.00000000000E+00 0.  1.
         11    1    4    4    0    0 -0.75734598761E+01  0.69734242216E+01 -0.43416303088E+01  0.11172989478E+02  0.51100000000E-03 0. -1.
        -11    1    4    4    0    0 -0.10812734244E+02 -0.77845520007E-02 -0.16209324330E+02  0.19484801203E+02  0.51100000000E-03 0.  1.
        -12    1    4    4    0    0 -0.22827645324E+01  0.19611545859E+02 -0.22440602765E+01  0.19871073233E+02  0.00000000000E+00 0.  1.
</event>
<event>
 8    1  0.7311878E-012  0.9118800E+02  0.7816164E-02  0.1184000E+00
        -11   -1    0    0    0    0  0.00000000000E+00  0.00000000000E+00  0.45593999997E+02  0.45594000000E+02  0.51100000000E-03 0. -1.
         11   -1    0    0    0    0 -0.00000000000E+00 -0.00000000000E+00 -0.45593999997E+02  0.45594000000E+02  0.51100000000E-03 0.  1.
         23    2    1    2    0    0  0.35527136788E-14  0.35527136788E-14 -0.17763568394E-14  0.91188000000E+02  0.91188000000E+02 0.  0.
    9900012    2    3    3    0    0  0.21690465381E+02  0.30969349128E+02 -0.14952934057E+02  0.50528842228E+02  0.29999946436E+02 0.  0.
         12    1    3    3    0    0 -0.21690465381E+02 -0.30969349128E+02  0.14952934057E+02  0.40659157772E+02  0.00000000000E+00 0. -1.
         11    1    4    4    0    0  0.78113750040E+00 -0.38221976583E+01  0.16850090754E+01  0.42495442790E+01  0.51100000000E-03 0. -1.
        -11    1    4    4    0    0 -0.11607696903E+01 -0.28675985331E+00 -0.19930865778E+01  0.23242228497E+01  0.51100000000E-03 0.  1.
        -12    1    4    4    0    0  0.22070097571E+02  0.35078306640E+02 -0.14644856554E+02  0.43955075099E+02  0.00000000000E+00 0.  1.
</event>
<event>
 8    1  0.7311878E-012  0.9118800E+02  0.7816164E-02  0.1184000E+00
        -11   -1    0    0    0    0  0.00000000000E+00  0.00000000000E+00  0.45593999997E+02  0.45594000000E+02  0.51100000000E-03 0. -1.
         11   -1    0    0    0    0 -0.00000000000E+00 -0.00000000000E+00 -0.45593999997E+02  0.45594000000E+02  0.51100000000E-03 0.  1.
         23    2    1    2    0    0 -0.35527136788E-14  0.17763568394E-14 -0.35527136788E-14  0.91188000000E+02  0.91188000000E+02 0.  0.
    9900012    2    3    3    0    0 -0.23660162082E+02 -0.11612098900E+02  0.30959994041E+02  0.50528863983E+02  0.30000012563E+02 0.  0.
        -12    1    3    3    0    0  0.23660162082E+02  0.11612098900E+02 -0.30959994041E+02  0.40659136017E+02  0.00000000000E+00 0.  1.
         11    1    4    4    0    0 -0.20859219644E+02 -0.43480815404E+01  0.26134668088E+02  0.33719930806E+02  0.51100000000E-03 0. -1.
        -11    1    4    4    0    0  0.39550465953E+00 -0.24974382941E+01  0.92327323257E+01  0.95727200120E+01  0.51100000000E-03 0.  1.
        -12    1    4    4    0    0 -0.31964470977E+01 -0.47665790660E+01 -0.44074063727E+01  0.72362131654E+01  0.00000000000E+00 0.  1.
</event>
<event>
 8    1  0.7311878E-012  0.9118800E+02  0.7816164E-02  0.1184000E+00
        -11   -1    0    0    0    0  0.00000000000E+00  0.00000000000E+00  0.45593999997E+02  0.45594000000E+02  0.51100000000E-03 0. -1.
         11   -1    0    0    0    0 -0.00000000000E+00 -0.00000000000E+00 -0.45593999997E+02  0.45594000000E+02  0.51100000000E-03 0.  1.
         23    2    1    2    0    0  0.00000000000E+00 -0.17763568394E-14  0.00000000000E+00  0.91188000000E+02  0.91188000000E+02 0.  0.
    9900012    2    3    3    0    0 -0.30546142494E+01  0.10960995054E+02  0.39034488669E+02  0.50528863432E+02  0.30000010889E+02 0.  0.
        -12    1    3    3    0    0  0.30546142494E+01 -0.10960995054E+02 -0.39034488669E+02  0.40659136568E+02  0.00000000000E+00 0.  1.
         11    1    4    4    0    0  0.13895120998E+00  0.61785410884E+01  0.15214460897E+02  0.16421738582E+02  0.51100000000E-03 0. -1.
        -11    1    4    4    0    0 -0.43206275093E+00  0.99123830571E+01  0.26044913460E+02  0.27870764853E+02  0.51100000000E-03 0.  1.
        -12    1    4    4    0    0 -0.27615027084E+01 -0.51299290916E+01 -0.22248856876E+01  0.62363599973E+01  0.00000000000E+00 0.  1.
</event>
<event>
 8    1  0.7311878E-012  0.9118800E+02  0.7816164E-02  0.1184000E+00
        -11   -1    0    0    0    0  0.00000000000E+00  0.00000000000E+00  0.45593999997E+02  0.45594000000E+02  0.51100000000E-03 0. -1.
         11   -1    0    0    0    0 -0.00000000000E+00 -0.00000000000E+00 -0.45593999997E+02  0.45594000000E+02  0.51100000000E-03 0.  1.
         23    2    1    2    0    0  0.00000000000E+00  0.00000000000E+00  0.00000000000E+00  0.91188000000E+02  0.91188000000E+02 0.  0.
    9900012    2    3    3    0    0 -0.43356136108E+01 -0.31265770762E+02  0.25628495376E+02  0.50528859060E+02  0.29999997599E+02 0.  0.
        -12    1    3    3    0    0  0.43356136108E+01  0.31265770762E+02 -0.25628495376E+02  0.40659140940E+02  0.00000000000E+00 0.  1.
         11    1    4    4    0    0  0.45804347321E+01 -0.46166114868E+01  0.18602423078E+02  0.19706436222E+02  0.51100000000E-03 0. -1.
        -11    1    4    4    0    0 -0.48325375123E+00  0.97800643013E-01 -0.14444812157E+01  0.15263110422E+01  0.51100000000E-03 0.  1.
         12    1    4    4    0    0 -0.84327945916E+01 -0.26746959919E+02  0.84705535140E+01  0.29296111796E+02  0.00000000000E+00 0. -1.
</event>
<event>
 8    1  0.7311878E-012  0.9118800E+02  0.7816164E-02  0.1184000E+00
        -11   -1    0    0    0    0  0.00000000000E+00  0.00000000000E+00  0.45593999997E+02  0.45594000000E+02  0.51100000000E-03 0.  1.
         11   -1    0    0    0    0 -0.00000000000E+00 -0.00000000000E+00 -0.45593999997E+02  0.45594000000E+02  0.51100000000E-03 0. -1.
         23    2    1    2    0    0  0.00000000000E+00  0.35527136788E-14 -0.17763568394E-14  0.91188000000E+02  0.91188000000E+02 0.  0.
    9900012    2    3    3    0    0  0.31263789351E+02  0.24018811184E+02 -0.99417347003E+01  0.50528857066E+02  0.29999991538E+02 0.  0.
         12    1    3    3    0    0 -0.31263789351E+02 -0.24018811184E+02  0.99417347003E+01  0.40659142934E+02  0.00000000000E+00 0. -1.
         11    1    4    4    0    0  0.11020052171E+02  0.15580131307E+02 -0.13263039463E+02  0.23239842027E+02  0.51100000000E-03 0. -1.
        -11    1    4    4    0    0  0.15357749353E+02  0.11461923757E+02 -0.22385521499E+01  0.19293710825E+02  0.51100000000E-03 0.  1.
         12    1    4    4    0    0  0.48859878261E+01 -0.30232438795E+01  0.55598569122E+01  0.79953042140E+01  0.00000000000E+00 0. -1.
</event>
<event>
 8    1  0.7311878E-012  0.9118800E+02  0.7816164E-02  0.1184000E+00
        -11   -1    0    0    0    0  0.00000000000E+00  0.00000000000E+00  0.45593999997E+02  0.45594000000E+02  0.51100000000E-03 0. -1.
         11   -1    0    0    0    0 -0.00000000000E+00 -0.00000000000E+00 -0.45593999997E+02  0.45594000000E+02  0.51100000000E-03 0.  1.
         23    2    1    2    0    0  0.00000000000E+00 -0.61062266354E-15  0.00000000000E+00  0.91188000000E+02  0.91188000000E+02 0.  0.
    9900012    2    3    3    0    0 -0.41262885920E+01  0.13471181400E+00 -0.40448999405E+02  0.50528856407E+02  0.29999989535E+02 0.  0.
         12    1    3    3    0    0  0.41262885920E+01 -0.13471181400E+00  0.40448999405E+02  0.40659143593E+02  0.00000000000E+00 0. -1.
         11    1    4    4    0    0 -0.68384872769E+01  0.48069731569E+01 -0.10377511997E+02  0.13325338820E+02  0.51100000000E-03 0. -1.
        -11    1    4    4    0    0 -0.17172606809E+01 -0.12648772328E+02 -0.18230463591E+02  0.22255116909E+02  0.51100000000E-03 0.  1.
         12    1    4    4    0    0  0.44294593658E+01  0.79765109848E+01 -0.11841023817E+02  0.14948400677E+02  0.00000000000E+00 0. -1.
</event>
<event>
 8    1  0.7311878E-012  0.9118800E+02  0.7816164E-02  0.1184000E+00
        -11   -1    0    0    0    0  0.00000000000E+00  0.00000000000E+00  0.45593999997E+02  0.45594000000E+02  0.51100000000E-03 0.  1.
         11   -1    0    0    0    0 -0.00000000000E+00 -0.00000000000E+00 -0.45593999997E+02  0.45594000000E+02  0.51100000000E-03 0. -1.
         23    2    1    2    0    0  0.00000000000E+00  0.00000000000E+00  0.00000000000E+00  0.91188000000E+02  0.91188000000E+02 0.  0.
    9900012    2    3    3    0    0  0.39378527263E+02 -0.88378354499E+01  0.49386231351E+01  0.50528859044E+02  0.29999997549E+02 0.  0.
         12    1    3    3    0    0 -0.39378527263E+02  0.88378354499E+01 -0.49386231351E+01  0.40659140956E+02  0.00000000000E+00 0. -1.
         11    1    4    4    0    0  0.12996883274E+02  0.17324543830E+01 -0.95740759204E+01  0.16235248782E+02  0.51100000000E-03 0. -1.
        -11    1    4    4    0    0  0.14752935768E+02  0.58120909664E+00  0.50251987980E+01  0.15596138657E+02  0.51100000000E-03 0.  1.
        -12    1    4    4    0    0  0.11628708221E+02 -0.11151498930E+02  0.94875002575E+01  0.18697471605E+02  0.00000000000E+00 0.  1.
</event>
<event>
 8    1  0.7311878E-012  0.9118800E+02  0.7816164E-02  0.1184000E+00
        -11   -1    0    0    0    0  0.00000000000E+00  0.00000000000E+00  0.45593999997E+02  0.45594000000E+02  0.51100000000E-03 0. -1.
         11   -1    0    0    0    0 -0.00000000000E+00 -0.00000000000E+00 -0.45593999997E+02  0.45594000000E+02  0.51100000000E-03 0.  1.
         23    2    1    2    0    0  0.00000000000E+00  0.00000000000E+00  0.00000000000E+00  0.91188000000E+02  0.91188000000E+02 0.  0.
    9900012    2    3    3    0    0 -0.15436353879E+02 -0.26082805281E+02  0.27102987770E+02  0.50528859595E+02  0.29999999226E+02 0.  0.
        -12    1    3    3    0    0  0.15436353879E+02  0.26082805281E+02 -0.27102987770E+02  0.40659140405E+02  0.00000000000E+00 0.  1.
         11    1    4    4    0    0 -0.60053578294E+01  0.13779552726E+01  0.41957547677E+01  0.74543572308E+01  0.51100000000E-03 0. -1.
        -11    1    4    4    0    0 -0.21078299622E+01 -0.52317422519E+01 -0.43682603827E+01  0.71341273589E+01  0.51100000000E-03 0.  1.
         12    1    4    4    0    0 -0.73231660874E+01 -0.22229018301E+02  0.27275493385E+02  0.35940375006E+02  0.00000000000E+00 0. -1.
</event>
<event>
 8    1  0.7311878E-012  0.9118800E+02  0.7816164E-02  0.1184000E+00
        -11   -1    0    0    0    0  0.00000000000E+00  0.00000000000E+00  0.45593999997E+02  0.45594000000E+02  0.51100000000E-03 0. -1.
         11   -1    0    0    0    0 -0.00000000000E+00 -0.00000000000E+00 -0.45593999997E+02  0.45594000000E+02  0.51100000000E-03 0.  1.
         23    2    1    2    0    0  0.35527136788E-14  0.00000000000E+00  0.00000000000E+00  0.91188000000E+02  0.91188000000E+02 0.  0.
    9900012    2    3    3    0    0  0.21210235807E+02  0.26553436895E+02 -0.22320542036E+02  0.50528859445E+02  0.29999998769E+02 0.  0.
         12    1    3    3    0    0 -0.21210235807E+02 -0.26553436895E+02  0.22320542036E+02  0.40659140555E+02  0.00000000000E+00 0. -1.
         11    1    4    4    0    0  0.64858934529E+00  0.10237573711E+02  0.66283263789E+00  0.10279490795E+02  0.51100000000E-03 0. -1.
        -11    1    4    4    0    0  0.18810590417E+00  0.11520243579E+02 -0.11906997633E+02  0.16568886168E+02  0.51100000000E-03 0.  1.
        -12    1    4    4    0    0  0.20373540558E+02  0.47956196047E+01 -0.11076377040E+02  0.23680482482E+02  0.00000000000E+00 0.  1.
</event>
<event>
 8    1  0.7311878E-012  0.9118800E+02  0.7816164E-02  0.1184000E+00
        -11   -1    0    0    0    0  0.00000000000E+00  0.00000000000E+00  0.45593999997E+02  0.45594000000E+02  0.51100000000E-03 0. -1.
         11   -1    0    0    0    0 -0.00000000000E+00 -0.00000000000E+00 -0.45593999997E+02  0.45594000000E+02  0.51100000000E-03 0.  1.
         23    2    1    2    0    0  0.00000000000E+00  0.17763568394E-14  0.00000000000E+00  0.91188000000E+02  0.91188000000E+02 0.  0.
    9900012    2    3    3    0    0  0.17753109915E+02  0.12602399133E+02 -0.34339088281E+02  0.50528851465E+02  0.29999974514E+02 0.  0.
         12    1    3    3    0    0 -0.17753109915E+02 -0.12602399133E+02  0.34339088281E+02  0.40659148535E+02  0.00000000000E+00 0. -1.
         11    1    4    4    0    0  0.20282409373E+02  0.50622208694E+01 -0.15415646396E+02  0.25973916997E+02  0.51100000000E-03 0.  1.
        -11    1    4    4    0    0  0.20202423823E+01 -0.14606312932E+00 -0.14402368890E+02  0.14544103397E+02  0.51100000000E-03 0. -1.
        -12    1    4    4    0    0 -0.45495418404E+01  0.76862413931E+01 -0.45210729955E+01  0.10010831071E+02  0.00000000000E+00 0.  1.
</event>
<event>
 8    1  0.7311878E-012  0.9118800E+02  0.7816164E-02  0.1184000E+00
        -11   -1    0    0    0    0  0.00000000000E+00  0.00000000000E+00  0.45593999997E+02  0.45594000000E+02  0.51100000000E-03 0. -1.
         11   -1    0    0    0    0 -0.00000000000E+00 -0.00000000000E+00 -0.45593999997E+02  0.45594000000E+02  0.51100000000E-03 0.  1.
         23    2    1    2    0    0  0.17763568394E-14  0.00000000000E+00  0.00000000000E+00  0.91188000000E+02  0.91188000000E+02 0.  0.
    9900012    2    3    3    0    0 -0.14588689672E+02 -0.17031744442E+02 -0.33915414180E+02  0.50528861986E+02  0.30000006492E+02 0.  0.
         12    1    3    3    0    0  0.14588689672E+02  0.17031744442E+02  0.33915414180E+02  0.40659138014E+02  0.00000000000E+00 0. -1.
         11    1    4    4    0    0 -0.53502936577E+01 -0.11065873994E+02 -0.47162553251E+01  0.13165191758E+02  0.51100000000E-03 0. -1.
        -11    1    4    4    0    0  0.24054337248E+01 -0.94345312913E+01 -0.19580362643E+02  0.21867489421E+02  0.51100000000E-03 0.  1.
        -12    1    4    4    0    0 -0.11643829739E+02  0.34686608434E+01 -0.96187962120E+01  0.15496180807E+02  0.00000000000E+00 0.  1.
</event>
<event>
 8    1  0.1088445E-011  0.9118800E+02  0.7816164E-02  0.1184000E+00
        -11   -1    0    0    0    0  0.00000000000E+00  0.00000000000E+00  0.45593999997E+02  0.45594000000E+02  0.51100000000E-03 0. -1.
         11   -1    0    0    0    0 -0.00000000000E+00 -0.00000000000E+00 -0.45593999997E+02  0.45594000000E+02  0.51100000000E-03 0.  1.
         23    2    1    2    0    0 -0.44408920985E-15 -0.33306690739E-15  0.14210854715E-13  0.91188000000E+02  0.91188000000E+02 0.  0.
    9900012    2    3    3    0    0  0.25967856387E+01 -0.84059701262E+00 -0.40567517706E+02  0.50528764988E+02  0.29999711655E+02 0.  0.
         12    1    3    3    0    0 -0.25967856387E+01  0.84059701262E+00  0.40567517706E+02  0.40659235012E+02  0.00000000000E+00 0. -1.
         11    1    4    4    0    0 -0.73363901776E+01  0.11266824671E+01 -0.22105848345E+02  0.23318674180E+02  0.51100000000E-03 0. -1.
        -11    1    4    4    0    0  0.28491802078E+01 -0.61200472948E+01 -0.17723335330E+02  0.18965479752E+02  0.51100000000E-03 0.  1.
         12    1    4    4    0    0  0.70839956085E+01  0.41527678151E+01 -0.73833403045E+00  0.82446110550E+01  0.00000000000E+00 0. -1.
</event>
<event>
 8    1  0.7311878E-012  0.9118800E+02  0.7816164E-02  0.1184000E+00
        -11   -1    0    0    0    0  0.00000000000E+00  0.00000000000E+00  0.45593999997E+02  0.45594000000E+02  0.51100000000E-03 0. -1.
         11   -1    0    0    0    0 -0.00000000000E+00 -0.00000000000E+00 -0.45593999997E+02  0.45594000000E+02  0.51100000000E-03 0.  1.
         23    2    1    2    0    0  0.00000000000E+00 -0.35527136788E-14  0.00000000000E+00  0.91188000000E+02  0.91188000000E+02 0.  0.
    9900012    2    3    3    0    0  0.13020641152E+02  0.29908471584E+02 -0.24271623788E+02  0.50528862161E+02  0.30000007024E+02 0.  0.
         12    1    3    3    0    0 -0.13020641152E+02 -0.29908471584E+02  0.24271623788E+02  0.40659137839E+02  0.00000000000E+00 0. -1.
         11    1    4    4    0    0  0.79003773231E+01  0.63970197922E+01  0.16365865794E+00  0.10166838667E+02  0.51100000000E-03 0. -1.
        -11    1    4    4    0    0  0.11712136846E+02  0.14260434268E+02 -0.73895889672E+01  0.19878132718E+02  0.51100000000E-03 0.  1.
         12    1    4    4    0    0 -0.65918730171E+01  0.92510175240E+01 -0.17045693479E+02  0.20483890775E+02  0.00000000000E+00 0. -1.
</event>
<event>
 8    1  0.7311878E-012  0.9118800E+02  0.7816164E-02  0.1184000E+00
        -11   -1    0    0    0    0  0.00000000000E+00  0.00000000000E+00  0.45593999997E+02  0.45594000000E+02  0.51100000000E-03 0. -1.
         11   -1    0    0    0    0 -0.00000000000E+00 -0.00000000000E+00 -0.45593999997E+02  0.45594000000E+02  0.51100000000E-03 0.  1.
         23    2    1    2    0    0  0.00000000000E+00  0.00000000000E+00  0.00000000000E+00  0.91188000000E+02  0.91188000000E+02 0.  0.
    9900012    2    3    3    0    0  0.41894197050E+01 -0.33848835329E+02  0.22133052286E+02  0.50528844892E+02  0.29999954534E+02 0.  0.
        -12    1    3    3    0    0 -0.41894197050E+01  0.33848835329E+02 -0.22133052286E+02  0.40659155108E+02  0.00000000000E+00 0.  1.
         11    1    4    4    0    0  0.91567862512E+01 -0.69656635629E+01  0.10886850255E+01  0.11556489029E+02  0.51100000000E-03 0. -1.
        -11    1    4    4    0    0 -0.63306069055E+01 -0.17539881095E+01  0.69012345845E+00  0.66052500883E+01  0.51100000000E-03 0.  1.
         12    1    4    4    0    0  0.13632403593E+01 -0.25129183657E+02  0.20354243802E+02  0.32367105775E+02  0.00000000000E+00 0. -1.
</event>
<event>
 8    1  0.7311878E-012  0.9118800E+02  0.7816164E-02  0.1184000E+00
        -11   -1    0    0    0    0  0.00000000000E+00  0.00000000000E+00  0.45593999997E+02  0.45594000000E+02  0.51100000000E-03 0.  1.
         11   -1    0    0    0    0 -0.00000000000E+00 -0.00000000000E+00 -0.45593999997E+02  0.45594000000E+02  0.51100000000E-03 0. -1.
         23    2    1    2    0    0  0.00000000000E+00  0.17763568394E-14  0.00000000000E+00  0.91188000000E+02  0.91188000000E+02 0.  0.
    9900012    2    3    3    0    0 -0.39331147018E+02 -0.88620611285E+01  0.52622169331E+01  0.50528853671E+02  0.29999981217E+02 0.  0.
         12    1    3    3    0    0  0.39331147018E+02  0.88620611285E+01 -0.52622169331E+01  0.40659146329E+02  0.00000000000E+00 0. -1.
         11    1    4    4    0    0 -0.78138638095E+01 -0.77759431744E+01 -0.78431917896E+00  0.11051557208E+02  0.51100000000E-03 0. -1.
        -11    1    4    4    0    0 -0.30562352446E+02 -0.80133983929E+01  0.71595936626E+01  0.32396477008E+02  0.51100000000E-03 0.  1.
        -12    1    4    4    0    0 -0.95493076179E+00  0.69272804388E+01 -0.11130575505E+01  0.70808194546E+01  0.00000000000E+00 0.  1.
</event>
<event>
 8    1  0.7311878E-012  0.9118800E+02  0.7816164E-02  0.1184000E+00
        -11   -1    0    0    0    0  0.00000000000E+00  0.00000000000E+00  0.45593999997E+02  0.45594000000E+02  0.51100000000E-03 0. -1.
         11   -1    0    0    0    0 -0.00000000000E+00 -0.00000000000E+00 -0.45593999997E+02  0.45594000000E+02  0.51100000000E-03 0.  1.
         23    2    1    2    0    0  0.17763568394E-14  0.00000000000E+00  0.71054273576E-14  0.91188000000E+02  0.91188000000E+02 0.  0.
    9900012    2    3    3    0    0 -0.75680875458E+01 -0.53191680668E+01  0.39592859392E+02  0.50528880324E+02  0.30000062233E+02 0.  0.
        -12    1    3    3    0    0  0.75680875458E+01  0.53191680668E+01 -0.39592859392E+02  0.40659119676E+02  0.00000000000E+00 0.  1.
         11    1    4    4    0    0  0.91691391851E+01  0.16401446995E+01  0.15559190557E+02  0.18134265882E+02  0.51100000000E-03 0. -1.
        -11    1    4    4    0    0 -0.48092242500E+01 -0.59665602705E+01  0.16655664325E+02  0.18334111206E+02  0.51100000000E-03 0.  1.
        -12    1    4    4    0    0 -0.11928002481E+02 -0.99275249580E+00  0.73780045095E+01  0.14060503236E+02  0.00000000000E+00 0.  1.
</event>
<event>
 8    1  0.7311878E-012  0.9118800E+02  0.7816164E-02  0.1184000E+00
        -11   -1    0    0    0    0  0.00000000000E+00  0.00000000000E+00  0.45593999997E+02  0.45594000000E+02  0.51100000000E-03 0. -1.
         11   -1    0    0    0    0 -0.00000000000E+00 -0.00000000000E+00 -0.45593999997E+02  0.45594000000E+02  0.51100000000E-03 0.  1.
         23    2    1    2    0    0  0.00000000000E+00  0.35527136788E-14  0.00000000000E+00  0.91188000000E+02  0.91188000000E+02 0.  0.
    9900012    2    3    3    0    0 -0.61224293542E+01 -0.21791648672E+02 -0.33775816753E+02  0.50528857235E+02  0.29999992051E+02 0.  0.
         12    1    3    3    0    0  0.61224293542E+01  0.21791648672E+02  0.33775816753E+02  0.40659142765E+02  0.00000000000E+00 0. -1.
         11    1    4    4    0    0 -0.17133875794E+01 -0.20619005869E+01  0.25206593515E+01  0.36797900559E+01  0.51100000000E-03 0. -1.
        -11    1    4    4    0    0  0.86779472966E+01 -0.59509004762E+01 -0.11170057269E+02  0.15345688821E+02  0.51100000000E-03 0.  1.
         12    1    4    4    0    0 -0.13086989071E+02 -0.13778847609E+02 -0.25126418836E+02  0.31503378357E+02  0.00000000000E+00 0. -1.
</event>
<event>
 8    1  0.7311878E-012  0.9118800E+02  0.7816164E-02  0.1184000E+00
        -11   -1    0    0    0    0  0.00000000000E+00  0.00000000000E+00  0.45593999997E+02  0.45594000000E+02  0.51100000000E-03 0. -1.
         11   -1    0    0    0    0 -0.00000000000E+00 -0.00000000000E+00 -0.45593999997E+02  0.45594000000E+02  0.51100000000E-03 0.  1.
         23    2    1    2    0    0  0.00000000000E+00  0.00000000000E+00  0.00000000000E+00  0.91188000000E+02  0.91188000000E+02 0.  0.
    9900012    2    3    3    0    0  0.16859275275E+02  0.12167609352E+02 -0.34941074522E+02  0.50528873486E+02  0.30000041449E+02 0.  0.
         12    1    3    3    0    0 -0.16859275275E+02 -0.12167609352E+02  0.34941074522E+02  0.40659126514E+02  0.00000000000E+00 0. -1.
         11    1    4    4    0    0  0.73182395896E+01  0.12210693785E+01 -0.13844823340E+02  0.15707538785E+02  0.51100000000E-03 0. -1.
        -11    1    4    4    0    0  0.65261383597E+01  0.15743525229E+02 -0.23191905896E+02  0.28780437243E+02  0.51100000000E-03 0.  1.
         12    1    4    4    0    0  0.30148973253E+01 -0.47969852561E+01  0.20956547135E+01  0.60408974588E+01  0.00000000000E+00 0. -1.
</event>
<event>
 8    1  0.7311878E-012  0.9118800E+02  0.7816164E-02  0.1184000E+00
        -11   -1    0    0    0    0  0.00000000000E+00  0.00000000000E+00  0.45593999997E+02  0.45594000000E+02  0.51100000000E-03 0. -1.
         11   -1    0    0    0    0 -0.00000000000E+00 -0.00000000000E+00 -0.45593999997E+02  0.45594000000E+02  0.51100000000E-03 0.  1.
         23    2    1    2    0    0  0.00000000000E+00  0.88817841970E-15  0.00000000000E+00  0.91188000000E+02  0.91188000000E+02 0.  0.
    9900012    2    3    3    0    0  0.15095733640E+02  0.36422080053E+01 -0.37576837607E+02  0.50528861079E+02  0.30000003735E+02 0.  0.
         12    1    3    3    0    0 -0.15095733640E+02 -0.36422080053E+01  0.37576837607E+02  0.40659138921E+02  0.00000000000E+00 0. -1.
         11    1    4    4    0    0 -0.13998548186E+01 -0.30936831138E+00  0.24958658754E+01  0.28783066192E+01  0.51100000000E-03 0. -1.
        -11    1    4    4    0    0 -0.13482432235E+01  0.74629122450E+01 -0.11109952035E+02  0.13451537215E+02  0.51100000000E-03 0.  1.
        -12    1    4    4    0    0  0.17843831682E+02 -0.35113359283E+01 -0.28962751447E+02  0.34199017244E+02  0.00000000000E+00 0.  1.
</event>
<event>
 8    1  0.7311878E-012  0.9118800E+02  0.7816164E-02  0.1184000E+00
        -11   -1    0    0    0    0  0.00000000000E+00  0.00000000000E+00  0.45593999997E+02  0.45594000000E+02  0.51100000000E-03 0. -1.
         11   -1    0    0    0    0 -0.00000000000E+00 -0.00000000000E+00 -0.45593999997E+02  0.45594000000E+02  0.51100000000E-03 0.  1.
         23    2    1    2    0    0  0.35527136788E-14  0.44408920985E-15  0.00000000000E+00  0.91188000000E+02  0.91188000000E+02 0.  0.
    9900012    2    3    3    0    0 -0.10799783209E+02 -0.38055618330E+01 -0.39013407711E+02  0.50528885408E+02  0.30000077685E+02 0.  0.
         12    1    3    3    0    0  0.10799783209E+02  0.38055618330E+01  0.39013407711E+02  0.40659114592E+02  0.00000000000E+00 0. -1.
         11    1    4    4    0    0 -0.70213797406E+01  0.15931860090E+01 -0.74134257060E+00  0.72379281696E+01  0.51100000000E-03 0. -1.
        -11    1    4    4    0    0 -0.11293507354E+02 -0.30112241550E+01 -0.17232824938E+02  0.20822608743E+02  0.51100000000E-03 0.  1.
         12    1    4    4    0    0  0.75151038861E+01 -0.23875236870E+01 -0.21039240203E+02  0.22468348495E+02  0.00000000000E+00 0. -1.
</event>
<event>
 8    1  0.7311878E-012  0.9118800E+02  0.7816164E-02  0.1184000E+00
        -11   -1    0    0    0    0  0.00000000000E+00  0.00000000000E+00  0.45593999997E+02  0.45594000000E+02  0.51100000000E-03 0. -1.
         11   -1    0    0    0    0 -0.00000000000E+00 -0.00000000000E+00 -0.45593999997E+02  0.45594000000E+02  0.51100000000E-03 0.  1.
         23    2    1    2    0    0  0.44408920985E-15  0.00000000000E+00  0.00000000000E+00  0.91188000000E+02  0.91188000000E+02 0.  0.
    9900012    2    3    3    0    0 -0.19244796014E+01  0.24553830502E+02  0.32350762018E+02  0.50528855676E+02  0.29999987312E+02 0.  0.
        -12    1    3    3    0    0  0.19244796014E+01 -0.24553830502E+02 -0.32350762018E+02  0.40659144324E+02  0.00000000000E+00 0.  1.
         11    1    4    4    0    0  0.38903970668E+01  0.54588771470E+01 -0.85760429167E+00  0.67579593388E+01  0.51100000000E-03 0. -1.
        -11    1    4    4    0    0  0.70709948568E+01  0.31721712814E+01  0.12005858138E+02  0.14289935927E+02  0.51100000000E-03 0.  1.
        -12    1    4    4    0    0 -0.12885871525E+02  0.15922782074E+02  0.21202508171E+02  0.29480960410E+02  0.00000000000E+00 0.  1.
</event>
<event>
 8    1  0.7311878E-012  0.9118800E+02  0.7816164E-02  0.1184000E+00
        -11   -1    0    0    0    0  0.00000000000E+00  0.00000000000E+00  0.45593999997E+02  0.45594000000E+02  0.51100000000E-03 0. -1.
         11   -1    0    0    0    0 -0.00000000000E+00 -0.00000000000E+00 -0.45593999997E+02  0.45594000000E+02  0.51100000000E-03 0.  1.
         23    2    1    2    0    0 -0.88817841970E-15  0.00000000000E+00  0.00000000000E+00  0.91188000000E+02  0.91188000000E+02 0.  0.
    9900012    2    3    3    0    0  0.69697024830E+01 -0.23610366008E+02  0.32359505528E+02  0.50528883756E+02  0.30000072664E+02 0.  0.
        -12    1    3    3    0    0 -0.69697024830E+01  0.23610366008E+02 -0.32359505528E+02  0.40659116244E+02  0.00000000000E+00 0.  1.
         11    1    4    4    0    0  0.60484329895E+01 -0.10356413078E+02  0.18105737538E+02  0.21717655618E+02  0.51100000000E-03 0. -1.
        -11    1    4    4    0    0 -0.93474170761E+01 -0.78774653662E+01  0.28522034863E+01  0.12552439268E+02  0.51100000000E-03 0.  1.
         12    1    4    4    0    0  0.10268686570E+02 -0.53764875642E+01  0.11401564504E+02  0.16258788870E+02  0.00000000000E+00 0. -1.
</event>
<event>
 8    1  0.7311878E-012  0.9118800E+02  0.7816164E-02  0.1184000E+00
        -11   -1    0    0    0    0  0.00000000000E+00  0.00000000000E+00  0.45593999997E+02  0.45594000000E+02  0.51100000000E-03 0.  1.
         11   -1    0    0    0    0 -0.00000000000E+00 -0.00000000000E+00 -0.45593999997E+02  0.45594000000E+02  0.51100000000E-03 0. -1.
         23    2    1    2    0    0 -0.35527136788E-14 -0.35527136788E-14  0.88817841970E-15  0.91188000000E+02  0.91188000000E+02 0.  0.
    9900012    2    3    3    0    0 -0.24771008257E+02 -0.31960399445E+02  0.42539073955E+01  0.50528859442E+02  0.29999998760E+02 0.  0.
        -12    1    3    3    0    0  0.24771008257E+02  0.31960399445E+02 -0.42539073955E+01  0.40659140558E+02  0.00000000000E+00 0.  1.
         11    1    4    4    0    0 -0.16422408891E+02 -0.28308862139E+02 -0.15268173991E+01  0.32763063975E+02  0.51100000000E-03 0. -1.
        -11    1    4    4    0    0 -0.68599110514E+01 -0.36078313294E+01 -0.34009482567E+01  0.84641169558E+01  0.51100000000E-03 0.  1.
        -12    1    4    4    0    0 -0.14886883148E+01 -0.43705977083E-01  0.91816730513E+01  0.93016785116E+01  0.00000000000E+00 0.  1.
</event>
<event>
 8    1  0.7311878E-012  0.9118800E+02  0.7816164E-02  0.1184000E+00
        -11   -1    0    0    0    0  0.00000000000E+00  0.00000000000E+00  0.45593999997E+02  0.45594000000E+02  0.51100000000E-03 0.  1.
         11   -1    0    0    0    0 -0.00000000000E+00 -0.00000000000E+00 -0.45593999997E+02  0.45594000000E+02  0.51100000000E-03 0. -1.
         23    2    1    2    0    0  0.00000000000E+00 -0.71054273576E-14  0.00000000000E+00  0.91188000000E+02  0.91188000000E+02 0.  0.
    9900012    2    3    3    0    0  0.13102594129E+02 -0.35698389107E+02 -0.14391417166E+02  0.50528857783E+02  0.29999993718E+02 0.  0.
         12    1    3    3    0    0 -0.13102594129E+02  0.35698389107E+02  0.14391417166E+02  0.40659142217E+02  0.00000000000E+00 0. -1.
         11    1    4    4    0    0 -0.24766792911E+01 -0.21399924392E+02 -0.73811247250E+01  0.22772169566E+02  0.51100000000E-03 0. -1.
        -11    1    4    4    0    0  0.88780395874E+00 -0.44815517044E+01  0.47034818796E+01  0.65570758423E+01  0.51100000000E-03 0.  1.
        -12    1    4    4    0    0  0.14691469461E+02 -0.98169130108E+01 -0.11713774321E+02  0.21199612375E+02  0.00000000000E+00 0.  1.
</event>
<event>
 8    1  0.7311878E-012  0.9118800E+02  0.7816164E-02  0.1184000E+00
        -11   -1    0    0    0    0  0.00000000000E+00  0.00000000000E+00  0.45593999997E+02  0.45594000000E+02  0.51100000000E-03 0. -1.
         11   -1    0    0    0    0 -0.00000000000E+00 -0.00000000000E+00 -0.45593999997E+02  0.45594000000E+02  0.51100000000E-03 0.  1.
         23    2    1    2    0    0 -0.17763568394E-14  0.17763568394E-14  0.00000000000E+00  0.91188000000E+02  0.91188000000E+02 0.  0.
    9900012    2    3    3    0    0 -0.10555183304E+02  0.10217362072E+02  0.37912535703E+02  0.50528846716E+02  0.29999960079E+02 0.  0.
        -12    1    3    3    0    0  0.10555183304E+02 -0.10217362072E+02 -0.37912535703E+02  0.40659153284E+02  0.00000000000E+00 0.  1.
         11    1    4    4    0    0 -0.58750979045E+01 -0.38284728645E+01  0.27531273948E+02  0.28410297875E+02  0.51100000000E-03 0. -1.
        -11    1    4    4    0    0 -0.35538580235E+01 -0.59021502291E+00 -0.77010277187E+00  0.36839271389E+01  0.51100000000E-03 0.  1.
        -12    1    4    4    0    0 -0.11262273759E+01  0.14636049959E+02  0.11151364527E+02  0.18434621703E+02  0.00000000000E+00 0.  1.
</event>
<event>
 8    1  0.7311878E-012  0.9118800E+02  0.7816164E-02  0.1184000E+00
        -11   -1    0    0    0    0  0.00000000000E+00  0.00000000000E+00  0.45593999997E+02  0.45594000000E+02  0.51100000000E-03 0.  1.
         11   -1    0    0    0    0 -0.00000000000E+00 -0.00000000000E+00 -0.45593999997E+02  0.45594000000E+02  0.51100000000E-03 0. -1.
         23    2    1    2    0    0  0.35527136788E-14  0.33306690739E-15 -0.35527136788E-14  0.91188000000E+02  0.91188000000E+02 0.  0.
    9900012    2    3    3    0    0  0.25790722480E+02 -0.99761236925E+00 -0.31416699724E+02  0.50528860585E+02  0.30000002233E+02 0.  0.
         12    1    3    3    0    0 -0.25790722480E+02  0.99761236925E+00  0.31416699724E+02  0.40659139415E+02  0.00000000000E+00 0. -1.
         11    1    4    4    0    0  0.17125887376E+02  0.15543884448E+01 -0.31193459479E+02  0.35619433690E+02  0.51100000000E-03 0. -1.
        -11    1    4    4    0    0  0.97172458501E+01 -0.58804249612E+01 -0.73266336995E+00  0.11381610629E+02  0.51100000000E-03 0.  1.
        -12    1    4    4    0    0 -0.10524107469E+01  0.33284241471E+01  0.50942312525E+00  0.35278162656E+01  0.00000000000E+00 0.  1.
</event>
<event>
 8    1  0.7311878E-012  0.9118800E+02  0.7816164E-02  0.1184000E+00
        -11   -1    0    0    0    0  0.00000000000E+00  0.00000000000E+00  0.45593999997E+02  0.45594000000E+02  0.51100000000E-03 0. -1.
         11   -1    0    0    0    0 -0.00000000000E+00 -0.00000000000E+00 -0.45593999997E+02  0.45594000000E+02  0.51100000000E-03 0.  1.
         23    2    1    2    0    0  0.17763568394E-14  0.00000000000E+00 -0.71054273576E-14  0.91188000000E+02  0.91188000000E+02 0.  0.
    9900012    2    3    3    0    0  0.55515040009E+01 -0.96775029987E+01 -0.39098467151E+02  0.50528887928E+02  0.30000085346E+02 0.  0.
         12    1    3    3    0    0 -0.55515040009E+01  0.96775029987E+01  0.39098467151E+02  0.40659112072E+02  0.00000000000E+00 0. -1.
         11    1    4    4    0    0  0.12196956676E+02 -0.68307488272E+01 -0.27533796279E+02  0.30879359118E+02  0.51100000000E-03 0. -1.
        -11    1    4    4    0    0 -0.55695653147E+01 -0.48962001997E+01 -0.14274411067E+02  0.16085759098E+02  0.51100000000E-03 0.  1.
         12    1    4    4    0    0 -0.10758873609E+01  0.20494460281E+01  0.27097401956E+01  0.35637697124E+01  0.00000000000E+00 0. -1.
</event>
<event>
 8    1  0.7311878E-012  0.9118800E+02  0.7816164E-02  0.1184000E+00
        -11   -1    0    0    0    0  0.00000000000E+00  0.00000000000E+00  0.45593999997E+02  0.45594000000E+02  0.51100000000E-03 0. -1.
         11   -1    0    0    0    0 -0.00000000000E+00 -0.00000000000E+00 -0.45593999997E+02  0.45594000000E+02  0.51100000000E-03 0.  1.
         23    2    1    2    0    0 -0.88817841970E-15  0.00000000000E+00  0.00000000000E+00  0.91188000000E+02  0.91188000000E+02 0.  0.
    9900012    2    3    3    0    0  0.54269682489E+01 -0.14848306478E+02  0.37459861117E+02  0.50528863455E+02  0.30000010958E+02 0.  0.
        -12    1    3    3    0    0 -0.54269682489E+01  0.14848306478E+02 -0.37459861117E+02  0.40659136545E+02  0.00000000000E+00 0.  1.
         11    1    4    4    0    0  0.85773763876E+01 -0.63559962096E+01  0.22941658144E+02  0.25303947363E+02  0.51100000000E-03 0. -1.
        -11    1    4    4    0    0  0.34683312092E+01  0.45319629647E+01  0.61438716575E+01  0.83854140563E+01  0.51100000000E-03 0.  1.
         12    1    4    4    0    0 -0.66187393479E+01 -0.13024273233E+02  0.83743313157E+01  0.16839502035E+02  0.00000000000E+00 0. -1.
</event>
<event>
 8    1  0.7311878E-012  0.9118800E+02  0.7816164E-02  0.1184000E+00
        -11   -1    0    0    0    0  0.00000000000E+00  0.00000000000E+00  0.45593999997E+02  0.45594000000E+02  0.51100000000E-03 0. -1.
         11   -1    0    0    0    0 -0.00000000000E+00 -0.00000000000E+00 -0.45593999997E+02  0.45594000000E+02  0.51100000000E-03 0.  1.
         23    2    1    2    0    0 -0.35527136788E-14  0.44408920985E-15  0.35527136788E-14  0.91188000000E+02  0.91188000000E+02 0.  0.
    9900012    2    3    3    0    0  0.31792992599E+02 -0.10691430954E+01 -0.25322490282E+02  0.50528856386E+02  0.29999989470E+02 0.  0.
         12    1    3    3    0    0 -0.31792992599E+02  0.10691430954E+01  0.25322490282E+02  0.40659143614E+02  0.00000000000E+00 0. -1.
         11    1    4    4    0    0 -0.10134687645E+01  0.72856303112E+01 -0.36724765990E+01  0.82215942857E+01  0.51100000000E-03 0. -1.
        -11    1    4    4    0    0  0.10514639371E+02 -0.36538159662E+01 -0.37771278511E+00  0.11137804066E+02  0.51100000000E-03 0.  1.
         12    1    4    4    0    0  0.22291821993E+02 -0.47009574404E+01 -0.21272300898E+02  0.31169458034E+02  0.00000000000E+00 0. -1.
</event>
<event>
 8    1  0.7311878E-012  0.9118800E+02  0.7816164E-02  0.1184000E+00
        -11   -1    0    0    0    0  0.00000000000E+00  0.00000000000E+00  0.45593999997E+02  0.45594000000E+02  0.51100000000E-03 0. -1.
         11   -1    0    0    0    0 -0.00000000000E+00 -0.00000000000E+00 -0.45593999997E+02  0.45594000000E+02  0.51100000000E-03 0.  1.
         23    2    1    2    0    0  0.00000000000E+00  0.35527136788E-14  0.00000000000E+00  0.91188000000E+02  0.91188000000E+02 0.  0.
    9900012    2    3    3    0    0  0.16785576073E+02  0.28275634936E+02 -0.23914377437E+02  0.50528873800E+02  0.30000042403E+02 0.  0.
         12    1    3    3    0    0 -0.16785576073E+02 -0.28275634936E+02  0.23914377437E+02  0.40659126200E+02  0.00000000000E+00 0. -1.
         11    1    4    4    0    0  0.51364958806E+01  0.11877574013E+00  0.48730045223E+01  0.70812337162E+01  0.51100000000E-03 0. -1.
        -11    1    4    4    0    0  0.65048655210E+01  0.36500707143E+01 -0.56966431144E+01  0.93855226119E+01  0.51100000000E-03 0.  1.
        -12    1    4    4    0    0  0.51442146713E+01  0.24506788481E+02 -0.23090738845E+02  0.34062117472E+02  0.00000000000E+00 0.  1.
</event>
<event>
 8    1  0.9339954E-012  0.9118800E+02  0.7816164E-02  0.1184000E+00
        -11   -1    0    0    0    0  0.00000000000E+00  0.00000000000E+00  0.45593999997E+02  0.45594000000E+02  0.51100000000E-03 0. -1.
         11   -1    0    0    0    0 -0.00000000000E+00 -0.00000000000E+00 -0.45593999997E+02  0.45594000000E+02  0.51100000000E-03 0.  1.
         23    2    1    2    0    0  0.35527136788E-14  0.00000000000E+00  0.71054273576E-14  0.91188000000E+02  0.91188000000E+02 0.  0.
    9900012    2    3    3    0    0 -0.28872015715E+02 -0.96977573566E+01 -0.26935565229E+02  0.50528874783E+02  0.30000045390E+02 0.  0.
         12    1    3    3    0    0  0.28872015715E+02  0.96977573566E+01  0.26935565229E+02  0.40659125217E+02  0.00000000000E+00 0. -1.
         11    1    4    4    0    0 -0.65206152745E+01 -0.79650199717E-01  0.23249060315E+01  0.69231463966E+01  0.51100000000E-03 0. -1.
        -11    1    4    4    0    0 -0.26176572124E+02 -0.55743906586E+01 -0.24353687058E+02  0.36185478206E+02  0.51100000000E-03 0.  1.
         12    1    4    4    0    0  0.38251716835E+01 -0.40437164983E+01 -0.49067842025E+01  0.74202501802E+01  0.00000000000E+00 0. -1.
</event>
<event>
 8    1  0.7311878E-012  0.9118800E+02  0.7816164E-02  0.1184000E+00
        -11   -1    0    0    0    0  0.00000000000E+00  0.00000000000E+00  0.45593999997E+02  0.45594000000E+02  0.51100000000E-03 0. -1.
         11   -1    0    0    0    0 -0.00000000000E+00 -0.00000000000E+00 -0.45593999997E+02  0.45594000000E+02  0.51100000000E-03 0.  1.
         23    2    1    2    0    0  0.00000000000E+00  0.17763568394E-14  0.00000000000E+00  0.91188000000E+02  0.91188000000E+02 0.  0.
    9900012    2    3    3    0    0  0.13501324293E+02 -0.13363663317E+02 -0.35948461135E+02  0.50528866796E+02  0.30000021113E+02 0.  0.
         12    1    3    3    0    0 -0.13501324293E+02  0.13363663317E+02  0.35948461135E+02  0.40659133204E+02  0.00000000000E+00 0. -1.
         11    1    4    4    0    0 -0.25906991663E+01 -0.80930590371E+01 -0.11116222903E+02  0.13992131311E+02  0.51100000000E-03 0. -1.
        -11    1    4    4    0    0 -0.18776407669E+01  0.36129549808E+01 -0.12154954211E+02  0.12818810033E+02  0.51100000000E-03 0.  1.
         12    1    4    4    0    0  0.17969664226E+02 -0.88835592612E+01 -0.12677284022E+02  0.23717925451E+02  0.00000000000E+00 0. -1.
</event>
<event>
 8    1  0.7311878E-012  0.9118800E+02  0.7816164E-02  0.1184000E+00
        -11   -1    0    0    0    0  0.00000000000E+00  0.00000000000E+00  0.45593999997E+02  0.45594000000E+02  0.51100000000E-03 0. -1.
         11   -1    0    0    0    0 -0.00000000000E+00 -0.00000000000E+00 -0.45593999997E+02  0.45594000000E+02  0.51100000000E-03 0.  1.
         23    2    1    2    0    0 -0.35527136788E-14 -0.35527136788E-14  0.00000000000E+00  0.91188000000E+02  0.91188000000E+02 0.  0.
    9900012    2    3    3    0    0  0.28292289657E+02  0.22996129813E+02 -0.17996954502E+02  0.50528855742E+02  0.29999987515E+02 0.  0.
         12    1    3    3    0    0 -0.28292289657E+02 -0.22996129813E+02  0.17996954502E+02  0.40659144258E+02  0.00000000000E+00 0. -1.
         11    1    4    4    0    0  0.80367933803E+01  0.54433774411E+01 -0.13219895653E+02  0.16400794101E+02  0.51100000000E-03 0. -1.
        -11    1    4    4    0    0 -0.26701841156E+01  0.85447076682E+01 -0.29614207141E+01  0.94293120244E+01  0.51100000000E-03 0.  1.
         12    1    4    4    0    0  0.22925680392E+02  0.90080447042E+01 -0.18156381353E+01  0.24698749617E+02  0.00000000000E+00 0. -1.
</event>
<event>
 8    1  0.7311878E-012  0.9118800E+02  0.7816164E-02  0.1184000E+00
        -11   -1    0    0    0    0  0.00000000000E+00  0.00000000000E+00  0.45593999997E+02  0.45594000000E+02  0.51100000000E-03 0. -1.
         11   -1    0    0    0    0 -0.00000000000E+00 -0.00000000000E+00 -0.45593999997E+02  0.45594000000E+02  0.51100000000E-03 0.  1.
         23    2    1    2    0    0  0.00000000000E+00 -0.17763568394E-14  0.71054273576E-14  0.91188000000E+02  0.91188000000E+02 0.  0.
    9900012    2    3    3    0    0  0.47647748045E+01 -0.49906286212E+01  0.40069397835E+02  0.50528854709E+02  0.29999984372E+02 0.  0.
        -12    1    3    3    0    0 -0.47647748045E+01  0.49906286212E+01 -0.40069397835E+02  0.40659145291E+02  0.00000000000E+00 0.  1.
         11    1    4    4    0    0  0.31527821336E+01 -0.37955967684E+01  0.17721295356E+02  0.18395404300E+02  0.51100000000E-03 0. -1.
        -11    1    4    4    0    0 -0.60849783754E+01 -0.95984419360E+01  0.13862067158E+02  0.17925232372E+02  0.51100000000E-03 0.  1.
        -12    1    4    4    0    0  0.76969710462E+01  0.84034100831E+01  0.84860353209E+01  0.14208218037E+02  0.00000000000E+00 0.  1.
</event>
<event>
 8    1  0.7311878E-012  0.9118800E+02  0.7816164E-02  0.1184000E+00
        -11   -1    0    0    0    0  0.00000000000E+00  0.00000000000E+00  0.45593999997E+02  0.45594000000E+02  0.51100000000E-03 0. -1.
         11   -1    0    0    0    0 -0.00000000000E+00 -0.00000000000E+00 -0.45593999997E+02  0.45594000000E+02  0.51100000000E-03 0.  1.
         23    2    1    2    0    0  0.00000000000E+00  0.17763568394E-14  0.00000000000E+00  0.91188000000E+02  0.91188000000E+02 0.  0.
    9900012    2    3    3    0    0  0.19272135401E+02 -0.67923637180E+01  0.35151297484E+02  0.50528866676E+02  0.30000020750E+02 0.  0.
        -12    1    3    3    0    0 -0.19272135401E+02  0.67923637180E+01 -0.35151297484E+02  0.40659133324E+02  0.00000000000E+00 0.  1.
         11    1    4    4    0    0  0.14753550566E+02 -0.47793198364E+01  0.88948473934E+01  0.17878128057E+02  0.51100000000E-03 0. -1.
        -11    1    4    4    0    0  0.31326559815E+01 -0.10262922736E+02  0.11807915643E+02  0.15955186889E+02  0.51100000000E-03 0.  1.
        -12    1    4    4    0    0  0.13859288539E+01  0.82498788542E+01  0.14448534448E+02  0.16695551731E+02  0.00000000000E+00 0.  1.
</event>
<event>
 8    1  0.7311878E-012  0.9118800E+02  0.7816164E-02  0.1184000E+00
        -11   -1    0    0    0    0  0.00000000000E+00  0.00000000000E+00  0.45593999997E+02  0.45594000000E+02  0.51100000000E-03 0. -1.
         11   -1    0    0    0    0 -0.00000000000E+00 -0.00000000000E+00 -0.45593999997E+02  0.45594000000E+02  0.51100000000E-03 0.  1.
         23    2    1    2    0    0 -0.17763568394E-14  0.35527136788E-14  0.00000000000E+00  0.91188000000E+02  0.91188000000E+02 0.  0.
    9900012    2    3    3    0    0  0.99540500847E+01 -0.23301774341E+02  0.31798006902E+02  0.50528818460E+02  0.29999874191E+02 0.  0.
        -12    1    3    3    0    0 -0.99540500847E+01  0.23301774341E+02 -0.31798006902E+02  0.40659181540E+02  0.00000000000E+00 0.  1.
         11    1    4    4    0    0 -0.73696559828E-01  0.32209168246E+01 -0.10672535793E+01  0.33939308828E+01  0.51100000000E-03 0. -1.
        -11    1    4    4    0    0  0.50947415683E+01 -0.16415363957E+01  0.15490808054E+02  0.16389513959E+02  0.51100000000E-03 0.  1.
         12    1    4    4    0    0  0.49330050763E+01 -0.24881154770E+02  0.17374452428E+02  0.30745373618E+02  0.00000000000E+00 0. -1.
</event>
<event>
 8    1  0.7311878E-012  0.9118800E+02  0.7816164E-02  0.1184000E+00
        -11   -1    0    0    0    0  0.00000000000E+00  0.00000000000E+00  0.45593999997E+02  0.45594000000E+02  0.51100000000E-03 0. -1.
         11   -1    0    0    0    0 -0.00000000000E+00 -0.00000000000E+00 -0.45593999997E+02  0.45594000000E+02  0.51100000000E-03 0.  1.
         23    2    1    2    0    0  0.00000000000E+00 -0.17763568394E-14  0.00000000000E+00  0.91188000000E+02  0.91188000000E+02 0.  0.
    9900012    2    3    3    0    0  0.34569986550E+02  0.13774312348E+02  0.16381365700E+02  0.50528870731E+02  0.30000033075E+02 0.  0.
        -12    1    3    3    0    0 -0.34569986550E+02 -0.13774312348E+02 -0.16381365700E+02  0.40659129269E+02  0.00000000000E+00 0.  1.
         11    1    4    4    0    0  0.90126491750E+01 -0.13075380810E+01  0.12680015395E+02  0.15611543539E+02  0.51100000000E-03 0. -1.
        -11    1    4    4    0    0 -0.26858934799E+01  0.23109661637E+01 -0.69487789677E+00  0.36107400831E+01  0.51100000000E-03 0.  1.
        -12    1    4    4    0    0  0.28243230855E+02  0.12770884265E+02  0.43962282012E+01  0.31306587109E+02  0.00000000000E+00 0.  1.
</event>
<event>
 8    1  0.7311878E-012  0.9118800E+02  0.7816164E-02  0.1184000E+00
        -11   -1    0    0    0    0  0.00000000000E+00  0.00000000000E+00  0.45593999997E+02  0.45594000000E+02  0.51100000000E-03 0.  1.
         11   -1    0    0    0    0 -0.00000000000E+00 -0.00000000000E+00 -0.45593999997E+02  0.45594000000E+02  0.51100000000E-03 0. -1.
         23    2    1    2    0    0 -0.71054273576E-14  0.00000000000E+00  0.00000000000E+00  0.91188000000E+02  0.91188000000E+02 0.  0.
    9900012    2    3    3    0    0 -0.33948313617E+02 -0.20110167474E+02 -0.98111599043E+01  0.50528859676E+02  0.29999999470E+02 0.  0.
         12    1    3    3    0    0  0.33948313617E+02  0.20110167474E+02  0.98111599043E+01  0.40659140324E+02  0.00000000000E+00 0. -1.
         11    1    4    4    0    0 -0.19223604630E+02 -0.16826155897E+01 -0.24026507291E+01  0.19446102462E+02  0.51100000000E-03 0. -1.
        -11    1    4    4    0    0 -0.82530857103E+01 -0.54217459868E+01  0.57971541331E+01  0.11450578570E+02  0.51100000000E-03 0.  1.
        -12    1    4    4    0    0 -0.64716232769E+01 -0.13005805897E+02 -0.13205663308E+02  0.19632178643E+02  0.00000000000E+00 0.  1.
</event>
<event>
 8    1  0.7311878E-012  0.9118800E+02  0.7816164E-02  0.1184000E+00
        -11   -1    0    0    0    0  0.00000000000E+00  0.00000000000E+00  0.45593999997E+02  0.45594000000E+02  0.51100000000E-03 0. -1.
         11   -1    0    0    0    0 -0.00000000000E+00 -0.00000000000E+00 -0.45593999997E+02  0.45594000000E+02  0.51100000000E-03 0.  1.
         23    2    1    2    0    0  0.00000000000E+00  0.88817841970E-15  0.00000000000E+00  0.91188000000E+02  0.91188000000E+02 0.  0.
    9900012    2    3    3    0    0  0.28922263249E+02  0.31957228592E+01  0.28398172736E+02  0.50528853787E+02  0.29999981572E+02 0.  0.
        -12    1    3    3    0    0 -0.28922263249E+02 -0.31957228592E+01 -0.28398172736E+02  0.40659146213E+02  0.00000000000E+00 0.  1.
         11    1    4    4    0    0 -0.24441095794E+00  0.77925249330E+01  0.11585793806E+02  0.13964734151E+02  0.51100000000E-03 0. -1.
        -11    1    4    4    0    0  0.12397678236E+02  0.25166370815E+01  0.14459577425E+01  0.12732897623E+02  0.51100000000E-03 0.  1.
         12    1    4    4    0    0  0.16768995971E+02 -0.71134391554E+01  0.15366421187E+02  0.23831222013E+02  0.00000000000E+00 0. -1.
</event>
<event>
 8    1  0.7311878E-012  0.9118800E+02  0.7816164E-02  0.1184000E+00
        -11   -1    0    0    0    0  0.00000000000E+00  0.00000000000E+00  0.45593999997E+02  0.45594000000E+02  0.51100000000E-03 0. -1.
         11   -1    0    0    0    0 -0.00000000000E+00 -0.00000000000E+00 -0.45593999997E+02  0.45594000000E+02  0.51100000000E-03 0.  1.
         23    2    1    2    0    0  0.88817841970E-15  0.00000000000E+00  0.00000000000E+00  0.91188000000E+02  0.91188000000E+02 0.  0.
    9900012    2    3    3    0    0  0.64487965397E+01  0.26802219995E+02 -0.29886779564E+02  0.50528861222E+02  0.30000004170E+02 0.  0.
         12    1    3    3    0    0 -0.64487965397E+01 -0.26802219995E+02  0.29886779564E+02  0.40659138778E+02  0.00000000000E+00 0. -1.
         11    1    4    4    0    0 -0.46099948264E+01  0.92202576094E+01 -0.15906197550E+01  0.10430497311E+02  0.51100000000E-03 0. -1.
        -11    1    4    4    0    0  0.18317702691E+01  0.17044049636E+02 -0.24944235567E+02  0.30266646636E+02  0.51100000000E-03 0.  1.
        -12    1    4    4    0    0  0.92270210970E+01  0.53791274915E+00 -0.33519242425E+01  0.98317172751E+01  0.00000000000E+00 0.  1.
</event>
<event>
 8    1  0.7311878E-012  0.9118800E+02  0.7816164E-02  0.1184000E+00
        -11   -1    0    0    0    0  0.00000000000E+00  0.00000000000E+00  0.45593999997E+02  0.45594000000E+02  0.51100000000E-03 0. -1.
         11   -1    0    0    0    0 -0.00000000000E+00 -0.00000000000E+00 -0.45593999997E+02  0.45594000000E+02  0.51100000000E-03 0.  1.
         23    2    1    2    0    0  0.00000000000E+00  0.00000000000E+00  0.00000000000E+00  0.91188000000E+02  0.91188000000E+02 0.  0.
    9900012    2    3    3    0    0  0.19908227394E+02 -0.21855105474E+02  0.27913873203E+02  0.50528837805E+02  0.29999932992E+02 0.  0.
        -12    1    3    3    0    0 -0.19908227394E+02  0.21855105474E+02 -0.27913873203E+02  0.40659162195E+02  0.00000000000E+00 0.  1.
         11    1    4    4    0    0  0.12813092378E+02 -0.16013223171E+02  0.91323922668E+01  0.22449927425E+02  0.51100000000E-03 0. -1.
        -11    1    4    4    0    0  0.60942695487E+01  0.19368951048E+01 -0.12953634134E+01  0.65245421765E+01  0.51100000000E-03 0.  1.
         12    1    4    4    0    0  0.10008654669E+01 -0.77787774076E+01  0.20076844349E+02  0.21554368204E+02  0.00000000000E+00 0. -1.
</event>
<event>
 8    1  0.7311878E-012  0.9118800E+02  0.7816164E-02  0.1184000E+00
        -11   -1    0    0    0    0  0.00000000000E+00  0.00000000000E+00  0.45593999997E+02  0.45594000000E+02  0.51100000000E-03 0. -1.
         11   -1    0    0    0    0 -0.00000000000E+00 -0.00000000000E+00 -0.45593999997E+02  0.45594000000E+02  0.51100000000E-03 0.  1.
         23    2    1    2    0    0  0.00000000000E+00  0.00000000000E+00  0.00000000000E+00  0.91188000000E+02  0.91188000000E+02 0.  0.
    9900012    2    3    3    0    0 -0.66793553000E+01  0.17463885432E+02  0.36104915406E+02  0.50528855911E+02  0.29999988026E+02 0.  0.
        -12    1    3    3    0    0  0.66793553000E+01 -0.17463885432E+02 -0.36104915406E+02  0.40659144089E+02  0.00000000000E+00 0.  1.
         11    1    4    4    0    0 -0.61519508960E+01 -0.35374399968E+01  0.13088665645E+02  0.14888692024E+02  0.51100000000E-03 0. -1.
        -11    1    4    4    0    0 -0.83808052982E+01  0.15313543457E+02  0.13668138663E+02  0.22171164277E+02  0.51100000000E-03 0.  1.
         12    1    4    4    0    0  0.78534008942E+01  0.56877819724E+01  0.93481110985E+01  0.13468999609E+02  0.00000000000E+00 0. -1.
</event>
<event>
 8    1  0.8029289E-012  0.9118800E+02  0.7816164E-02  0.1184000E+00
        -11   -1    0    0    0    0  0.00000000000E+00  0.00000000000E+00  0.45593999997E+02  0.45594000000E+02  0.51100000000E-03 0. -1.
         11   -1    0    0    0    0 -0.00000000000E+00 -0.00000000000E+00 -0.45593999997E+02  0.45594000000E+02  0.51100000000E-03 0.  1.
         23    2    1    2    0    0  0.00000000000E+00  0.35527136788E-14  0.00000000000E+00  0.91188000000E+02  0.91188000000E+02 0.  0.
    9900012    2    3    3    0    0 -0.68412296644E+01  0.21492088769E+02 -0.33829769850E+02  0.50528860424E+02  0.30000001743E+02 0.  0.
         12    1    3    3    0    0  0.68412296644E+01 -0.21492088769E+02  0.33829769850E+02  0.40659139576E+02  0.00000000000E+00 0. -1.
         11    1    4    4    0    0  0.35316808725E+00  0.27966461194E+01  0.34280021599E+01  0.44381478439E+01  0.51100000000E-03 0. -1.
        -11    1    4    4    0    0  0.53196394807E+01  0.95160900031E+00 -0.67989230068E+01  0.86850145773E+01  0.51100000000E-03 0.  1.
        -12    1    4    4    0    0 -0.12514037232E+02  0.17743833650E+02 -0.30458849003E+02  0.37405698002E+02  0.00000000000E+00 0.  1.
</event>
<event>
 8    1  0.7311878E-012  0.9118800E+02  0.7816164E-02  0.1184000E+00
        -11   -1    0    0    0    0  0.00000000000E+00  0.00000000000E+00  0.45593999997E+02  0.45594000000E+02  0.51100000000E-03 0. -1.
         11   -1    0    0    0    0 -0.00000000000E+00 -0.00000000000E+00 -0.45593999997E+02  0.45594000000E+02  0.51100000000E-03 0.  1.
         23    2    1    2    0    0 -0.17763568394E-14 -0.71054273576E-14  0.00000000000E+00  0.91188000000E+02  0.91188000000E+02 0.  0.
    9900012    2    3    3    0    0 -0.13678302090E+02 -0.33086559791E+02  0.19270429518E+02  0.50528857846E+02  0.29999993910E+02 0.  0.
        -12    1    3    3    0    0  0.13678302090E+02  0.33086559791E+02 -0.19270429518E+02  0.40659142154E+02  0.00000000000E+00 0.  1.
         11    1    4    4    0    0 -0.77260088334E+01 -0.14820777195E+02  0.65448306795E+01  0.17949413863E+02  0.51100000000E-03 0. -1.
        -11    1    4    4    0    0 -0.11407473910E+02 -0.69719910814E+01  0.14713845312E+02  0.19880552426E+02  0.51100000000E-03 0.  1.
        -12    1    4    4    0    0  0.54551806533E+01 -0.11293791515E+02 -0.19882464735E+01  0.12698891557E+02  0.00000000000E+00 0.  1.
</event>
<event>
 8    1  0.7311878E-012  0.9118800E+02  0.7816164E-02  0.1184000E+00
        -11   -1    0    0    0    0  0.00000000000E+00  0.00000000000E+00  0.45593999997E+02  0.45594000000E+02  0.51100000000E-03 0. -1.
         11   -1    0    0    0    0 -0.00000000000E+00 -0.00000000000E+00 -0.45593999997E+02  0.45594000000E+02  0.51100000000E-03 0.  1.
         23    2    1    2    0    0 -0.35527136788E-14  0.88817841970E-15 -0.10658141036E-13  0.91188000000E+02  0.91188000000E+02 0.  0.
    9900012    2    3    3    0    0  0.26042780746E+02 -0.52390469256E+01 -0.30781357338E+02  0.50528855872E+02  0.29999987908E+02 0.  0.
         12    1    3    3    0    0 -0.26042780746E+02  0.52390469256E+01  0.30781357338E+02  0.40659144128E+02  0.00000000000E+00 0. -1.
         11    1    4    4    0    0 -0.25723114485E+01 -0.33421498229E+01 -0.88721683277E+01  0.98235493953E+01  0.51100000000E-03 0. -1.
        -11    1    4    4    0    0  0.19830097633E+02 -0.34321714988E+01 -0.24222583894E+02  0.31492001271E+02  0.51100000000E-03 0.  1.
         12    1    4    4    0    0  0.87849945615E+01  0.15352743961E+01  0.23133948831E+01  0.92133052051E+01  0.00000000000E+00 0. -1.
</event>
<event>
 8    1  0.7311878E-012  0.9118800E+02  0.7816164E-02  0.1184000E+00
        -11   -1    0    0    0    0  0.00000000000E+00  0.00000000000E+00  0.45593999997E+02  0.45594000000E+02  0.51100000000E-03 0. -1.
         11   -1    0    0    0    0 -0.00000000000E+00 -0.00000000000E+00 -0.45593999997E+02  0.45594000000E+02  0.51100000000E-03 0.  1.
         23    2    1    2    0    0  0.35527136788E-14  0.00000000000E+00 -0.17763568394E-14  0.91188000000E+02  0.91188000000E+02 0.  0.
    9900012    2    3    3    0    0 -0.27818757204E+02 -0.26650973985E+02  0.13000298408E+02  0.50528862952E+02  0.30000009430E+02 0.  0.
        -12    1    3    3    0    0  0.27818757204E+02  0.26650973985E+02 -0.13000298408E+02  0.40659137048E+02  0.00000000000E+00 0.  1.
         11    1    4    4    0    0 -0.20253257918E+01 -0.16847971130E+01 -0.49130334263E+01  0.55747989725E+01  0.51100000000E-03 0. -1.
        -11    1    4    4    0    0  0.44288604651E-02 -0.60516084659E+01 -0.29809142496E+01  0.67459495005E+01  0.51100000000E-03 0.  1.
         12    1    4    4    0    0 -0.25797860273E+02 -0.18914568407E+02  0.20894246084E+02  0.38208114479E+02  0.00000000000E+00 0. -1.
</event>
<event>
 8    1  0.7311878E-012  0.9118800E+02  0.7816164E-02  0.1184000E+00
        -11   -1    0    0    0    0  0.00000000000E+00  0.00000000000E+00  0.45593999997E+02  0.45594000000E+02  0.51100000000E-03 0. -1.
         11   -1    0    0    0    0 -0.00000000000E+00 -0.00000000000E+00 -0.45593999997E+02  0.45594000000E+02  0.51100000000E-03 0.  1.
         23    2    1    2    0    0  0.88817841970E-15  0.35527136788E-14 -0.35527136788E-14  0.91188000000E+02  0.91188000000E+02 0.  0.
    9900012    2    3    3    0    0  0.20314141971E+01  0.26566367475E+02  0.30712661543E+02  0.50528854615E+02  0.29999984086E+02 0.  0.
        -12    1    3    3    0    0 -0.20314141971E+01 -0.26566367475E+02 -0.30712661543E+02  0.40659145385E+02  0.00000000000E+00 0.  1.
         11    1    4    4    0    0  0.67453003273E+01  0.17905312143E+02  0.28817949158E+02  0.34591523143E+02  0.51100000000E-03 0. -1.
        -11    1    4    4    0    0  0.16954392351E+01 -0.18265166274E+01  0.26314765035E+01  0.36242717944E+01  0.51100000000E-03 0.  1.
        -12    1    4    4    0    0 -0.64093253652E+01  0.10487571960E+02 -0.73676411876E+00  0.12313059677E+02  0.00000000000E+00 0.  1.
</event>
<event>
 8    1  0.7311878E-012  0.9118800E+02  0.7816164E-02  0.1184000E+00
        -11   -1    0    0    0    0  0.00000000000E+00  0.00000000000E+00  0.45593999997E+02  0.45594000000E+02  0.51100000000E-03 0. -1.
         11   -1    0    0    0    0 -0.00000000000E+00 -0.00000000000E+00 -0.45593999997E+02  0.45594000000E+02  0.51100000000E-03 0.  1.
         23    2    1    2    0    0  0.71054273576E-14 -0.88817841970E-15  0.35527136788E-14  0.91188000000E+02  0.91188000000E+02 0.  0.
    9900012    2    3    3    0    0 -0.29421196541E+02  0.45134981583E+01 -0.27698139109E+02  0.50528863491E+02  0.30000011067E+02 0.  0.
         12    1    3    3    0    0  0.29421196541E+02 -0.45134981583E+01  0.27698139109E+02  0.40659136509E+02  0.00000000000E+00 0. -1.
         11    1    4    4    0    0 -0.13703004363E+02 -0.22890807809E+00  0.11124386670E+01  0.13749990819E+02  0.51100000000E-03 0. -1.
        -11    1    4    4    0    0 -0.12070892501E+02 -0.30501685861E+01 -0.95738127402E+01  0.15705663463E+02  0.51100000000E-03 0.  1.
         12    1    4    4    0    0 -0.36472996776E+01  0.77925748225E+01 -0.19236765036E+02  0.21073209209E+02  0.00000000000E+00 0. -1.
</event>
<event>
 8    1  0.7891131E-012  0.9118800E+02  0.7816164E-02  0.1184000E+00
        -11   -1    0    0    0    0  0.00000000000E+00  0.00000000000E+00  0.45593999997E+02  0.45594000000E+02  0.51100000000E-03 0. -1.
         11   -1    0    0    0    0 -0.00000000000E+00 -0.00000000000E+00 -0.45593999997E+02  0.45594000000E+02  0.51100000000E-03 0.  1.
         23    2    1    2    0    0  0.88817841970E-15  0.00000000000E+00  0.35527136788E-14  0.91188000000E+02  0.91188000000E+02 0.  0.
    9900012    2    3    3    0    0  0.76318972330E+01  0.26377258625E+02 -0.29985990929E+02  0.50528864741E+02  0.30000014868E+02 0.  0.
         12    1    3    3    0    0 -0.76318972330E+01 -0.26377258625E+02  0.29985990929E+02  0.40659135259E+02  0.00000000000E+00 0. -1.
         11    1    4    4    0    0 -0.46876917804E+01 -0.25693724818E+01 -0.69553379230E+01  0.87722776440E+01  0.51100000000E-03 0. -1.
        -11    1    4    4    0    0  0.68270421016E+01  0.62149354528E+01 -0.44196998689E+00  0.92427952628E+01  0.51100000000E-03 0.  1.
        -12    1    4    4    0    0  0.54925469117E+01  0.22731695654E+02 -0.22588683019E+02  0.32513791834E+02  0.00000000000E+00 0.  1.
</event>
<event>
 8    1  0.7311878E-012  0.9118800E+02  0.7816164E-02  0.1184000E+00
        -11   -1    0    0    0    0  0.00000000000E+00  0.00000000000E+00  0.45593999997E+02  0.45594000000E+02  0.51100000000E-03 0. -1.
         11   -1    0    0    0    0 -0.00000000000E+00 -0.00000000000E+00 -0.45593999997E+02  0.45594000000E+02  0.51100000000E-03 0.  1.
         23    2    1    2    0    0  0.00000000000E+00  0.35527136788E-14  0.00000000000E+00  0.91188000000E+02  0.91188000000E+02 0.  0.
    9900012    2    3    3    0    0  0.18693922952E+02 -0.20117563109E+02  0.29983104179E+02  0.50528860351E+02  0.30000001523E+02 0.  0.
        -12    1    3    3    0    0 -0.18693922952E+02  0.20117563109E+02 -0.29983104179E+02  0.40659139649E+02  0.00000000000E+00 0.  1.
         11    1    4    4    0    0  0.10029641340E+02 -0.14545852175E+02 -0.84615605588E+00  0.17688739391E+02  0.51100000000E-03 0.  1.
        -11    1    4    4    0    0  0.30358579905E+01 -0.83824622012E+00  0.44286662457E+01  0.54343514278E+01  0.51100000000E-03 0. -1.
        -12    1    4    4    0    0  0.56284236216E+01 -0.47334647135E+01  0.26400593989E+02  0.27405769532E+02  0.00000000000E+00 0.  1.
</event>
<event>
 8    1  0.1112498E-011  0.9118800E+02  0.7816164E-02  0.1184000E+00
        -11   -1    0    0    0    0  0.00000000000E+00  0.00000000000E+00  0.45593999997E+02  0.45594000000E+02  0.51100000000E-03 0. -1.
         11   -1    0    0    0    0 -0.00000000000E+00 -0.00000000000E+00 -0.45593999997E+02  0.45594000000E+02  0.51100000000E-03 0.  1.
         23    2    1    2    0    0  0.00000000000E+00 -0.88817841970E-15  0.71054273576E-14  0.91188000000E+02  0.91188000000E+02 0.  0.
    9900012    2    3    3    0    0  0.16888341363E+02 -0.79483484813E+01 -0.36121671176E+02  0.50528838104E+02  0.29999933900E+02 0.  0.
         12    1    3    3    0    0 -0.16888341363E+02  0.79483484813E+01  0.36121671176E+02  0.40659161896E+02  0.00000000000E+00 0. -1.
         11    1    4    4    0    0 -0.11655009306E+01  0.41590456767E+01 -0.25309154413E+01  0.50061548710E+01  0.51100000000E-03 0. -1.
        -11    1    4    4    0    0  0.36290604299E+00 -0.96790666528E+01 -0.22514604903E+02  0.24509660672E+02  0.51100000000E-03 0.  1.
        -12    1    4    4    0    0  0.17690936251E+02 -0.24283275052E+01 -0.11076150832E+02  0.21013022561E+02  0.00000000000E+00 0.  1.
</event>
<event>
 8    1  0.7311878E-012  0.9118800E+02  0.7816164E-02  0.1184000E+00
        -11   -1    0    0    0    0  0.00000000000E+00  0.00000000000E+00  0.45593999997E+02  0.45594000000E+02  0.51100000000E-03 0. -1.
         11   -1    0    0    0    0 -0.00000000000E+00 -0.00000000000E+00 -0.45593999997E+02  0.45594000000E+02  0.51100000000E-03 0.  1.
         23    2    1    2    0    0  0.00000000000E+00 -0.35527136788E-14  0.35527136788E-14  0.91188000000E+02  0.91188000000E+02 0.  0.
    9900012    2    3    3    0    0 -0.93910071108E+01  0.27576984548E+02  0.28363447798E+02  0.50528852661E+02  0.29999978148E+02 0.  0.
        -12    1    3    3    0    0  0.93910071108E+01 -0.27576984548E+02 -0.28363447798E+02  0.40659147339E+02  0.00000000000E+00 0.  1.
         11    1    4    4    0    0  0.16923671478E+01  0.31274207740E+01 -0.27672239146E+00  0.35667131654E+01  0.51100000000E-03 0. -1.
        -11    1    4    4    0    0 -0.95072900876E+01  0.29947903131E+02  0.25283686729E+02  0.40330265083E+02  0.51100000000E-03 0.  1.
        -12    1    4    4    0    0 -0.15760841710E+01 -0.54983393575E+01  0.33564834606E+01  0.66318744127E+01  0.00000000000E+00 0.  1.
</event>
<event>
 8    1  0.7311878E-012  0.9118800E+02  0.7816164E-02  0.1184000E+00
        -11   -1    0    0    0    0  0.00000000000E+00  0.00000000000E+00  0.45593999997E+02  0.45594000000E+02  0.51100000000E-03 0. -1.
         11   -1    0    0    0    0 -0.00000000000E+00 -0.00000000000E+00 -0.45593999997E+02  0.45594000000E+02  0.51100000000E-03 0.  1.
         23    2    1    2    0    0  0.71054273576E-14  0.00000000000E+00  0.00000000000E+00  0.91188000000E+02  0.91188000000E+02 0.  0.
    9900012    2    3    3    0    0 -0.40062312249E+02 -0.51095158628E+01  0.46977295040E+01  0.50528872149E+02  0.30000037384E+02 0.  0.
        -12    1    3    3    0    0  0.40062312249E+02  0.51095158628E+01 -0.46977295040E+01  0.40659127851E+02  0.00000000000E+00 0.  1.
         11    1    4    4    0    0 -0.23118347367E+02 -0.74122445494E+01 -0.29435999785E+01  0.24455349831E+02  0.51100000000E-03 0. -1.
        -11    1    4    4    0    0  0.17624070892E+01 -0.23833151430E+01  0.60334084561E+01  0.67222234177E+01  0.51100000000E-03 0.  1.
         12    1    4    4    0    0 -0.18706371972E+02  0.46860438296E+01  0.16079210265E+01  0.19351298901E+02  0.00000000000E+00 0. -1.
</event>
<event>
 8    1  0.7311878E-012  0.9118800E+02  0.7816164E-02  0.1184000E+00
        -11   -1    0    0    0    0  0.00000000000E+00  0.00000000000E+00  0.45593999997E+02  0.45594000000E+02  0.51100000000E-03 0. -1.
         11   -1    0    0    0    0 -0.00000000000E+00 -0.00000000000E+00 -0.45593999997E+02  0.45594000000E+02  0.51100000000E-03 0.  1.
         23    2    1    2    0    0 -0.17763568394E-14  0.00000000000E+00  0.35527136788E-14  0.91188000000E+02  0.91188000000E+02 0.  0.
    9900012    2    3    3    0    0  0.74205327351E+01 -0.33443280941E+02 -0.21900880658E+02  0.50528856874E+02  0.29999990953E+02 0.  0.
         12    1    3    3    0    0 -0.74205327351E+01  0.33443280941E+02  0.21900880658E+02  0.40659143126E+02  0.00000000000E+00 0. -1.
         11    1    4    4    0    0 -0.20486067898E+01 -0.14261345954E+02 -0.14438365870E+02  0.20397283825E+02  0.51100000000E-03 0. -1.
        -11    1    4    4    0    0  0.85641991157E+01 -0.23239740240E+02 -0.48993613656E+01  0.25247470665E+02  0.51100000000E-03 0.  1.
         12    1    4    4    0    0  0.90494040925E+00  0.40578052536E+01 -0.25631534229E+01  0.48841023833E+01  0.00000000000E+00 0. -1.
</event>
<event>
 8    1  0.7311878E-012  0.9118800E+02  0.7816164E-02  0.1184000E+00
        -11   -1    0    0    0    0  0.00000000000E+00  0.00000000000E+00  0.45593999997E+02  0.45594000000E+02  0.51100000000E-03 0. -1.
         11   -1    0    0    0    0 -0.00000000000E+00 -0.00000000000E+00 -0.45593999997E+02  0.45594000000E+02  0.51100000000E-03 0.  1.
         23    2    1    2    0    0  0.13322676296E-14  0.00000000000E+00  0.00000000000E+00  0.91188000000E+02  0.91188000000E+02 0.  0.
    9900012    2    3    3    0    0  0.36917276057E+01 -0.16367864849E+02 -0.37035522189E+02  0.50528858885E+02  0.29999997066E+02 0.  0.
         12    1    3    3    0    0 -0.36917276057E+01  0.16367864849E+02  0.37035522189E+02  0.40659141115E+02  0.00000000000E+00 0. -1.
         11    1    4    4    0    0  0.33119134315E+01 -0.41588616978E+01 -0.47293414902E+01  0.71155865809E+01  0.51100000000E-03 0. -1.
        -11    1    4    4    0    0 -0.86527872412E+01 -0.10721593453E+02 -0.50717145220E+01  0.14681470692E+02  0.51100000000E-03 0.  1.
         12    1    4    4    0    0  0.90326014155E+01 -0.14874096974E+01 -0.27234466177E+02  0.28731801612E+02  0.00000000000E+00 0. -1.
</event>
<event>
 8    1  0.7311878E-012  0.9118800E+02  0.7816164E-02  0.1184000E+00
        -11   -1    0    0    0    0  0.00000000000E+00  0.00000000000E+00  0.45593999997E+02  0.45594000000E+02  0.51100000000E-03 0. -1.
         11   -1    0    0    0    0 -0.00000000000E+00 -0.00000000000E+00 -0.45593999997E+02  0.45594000000E+02  0.51100000000E-03 0.  1.
         23    2    1    2    0    0 -0.17763568394E-14 -0.35527136788E-14  0.35527136788E-14  0.91188000000E+02  0.91188000000E+02 0.  0.
    9900012    2    3    3    0    0 -0.82499242174E+01 -0.30532858842E+02  0.25550935208E+02  0.50528843483E+02  0.29999950252E+02 0.  0.
        -12    1    3    3    0    0  0.82499242174E+01  0.30532858842E+02 -0.25550935208E+02  0.40659156517E+02  0.00000000000E+00 0.  1.
         11    1    4    4    0    0 -0.72071430473E+01 -0.24038204654E+02  0.14851951456E+02  0.29160909729E+02  0.51100000000E-03 0. -1.
        -11    1    4    4    0    0 -0.12409351983E+01 -0.14889849029E+01 -0.47482807472E+01  0.51286612798E+01  0.51100000000E-03 0.  1.
        -12    1    4    4    0    0  0.19815402826E+00 -0.50056692854E+01  0.15447264499E+02  0.16239272475E+02  0.00000000000E+00 0.  1.
</event>
<event>
 8    1  0.7311878E-012  0.9118800E+02  0.7816164E-02  0.1184000E+00
        -11   -1    0    0    0    0  0.00000000000E+00  0.00000000000E+00  0.45593999997E+02  0.45594000000E+02  0.51100000000E-03 0. -1.
         11   -1    0    0    0    0 -0.00000000000E+00 -0.00000000000E+00 -0.45593999997E+02  0.45594000000E+02  0.51100000000E-03 0.  1.
         23    2    1    2    0    0  0.00000000000E+00 -0.88817841970E-15  0.00000000000E+00  0.91188000000E+02  0.91188000000E+02 0.  0.
    9900012    2    3    3    0    0  0.23220953730E+02  0.24966474964E+01  0.33282407123E+02  0.50528873537E+02  0.30000041603E+02 0.  0.
        -12    1    3    3    0    0 -0.23220953730E+02 -0.24966474964E+01 -0.33282407123E+02  0.40659126463E+02  0.00000000000E+00 0.  1.
         11    1    4    4    0    0  0.94938079091E+00 -0.38034348020E+00  0.12931486118E+02  0.12971866425E+02  0.51100000000E-03 0. -1.
        -11    1    4    4    0    0  0.18392558360E+02  0.85738515012E+01  0.22536754510E+02  0.30326596194E+02  0.51100000000E-03 0.  1.
        -12    1    4    4    0    0  0.38790145786E+01 -0.56968605246E+01 -0.21858335052E+01  0.72304109185E+01  0.00000000000E+00 0.  1.
</event>
<event>
 8    1  0.7311878E-012  0.9118800E+02  0.7816164E-02  0.1184000E+00
        -11   -1    0    0    0    0  0.00000000000E+00  0.00000000000E+00  0.45593999997E+02  0.45594000000E+02  0.51100000000E-03 0. -1.
         11   -1    0    0    0    0 -0.00000000000E+00 -0.00000000000E+00 -0.45593999997E+02  0.45594000000E+02  0.51100000000E-03 0.  1.
         23    2    1    2    0    0 -0.17763568394E-14  0.35527136788E-14  0.00000000000E+00  0.91188000000E+02  0.91188000000E+02 0.  0.
    9900012    2    3    3    0    0  0.10093260335E+02  0.22268328259E+02  0.32487126178E+02  0.50528859393E+02  0.29999998610E+02 0.  0.
        -12    1    3    3    0    0 -0.10093260335E+02 -0.22268328259E+02 -0.32487126178E+02  0.40659140607E+02  0.00000000000E+00 0.  1.
         11    1    4    4    0    0  0.98606247645E+01  0.14290603595E+02  0.61092644149E+01  0.18405879056E+02  0.51100000000E-03 0. -1.
        -11    1    4    4    0    0  0.65823873355E+01  0.19419929829E+01  0.20383487148E+02  0.21507805754E+02  0.51100000000E-03 0.  1.
        -12    1    4    4    0    0 -0.63497517653E+01  0.60357316810E+01  0.59943746147E+01  0.10615174583E+02  0.00000000000E+00 0.  1.
</event>
<event>
 8    1  0.7311878E-012  0.9118800E+02  0.7816164E-02  0.1184000E+00
        -11   -1    0    0    0    0  0.00000000000E+00  0.00000000000E+00  0.45593999997E+02  0.45594000000E+02  0.51100000000E-03 0. -1.
         11   -1    0    0    0    0 -0.00000000000E+00 -0.00000000000E+00 -0.45593999997E+02  0.45594000000E+02  0.51100000000E-03 0.  1.
         23    2    1    2    0    0 -0.44408920985E-15  0.00000000000E+00 -0.71054273576E-14  0.91188000000E+02  0.91188000000E+02 0.  0.
    9900012    2    3    3    0    0 -0.31116640857E+01  0.26083251576E+02 -0.31034606874E+02  0.50528864618E+02  0.30000014493E+02 0.  0.
         12    1    3    3    0    0  0.31116640857E+01 -0.26083251576E+02  0.31034606874E+02  0.40659135382E+02  0.00000000000E+00 0. -1.
         11    1    4    4    0    0  0.30043008404E+01 -0.16168234761E+01 -0.79614107102E+01  0.86616397091E+01  0.51100000000E-03 0.  1.
        -11    1    4    4    0    0 -0.13310117713E+01  0.28526215565E+02 -0.14531640061E+02  0.32041927687E+02  0.51100000000E-03 0. -1.
         12    1    4    4    0    0 -0.47849531548E+01 -0.82614051249E+00 -0.85415561032E+01  0.98252972222E+01  0.00000000000E+00 0. -1.
</event>
<event>
 8    1  0.7311878E-012  0.9118800E+02  0.7816164E-02  0.1184000E+00
        -11   -1    0    0    0    0  0.00000000000E+00  0.00000000000E+00  0.45593999997E+02  0.45594000000E+02  0.51100000000E-03 0. -1.
         11   -1    0    0    0    0 -0.00000000000E+00 -0.00000000000E+00 -0.45593999997E+02  0.45594000000E+02  0.51100000000E-03 0.  1.
         23    2    1    2    0    0  0.00000000000E+00  0.71054273576E-14  0.00000000000E+00  0.91188000000E+02  0.91188000000E+02 0.  0.
    9900012    2    3    3    0    0  0.45179169954E+01  0.36577437677E+02  0.17171114809E+02  0.50528834923E+02  0.29999924232E+02 0.  0.
        -12    1    3    3    0    0 -0.45179169954E+01 -0.36577437677E+02 -0.17171114809E+02  0.40659165077E+02  0.00000000000E+00 0.  1.
         11    1    4    4    0    0  0.22324014451E+01  0.13804428909E+02  0.76764544623E+00  0.14004826080E+02  0.51100000000E-03 0. -1.
        -11    1    4    4    0    0 -0.98493657894E+01  0.14987636972E+02  0.66990522685E+01  0.19144622483E+02  0.51100000000E-03 0.  1.
         12    1    4    4    0    0  0.12134881340E+02  0.77853717954E+01  0.97044170941E+01  0.17379386360E+02  0.00000000000E+00 0. -1.
</event>
<event>
 8    1  0.7311878E-012  0.9118800E+02  0.7816164E-02  0.1184000E+00
        -11   -1    0    0    0    0  0.00000000000E+00  0.00000000000E+00  0.45593999997E+02  0.45594000000E+02  0.51100000000E-03 0.  1.
         11   -1    0    0    0    0 -0.00000000000E+00 -0.00000000000E+00 -0.45593999997E+02  0.45594000000E+02  0.51100000000E-03 0. -1.
         23    2    1    2    0    0  0.00000000000E+00  0.00000000000E+00 -0.17763568394E-14  0.91188000000E+02  0.91188000000E+02 0.  0.
    9900012    2    3    3    0    0  0.14517751283E+02  0.34842842393E+02  0.15112142839E+02  0.50528860442E+02  0.30000001800E+02 0.  0.
        -12    1    3    3    0    0 -0.14517751283E+02 -0.34842842393E+02 -0.15112142839E+02  0.40659139558E+02  0.00000000000E+00 0.  1.
         11    1    4    4    0    0  0.32033631201E+01  0.32050369119E+00  0.42638480601E+01  0.53427201345E+01  0.51100000000E-03 0. -1.
        -11    1    4    4    0    0 -0.18237113362E+01  0.10000785589E+02 -0.68097975531E+01  0.12235807224E+02  0.51100000000E-03 0.  1.
         12    1    4    4    0    0  0.13138099500E+02  0.24521553113E+02  0.17658092332E+02  0.32950333084E+02  0.00000000000E+00 0. -1.
</event>
<event>
 8    1  0.7311878E-012  0.9118800E+02  0.7816164E-02  0.1184000E+00
        -11   -1    0    0    0    0  0.00000000000E+00  0.00000000000E+00  0.45593999997E+02  0.45594000000E+02  0.51100000000E-03 0. -1.
         11   -1    0    0    0    0 -0.00000000000E+00 -0.00000000000E+00 -0.45593999997E+02  0.45594000000E+02  0.51100000000E-03 0.  1.
         23    2    1    2    0    0 -0.35527136788E-14  0.35527136788E-14  0.00000000000E+00  0.91188000000E+02  0.91188000000E+02 0.  0.
    9900012    2    3    3    0    0 -0.20371639248E+02  0.22513937740E+02 -0.27042278784E+02  0.50528856871E+02  0.29999990944E+02 0.  0.
         12    1    3    3    0    0  0.20371639248E+02 -0.22513937740E+02  0.27042278784E+02  0.40659143129E+02  0.00000000000E+00 0. -1.
         11    1    4    4    0    0 -0.18424439582E+01  0.10953303070E+02  0.13012439986E+01  0.11183142854E+02  0.51100000000E-03 0. -1.
        -11    1    4    4    0    0  0.10769418081E+01  0.64914287562E+01 -0.40830854403E+01  0.77440324075E+01  0.51100000000E-03 0.  1.
        -12    1    4    4    0    0 -0.19606137098E+02  0.50692059130E+01 -0.24260437342E+02  0.31601681609E+02  0.00000000000E+00 0.  1.
</event>
<event>
 8    1  0.7311878E-012  0.9118800E+02  0.7816164E-02  0.1184000E+00
        -11   -1    0    0    0    0  0.00000000000E+00  0.00000000000E+00  0.45593999997E+02  0.45594000000E+02  0.51100000000E-03 0. -1.
         11   -1    0    0    0    0 -0.00000000000E+00 -0.00000000000E+00 -0.45593999997E+02  0.45594000000E+02  0.51100000000E-03 0.  1.
         23    2    1    2    0    0 -0.88817841970E-15  0.00000000000E+00  0.00000000000E+00  0.91188000000E+02  0.91188000000E+02 0.  0.
    9900012    2    3    3    0    0 -0.79798745520E+01  0.38105179764E+02  0.11725554280E+02  0.50528785228E+02  0.29999773177E+02 0.  0.
         12    1    3    3    0    0  0.79798745520E+01 -0.38105179764E+02 -0.11725554280E+02  0.40659214772E+02  0.00000000000E+00 0. -1.
         11    1    4    4    0    0 -0.89526822256E+01  0.14354388176E+02  0.91083929027E+01  0.19213583748E+02  0.51100000000E-03 0. -1.
        -11    1    4    4    0    0 -0.12641932029E+01 -0.35336417903E+01  0.10372129770E+01  0.38936640555E+01  0.51100000000E-03 0.  1.
        -12    1    4    4    0    0  0.22370008766E+01  0.27284433379E+02  0.15799484002E+01  0.27421537424E+02  0.00000000000E+00 0.  1.
</event>
<event>
 8    1  0.7311878E-012  0.9118800E+02  0.7816164E-02  0.1184000E+00
        -11   -1    0    0    0    0  0.00000000000E+00  0.00000000000E+00  0.45593999997E+02  0.45594000000E+02  0.51100000000E-03 0. -1.
         11   -1    0    0    0    0 -0.00000000000E+00 -0.00000000000E+00 -0.45593999997E+02  0.45594000000E+02  0.51100000000E-03 0.  1.
         23    2    1    2    0    0  0.00000000000E+00  0.00000000000E+00  0.35527136788E-14  0.91188000000E+02  0.91188000000E+02 0.  0.
    9900012    2    3    3    0    0 -0.55407148574E+01  0.35386254275E+02  0.19242623069E+02  0.50528867504E+02  0.30000023266E+02 0.  0.
        -12    1    3    3    0    0  0.55407148574E+01 -0.35386254275E+02 -0.19242623069E+02  0.40659132496E+02  0.00000000000E+00 0.  1.
         11    1    4    4    0    0  0.88489535594E-01  0.26772955255E+01 -0.48149528979E+01  0.55099467691E+01  0.51100000000E-03 0. -1.
        -11    1    4    4    0    0 -0.14589535401E+01  0.17899562402E+01  0.10928853137E+02  0.11170153084E+02  0.51100000000E-03 0.  1.
         12    1    4    4    0    0 -0.41702508529E+01  0.30919002509E+02  0.13128722829E+02  0.33848767651E+02  0.00000000000E+00 0. -1.
</event>
<event>
 8    1  0.7311878E-012  0.9118800E+02  0.7816164E-02  0.1184000E+00
        -11   -1    0    0    0    0  0.00000000000E+00  0.00000000000E+00  0.45593999997E+02  0.45594000000E+02  0.51100000000E-03 0.  1.
         11   -1    0    0    0    0 -0.00000000000E+00 -0.00000000000E+00 -0.45593999997E+02  0.45594000000E+02  0.51100000000E-03 0. -1.
         23    2    1    2    0    0  0.00000000000E+00  0.00000000000E+00 -0.44408920985E-15  0.91188000000E+02  0.91188000000E+02 0.  0.
    9900012    2    3    3    0    0 -0.16612799724E+02 -0.36952040372E+02  0.34241966526E+01  0.50528886322E+02  0.30000080465E+02 0.  0.
        -12    1    3    3    0    0  0.16612799724E+02  0.36952040372E+02 -0.34241966526E+01  0.40659113678E+02  0.00000000000E+00 0.  1.
         11    1    4    4    0    0 -0.49067687526E+01 -0.10306020114E+02 -0.40783379208E+00  0.11421766888E+02  0.51100000000E-03 0. -1.
        -11    1    4    4    0    0  0.12430276423E+01 -0.62532727224E+01 -0.95567492706E+01  0.11488254626E+02  0.51100000000E-03 0.  1.
        -12    1    4    4    0    0 -0.12949058614E+02 -0.20392747536E+02  0.13388779715E+02  0.27618864809E+02  0.00000000000E+00 0.  1.
</event>
<event>
 8    1  0.7311878E-012  0.9118800E+02  0.7816164E-02  0.1184000E+00
        -11   -1    0    0    0    0  0.00000000000E+00  0.00000000000E+00  0.45593999997E+02  0.45594000000E+02  0.51100000000E-03 0. -1.
         11   -1    0    0    0    0 -0.00000000000E+00 -0.00000000000E+00 -0.45593999997E+02  0.45594000000E+02  0.51100000000E-03 0.  1.
         23    2    1    2    0    0  0.00000000000E+00  0.00000000000E+00  0.00000000000E+00  0.91188000000E+02  0.91188000000E+02 0.  0.
    9900012    2    3    3    0    0  0.23655074957E+02  0.11839309317E+02  0.30877720246E+02  0.50528862972E+02  0.30000009488E+02 0.  0.
        -12    1    3    3    0    0 -0.23655074957E+02 -0.11839309317E+02 -0.30877720246E+02  0.40659137028E+02  0.00000000000E+00 0.  1.
         11    1    4    4    0    0  0.53926112288E+01 -0.57157718767E+00  0.10236434228E+02  0.11584107316E+02  0.51100000000E-03 0. -1.
        -11    1    4    4    0    0 -0.57903121358E+01 -0.67849676204E-01  0.23366383502E+01  0.62443732471E+01  0.51100000000E-03 0.  1.
         12    1    4    4    0    0  0.24052775864E+02  0.12478736181E+02  0.18304647668E+02  0.32700382409E+02  0.00000000000E+00 0. -1.
</event>
<event>
 8    1  0.7311878E-012  0.9118800E+02  0.7816164E-02  0.1184000E+00
        -11   -1    0    0    0    0  0.00000000000E+00  0.00000000000E+00  0.45593999997E+02  0.45594000000E+02  0.51100000000E-03 0. -1.
         11   -1    0    0    0    0 -0.00000000000E+00 -0.00000000000E+00 -0.45593999997E+02  0.45594000000E+02  0.51100000000E-03 0.  1.
         23    2    1    2    0    0  0.00000000000E+00  0.88817841970E-15 -0.35527136788E-14  0.91188000000E+02  0.91188000000E+02 0.  0.
    9900012    2    3    3    0    0  0.28442519935E+02  0.51411676035E+01  0.28596436287E+02  0.50528871715E+02  0.30000036065E+02 0.  0.
        -12    1    3    3    0    0 -0.28442519935E+02 -0.51411676035E+01 -0.28596436287E+02  0.40659128285E+02  0.00000000000E+00 0.  1.
         11    1    4    4    0    0  0.21103823500E+01  0.14529396377E+01  0.10665109907E+02  0.10968560382E+02  0.51100000000E-03 0. -1.
        -11    1    4    4    0    0  0.40257040789E+01 -0.87867117752E+01  0.40858552268E+01  0.10493179230E+02  0.51100000000E-03 0.  1.
        -12    1    4    4    0    0  0.22306433506E+02  0.12474939741E+02  0.13845471153E+02  0.29067132104E+02  0.00000000000E+00 0.  1.
</event>
<event>
 8    1  0.7311878E-012  0.9118800E+02  0.7816164E-02  0.1184000E+00
        -11   -1    0    0    0    0  0.00000000000E+00  0.00000000000E+00  0.45593999997E+02  0.45594000000E+02  0.51100000000E-03 0.  1.
         11   -1    0    0    0    0 -0.00000000000E+00 -0.00000000000E+00 -0.45593999997E+02  0.45594000000E+02  0.51100000000E-03 0. -1.
         23    2    1    2    0    0 -0.17763568394E-14  0.71054273576E-14 -0.44408920985E-15  0.91188000000E+02  0.91188000000E+02 0.  0.
    9900012    2    3    3    0    0  0.10059069762E+02  0.39341740665E+02 -0.20511713573E+01  0.50528871296E+02  0.30000034792E+02 0.  0.
        -12    1    3    3    0    0 -0.10059069762E+02 -0.39341740665E+02  0.20511713573E+01  0.40659128704E+02  0.00000000000E+00 0.  1.
         11    1    4    4    0    0 -0.90156171336E+01  0.18622927308E+02 -0.26570014098E+01  0.20860355475E+02  0.51100000000E-03 0. -1.
        -11    1    4    4    0    0  0.12586485102E+01  0.89400269132E+00  0.25098121969E+01  0.29466242395E+01  0.51100000000E-03 0.  1.
         12    1    4    4    0    0  0.17816038385E+02  0.19824810666E+02 -0.19039821444E+01  0.26721891581E+02  0.00000000000E+00 0. -1.
</event>
<event>
 8    1  0.7311878E-012  0.9118800E+02  0.7816164E-02  0.1184000E+00
        -11   -1    0    0    0    0  0.00000000000E+00  0.00000000000E+00  0.45593999997E+02  0.45594000000E+02  0.51100000000E-03 0. -1.
         11   -1    0    0    0    0 -0.00000000000E+00 -0.00000000000E+00 -0.45593999997E+02  0.45594000000E+02  0.51100000000E-03 0.  1.
         23    2    1    2    0    0  0.00000000000E+00  0.00000000000E+00  0.00000000000E+00  0.91188000000E+02  0.91188000000E+02 0.  0.
    9900012    2    3    3    0    0  0.74271110493E+01  0.23942119969E+02 -0.32012177786E+02  0.50528848339E+02  0.29999965012E+02 0.  0.
         12    1    3    3    0    0 -0.74271110493E+01 -0.23942119969E+02  0.32012177786E+02  0.40659151661E+02  0.00000000000E+00 0. -1.
         11    1    4    4    0    0  0.38681284181E+01  0.55084499373E+00  0.23322233684E+01  0.45502872181E+01  0.51100000000E-03 0. -1.
        -11    1    4    4    0    0  0.10975220147E+02  0.10304966557E+02 -0.13151296962E+02  0.19990107680E+02  0.51100000000E-03 0.  1.
         12    1    4    4    0    0 -0.74162375162E+01  0.13086308418E+02 -0.21193104193E+02  0.25988453441E+02  0.00000000000E+00 0. -1.
</event>
<event>
 8    1  0.7311878E-012  0.9118800E+02  0.7816164E-02  0.1184000E+00
        -11   -1    0    0    0    0  0.00000000000E+00  0.00000000000E+00  0.45593999997E+02  0.45594000000E+02  0.51100000000E-03 0. -1.
         11   -1    0    0    0    0 -0.00000000000E+00 -0.00000000000E+00 -0.45593999997E+02  0.45594000000E+02  0.51100000000E-03 0.  1.
         23    2    1    2    0    0  0.00000000000E+00  0.00000000000E+00 -0.35527136788E-14  0.91188000000E+02  0.91188000000E+02 0.  0.
    9900012    2    3    3    0    0  0.24182800825E+02 -0.14363742138E+02  0.29360538653E+02  0.50528853748E+02  0.29999981452E+02 0.  0.
        -12    1    3    3    0    0 -0.24182800825E+02  0.14363742138E+02 -0.29360538653E+02  0.40659146252E+02  0.00000000000E+00 0.  1.
         11    1    4    4    0    0  0.11147547392E+02 -0.13533010985E+02  0.12428764872E+02  0.21491495892E+02  0.51100000000E-03 0. -1.
        -11    1    4    4    0    0  0.18275360564E+02 -0.80370551923E+00  0.12301058352E+02  0.22044291396E+02  0.51100000000E-03 0.  1.
        -12    1    4    4    0    0 -0.52401071311E+01 -0.27025634675E-01  0.46307154282E+01  0.69930664596E+01  0.00000000000E+00 0.  1.
</event>
<event>
 8    1  0.7311878E-012  0.9118800E+02  0.7816164E-02  0.1184000E+00
        -11   -1    0    0    0    0  0.00000000000E+00  0.00000000000E+00  0.45593999997E+02  0.45594000000E+02  0.51100000000E-03 0. -1.
         11   -1    0    0    0    0 -0.00000000000E+00 -0.00000000000E+00 -0.45593999997E+02  0.45594000000E+02  0.51100000000E-03 0.  1.
         23    2    1    2    0    0  0.00000000000E+00  0.00000000000E+00  0.00000000000E+00  0.91188000000E+02  0.91188000000E+02 0.  0.
    9900012    2    3    3    0    0  0.29159334768E+02 -0.23111902554E+02  0.16393232060E+02  0.50528869399E+02  0.30000029026E+02 0.  0.
        -12    1    3    3    0    0 -0.29159334768E+02  0.23111902554E+02 -0.16393232060E+02  0.40659130601E+02  0.00000000000E+00 0.  1.
         11    1    4    4    0    0 -0.55928450256E+00 -0.74555427331E+01 -0.26957709904E+01  0.79476473307E+01  0.51100000000E-03 0. -1.
        -11    1    4    4    0    0  0.47144870575E+01 -0.70890665546E+01  0.12865409190E+02  0.15427248838E+02  0.51100000000E-03 0.  1.
         12    1    4    4    0    0  0.25004132213E+02 -0.85672932666E+01  0.62235938609E+01  0.27153973230E+02  0.00000000000E+00 0. -1.
</event>
<event>
 8    1  0.7311878E-012  0.9118800E+02  0.7816164E-02  0.1184000E+00
        -11   -1    0    0    0    0  0.00000000000E+00  0.00000000000E+00  0.45593999997E+02  0.45594000000E+02  0.51100000000E-03 0.  1.
         11   -1    0    0    0    0 -0.00000000000E+00 -0.00000000000E+00 -0.45593999997E+02  0.45594000000E+02  0.51100000000E-03 0. -1.
         23    2    1    2    0    0 -0.71054273576E-14  0.00000000000E+00 -0.17763568394E-14  0.91188000000E+02  0.91188000000E+02 0.  0.
    9900012    2    3    3    0    0  0.37011244734E+02  0.53294686929E+01  0.15966514583E+02  0.50528867431E+02  0.30000023044E+02 0.  0.
        -12    1    3    3    0    0 -0.37011244734E+02 -0.53294686929E+01 -0.15966514583E+02  0.40659132569E+02  0.00000000000E+00 0.  1.
         11    1    4    4    0    0  0.42590611179E+01 -0.28442578250E+01  0.57631972586E+01  0.77099835981E+01  0.51100000000E-03 0. -1.
        -11    1    4    4    0    0  0.74265200948E+01 -0.83938817397E+01  0.41809512286E+01  0.11962056881E+02  0.51100000000E-03 0.  1.
         12    1    4    4    0    0  0.25325663522E+02  0.16567608258E+02  0.60223660957E+01  0.30856826952E+02  0.00000000000E+00 0. -1.
</event>
<event>
 8    1  0.7311878E-012  0.9118800E+02  0.7816164E-02  0.1184000E+00
        -11   -1    0    0    0    0  0.00000000000E+00  0.00000000000E+00  0.45593999997E+02  0.45594000000E+02  0.51100000000E-03 0. -1.
         11   -1    0    0    0    0 -0.00000000000E+00 -0.00000000000E+00 -0.45593999997E+02  0.45594000000E+02  0.51100000000E-03 0.  1.
         23    2    1    2    0    0  0.00000000000E+00  0.00000000000E+00  0.71054273576E-14  0.91188000000E+02  0.91188000000E+02 0.  0.
    9900012    2    3    3    0    0  0.82663943218E+01  0.11162338615E+02 -0.38213013837E+02  0.50528861975E+02  0.30000006460E+02 0.  0.
         12    1    3    3    0    0 -0.82663943218E+01 -0.11162338615E+02  0.38213013837E+02  0.40659138025E+02  0.00000000000E+00 0. -1.
         11    1    4    4    0    0  0.11035815752E+02  0.10092070932E+02 -0.23882544265E+02  0.28178272584E+02  0.51100000000E-03 0. -1.
        -11    1    4    4    0    0 -0.79660419760E+00  0.78098915039E+00 -0.18074407166E+02  0.18108802196E+02  0.51100000000E-03 0.  1.
         12    1    4    4    0    0 -0.19728172322E+01  0.28927853304E+00  0.37439375943E+01  0.42417871954E+01  0.00000000000E+00 0. -1.
</event>
<event>
 8    1  0.7311878E-012  0.9118800E+02  0.7816164E-02  0.1184000E+00
        -11   -1    0    0    0    0  0.00000000000E+00  0.00000000000E+00  0.45593999997E+02  0.45594000000E+02  0.51100000000E-03 0. -1.
         11   -1    0    0    0    0 -0.00000000000E+00 -0.00000000000E+00 -0.45593999997E+02  0.45594000000E+02  0.51100000000E-03 0.  1.
         23    2    1    2    0    0 -0.35527136788E-14  0.17763568394E-14  0.00000000000E+00  0.91188000000E+02  0.91188000000E+02 0.  0.
    9900012    2    3    3    0    0  0.29254736033E+02 -0.12998221864E+02 -0.25067344737E+02  0.50528866658E+02  0.30000020692E+02 0.  0.
         12    1    3    3    0    0 -0.29254736033E+02  0.12998221864E+02  0.25067344737E+02  0.40659133342E+02  0.00000000000E+00 0. -1.
         11    1    4    4    0    0  0.12185697842E+02 -0.48922613786E+01  0.26318129945E+01  0.13392232569E+02  0.51100000000E-03 0.  1.
        -11    1    4    4    0    0 -0.81169424544E+00 -0.48452506069E+01 -0.12934092159E+01  0.50801780139E+01  0.51100000000E-03 0. -1.
        -12    1    4    4    0    0  0.17880732437E+02 -0.32607098781E+01 -0.26405748515E+02  0.32056456075E+02  0.00000000000E+00 0.  1.
</event>
<event>
 8    1  0.7311878E-012  0.9118800E+02  0.7816164E-02  0.1184000E+00
        -11   -1    0    0    0    0  0.00000000000E+00  0.00000000000E+00  0.45593999997E+02  0.45594000000E+02  0.51100000000E-03 0. -1.
         11   -1    0    0    0    0 -0.00000000000E+00 -0.00000000000E+00 -0.45593999997E+02  0.45594000000E+02  0.51100000000E-03 0.  1.
         23    2    1    2    0    0  0.00000000000E+00 -0.44408920985E-15  0.00000000000E+00  0.91188000000E+02  0.91188000000E+02 0.  0.
    9900012    2    3    3    0    0  0.59224591694E+01  0.27220584502E+01  0.40133253744E+02  0.50528890554E+02  0.30000093329E+02 0.  0.
        -12    1    3    3    0    0 -0.59224591694E+01 -0.27220584502E+01 -0.40133253744E+02  0.40659109446E+02  0.00000000000E+00 0.  1.
         11    1    4    4    0    0  0.11916825906E+02  0.21832340805E+01  0.17036055796E+02  0.20904651350E+02  0.51100000000E-03 0. -1.
        -11    1    4    4    0    0 -0.26166501555E+00  0.20323507913E+01 -0.25673520766E+01  0.32848463078E+01  0.51100000000E-03 0.  1.
        -12    1    4    4    0    0 -0.57327017206E+01 -0.14935264216E+01  0.25664550025E+02  0.26339392897E+02  0.00000000000E+00 0.  1.
</event>
<event>
 8    1  0.7311878E-012  0.9118800E+02  0.7816164E-02  0.1184000E+00
        -11   -1    0    0    0    0  0.00000000000E+00  0.00000000000E+00  0.45593999997E+02  0.45594000000E+02  0.51100000000E-03 0. -1.
         11   -1    0    0    0    0 -0.00000000000E+00 -0.00000000000E+00 -0.45593999997E+02  0.45594000000E+02  0.51100000000E-03 0.  1.
         23    2    1    2    0    0  0.00000000000E+00  0.35527136788E-14  0.00000000000E+00  0.91188000000E+02  0.91188000000E+02 0.  0.
    9900012    2    3    3    0    0 -0.34081797239E+02 -0.20314779286E+02 -0.88829734156E+01  0.50528851248E+02  0.29999973854E+02 0.  0.
         12    1    3    3    0    0  0.34081797239E+02  0.20314779286E+02  0.88829734156E+01  0.40659148752E+02  0.00000000000E+00 0. -1.
         11    1    4    4    0    0 -0.66717787746E+01 -0.16002993112E+01  0.19039230477E+01  0.71202888379E+01  0.51100000000E-03 0. -1.
        -11    1    4    4    0    0  0.10317900574E+01  0.49445917245E+01 -0.13215116044E+01  0.52211082374E+01  0.51100000000E-03 0.  1.
        -12    1    4    4    0    0 -0.28441808522E+02 -0.23659071700E+02 -0.94653848589E+01  0.38187454173E+02  0.00000000000E+00 0.  1.
</event>
<event>
 8    1  0.7311878E-012  0.9118800E+02  0.7816164E-02  0.1184000E+00
        -11   -1    0    0    0    0  0.00000000000E+00  0.00000000000E+00  0.45593999997E+02  0.45594000000E+02  0.51100000000E-03 0. -1.
         11   -1    0    0    0    0 -0.00000000000E+00 -0.00000000000E+00 -0.45593999997E+02  0.45594000000E+02  0.51100000000E-03 0.  1.
         23    2    1    2    0    0 -0.35527136788E-14 -0.35527136788E-14 -0.17763568394E-14  0.91188000000E+02  0.91188000000E+02 0.  0.
    9900012    2    3    3    0    0  0.25762413095E+02 -0.28269710029E+02 -0.13794453870E+02  0.50528863374E+02  0.30000010710E+02 0.  0.
         12    1    3    3    0    0 -0.25762413095E+02  0.28269710029E+02  0.13794453870E+02  0.40659136626E+02  0.00000000000E+00 0. -1.
         11    1    4    4    0    0  0.76847860924E+01 -0.13522874299E+02 -0.90554939055E+01  0.17997945347E+02  0.51100000000E-03 0. -1.
        -11    1    4    4    0    0  0.16798329385E+02 -0.20116190124E+02 -0.17798410973E+01  0.26268094903E+02  0.51100000000E-03 0.  1.
         12    1    4    4    0    0  0.12792976179E+01  0.53693543939E+01 -0.29591188671E+01  0.62628231232E+01  0.00000000000E+00 0. -1.
</event>
<event>
 8    1  0.7311878E-012  0.9118800E+02  0.7816164E-02  0.1184000E+00
        -11   -1    0    0    0    0  0.00000000000E+00  0.00000000000E+00  0.45593999997E+02  0.45594000000E+02  0.51100000000E-03 0. -1.
         11   -1    0    0    0    0 -0.00000000000E+00 -0.00000000000E+00 -0.45593999997E+02  0.45594000000E+02  0.51100000000E-03 0.  1.
         23    2    1    2    0    0  0.00000000000E+00 -0.88817841970E-15  0.35527136788E-14  0.91188000000E+02  0.91188000000E+02 0.  0.
    9900012    2    3    3    0    0 -0.27567479400E+02 -0.57213632825E+01  0.29333692969E+02  0.50528862509E+02  0.30000008084E+02 0.  0.
        -12    1    3    3    0    0  0.27567479400E+02  0.57213632825E+01 -0.29333692969E+02  0.40659137491E+02  0.00000000000E+00 0.  1.
         11    1    4    4    0    0 -0.92216400555E+01 -0.58703935385E+01  0.12850032434E+02  0.16870788346E+02  0.51100000000E-03 0. -1.
        -11    1    4    4    0    0 -0.22158657249E+02  0.13827986033E+00  0.66877623700E+01  0.23146303769E+02  0.51100000000E-03 0.  1.
         12    1    4    4    0    0  0.38128179049E+01  0.10750395699E-01  0.97958981655E+01  0.10511770394E+02  0.00000000000E+00 0. -1.
</event>
<event>
 8    1  0.7311878E-012  0.9118800E+02  0.7816164E-02  0.1184000E+00
        -11   -1    0    0    0    0  0.00000000000E+00  0.00000000000E+00  0.45593999997E+02  0.45594000000E+02  0.51100000000E-03 0. -1.
         11   -1    0    0    0    0 -0.00000000000E+00 -0.00000000000E+00 -0.45593999997E+02  0.45594000000E+02  0.51100000000E-03 0.  1.
         23    2    1    2    0    0  0.35527136788E-14  0.00000000000E+00 -0.35527136788E-14  0.91188000000E+02  0.91188000000E+02 0.  0.
    9900012    2    3    3    0    0  0.15639753219E+02  0.23709622318E+02 -0.29093339195E+02  0.50528801081E+02  0.29999821365E+02 0.  0.
         12    1    3    3    0    0 -0.15639753219E+02 -0.23709622318E+02  0.29093339195E+02  0.40659198919E+02  0.00000000000E+00 0. -1.
         11    1    4    4    0    0  0.94512983522E+00 -0.20065270935E+01 -0.31778002450E+00  0.22406262043E+01  0.51100000000E-03 0. -1.
        -11    1    4    4    0    0  0.10432893943E+02  0.10916707975E+02 -0.29208840753E+02  0.32881243399E+02  0.51100000000E-03 0.  1.
        -12    1    4    4    0    0  0.42617294403E+01  0.14799441436E+02  0.43328158219E+00  0.15406931478E+02  0.00000000000E+00 0.  1.
</event>
<event>
 8    1  0.7311878E-012  0.9118800E+02  0.7816164E-02  0.1184000E+00
        -11   -1    0    0    0    0  0.00000000000E+00  0.00000000000E+00  0.45593999997E+02  0.45594000000E+02  0.51100000000E-03 0. -1.
         11   -1    0    0    0    0 -0.00000000000E+00 -0.00000000000E+00 -0.45593999997E+02  0.45594000000E+02  0.51100000000E-03 0.  1.
         23    2    1    2    0    0  0.71054273576E-14  0.26645352591E-14  0.00000000000E+00  0.91188000000E+02  0.91188000000E+02 0.  0.
    9900012    2    3    3    0    0  0.39810379331E+02 -0.71931639124E+01 -0.40689701932E+01  0.50528875219E+02  0.30000046715E+02 0.  0.
         12    1    3    3    0    0 -0.39810379331E+02  0.71931639124E+01  0.40689701932E+01  0.40659124781E+02  0.00000000000E+00 0. -1.
         11    1    4    4    0    0  0.13044968863E+02  0.76649332599E+01 -0.99136464486E+00  0.15162625717E+02  0.51100000000E-03 0. -1.
        -11    1    4    4    0    0  0.12780756048E+02  0.23532525906E+01 -0.14339141489E+00  0.12996387354E+02  0.51100000000E-03 0.  1.
         12    1    4    4    0    0  0.13984654420E+02 -0.17211349763E+02 -0.29342141334E+01  0.22369862147E+02  0.00000000000E+00 0. -1.
</event>
<event>
 8    1  0.7311878E-012  0.9118800E+02  0.7816164E-02  0.1184000E+00
        -11   -1    0    0    0    0  0.00000000000E+00  0.00000000000E+00  0.45593999997E+02  0.45594000000E+02  0.51100000000E-03 0. -1.
         11   -1    0    0    0    0 -0.00000000000E+00 -0.00000000000E+00 -0.45593999997E+02  0.45594000000E+02  0.51100000000E-03 0.  1.
         23    2    1    2    0    0  0.33306690739E-15  0.00000000000E+00  0.35527136788E-14  0.91188000000E+02  0.91188000000E+02 0.  0.
    9900012    2    3    3    0    0 -0.84444109724E+00  0.33784264673E+02 -0.22607004473E+02  0.50528852548E+02  0.29999977806E+02 0.  0.
         12    1    3    3    0    0  0.84444109724E+00 -0.33784264673E+02  0.22607004473E+02  0.40659147452E+02  0.00000000000E+00 0. -1.
         11    1    4    4    0    0  0.39539563091E+01  0.91920974656E+00  0.27605199675E+01  0.49090923606E+01  0.51100000000E-03 0. -1.
        -11    1    4    4    0    0 -0.70451308802E+01  0.51150172032E+01 -0.12695614487E+01  0.87982416790E+01  0.51100000000E-03 0.  1.
        -12    1    4    4    0    0  0.22467334739E+01  0.27750037723E+02 -0.24097962991E+02  0.36821518509E+02  0.00000000000E+00 0.  1.
</event>
<event>
 8    1  0.7311878E-012  0.9118800E+02  0.7816164E-02  0.1184000E+00
        -11   -1    0    0    0    0  0.00000000000E+00  0.00000000000E+00  0.45593999997E+02  0.45594000000E+02  0.51100000000E-03 0. -1.
         11   -1    0    0    0    0 -0.00000000000E+00 -0.00000000000E+00 -0.45593999997E+02  0.45594000000E+02  0.51100000000E-03 0.  1.
         23    2    1    2    0    0 -0.35527136788E-14  0.00000000000E+00  0.71054273576E-14  0.91188000000E+02  0.91188000000E+02 0.  0.
    9900012    2    3    3    0    0  0.15139705828E+02  0.18716079792E+02 -0.32766800894E+02  0.50528861099E+02  0.30000003796E+02 0.  0.
         12    1    3    3    0    0 -0.15139705828E+02 -0.18716079792E+02  0.32766800894E+02  0.40659138901E+02  0.00000000000E+00 0. -1.
         11    1    4    4    0    0  0.19143239951E+01 -0.24177585470E+01 -0.19570946692E+01  0.36524529505E+01  0.51100000000E-03 0. -1.
        -11    1    4    4    0    0  0.38875134843E+01  0.97932398654E+01  0.21835431447E+01  0.10760491117E+02  0.51100000000E-03 0.  1.
        -12    1    4    4    0    0  0.93378683490E+01  0.11340598473E+02 -0.32993249370E+02  0.36115917031E+02  0.00000000000E+00 0.  1.
</event>
<event>
 8    1  0.7311878E-012  0.9118800E+02  0.7816164E-02  0.1184000E+00
        -11   -1    0    0    0    0  0.00000000000E+00  0.00000000000E+00  0.45593999997E+02  0.45594000000E+02  0.51100000000E-03 0. -1.
         11   -1    0    0    0    0 -0.00000000000E+00 -0.00000000000E+00 -0.45593999997E+02  0.45594000000E+02  0.51100000000E-03 0.  1.
         23    2    1    2    0    0  0.35527136788E-14 -0.11102230246E-14  0.71054273576E-14  0.91188000000E+02  0.91188000000E+02 0.  0.
    9900012    2    3    3    0    0  0.28775424602E+02  0.13172819069E+01  0.28695090029E+02  0.50528825335E+02  0.29999895088E+02 0.  0.
        -12    1    3    3    0    0 -0.28775424602E+02 -0.13172819069E+01 -0.28695090029E+02  0.40659174665E+02  0.00000000000E+00 0.  1.
         11    1    4    4    0    0  0.13529469939E+02 -0.89709506137E+01  0.11340351241E+02  0.19802224074E+02  0.51100000000E-03 0. -1.
        -11    1    4    4    0    0  0.10578344444E+02 -0.30600005254E+00  0.91855344541E+00  0.10622558444E+02  0.51100000000E-03 0.  1.
        -12    1    4    4    0    0  0.46676102197E+01  0.10594232573E+02  0.16436185342E+02  0.20104042817E+02  0.00000000000E+00 0.  1.
</event>
<event>
 8    1  0.7311878E-012  0.9118800E+02  0.7816164E-02  0.1184000E+00
        -11   -1    0    0    0    0  0.00000000000E+00  0.00000000000E+00  0.45593999997E+02  0.45594000000E+02  0.51100000000E-03 0.  1.
         11   -1    0    0    0    0 -0.00000000000E+00 -0.00000000000E+00 -0.45593999997E+02  0.45594000000E+02  0.51100000000E-03 0. -1.
         23    2    1    2    0    0  0.00000000000E+00 -0.88817841970E-15  0.00000000000E+00  0.91188000000E+02  0.91188000000E+02 0.  0.
    9900012    2    3    3    0    0  0.37042998200E+02  0.51218092134E+01 -0.15960861308E+02  0.50528859097E+02  0.29999997710E+02 0.  0.
         12    1    3    3    0    0 -0.37042998200E+02 -0.51218092134E+01  0.15960861308E+02  0.40659140903E+02  0.00000000000E+00 0. -1.
         11    1    4    4    0    0  0.51969756607E+01  0.52316071602E+01  0.51949135737E+01  0.90202769800E+01  0.51100000000E-03 0. -1.
        -11    1    4    4    0    0  0.20727806328E+02 -0.34741244822E+00 -0.40762427077E+01  0.21127669191E+02  0.51100000000E-03 0.  1.
         12    1    4    4    0    0  0.11118216211E+02  0.23761450139E+00 -0.17079532174E+02  0.20380912925E+02  0.00000000000E+00 0. -1.
</event>
<event>
 8    1  0.7311878E-012  0.9118800E+02  0.7816164E-02  0.1184000E+00
        -11   -1    0    0    0    0  0.00000000000E+00  0.00000000000E+00  0.45593999997E+02  0.45594000000E+02  0.51100000000E-03 0. -1.
         11   -1    0    0    0    0 -0.00000000000E+00 -0.00000000000E+00 -0.45593999997E+02  0.45594000000E+02  0.51100000000E-03 0.  1.
         23    2    1    2    0    0  0.00000000000E+00 -0.35527136788E-14  0.00000000000E+00  0.91188000000E+02  0.91188000000E+02 0.  0.
    9900012    2    3    3    0    0 -0.12471653288E+02  0.31322793527E+02  0.22726776079E+02  0.50528857350E+02  0.29999992401E+02 0.  0.
        -12    1    3    3    0    0  0.12471653288E+02 -0.31322793527E+02 -0.22726776079E+02  0.40659142650E+02  0.00000000000E+00 0.  1.
         11    1    4    4    0    0  0.55946926346E+00  0.14205593864E+01  0.63769229817E+01  0.65571443329E+01  0.51100000000E-03 0. -1.
        -11    1    4    4    0    0  0.62385284689E+01  0.15366138230E+02  0.51747930505E+01  0.17372850225E+02  0.51100000000E-03 0.  1.
         12    1    4    4    0    0 -0.19269651020E+02  0.14536095910E+02  0.11175060047E+02  0.26598862792E+02  0.00000000000E+00 0. -1.
</event>
<event>
 8    1  0.7311878E-012  0.9118800E+02  0.7816164E-02  0.1184000E+00
        -11   -1    0    0    0    0  0.00000000000E+00  0.00000000000E+00  0.45593999997E+02  0.45594000000E+02  0.51100000000E-03 0. -1.
         11   -1    0    0    0    0 -0.00000000000E+00 -0.00000000000E+00 -0.45593999997E+02  0.45594000000E+02  0.51100000000E-03 0.  1.
         23    2    1    2    0    0  0.00000000000E+00  0.44408920985E-15  0.00000000000E+00  0.91188000000E+02  0.91188000000E+02 0.  0.
    9900012    2    3    3    0    0  0.30210732782E+02  0.39753030476E+01  0.26919772272E+02  0.50528861437E+02  0.30000004823E+02 0.  0.
        -12    1    3    3    0    0 -0.30210732782E+02 -0.39753030476E+01 -0.26919772272E+02  0.40659138563E+02  0.00000000000E+00 0.  1.
         11    1    4    4    0    0 -0.20523158811E+01  0.62237790173E+01  0.98049717883E+00  0.66263716098E+01  0.51100000000E-03 0. -1.
        -11    1    4    4    0    0  0.10999781712E+02 -0.39080051361E+01  0.20050896437E+01  0.11844327190E+02  0.51100000000E-03 0.  1.
         12    1    4    4    0    0  0.21263266951E+02  0.16595291664E+01  0.23934185450E+02  0.32058162637E+02  0.00000000000E+00 0. -1.
</event>
<event>
 8    1  0.7311878E-012  0.9118800E+02  0.7816164E-02  0.1184000E+00
        -11   -1    0    0    0    0  0.00000000000E+00  0.00000000000E+00  0.45593999997E+02  0.45594000000E+02  0.51100000000E-03 0. -1.
         11   -1    0    0    0    0 -0.00000000000E+00 -0.00000000000E+00 -0.45593999997E+02  0.45594000000E+02  0.51100000000E-03 0.  1.
         23    2    1    2    0    0 -0.35527136788E-14 -0.88817841970E-15  0.00000000000E+00  0.91188000000E+02  0.91188000000E+02 0.  0.
    9900012    2    3    3    0    0  0.23697687495E+02 -0.53934488606E+01  0.32595947052E+02  0.50528862682E+02  0.30000008608E+02 0.  0.
        -12    1    3    3    0    0 -0.23697687495E+02  0.53934488606E+01 -0.32595947052E+02  0.40659137318E+02  0.00000000000E+00 0.  1.
         11    1    4    4    0    0  0.17438514998E+02 -0.76380612404E+01  0.20034096097E+02  0.27637054683E+02  0.51100000000E-03 0. -1.
        -11    1    4    4    0    0 -0.20579084304E+01 -0.65434177003E+01  0.30784886046E+01  0.75185367365E+01  0.51100000000E-03 0.  1.
        -12    1    4    4    0    0  0.83170809275E+01  0.87880300801E+01  0.94833623500E+01  0.15373271262E+02  0.00000000000E+00 0.  1.
</event>
<event>
 8    1  0.7311878E-012  0.9118800E+02  0.7816164E-02  0.1184000E+00
        -11   -1    0    0    0    0  0.00000000000E+00  0.00000000000E+00  0.45593999997E+02  0.45594000000E+02  0.51100000000E-03 0. -1.
         11   -1    0    0    0    0 -0.00000000000E+00 -0.00000000000E+00 -0.45593999997E+02  0.45594000000E+02  0.51100000000E-03 0.  1.
         23    2    1    2    0    0  0.00000000000E+00  0.00000000000E+00 -0.26645352591E-14  0.91188000000E+02  0.91188000000E+02 0.  0.
    9900012    2    3    3    0    0  0.39692238907E+02  0.75936379782E+01 -0.44748065279E+01  0.50528916628E+02  0.30000172583E+02 0.  0.
         12    1    3    3    0    0 -0.39692238907E+02 -0.75936379782E+01  0.44748065279E+01  0.40659083372E+02  0.00000000000E+00 0. -1.
         11    1    4    4    0    0 -0.18945813740E+01 -0.71207013888E+00 -0.25384362426E+01  0.32465583753E+01  0.51100000000E-03 0. -1.
        -11    1    4    4    0    0  0.14078688485E+02  0.40578563544E+01 -0.10652987280E+02  0.18115236843E+02  0.51100000000E-03 0.  1.
         12    1    4    4    0    0  0.27508131796E+02  0.42478517627E+01  0.87166169943E+01  0.29167121410E+02  0.00000000000E+00 0. -1.
</event>
<event>
 8    1  0.7311878E-012  0.9118800E+02  0.7816164E-02  0.1184000E+00
        -11   -1    0    0    0    0  0.00000000000E+00  0.00000000000E+00  0.45593999997E+02  0.45594000000E+02  0.51100000000E-03 0. -1.
         11   -1    0    0    0    0 -0.00000000000E+00 -0.00000000000E+00 -0.45593999997E+02  0.45594000000E+02  0.51100000000E-03 0.  1.
         23    2    1    2    0    0  0.88817841970E-15  0.00000000000E+00  0.00000000000E+00  0.91188000000E+02  0.91188000000E+02 0.  0.
    9900012    2    3    3    0    0 -0.28907611168E+01  0.92949307527E+01  0.39476751888E+02  0.50528853709E+02  0.29999981333E+02 0.  0.
        -12    1    3    3    0    0  0.28907611168E+01 -0.92949307527E+01 -0.39476751888E+02  0.40659146291E+02  0.00000000000E+00 0.  1.
         11    1    4    4    0    0 -0.95895475585E+01  0.18463839776E+01  0.85858876627E+01  0.13003308171E+02  0.51100000000E-03 0. -1.
        -11    1    4    4    0    0  0.40164664492E+01 -0.22707400839E+01  0.25839735971E+02  0.26248432688E+02  0.51100000000E-03 0.  1.
         12    1    4    4    0    0  0.26823199925E+01  0.97192868590E+01  0.50511282545E+01  0.11277112850E+02  0.00000000000E+00 0. -1.
</event>
<event>
 8    1  0.7311878E-012  0.9118800E+02  0.7816164E-02  0.1184000E+00
        -11   -1    0    0    0    0  0.00000000000E+00  0.00000000000E+00  0.45593999997E+02  0.45594000000E+02  0.51100000000E-03 0. -1.
         11   -1    0    0    0    0 -0.00000000000E+00 -0.00000000000E+00 -0.45593999997E+02  0.45594000000E+02  0.51100000000E-03 0.  1.
         23    2    1    2    0    0  0.00000000000E+00 -0.35527136788E-14  0.00000000000E+00  0.91188000000E+02  0.91188000000E+02 0.  0.
    9900012    2    3    3    0    0 -0.21047223256E+02  0.29061147115E+02  0.19121447985E+02  0.50528860173E+02  0.30000000981E+02 0.  0.
        -12    1    3    3    0    0  0.21047223256E+02 -0.29061147115E+02 -0.19121447985E+02  0.40659139827E+02  0.00000000000E+00 0.  1.
         11    1    4    4    0    0 -0.55238590002E+01  0.20169047516E+02  0.14741014953E+01  0.20963694127E+02  0.51100000000E-03 0. -1.
        -11    1    4    4    0    0  0.11708348067E+01  0.65356787688E+01  0.68752999629E+01  0.95580176269E+01  0.51100000000E-03 0.  1.
         12    1    4    4    0    0 -0.16694199063E+02  0.23564208299E+01  0.10772046527E+02  0.20007148419E+02  0.00000000000E+00 0. -1.
</event>
<event>
 8    1  0.7311878E-012  0.9118800E+02  0.7816164E-02  0.1184000E+00
        -11   -1    0    0    0    0  0.00000000000E+00  0.00000000000E+00  0.45593999997E+02  0.45594000000E+02  0.51100000000E-03 0. -1.
         11   -1    0    0    0    0 -0.00000000000E+00 -0.00000000000E+00 -0.45593999997E+02  0.45594000000E+02  0.51100000000E-03 0.  1.
         23    2    1    2    0    0  0.00000000000E+00  0.88817841970E-15  0.00000000000E+00  0.91188000000E+02  0.91188000000E+02 0.  0.
    9900012    2    3    3    0    0 -0.22427457884E+02 -0.64316563721E+01 -0.33298776042E+02  0.50528861338E+02  0.30000004524E+02 0.  0.
         12    1    3    3    0    0  0.22427457884E+02  0.64316563721E+01  0.33298776042E+02  0.40659138662E+02  0.00000000000E+00 0. -1.
         11    1    4    4    0    0  0.46035292277E-01  0.29521720907E+01 -0.16450115732E+00  0.29571101084E+01  0.51100000000E-03 0.  1.
        -11    1    4    4    0    0  0.15272444392E+01  0.56061130900E+01 -0.63768024048E+01  0.86269686869E+01  0.51100000000E-03 0. -1.
        -12    1    4    4    0    0 -0.24000737615E+02 -0.14989941553E+02 -0.26757472480E+02  0.38944782543E+02  0.00000000000E+00 0.  1.
</event>
<event>
 8    1  0.7311878E-012  0.9118800E+02  0.7816164E-02  0.1184000E+00
        -11   -1    0    0    0    0  0.00000000000E+00  0.00000000000E+00  0.45593999997E+02  0.45594000000E+02  0.51100000000E-03 0. -1.
         11   -1    0    0    0    0 -0.00000000000E+00 -0.00000000000E+00 -0.45593999997E+02  0.45594000000E+02  0.51100000000E-03 0.  1.
         23    2    1    2    0    0 -0.88817841970E-15  0.83266726847E-15  0.71054273576E-14  0.91188000000E+02  0.91188000000E+02 0.  0.
    9900012    2    3    3    0    0 -0.49532106292E+01 -0.46856876617E+00  0.40353591868E+02  0.50528853073E+02  0.29999979400E+02 0.  0.
        -12    1    3    3    0    0  0.49532106292E+01  0.46856876617E+00 -0.40353591868E+02  0.40659146927E+02  0.00000000000E+00 0.  1.
         11    1    4    4    0    0 -0.65122540365E+01 -0.27255596179E+01  0.20282654600E+02  0.21476131071E+02  0.51100000000E-03 0. -1.
        -11    1    4    4    0    0 -0.66307198433E+01 -0.37569302195E+01  0.13323575005E+01  0.77366754543E+01  0.51100000000E-03 0.  1.
         12    1    4    4    0    0  0.81897632506E+01  0.60139210712E+01  0.18738579767E+02  0.21316046548E+02  0.00000000000E+00 0. -1.
</event>
<event>
 8    1  0.7311878E-012  0.9118800E+02  0.7816164E-02  0.1184000E+00
        -11   -1    0    0    0    0  0.00000000000E+00  0.00000000000E+00  0.45593999997E+02  0.45594000000E+02  0.51100000000E-03 0. -1.
         11   -1    0    0    0    0 -0.00000000000E+00 -0.00000000000E+00 -0.45593999997E+02  0.45594000000E+02  0.51100000000E-03 0.  1.
         23    2    1    2    0    0 -0.17763568394E-14  0.35527136788E-14  0.35527136788E-14  0.91188000000E+02  0.91188000000E+02 0.  0.
    9900012    2    3    3    0    0  0.14791153997E+02 -0.27566765310E+02 -0.25970378261E+02  0.50528864087E+02  0.30000012878E+02 0.  0.
         12    1    3    3    0    0 -0.14791153997E+02  0.27566765310E+02  0.25970378261E+02  0.40659135913E+02  0.00000000000E+00 0. -1.
         11    1    4    4    0    0  0.46448795583E+00  0.25694089695E+01 -0.56142558053E+01  0.61917267399E+01  0.51100000000E-03 0. -1.
        -11    1    4    4    0    0 -0.20892162746E+01 -0.46436140791E+01 -0.11769754357E+02  0.12824004610E+02  0.51100000000E-03 0.  1.
         12    1    4    4    0    0  0.16415882316E+02 -0.25492560200E+02 -0.85863680988E+01  0.31513132737E+02  0.00000000000E+00 0. -1.
</event>
<event>
 8    1  0.7311878E-012  0.9118800E+02  0.7816164E-02  0.1184000E+00
        -11   -1    0    0    0    0  0.00000000000E+00  0.00000000000E+00  0.45593999997E+02  0.45594000000E+02  0.51100000000E-03 0. -1.
         11   -1    0    0    0    0 -0.00000000000E+00 -0.00000000000E+00 -0.45593999997E+02  0.45594000000E+02  0.51100000000E-03 0.  1.
         23    2    1    2    0    0 -0.35527136788E-14  0.00000000000E+00  0.71054273576E-14  0.91188000000E+02  0.91188000000E+02 0.  0.
    9900012    2    3    3    0    0 -0.14994097988E+02 -0.25639352726E+01  0.37706351263E+02  0.50528860018E+02  0.30000000509E+02 0.  0.
        -12    1    3    3    0    0  0.14994097988E+02  0.25639352726E+01 -0.37706351263E+02  0.40659139982E+02  0.00000000000E+00 0.  1.
         11    1    4    4    0    0 -0.16670850222E+02  0.29990310658E+01  0.21125882222E+02  0.27077930763E+02  0.51100000000E-03 0. -1.
        -11    1    4    4    0    0 -0.46106405070E+01  0.10241592984E+01  0.12704899277E+02  0.13554385786E+02  0.51100000000E-03 0.  1.
        -12    1    4    4    0    0  0.62873927408E+01 -0.65871256368E+01  0.38755697639E+01  0.98965434686E+01  0.00000000000E+00 0.  1.
</event>
<event>
 8    1  0.7311878E-012  0.9118800E+02  0.7816164E-02  0.1184000E+00
        -11   -1    0    0    0    0  0.00000000000E+00  0.00000000000E+00  0.45593999997E+02  0.45594000000E+02  0.51100000000E-03 0. -1.
         11   -1    0    0    0    0 -0.00000000000E+00 -0.00000000000E+00 -0.45593999997E+02  0.45594000000E+02  0.51100000000E-03 0.  1.
         23    2    1    2    0    0  0.15543122345E-14  0.00000000000E+00  0.35527136788E-14  0.91188000000E+02  0.91188000000E+02 0.  0.
    9900012    2    3    3    0    0  0.89604562827E+00 -0.29529505170E+02 -0.27935094043E+02  0.50528879836E+02  0.30000060749E+02 0.  0.
         12    1    3    3    0    0 -0.89604562827E+00  0.29529505170E+02  0.27935094043E+02  0.40659120164E+02  0.00000000000E+00 0. -1.
         11    1    4    4    0    0  0.93660669594E+01 -0.21278778527E+02 -0.18933752519E+02  0.29983272179E+02  0.51100000000E-03 0. -1.
        -11    1    4    4    0    0  0.32724781950E+01 -0.55129290481E+01 -0.31849775286E+01  0.71586019826E+01  0.51100000000E-03 0.  1.
         12    1    4    4    0    0 -0.11742499526E+02 -0.27377975950E+01 -0.58163639954E+01  0.13387005674E+02  0.00000000000E+00 0. -1.
</event>
<event>
 8    1  0.7311878E-012  0.9118800E+02  0.7816164E-02  0.1184000E+00
        -11   -1    0    0    0    0  0.00000000000E+00  0.00000000000E+00  0.45593999997E+02  0.45594000000E+02  0.51100000000E-03 0. -1.
         11   -1    0    0    0    0 -0.00000000000E+00 -0.00000000000E+00 -0.45593999997E+02  0.45594000000E+02  0.51100000000E-03 0.  1.
         23    2    1    2    0    0 -0.66613381478E-15  0.00000000000E+00  0.88817841970E-15  0.91188000000E+02  0.91188000000E+02 0.  0.
    9900012    2    3    3    0    0 -0.10739261908E+01 -0.40116759952E+02  0.65313038223E+01  0.50528859870E+02  0.30000000060E+02 0.  0.
        -12    1    3    3    0    0  0.10739261908E+01  0.40116759952E+02 -0.65313038223E+01  0.40659140130E+02  0.00000000000E+00 0.  1.
         11    1    4    4    0    0  0.31609063902E+01 -0.21243988302E+02  0.11343308640E+02  0.24289277868E+02  0.51100000000E-03 0. -1.
        -11    1    4    4    0    0  0.42638290426E+01  0.77980611917E+00 -0.21309267522E+00  0.43397862203E+01  0.51100000000E-03 0.  1.
         12    1    4    4    0    0 -0.84986616236E+01 -0.19652577770E+02 -0.45989121429E+01  0.21899795782E+02  0.00000000000E+00 0. -1.
</event>
<event>
 8    1  0.7311878E-012  0.9118800E+02  0.7816164E-02  0.1184000E+00
        -11   -1    0    0    0    0  0.00000000000E+00  0.00000000000E+00  0.45593999997E+02  0.45594000000E+02  0.51100000000E-03 0. -1.
         11   -1    0    0    0    0 -0.00000000000E+00 -0.00000000000E+00 -0.45593999997E+02  0.45594000000E+02  0.51100000000E-03 0.  1.
         23    2    1    2    0    0  0.10658141036E-13  0.00000000000E+00  0.00000000000E+00  0.91188000000E+02  0.91188000000E+02 0.  0.
    9900012    2    3    3    0    0 -0.30735799082E+02  0.12709257935E+02 -0.23386983044E+02  0.50528861318E+02  0.30000004463E+02 0.  0.
         12    1    3    3    0    0  0.30735799082E+02 -0.12709257935E+02  0.23386983044E+02  0.40659138682E+02  0.00000000000E+00 0. -1.
         11    1    4    4    0    0 -0.86420639567E+01  0.23954765852E+01 -0.16662863823E+01  0.91214082285E+01  0.51100000000E-03 0. -1.
        -11    1    4    4    0    0 -0.27177145301E+02  0.92546772540E+01 -0.22056437000E+02  0.36204042470E+02  0.51100000000E-03 0.  1.
        -12    1    4    4    0    0  0.50834101761E+01  0.10591040958E+01  0.33574033797E+00  0.52034106199E+01  0.00000000000E+00 0.  1.
</event>
<event>
 8    1  0.7311878E-012  0.9118800E+02  0.7816164E-02  0.1184000E+00
        -11   -1    0    0    0    0  0.00000000000E+00  0.00000000000E+00  0.45593999997E+02  0.45594000000E+02  0.51100000000E-03 0.  1.
         11   -1    0    0    0    0 -0.00000000000E+00 -0.00000000000E+00 -0.45593999997E+02  0.45594000000E+02  0.51100000000E-03 0. -1.
         23    2    1    2    0    0  0.88817841970E-15  0.35527136788E-14  0.00000000000E+00  0.91188000000E+02  0.91188000000E+02 0.  0.
    9900012    2    3    3    0    0 -0.21624181973E+01 -0.23809129126E+02  0.32887921477E+02  0.50528855134E+02  0.29999985665E+02 0.  0.
        -12    1    3    3    0    0  0.21624181973E+01  0.23809129126E+02 -0.32887921477E+02  0.40659144866E+02  0.00000000000E+00 0.  1.
         11    1    4    4    0    0 -0.18285689441E+01 -0.11381600949E+01  0.80065598436E+01  0.82912045913E+01  0.51100000000E-03 0. -1.
        -11    1    4    4    0    0  0.50330904591E+01 -0.26075404511E+02  0.24049342779E+02  0.35827777050E+02  0.51100000000E-03 0.  1.
         12    1    4    4    0    0 -0.53669397123E+01  0.34044354806E+01  0.83201885458E+00  0.64098734926E+01  0.00000000000E+00 0. -1.
</event>
<event>
 8    1  0.7311878E-012  0.9118800E+02  0.7816164E-02  0.1184000E+00
        -11   -1    0    0    0    0  0.00000000000E+00  0.00000000000E+00  0.45593999997E+02  0.45594000000E+02  0.51100000000E-03 0. -1.
         11   -1    0    0    0    0 -0.00000000000E+00 -0.00000000000E+00 -0.45593999997E+02  0.45594000000E+02  0.51100000000E-03 0.  1.
         23    2    1    2    0    0  0.00000000000E+00  0.00000000000E+00 -0.17763568394E-14  0.91188000000E+02  0.91188000000E+02 0.  0.
    9900012    2    3    3    0    0  0.19316384480E+02 -0.32711042718E+02  0.14492431646E+02  0.50528860805E+02  0.30000002902E+02 0.  0.
        -12    1    3    3    0    0 -0.19316384480E+02  0.32711042718E+02 -0.14492431646E+02  0.40659139195E+02  0.00000000000E+00 0.  1.
         11    1    4    4    0    0  0.17015121276E+01 -0.44842206494E+01  0.12806441399E+02  0.13675098534E+02  0.51100000000E-03 0. -1.
        -11    1    4    4    0    0  0.76334578479E+01 -0.85631230448E+00  0.31317637897E+00  0.76877193747E+01  0.51100000000E-03 0.  1.
        -12    1    4    4    0    0  0.99814145044E+01 -0.27370509764E+02  0.13728138682E+01  0.29166042896E+02  0.00000000000E+00 0.  1.
</event>
<event>
 8    1  0.7311878E-012  0.9118800E+02  0.7816164E-02  0.1184000E+00
        -11   -1    0    0    0    0  0.00000000000E+00  0.00000000000E+00  0.45593999997E+02  0.45594000000E+02  0.51100000000E-03 0. -1.
         11   -1    0    0    0    0 -0.00000000000E+00 -0.00000000000E+00 -0.45593999997E+02  0.45594000000E+02  0.51100000000E-03 0.  1.
         23    2    1    2    0    0  0.00000000000E+00  0.00000000000E+00  0.71054273576E-14  0.91188000000E+02  0.91188000000E+02 0.  0.
    9900012    2    3    3    0    0  0.14554546699E+01  0.62795337887E+01  0.40144920886E+02  0.50528861226E+02  0.30000004182E+02 0.  0.
        -12    1    3    3    0    0 -0.14554546699E+01 -0.62795337887E+01 -0.40144920886E+02  0.40659138774E+02  0.00000000000E+00 0.  1.
         11    1    4    4    0    0  0.25193714443E+01 -0.49405608755E+01  0.24380253999E+02  0.25003063003E+02  0.51100000000E-03 0. -1.
        -11    1    4    4    0    0 -0.34312974992E+01  0.95673837307E+01  0.18778129489E+02  0.21352442046E+02  0.51100000000E-03 0.  1.
        -12    1    4    4    0    0  0.23673807249E+01  0.16527109335E+01 -0.30134626013E+01  0.41733561765E+01  0.00000000000E+00 0.  1.
</event>
<event>
 8    1  0.7311878E-012  0.9118800E+02  0.7816164E-02  0.1184000E+00
        -11   -1    0    0    0    0  0.00000000000E+00  0.00000000000E+00  0.45593999997E+02  0.45594000000E+02  0.51100000000E-03 0. -1.
         11   -1    0    0    0    0 -0.00000000000E+00 -0.00000000000E+00 -0.45593999997E+02  0.45594000000E+02  0.51100000000E-03 0.  1.
         23    2    1    2    0    0 -0.35527136788E-14  0.00000000000E+00  0.83266726847E-16  0.91188000000E+02  0.91188000000E+02 0.  0.
    9900012    2    3    3    0    0  0.24253686785E+02 -0.32632384443E+02 -0.22699717351E+00  0.50528863698E+02  0.30000011697E+02 0.  0.
         12    1    3    3    0    0 -0.24253686785E+02  0.32632384443E+02  0.22699717351E+00  0.40659136302E+02  0.00000000000E+00 0. -1.
         11    1    4    4    0    0  0.14130603891E+02 -0.94858822874E+01  0.56426628025E+01  0.17930297623E+02  0.51100000000E-03 0. -1.
        -11    1    4    4    0    0 -0.16699479591E+01 -0.66350231288E+01  0.59923859420E+01  0.90951056973E+01  0.51100000000E-03 0.  1.
        -12    1    4    4    0    0  0.11793030853E+02 -0.16511479027E+02 -0.11862045918E+02  0.23503460377E+02  0.00000000000E+00 0.  1.
</event>
<event>
 8    1  0.7311878E-012  0.9118800E+02  0.7816164E-02  0.1184000E+00
        -11   -1    0    0    0    0  0.00000000000E+00  0.00000000000E+00  0.45593999997E+02  0.45594000000E+02  0.51100000000E-03 0. -1.
         11   -1    0    0    0    0 -0.00000000000E+00 -0.00000000000E+00 -0.45593999997E+02  0.45594000000E+02  0.51100000000E-03 0.  1.
         23    2    1    2    0    0 -0.35527136788E-14  0.17763568394E-14 -0.71054273576E-14  0.91188000000E+02  0.91188000000E+02 0.  0.
    9900012    2    3    3    0    0 -0.12152606491E+02  0.14793311469E+02 -0.35869737899E+02  0.50528855817E+02  0.29999987740E+02 0.  0.
         12    1    3    3    0    0  0.12152606491E+02 -0.14793311469E+02  0.35869737899E+02  0.40659144183E+02  0.00000000000E+00 0. -1.
         11    1    4    4    0    0  0.12851719002E+01 -0.28510928932E+01 -0.49144022842E+01  0.58250963572E+01  0.51100000000E-03 0. -1.
        -11    1    4    4    0    0 -0.12665089666E+02  0.74054536961E+01 -0.31151921642E+02  0.34433812786E+02  0.51100000000E-03 0.  1.
         12    1    4    4    0    0 -0.77268872611E+00  0.10238950666E+02  0.19658602720E+00  0.10269946674E+02  0.00000000000E+00 0. -1.
</event>
<event>
 8    1  0.7311878E-012  0.9118800E+02  0.7816164E-02  0.1184000E+00
        -11   -1    0    0    0    0  0.00000000000E+00  0.00000000000E+00  0.45593999997E+02  0.45594000000E+02  0.51100000000E-03 0. -1.
         11   -1    0    0    0    0 -0.00000000000E+00 -0.00000000000E+00 -0.45593999997E+02  0.45594000000E+02  0.51100000000E-03 0.  1.
         23    2    1    2    0    0  0.35527136788E-14  0.35527136788E-14  0.00000000000E+00  0.91188000000E+02  0.91188000000E+02 0.  0.
    9900012    2    3    3    0    0  0.18568654934E+02  0.29414060707E+02 -0.21051915008E+02  0.50528867707E+02  0.30000023881E+02 0.  0.
         12    1    3    3    0    0 -0.18568654934E+02 -0.29414060707E+02  0.21051915008E+02  0.40659132293E+02  0.00000000000E+00 0. -1.
         11    1    4    4    0    0 -0.11771203024E+01  0.70394848538E+01 -0.14691131426E+02  0.16333073870E+02  0.51100000000E-03 0. -1.
        -11    1    4    4    0    0  0.93777416581E+01  0.13864016865E+01 -0.50712934614E+01  0.10750914653E+02  0.51100000000E-03 0.  1.
        -12    1    4    4    0    0  0.10368033578E+02  0.20988174167E+02 -0.12894901207E+01  0.23444879183E+02  0.00000000000E+00 0.  1.
</event>
<event>
 8    1  0.7311878E-012  0.9118800E+02  0.7816164E-02  0.1184000E+00
        -11   -1    0    0    0    0  0.00000000000E+00  0.00000000000E+00  0.45593999997E+02  0.45594000000E+02  0.51100000000E-03 0. -1.
         11   -1    0    0    0    0 -0.00000000000E+00 -0.00000000000E+00 -0.45593999997E+02  0.45594000000E+02  0.51100000000E-03 0.  1.
         23    2    1    2    0    0  0.35527136788E-14  0.00000000000E+00  0.00000000000E+00  0.91188000000E+02  0.91188000000E+02 0.  0.
    9900012    2    3    3    0    0 -0.17425829805E+02  0.27006431062E+02  0.24902981848E+02  0.50528863659E+02  0.30000011578E+02 0.  0.
        -12    1    3    3    0    0  0.17425829805E+02 -0.27006431062E+02 -0.24902981848E+02  0.40659136341E+02  0.00000000000E+00 0.  1.
         11    1    4    4    0    0  0.13217601399E+01  0.12564824930E+02  0.13419015704E+02  0.18430731350E+02  0.51100000000E-03 0. -1.
        -11    1    4    4    0    0  0.17843664914E+01  0.46009018795E+01 -0.23401591182E+01  0.54615571809E+01  0.51100000000E-03 0.  1.
        -12    1    4    4    0    0 -0.20531956436E+02  0.98407042516E+01  0.13824125263E+02  0.26636575128E+02  0.00000000000E+00 0.  1.
</event>
<event>
 8    1  0.7311878E-012  0.9118800E+02  0.7816164E-02  0.1184000E+00
        -11   -1    0    0    0    0  0.00000000000E+00  0.00000000000E+00  0.45593999997E+02  0.45594000000E+02  0.51100000000E-03 0. -1.
         11   -1    0    0    0    0 -0.00000000000E+00 -0.00000000000E+00 -0.45593999997E+02  0.45594000000E+02  0.51100000000E-03 0.  1.
         23    2    1    2    0    0  0.88817841970E-15  0.00000000000E+00  0.00000000000E+00  0.91188000000E+02  0.91188000000E+02 0.  0.
    9900012    2    3    3    0    0  0.64164644147E+01  0.37667927699E+02 -0.13896870675E+02  0.50528845960E+02  0.29999957780E+02 0.  0.
         12    1    3    3    0    0 -0.64164644147E+01 -0.37667927699E+02  0.13896870675E+02  0.40659154040E+02  0.00000000000E+00 0. -1.
         11    1    4    4    0    0  0.95902686278E+01  0.14235685263E+02 -0.48454684291E+01  0.17835541815E+02  0.51100000000E-03 0. -1.
        -11    1    4    4    0    0  0.94736031777E+00  0.26117239550E+02 -0.57211935813E+01  0.26753312870E+02  0.51100000000E-03 0.  1.
        -12    1    4    4    0    0 -0.41211645309E+01 -0.26849971144E+01 -0.33302086651E+01  0.59399912751E+01  0.00000000000E+00 0.  1.
</event>
<event>
 8    1  0.7311878E-012  0.9118800E+02  0.7816164E-02  0.1184000E+00
        -11   -1    0    0    0    0  0.00000000000E+00  0.00000000000E+00  0.45593999997E+02  0.45594000000E+02  0.51100000000E-03 0. -1.
         11   -1    0    0    0    0 -0.00000000000E+00 -0.00000000000E+00 -0.45593999997E+02  0.45594000000E+02  0.51100000000E-03 0.  1.
         23    2    1    2    0    0 -0.71054273576E-14  0.00000000000E+00  0.00000000000E+00  0.91188000000E+02  0.91188000000E+02 0.  0.
    9900012    2    3    3    0    0  0.32395215330E+02  0.83074500665E+01  0.23123621262E+02  0.50528861259E+02  0.30000004282E+02 0.  0.
        -12    1    3    3    0    0 -0.32395215330E+02 -0.83074500665E+01 -0.23123621262E+02  0.40659138741E+02  0.00000000000E+00 0.  1.
         11    1    4    4    0    0  0.26061357254E+02  0.10852534073E+02  0.34605771406E+01  0.28442001198E+02  0.51100000000E-03 0. -1.
        -11    1    4    4    0    0  0.80227217867E+01 -0.20118141349E+01  0.15678510366E+02  0.17726453355E+02  0.51100000000E-03 0.  1.
        -12    1    4    4    0    0 -0.16888637108E+01 -0.53326987187E+00  0.39845337551E+01  0.43604067053E+01  0.00000000000E+00 0.  1.
</event>
<event>
 8    1  0.7311878E-012  0.9118800E+02  0.7816164E-02  0.1184000E+00
        -11   -1    0    0    0    0  0.00000000000E+00  0.00000000000E+00  0.45593999997E+02  0.45594000000E+02  0.51100000000E-03 0. -1.
         11   -1    0    0    0    0 -0.00000000000E+00 -0.00000000000E+00 -0.45593999997E+02  0.45594000000E+02  0.51100000000E-03 0.  1.
         23    2    1    2    0    0  0.17763568394E-14 -0.71054273576E-14  0.71054273576E-14  0.91188000000E+02  0.91188000000E+02 0.  0.
    9900012    2    3    3    0    0  0.13188290387E+02 -0.33724770971E+02  0.18489855194E+02  0.50528856803E+02  0.29999990739E+02 0.  0.
        -12    1    3    3    0    0 -0.13188290387E+02  0.33724770971E+02 -0.18489855194E+02  0.40659143197E+02  0.00000000000E+00 0.  1.
         11    1    4    4    0    0  0.78495466629E+01 -0.38311734057E+01  0.12736132488E+02  0.15443521084E+02  0.51100000000E-03 0.  1.
        -11    1    4    4    0    0  0.69190472096E+01 -0.26258819715E+02  0.10309983983E+02  0.29046421416E+02  0.51100000000E-03 0. -1.
         12    1    4    4    0    0 -0.15803034853E+01 -0.36347778510E+01 -0.45562612768E+01  0.60389143026E+01  0.00000000000E+00 0. -1.
</event>
<event>
 8    1  0.7311878E-012  0.9118800E+02  0.7816164E-02  0.1184000E+00
        -11   -1    0    0    0    0  0.00000000000E+00  0.00000000000E+00  0.45593999997E+02  0.45594000000E+02  0.51100000000E-03 0. -1.
         11   -1    0    0    0    0 -0.00000000000E+00 -0.00000000000E+00 -0.45593999997E+02  0.45594000000E+02  0.51100000000E-03 0.  1.
         23    2    1    2    0    0  0.88817841970E-15  0.44408920985E-15  0.00000000000E+00  0.91188000000E+02  0.91188000000E+02 0.  0.
    9900012    2    3    3    0    0  0.24302821534E+01 -0.33468564211E+01 -0.40448218556E+02  0.50528854613E+02  0.29999984081E+02 0.  0.
         12    1    3    3    0    0 -0.24302821534E+01  0.33468564211E+01  0.40448218556E+02  0.40659145387E+02  0.00000000000E+00 0. -1.
         11    1    4    4    0    0  0.11859193688E+02 -0.77051316626E+01 -0.11997330228E+02  0.18545766680E+02  0.51100000000E-03 0. -1.
        -11    1    4    4    0    0 -0.13302426438E+01  0.60835808495E+01 -0.10366423836E+02  0.12093065982E+02  0.51100000000E-03 0.  1.
        -12    1    4    4    0    0 -0.80986688911E+01 -0.17253056080E+01 -0.18084464492E+02  0.19890021951E+02  0.00000000000E+00 0.  1.
</event>
<event>
 8    1  0.7311878E-012  0.9118800E+02  0.7816164E-02  0.1184000E+00
        -11   -1    0    0    0    0  0.00000000000E+00  0.00000000000E+00  0.45593999997E+02  0.45594000000E+02  0.51100000000E-03 0. -1.
         11   -1    0    0    0    0 -0.00000000000E+00 -0.00000000000E+00 -0.45593999997E+02  0.45594000000E+02  0.51100000000E-03 0.  1.
         23    2    1    2    0    0  0.44408920985E-15  0.17763568394E-14  0.00000000000E+00  0.91188000000E+02  0.91188000000E+02 0.  0.
    9900012    2    3    3    0    0 -0.36133093832E+01  0.13411091652E+02  0.38213262796E+02  0.50528845588E+02  0.29999956650E+02 0.  0.
        -12    1    3    3    0    0  0.36133093832E+01 -0.13411091652E+02 -0.38213262796E+02  0.40659154412E+02  0.00000000000E+00 0.  1.
         11    1    4    4    0    0 -0.10239685682E+02 -0.32802608742E+01  0.20830857172E+02  0.23442181747E+02  0.51100000000E-03 0. -1.
        -11    1    4    4    0    0 -0.11450079555E+01  0.57068407666E+01  0.10422364616E+02  0.11937535726E+02  0.51100000000E-03 0.  1.
        -12    1    4    4    0    0  0.77713842547E+01  0.10984511760E+02  0.69600410082E+01  0.15149128116E+02  0.00000000000E+00 0.  1.
</event>
<event>
 8    1  0.7311878E-012  0.9118800E+02  0.7816164E-02  0.1184000E+00
        -11   -1    0    0    0    0  0.00000000000E+00  0.00000000000E+00  0.45593999997E+02  0.45594000000E+02  0.51100000000E-03 0. -1.
         11   -1    0    0    0    0 -0.00000000000E+00 -0.00000000000E+00 -0.45593999997E+02  0.45594000000E+02  0.51100000000E-03 0.  1.
         23    2    1    2    0    0 -0.35527136788E-14  0.00000000000E+00  0.71054273576E-14  0.91188000000E+02  0.91188000000E+02 0.  0.
    9900012    2    3    3    0    0  0.16576919779E+02  0.79653701553E+01  0.36261880952E+02  0.50528863250E+02  0.30000010335E+02 0.  0.
        -12    1    3    3    0    0 -0.16576919779E+02 -0.79653701553E+01 -0.36261880952E+02  0.40659136750E+02  0.00000000000E+00 0.  1.
         11    1    4    4    0    0  0.93687514346E+01 -0.32989220067E+01  0.43125070675E+00  0.99419498732E+01  0.51100000000E-03 0.  1.
        -11    1    4    4    0    0  0.73700607554E+01  0.17979435572E+00  0.19518686216E+02  0.20864544888E+02  0.51100000000E-03 0. -1.
        -12    1    4    4    0    0 -0.16189241066E+00  0.11084497806E+02  0.16311944030E+02  0.19722368488E+02  0.00000000000E+00 0.  1.
</event>
<event>
 8    1  0.7311878E-012  0.9118800E+02  0.7816164E-02  0.1184000E+00
        -11   -1    0    0    0    0  0.00000000000E+00  0.00000000000E+00  0.45593999997E+02  0.45594000000E+02  0.51100000000E-03 0. -1.
         11   -1    0    0    0    0 -0.00000000000E+00 -0.00000000000E+00 -0.45593999997E+02  0.45594000000E+02  0.51100000000E-03 0.  1.
         23    2    1    2    0    0  0.00000000000E+00  0.00000000000E+00 -0.35527136788E-14  0.91188000000E+02  0.91188000000E+02 0.  0.
    9900012    2    3    3    0    0  0.32227032940E+02  0.12248131672E+02 -0.21553832287E+02  0.50528855053E+02  0.29999985419E+02 0.  0.
         12    1    3    3    0    0 -0.32227032940E+02 -0.12248131672E+02  0.21553832287E+02  0.40659144947E+02  0.00000000000E+00 0. -1.
         11    1    4    4    0    0  0.52270290544E+01 -0.79346200633E+00  0.35475936363E+01  0.63668544479E+01  0.51100000000E-03 0. -1.
        -11    1    4    4    0    0  0.16544068020E+02 -0.29497476862E+01 -0.84110314150E+01  0.18792356100E+02  0.51100000000E-03 0.  1.
        -12    1    4    4    0    0  0.10455935866E+02  0.15991341365E+02 -0.16690394508E+02  0.25369644505E+02  0.00000000000E+00 0.  1.
</event>
<event>
 8    1  0.7311878E-012  0.9118800E+02  0.7816164E-02  0.1184000E+00
        -11   -1    0    0    0    0  0.00000000000E+00  0.00000000000E+00  0.45593999997E+02  0.45594000000E+02  0.51100000000E-03 0. -1.
         11   -1    0    0    0    0 -0.00000000000E+00 -0.00000000000E+00 -0.45593999997E+02  0.45594000000E+02  0.51100000000E-03 0.  1.
         23    2    1    2    0    0  0.00000000000E+00  0.00000000000E+00  0.00000000000E+00  0.91188000000E+02  0.91188000000E+02 0.  0.
    9900012    2    3    3    0    0  0.24665855103E+02 -0.14357987253E+02  0.28958744424E+02  0.50528867145E+02  0.30000022173E+02 0.  0.
        -12    1    3    3    0    0 -0.24665855103E+02  0.14357987253E+02 -0.28958744424E+02  0.40659132855E+02  0.00000000000E+00 0.  1.
         11    1    4    4    0    0  0.13194180778E+02 -0.84586570091E+00  0.90602424020E+01  0.16027784870E+02  0.51100000000E-03 0.  1.
        -11    1    4    4    0    0 -0.48542071860E+00  0.54975439337E+01  0.56868698135E+01  0.79245890186E+01  0.51100000000E-03 0. -1.
        -12    1    4    4    0    0  0.11957095044E+02 -0.19009665486E+02  0.14211632209E+02  0.26576493256E+02  0.00000000000E+00 0.  1.
</event>
<event>
 8    1  0.7311878E-012  0.9118800E+02  0.7816164E-02  0.1184000E+00
        -11   -1    0    0    0    0  0.00000000000E+00  0.00000000000E+00  0.45593999997E+02  0.45594000000E+02  0.51100000000E-03 0. -1.
         11   -1    0    0    0    0 -0.00000000000E+00 -0.00000000000E+00 -0.45593999997E+02  0.45594000000E+02  0.51100000000E-03 0.  1.
         23    2    1    2    0    0  0.00000000000E+00  0.88817841970E-15  0.00000000000E+00  0.91188000000E+02  0.91188000000E+02 0.  0.
    9900012    2    3    3    0    0 -0.25584837437E+01  0.74429875099E+01 -0.39890111678E+02  0.50528869269E+02  0.30000028630E+02 0.  0.
         12    1    3    3    0    0  0.25584837437E+01 -0.74429875099E+01  0.39890111678E+02  0.40659130731E+02  0.00000000000E+00 0. -1.
         11    1    4    4    0    0 -0.38051880208E+01  0.51602308956E+01  0.62397407169E+00  0.64417996455E+01  0.51100000000E-03 0. -1.
        -11    1    4    4    0    0  0.14549599940E+01 -0.68082234991E+01 -0.95692723670E+01  0.11833840868E+02  0.51100000000E-03 0.  1.
        -12    1    4    4    0    0 -0.20825571684E+00  0.90909801135E+01 -0.30944813382E+02  0.32253228755E+02  0.00000000000E+00 0.  1.
</event>
<event>
 8    1  0.7311878E-012  0.9118800E+02  0.7816164E-02  0.1184000E+00
        -11   -1    0    0    0    0  0.00000000000E+00  0.00000000000E+00  0.45593999997E+02  0.45594000000E+02  0.51100000000E-03 0. -1.
         11   -1    0    0    0    0 -0.00000000000E+00 -0.00000000000E+00 -0.45593999997E+02  0.45594000000E+02  0.51100000000E-03 0.  1.
         23    2    1    2    0    0  0.00000000000E+00  0.00000000000E+00 -0.35527136788E-14  0.91188000000E+02  0.91188000000E+02 0.  0.
    9900012    2    3    3    0    0 -0.68378119627E+01  0.25965039781E+02 -0.30532394626E+02  0.50528854843E+02  0.29999984782E+02 0.  0.
         12    1    3    3    0    0  0.68378119627E+01 -0.25965039781E+02  0.30532394626E+02  0.40659145157E+02  0.00000000000E+00 0. -1.
         11    1    4    4    0    0 -0.65088045532E+01  0.65326787311E+01  0.13639409686E+01  0.93220578920E+01  0.51100000000E-03 0. -1.
        -11    1    4    4    0    0 -0.55872633033E+01 -0.34866685683E+00 -0.75714170695E+01  0.94162326065E+01  0.51100000000E-03 0.  1.
         12    1    4    4    0    0  0.52582558938E+01  0.19781027907E+02 -0.24324918525E+02  0.31790564345E+02  0.00000000000E+00 0. -1.
</event>
<event>
 8    1  0.7311878E-012  0.9118800E+02  0.7816164E-02  0.1184000E+00
        -11   -1    0    0    0    0  0.00000000000E+00  0.00000000000E+00  0.45593999997E+02  0.45594000000E+02  0.51100000000E-03 0. -1.
         11   -1    0    0    0    0 -0.00000000000E+00 -0.00000000000E+00 -0.45593999997E+02  0.45594000000E+02  0.51100000000E-03 0.  1.
         23    2    1    2    0    0  0.17763568394E-14 -0.17763568394E-14  0.00000000000E+00  0.91188000000E+02  0.91188000000E+02 0.  0.
    9900012    2    3    3    0    0 -0.95543951135E+01 -0.11662356606E+02 -0.37760693241E+02  0.50528843816E+02  0.29999951263E+02 0.  0.
         12    1    3    3    0    0  0.95543951135E+01  0.11662356606E+02  0.37760693241E+02  0.40659156184E+02  0.00000000000E+00 0. -1.
         11    1    4    4    0    0 -0.13691036241E+02 -0.99971270335E+01 -0.16085684359E+02  0.23369558486E+02  0.51100000000E-03 0. -1.
        -11    1    4    4    0    0 -0.33728874549E+01 -0.43629329570E+01 -0.17087111805E+02  0.17954969894E+02  0.51100000000E-03 0.  1.
        -12    1    4    4    0    0  0.75095285820E+01  0.26977033846E+01 -0.45878970764E+01  0.92043154367E+01  0.00000000000E+00 0.  1.
</event>
<event>
 8    1  0.7311878E-012  0.9118800E+02  0.7816164E-02  0.1184000E+00
        -11   -1    0    0    0    0  0.00000000000E+00  0.00000000000E+00  0.45593999997E+02  0.45594000000E+02  0.51100000000E-03 0.  1.
         11   -1    0    0    0    0 -0.00000000000E+00 -0.00000000000E+00 -0.45593999997E+02  0.45594000000E+02  0.51100000000E-03 0. -1.
         23    2    1    2    0    0  0.00000000000E+00  0.71054273576E-14  0.00000000000E+00  0.91188000000E+02  0.91188000000E+02 0.  0.
    9900012    2    3    3    0    0 -0.96737273155E+01  0.32799796957E+02  0.21994628753E+02  0.50528789794E+02  0.29999787057E+02 0.  0.
        -12    1    3    3    0    0  0.96737273155E+01 -0.32799796957E+02 -0.21994628753E+02  0.40659210206E+02  0.00000000000E+00 0.  1.
         11    1    4    4    0    0 -0.16162281125E+02  0.12853730231E+02  0.86619319227E+01  0.22393453885E+02  0.51100000000E-03 0. -1.
        -11    1    4    4    0    0 -0.83916926193E+00  0.50079712337E+01  0.99291452143E+01  0.11152215290E+02  0.51100000000E-03 0.  1.
         12    1    4    4    0    0  0.73277230711E+01  0.14938095493E+02  0.34035516165E+01  0.16983120619E+02  0.00000000000E+00 0. -1.
</event>
<event>
 8    1  0.7311878E-012  0.9118800E+02  0.7816164E-02  0.1184000E+00
        -11   -1    0    0    0    0  0.00000000000E+00  0.00000000000E+00  0.45593999997E+02  0.45594000000E+02  0.51100000000E-03 0. -1.
         11   -1    0    0    0    0 -0.00000000000E+00 -0.00000000000E+00 -0.45593999997E+02  0.45594000000E+02  0.51100000000E-03 0.  1.
         23    2    1    2    0    0  0.00000000000E+00  0.35527136788E-14 -0.71054273576E-14  0.91188000000E+02  0.91188000000E+02 0.  0.
    9900012    2    3    3    0    0  0.16054158470E+02 -0.90998727415E+01  0.36230126520E+02  0.50528858890E+02  0.29999997083E+02 0.  0.
        -12    1    3    3    0    0 -0.16054158470E+02  0.90998727415E+01 -0.36230126520E+02  0.40659141110E+02  0.00000000000E+00 0.  1.
         11    1    4    4    0    0  0.13148253637E+02 -0.18699459713E+02  0.18287199597E+02  0.29274016408E+02  0.51100000000E-03 0. -1.
        -11    1    4    4    0    0  0.24074040614E+01  0.10596782156E+01  0.61235783770E+01  0.66645873568E+01  0.51100000000E-03 0.  1.
        -12    1    4    4    0    0  0.49850077115E+00  0.85399087561E+01  0.11819348546E+02  0.14590255126E+02  0.00000000000E+00 0.  1.
</event>
<event>
 8    1  0.7311878E-012  0.9118800E+02  0.7816164E-02  0.1184000E+00
        -11   -1    0    0    0    0  0.00000000000E+00  0.00000000000E+00  0.45593999997E+02  0.45594000000E+02  0.51100000000E-03 0. -1.
         11   -1    0    0    0    0 -0.00000000000E+00 -0.00000000000E+00 -0.45593999997E+02  0.45594000000E+02  0.51100000000E-03 0.  1.
         23    2    1    2    0    0 -0.88817841970E-15  0.00000000000E+00 -0.35527136788E-14  0.91188000000E+02  0.91188000000E+02 0.  0.
    9900012    2    3    3    0    0  0.74238050020E+01  0.34792489234E+02 -0.19685912272E+02  0.50528864128E+02  0.30000013005E+02 0.  0.
         12    1    3    3    0    0 -0.74238050020E+01 -0.34792489234E+02  0.19685912272E+02  0.40659135872E+02  0.00000000000E+00 0. -1.
         11    1    4    4    0    0  0.22722409675E+01  0.70021232723E+00  0.47145526284E+01  0.52801877869E+01  0.51100000000E-03 0. -1.
        -11    1    4    4    0    0  0.92727275023E+01  0.23948353081E+02 -0.10983382367E+02  0.27931018225E+02  0.51100000000E-03 0.  1.
         12    1    4    4    0    0 -0.41211634678E+01  0.10143923827E+02 -0.13417082534E+02  0.17317658117E+02  0.00000000000E+00 0. -1.
</event>
<event>
 8    1  0.8417159E-012  0.9118800E+02  0.7816164E-02  0.1184000E+00
        -11   -1    0    0    0    0  0.00000000000E+00  0.00000000000E+00  0.45593999997E+02  0.45594000000E+02  0.51100000000E-03 0. -1.
         11   -1    0    0    0    0 -0.00000000000E+00 -0.00000000000E+00 -0.45593999997E+02  0.45594000000E+02  0.51100000000E-03 0.  1.
         23    2    1    2    0    0 -0.17763568394E-14  0.00000000000E+00  0.00000000000E+00  0.91188000000E+02  0.91188000000E+02 0.  0.
    9900012    2    3    3    0    0 -0.13078561568E+02 -0.21761982362E+01 -0.38436716060E+02  0.50528858925E+02  0.29999997189E+02 0.  0.
         12    1    3    3    0    0  0.13078561568E+02  0.21761982362E+01  0.38436716060E+02  0.40659141075E+02  0.00000000000E+00 0. -1.
         11    1    4    4    0    0 -0.12920994984E+02  0.22272143583E+01 -0.17599040206E+02  0.21946271018E+02  0.51100000000E-03 0. -1.
        -11    1    4    4    0    0 -0.15644201321E+01 -0.44078107993E+01 -0.24352013624E+02  0.24797112215E+02  0.51100000000E-03 0.  1.
         12    1    4    4    0    0  0.14068535480E+01  0.43982047325E-02  0.35143377702E+01  0.37854756918E+01  0.00000000000E+00 0. -1.
</event>
<event>
 8    1  0.7311878E-012  0.9118800E+02  0.7816164E-02  0.1184000E+00
        -11   -1    0    0    0    0  0.00000000000E+00  0.00000000000E+00  0.45593999997E+02  0.45594000000E+02  0.51100000000E-03 0. -1.
         11   -1    0    0    0    0 -0.00000000000E+00 -0.00000000000E+00 -0.45593999997E+02  0.45594000000E+02  0.51100000000E-03 0.  1.
         23    2    1    2    0    0  0.88817841970E-15  0.00000000000E+00  0.00000000000E+00  0.91188000000E+02  0.91188000000E+02 0.  0.
    9900012    2    3    3    0    0 -0.74681636943E+01 -0.21517438949E+02  0.33680739363E+02  0.50528857708E+02  0.29999993489E+02 0.  0.
        -12    1    3    3    0    0  0.74681636943E+01  0.21517438949E+02 -0.33680739363E+02  0.40659142292E+02  0.00000000000E+00 0.  1.
         11    1    4    4    0    0  0.19942541880E+01 -0.42395629701E+01  0.41042087839E+01  0.62286012833E+01  0.51100000000E-03 0. -1.
        -11    1    4    4    0    0  0.36035917111E+01 -0.11277015800E+02  0.48402601383E+00  0.11848680940E+02  0.51100000000E-03 0.  1.
        -12    1    4    4    0    0 -0.13066009593E+02 -0.60008601797E+01  0.29092504565E+02  0.32451575485E+02  0.00000000000E+00 0.  1.
</event>
<event>
 8    1  0.7311878E-012  0.9118800E+02  0.7816164E-02  0.1184000E+00
        -11   -1    0    0    0    0  0.00000000000E+00  0.00000000000E+00  0.45593999997E+02  0.45594000000E+02  0.51100000000E-03 0. -1.
         11   -1    0    0    0    0 -0.00000000000E+00 -0.00000000000E+00 -0.45593999997E+02  0.45594000000E+02  0.51100000000E-03 0.  1.
         23    2    1    2    0    0  0.00000000000E+00 -0.66613381478E-15  0.00000000000E+00  0.91188000000E+02  0.91188000000E+02 0.  0.
    9900012    2    3    3    0    0  0.38041894430E+02 -0.11395031830E+01  0.14306684141E+02  0.50528863137E+02  0.30000009991E+02 0.  0.
        -12    1    3    3    0    0 -0.38041894430E+02  0.11395031830E+01 -0.14306684141E+02  0.40659136863E+02  0.00000000000E+00 0.  1.
         11    1    4    4    0    0  0.20642716271E+02 -0.47772174988E+01  0.18586432910E+02  0.28185085252E+02  0.51100000000E-03 0. -1.
        -11    1    4    4    0    0 -0.27756038938E+00  0.19656839707E+01  0.26264663822E+01  0.32923060551E+01  0.51100000000E-03 0.  1.
         12    1    4    4    0    0  0.17676738548E+02  0.16720303451E+01 -0.69062151506E+01  0.19051471830E+02  0.00000000000E+00 0. -1.
</event>
<event>
 8    1  0.7311878E-012  0.9118800E+02  0.7816164E-02  0.1184000E+00
        -11   -1    0    0    0    0  0.00000000000E+00  0.00000000000E+00  0.45593999997E+02  0.45594000000E+02  0.51100000000E-03 0.  1.
         11   -1    0    0    0    0 -0.00000000000E+00 -0.00000000000E+00 -0.45593999997E+02  0.45594000000E+02  0.51100000000E-03 0. -1.
         23    2    1    2    0    0  0.00000000000E+00  0.00000000000E+00 -0.88817841970E-15  0.91188000000E+02  0.91188000000E+02 0.  0.
    9900012    2    3    3    0    0 -0.21689246073E+02 -0.33863760295E+02  0.59990132575E+01  0.50528858142E+02  0.29999994809E+02 0.  0.
        -12    1    3    3    0    0  0.21689246073E+02  0.33863760295E+02 -0.59990132575E+01  0.40659141858E+02  0.00000000000E+00 0.  1.
         11    1    4    4    0    0 -0.18923758737E+02 -0.19943336878E+02  0.77985772505E+01  0.28577318593E+02  0.51100000000E-03 0. -1.
        -11    1    4    4    0    0 -0.12902196430E+01 -0.82653617511E+01  0.73227208067E+01  0.11117693640E+02  0.51100000000E-03 0.  1.
        -12    1    4    4    0    0 -0.14752676930E+01 -0.56550616662E+01 -0.91222847997E+01  0.10833845909E+02  0.00000000000E+00 0.  1.
</event>
<event>
 8    1  0.7311878E-012  0.9118800E+02  0.7816164E-02  0.1184000E+00
        -11   -1    0    0    0    0  0.00000000000E+00  0.00000000000E+00  0.45593999997E+02  0.45594000000E+02  0.51100000000E-03 0. -1.
         11   -1    0    0    0    0 -0.00000000000E+00 -0.00000000000E+00 -0.45593999997E+02  0.45594000000E+02  0.51100000000E-03 0.  1.
         23    2    1    2    0    0  0.00000000000E+00  0.35527136788E-14 -0.35527136788E-14  0.91188000000E+02  0.91188000000E+02 0.  0.
    9900012    2    3    3    0    0 -0.24269153426E+02 -0.19469716077E+02  0.26174472430E+02  0.50528872376E+02  0.30000038075E+02 0.  0.
        -12    1    3    3    0    0  0.24269153426E+02  0.19469716077E+02 -0.26174472430E+02  0.40659127624E+02  0.00000000000E+00 0.  1.
         11    1    4    4    0    0 -0.85146498514E+01 -0.35130885778E+01  0.50550507667E+01  0.10506883076E+02  0.51100000000E-03 0. -1.
        -11    1    4    4    0    0 -0.78386148579E+01 -0.18689040329E+02  0.35719386819E+01  0.20578699121E+02  0.51100000000E-03 0.  1.
        -12    1    4    4    0    0 -0.79158887166E+01  0.27324128293E+01  0.17547482981E+02  0.19443290180E+02  0.00000000000E+00 0.  1.
</event>
<event>
 8    1  0.7311878E-012  0.9118800E+02  0.7816164E-02  0.1184000E+00
        -11   -1    0    0    0    0  0.00000000000E+00  0.00000000000E+00  0.45593999997E+02  0.45594000000E+02  0.51100000000E-03 0. -1.
         11   -1    0    0    0    0 -0.00000000000E+00 -0.00000000000E+00 -0.45593999997E+02  0.45594000000E+02  0.51100000000E-03 0.  1.
         23    2    1    2    0    0 -0.33306690739E-15  0.00000000000E+00 -0.71054273576E-14  0.91188000000E+02  0.91188000000E+02 0.  0.
    9900012    2    3    3    0    0  0.66542308655E+00 -0.74889790835E+01  0.39957828475E+02  0.50528983140E+02  0.30000374749E+02 0.  0.
        -12    1    3    3    0    0 -0.66542308655E+00  0.74889790835E+01 -0.39957828475E+02  0.40659016860E+02  0.00000000000E+00 0.  1.
         11    1    4    4    0    0  0.14050551775E+01 -0.91807356382E+01  0.14389659986E+02  0.17126657634E+02  0.51100000000E-03 0. -1.
        -11    1    4    4    0    0  0.60560327557E+01 -0.26618263539E+01  0.25797256926E-01  0.66152489020E+01  0.51100000000E-03 0.  1.
        -12    1    4    4    0    0 -0.67956648467E+01  0.43535829085E+01  0.25542371232E+02  0.26787076604E+02  0.00000000000E+00 0.  1.
</event>
<event>
 8    1  0.7311878E-012  0.9118800E+02  0.7816164E-02  0.1184000E+00
        -11   -1    0    0    0    0  0.00000000000E+00  0.00000000000E+00  0.45593999997E+02  0.45594000000E+02  0.51100000000E-03 0. -1.
         11   -1    0    0    0    0 -0.00000000000E+00 -0.00000000000E+00 -0.45593999997E+02  0.45594000000E+02  0.51100000000E-03 0.  1.
         23    2    1    2    0    0 -0.44408920985E-15  0.88817841970E-15  0.00000000000E+00  0.91188000000E+02  0.91188000000E+02 0.  0.
    9900012    2    3    3    0    0  0.34848647369E+00 -0.69312482116E+01  0.40062398333E+02  0.50528936990E+02  0.30000234475E+02 0.  0.
        -12    1    3    3    0    0 -0.34848647369E+00  0.69312482116E+01 -0.40062398333E+02  0.40659063010E+02  0.00000000000E+00 0.  1.
         11    1    4    4    0    0 -0.29465879486E+01 -0.11210319486E+02  0.18087073590E+02  0.21482455046E+02  0.51100000000E-03 0. -1.
        -11    1    4    4    0    0 -0.34764967025E+01 -0.55076628283E+01  0.11381883009E+02  0.13113643287E+02  0.51100000000E-03 0.  1.
        -12    1    4    4    0    0  0.67715711247E+01  0.97867341028E+01  0.10593441735E+02  0.15932838657E+02  0.00000000000E+00 0.  1.
</event>
<event>
 8    1  0.7311878E-012  0.9118800E+02  0.7816164E-02  0.1184000E+00
        -11   -1    0    0    0    0  0.00000000000E+00  0.00000000000E+00  0.45593999997E+02  0.45594000000E+02  0.51100000000E-03 0.  1.
         11   -1    0    0    0    0 -0.00000000000E+00 -0.00000000000E+00 -0.45593999997E+02  0.45594000000E+02  0.51100000000E-03 0. -1.
         23    2    1    2    0    0  0.00000000000E+00  0.00000000000E+00  0.00000000000E+00  0.91188000000E+02  0.91188000000E+02 0.  0.
    9900012    2    3    3    0    0 -0.37515638773E+02  0.12320265289E+02  0.96929613896E+01  0.50528860931E+02  0.30000003285E+02 0.  0.
        -12    1    3    3    0    0  0.37515638773E+02 -0.12320265289E+02 -0.96929613896E+01  0.40659139069E+02  0.00000000000E+00 0.  1.
         11    1    4    4    0    0 -0.50698308035E+01 -0.18900804828E+00  0.66040616555E+01  0.83278171827E+01  0.51100000000E-03 0. -1.
        -11    1    4    4    0    0  0.15314800625E+01  0.38097404120E+00 -0.49873548302E+01  0.52310879237E+01  0.51100000000E-03 0.  1.
         12    1    4    4    0    0 -0.33977288032E+02  0.12128299297E+02  0.80762545644E+01  0.36969955824E+02  0.00000000000E+00 0. -1.
</event>
<event>
 8    1  0.7311878E-012  0.9118800E+02  0.7816164E-02  0.1184000E+00
        -11   -1    0    0    0    0  0.00000000000E+00  0.00000000000E+00  0.45593999997E+02  0.45594000000E+02  0.51100000000E-03 0. -1.
         11   -1    0    0    0    0 -0.00000000000E+00 -0.00000000000E+00 -0.45593999997E+02  0.45594000000E+02  0.51100000000E-03 0.  1.
         23    2    1    2    0    0 -0.35527136788E-14 -0.44408920985E-15  0.71054273576E-14  0.91188000000E+02  0.91188000000E+02 0.  0.
    9900012    2    3    3    0    0  0.15336271484E+02  0.36176340570E+01 -0.37481684833E+02  0.50528865760E+02  0.30000017964E+02 0.  0.
         12    1    3    3    0    0 -0.15336271484E+02 -0.36176340570E+01  0.37481684833E+02  0.40659134240E+02  0.00000000000E+00 0. -1.
         11    1    4    4    0    0  0.47709756991E+01 -0.13946027311E+01 -0.95837551231E+01  0.10796086718E+02  0.51100000000E-03 0. -1.
        -11    1    4    4    0    0 -0.64131887028E+01  0.13324862189E+01 -0.19235630013E+02  0.20320284720E+02  0.51100000000E-03 0.  1.
         12    1    4    4    0    0  0.16978484488E+02  0.36797505692E+01 -0.86622996978E+01  0.19412494322E+02  0.00000000000E+00 0. -1.
</event>
<event>
 8    1  0.7311878E-012  0.9118800E+02  0.7816164E-02  0.1184000E+00
        -11   -1    0    0    0    0  0.00000000000E+00  0.00000000000E+00  0.45593999997E+02  0.45594000000E+02  0.51100000000E-03 0. -1.
         11   -1    0    0    0    0 -0.00000000000E+00 -0.00000000000E+00 -0.45593999997E+02  0.45594000000E+02  0.51100000000E-03 0.  1.
         23    2    1    2    0    0  0.00000000000E+00  0.88817841970E-15  0.00000000000E+00  0.91188000000E+02  0.91188000000E+02 0.  0.
    9900012    2    3    3    0    0  0.19436094350E+02  0.60056602026E+01  0.35204204214E+02  0.50528859424E+02  0.29999998706E+02 0.  0.
        -12    1    3    3    0    0 -0.19436094350E+02 -0.60056602026E+01 -0.35204204214E+02  0.40659140576E+02  0.00000000000E+00 0.  1.
         11    1    4    4    0    0  0.35370673021E+01 -0.49426926103E+01  0.23130617835E+02  0.23915821898E+02  0.51100000000E-03 0. -1.
        -11    1    4    4    0    0 -0.24658069151E+01  0.16452772968E+01  0.53186977145E+00  0.30116485254E+01  0.51100000000E-03 0.  1.
         12    1    4    4    0    0  0.18364833963E+02  0.93030755161E+01  0.11541716607E+02  0.23601389001E+02  0.00000000000E+00 0. -1.
</event>
<event>
 8    1  0.7311878E-012  0.9118800E+02  0.7816164E-02  0.1184000E+00
        -11   -1    0    0    0    0  0.00000000000E+00  0.00000000000E+00  0.45593999997E+02  0.45594000000E+02  0.51100000000E-03 0. -1.
         11   -1    0    0    0    0 -0.00000000000E+00 -0.00000000000E+00 -0.45593999997E+02  0.45594000000E+02  0.51100000000E-03 0.  1.
         23    2    1    2    0    0  0.17763568394E-14  0.00000000000E+00  0.00000000000E+00  0.91188000000E+02  0.91188000000E+02 0.  0.
    9900012    2    3    3    0    0  0.15988336659E+02  0.24455143395E+02  0.28275163493E+02  0.50528858123E+02  0.29999994752E+02 0.  0.
        -12    1    3    3    0    0 -0.15988336659E+02 -0.24455143395E+02 -0.28275163493E+02  0.40659141877E+02  0.00000000000E+00 0.  1.
         11    1    4    4    0    0 -0.34922924860E+01  0.86499890919E+01 -0.81099515567E+00  0.93635533586E+01  0.51100000000E-03 0. -1.
        -11    1    4    4    0    0  0.63308387297E+01  0.10694677063E+01  0.52668828328E+00  0.64421022194E+01  0.51100000000E-03 0.  1.
         12    1    4    4    0    0  0.13149790415E+02  0.14735686597E+02  0.28559470366E+02  0.34723202545E+02  0.00000000000E+00 0. -1.
</event>
<event>
 8    1  0.7311878E-012  0.9118800E+02  0.7816164E-02  0.1184000E+00
        -11   -1    0    0    0    0  0.00000000000E+00  0.00000000000E+00  0.45593999997E+02  0.45594000000E+02  0.51100000000E-03 0.  1.
         11   -1    0    0    0    0 -0.00000000000E+00 -0.00000000000E+00 -0.45593999997E+02  0.45594000000E+02  0.51100000000E-03 0. -1.
         23    2    1    2    0    0  0.00000000000E+00  0.71054273576E-14  0.00000000000E+00  0.91188000000E+02  0.91188000000E+02 0.  0.
    9900012    2    3    3    0    0 -0.50980285632E+01 -0.40191356793E+02 -0.34395390998E+01  0.50528862217E+02  0.30000007193E+02 0.  0.
         12    1    3    3    0    0  0.50980285632E+01  0.40191356793E+02  0.34395390998E+01  0.40659137783E+02  0.00000000000E+00 0. -1.
         11    1    4    4    0    0 -0.14206343249E+01  0.20858786379E+01 -0.12931417336E+00  0.25270168170E+01  0.51100000000E-03 0. -1.
        -11    1    4    4    0    0 -0.86641091011E+01 -0.38998087491E+02  0.20198685828E+01  0.39999968548E+02  0.51100000000E-03 0.  1.
         12    1    4    4    0    0  0.49867148628E+01 -0.32791479397E+01 -0.53300935092E+01  0.80018768518E+01  0.00000000000E+00 0. -1.
</event>
<event>
 8    1  0.7311878E-012  0.9118800E+02  0.7816164E-02  0.1184000E+00
        -11   -1    0    0    0    0  0.00000000000E+00  0.00000000000E+00  0.45593999997E+02  0.45594000000E+02  0.51100000000E-03 0. -1.
         11   -1    0    0    0    0 -0.00000000000E+00 -0.00000000000E+00 -0.45593999997E+02  0.45594000000E+02  0.51100000000E-03 0.  1.
         23    2    1    2    0    0  0.00000000000E+00  0.00000000000E+00  0.00000000000E+00  0.91188000000E+02  0.91188000000E+02 0.  0.
    9900012    2    3    3    0    0  0.12049583677E+02 -0.37932645291E+02  0.83119083107E+01  0.50528857543E+02  0.29999992988E+02 0.  0.
        -12    1    3    3    0    0 -0.12049583677E+02  0.37932645291E+02 -0.83119083107E+01  0.40659142457E+02  0.00000000000E+00 0.  1.
         11    1    4    4    0    0  0.86849879568E+01 -0.37864303885E+01 -0.34544989958E+01  0.10084623665E+02  0.51100000000E-03 0. -1.
        -11    1    4    4    0    0 -0.71126468910E+01 -0.11177073668E+02  0.21131544272E+01  0.13415742375E+02  0.51100000000E-03 0.  1.
         12    1    4    4    0    0  0.10477242611E+02 -0.22969141235E+02  0.96532528793E+01  0.27028491503E+02  0.00000000000E+00 0. -1.
</event>
<event>
 8    1  0.7311878E-012  0.9118800E+02  0.7816164E-02  0.1184000E+00
        -11   -1    0    0    0    0  0.00000000000E+00  0.00000000000E+00  0.45593999997E+02  0.45594000000E+02  0.51100000000E-03 0. -1.
         11   -1    0    0    0    0 -0.00000000000E+00 -0.00000000000E+00 -0.45593999997E+02  0.45594000000E+02  0.51100000000E-03 0.  1.
         23    2    1    2    0    0  0.00000000000E+00 -0.17347234760E-16  0.71054273576E-14  0.91188000000E+02  0.91188000000E+02 0.  0.
    9900012    2    3    3    0    0 -0.12666275809E+02  0.21599938710E-01  0.38635875669E+02  0.50528857140E+02  0.29999991763E+02 0.  0.
        -12    1    3    3    0    0  0.12666275809E+02 -0.21599938710E-01 -0.38635875669E+02  0.40659142860E+02  0.00000000000E+00 0.  1.
         11    1    4    4    0    0 -0.16077031876E+02  0.60249764367E+01  0.30641647516E+02  0.35123807563E+02  0.51100000000E-03 0. -1.
        -11    1    4    4    0    0  0.36347406872E-01  0.32839878324E+01  0.18559313724E+01  0.37723174227E+01  0.51100000000E-03 0.  1.
         12    1    4    4    0    0  0.33744086599E+01 -0.92873643304E+01  0.61382967804E+01  0.11632732154E+02  0.00000000000E+00 0. -1.
</event>
<event>
 8    1  0.7311878E-012  0.9118800E+02  0.7816164E-02  0.1184000E+00
        -11   -1    0    0    0    0  0.00000000000E+00  0.00000000000E+00  0.45593999997E+02  0.45594000000E+02  0.51100000000E-03 0. -1.
         11   -1    0    0    0    0 -0.00000000000E+00 -0.00000000000E+00 -0.45593999997E+02  0.45594000000E+02  0.51100000000E-03 0.  1.
         23    2    1    2    0    0 -0.88817841970E-15  0.00000000000E+00  0.35527136788E-14  0.91188000000E+02  0.91188000000E+02 0.  0.
    9900012    2    3    3    0    0  0.69720178626E+01 -0.26527507482E+02  0.30014117122E+02  0.50528869256E+02  0.30000028590E+02 0.  0.
        -12    1    3    3    0    0 -0.69720178626E+01  0.26527507482E+02 -0.30014117122E+02  0.40659130744E+02  0.00000000000E+00 0.  1.
         11    1    4    4    0    0  0.40029895474E+00  0.22974293128E+01 -0.10643909059E+01  0.25634642502E+01  0.51100000000E-03 0. -1.
        -11    1    4    4    0    0 -0.50454611051E+01 -0.29553950969E+01  0.13212182472E+02  0.14448280309E+02  0.51100000000E-03 0.  1.
         12    1    4    4    0    0  0.11617180013E+02 -0.25869541697E+02  0.17866325556E+02  0.33517124697E+02  0.00000000000E+00 0. -1.
</event>
<event>
 8    1  0.7311878E-012  0.9118800E+02  0.7816164E-02  0.1184000E+00
        -11   -1    0    0    0    0  0.00000000000E+00  0.00000000000E+00  0.45593999997E+02  0.45594000000E+02  0.51100000000E-03 0. -1.
         11   -1    0    0    0    0 -0.00000000000E+00 -0.00000000000E+00 -0.45593999997E+02  0.45594000000E+02  0.51100000000E-03 0.  1.
         23    2    1    2    0    0  0.35527136788E-14  0.00000000000E+00 -0.35527136788E-14  0.91188000000E+02  0.91188000000E+02 0.  0.
    9900012    2    3    3    0    0  0.23017235866E+02  0.24586186955E+02 -0.22779206318E+02  0.50528856178E+02  0.29999988838E+02 0.  0.
         12    1    3    3    0    0 -0.23017235866E+02 -0.24586186955E+02  0.22779206318E+02  0.40659143822E+02  0.00000000000E+00 0. -1.
         11    1    4    4    0    0 -0.64831213265E-01 -0.32446704093E+01  0.15231118606E+00  0.32488902890E+01  0.51100000000E-03 0. -1.
        -11    1    4    4    0    0  0.19952644017E+02  0.83757343115E+01 -0.11766957592E+02  0.24631731968E+02  0.51100000000E-03 0.  1.
        -12    1    4    4    0    0  0.31294230624E+01  0.19455123053E+02 -0.11164559911E+02  0.22648233920E+02  0.00000000000E+00 0.  1.
</event>
<event>
 8    1  0.7311878E-012  0.9118800E+02  0.7816164E-02  0.1184000E+00
        -11   -1    0    0    0    0  0.00000000000E+00  0.00000000000E+00  0.45593999997E+02  0.45594000000E+02  0.51100000000E-03 0. -1.
         11   -1    0    0    0    0 -0.00000000000E+00 -0.00000000000E+00 -0.45593999997E+02  0.45594000000E+02  0.51100000000E-03 0.  1.
         23    2    1    2    0    0  0.88817841970E-15  0.71054273576E-14 -0.17763568394E-14  0.91188000000E+02  0.91188000000E+02 0.  0.
    9900012    2    3    3    0    0  0.67828074170E+01  0.37093140348E+02 -0.15207177570E+02  0.50528858506E+02  0.29999995916E+02 0.  0.
         12    1    3    3    0    0 -0.67828074170E+01 -0.37093140348E+02  0.15207177570E+02  0.40659141494E+02  0.00000000000E+00 0. -1.
         11    1    4    4    0    0  0.81498051151E+01  0.27996091290E+01 -0.61648510775E+01  0.10595401066E+02  0.51100000000E-03 0.  1.
        -11    1    4    4    0    0  0.62156715097E+01  0.28642463499E+02 -0.82251728193E+01  0.30441398716E+02  0.51100000000E-03 0. -1.
         12    1    4    4    0    0 -0.75826692078E+01  0.56510677203E+01 -0.81715367366E+00  0.94920587241E+01  0.00000000000E+00 0. -1.
</event>
<event>
 8    1  0.7311878E-012  0.9118800E+02  0.7816164E-02  0.1184000E+00
        -11   -1    0    0    0    0  0.00000000000E+00  0.00000000000E+00  0.45593999997E+02  0.45594000000E+02  0.51100000000E-03 0. -1.
         11   -1    0    0    0    0 -0.00000000000E+00 -0.00000000000E+00 -0.45593999997E+02  0.45594000000E+02  0.51100000000E-03 0.  1.
         23    2    1    2    0    0  0.00000000000E+00  0.00000000000E+00 -0.35527136788E-14  0.91188000000E+02  0.91188000000E+02 0.  0.
    9900012    2    3    3    0    0 -0.27170484504E+02 -0.15723689831E+02  0.25839815102E+02  0.50528859643E+02  0.29999999370E+02 0.  0.
        -12    1    3    3    0    0  0.27170484504E+02  0.15723689831E+02 -0.25839815102E+02  0.40659140357E+02  0.00000000000E+00 0.  1.
         11    1    4    4    0    0 -0.30903674110E+01  0.12495507504E+01  0.11752452099E+02  0.12216050033E+02  0.51100000000E-03 0. -1.
        -11    1    4    4    0    0 -0.15999858500E+01 -0.21780164654E+01 -0.47487072248E+01  0.54638750912E+01  0.51100000000E-03 0.  1.
        -12    1    4    4    0    0 -0.22480131243E+02 -0.14795224116E+02  0.18836070228E+02  0.32848934518E+02  0.00000000000E+00 0.  1.
</event>
<event>
 8    1  0.7311878E-012  0.9118800E+02  0.7816164E-02  0.1184000E+00
        -11   -1    0    0    0    0  0.00000000000E+00  0.00000000000E+00  0.45593999997E+02  0.45594000000E+02  0.51100000000E-03 0. -1.
         11   -1    0    0    0    0 -0.00000000000E+00 -0.00000000000E+00 -0.45593999997E+02  0.45594000000E+02  0.51100000000E-03 0.  1.
         23    2    1    2    0    0  0.00000000000E+00 -0.35527136788E-14  0.00000000000E+00  0.91188000000E+02  0.91188000000E+02 0.  0.
    9900012    2    3    3    0    0 -0.24459848778E+01 -0.28399244116E+02 -0.28994253416E+02  0.50528848022E+02  0.29999964049E+02 0.  0.
         12    1    3    3    0    0  0.24459848778E+01  0.28399244116E+02  0.28994253416E+02  0.40659151978E+02  0.00000000000E+00 0. -1.
         11    1    4    4    0    0  0.22191363998E+01  0.19061668020E+01 -0.23352447182E+01  0.37431813198E+01  0.51100000000E-03 0. -1.
        -11    1    4    4    0    0  0.80571689698E+01 -0.20838999863E+02 -0.18173413929E+02  0.28800258006E+02  0.51100000000E-03 0.  1.
        -12    1    4    4    0    0 -0.12722290247E+02 -0.94664110551E+01 -0.84855947686E+01  0.17985408697E+02  0.00000000000E+00 0.  1.
</event>
<event>
 8    1  0.7311878E-012  0.9118800E+02  0.7816164E-02  0.1184000E+00
        -11   -1    0    0    0    0  0.00000000000E+00  0.00000000000E+00  0.45593999997E+02  0.45594000000E+02  0.51100000000E-03 0. -1.
         11   -1    0    0    0    0 -0.00000000000E+00 -0.00000000000E+00 -0.45593999997E+02  0.45594000000E+02  0.51100000000E-03 0.  1.
         23    2    1    2    0    0  0.35527136788E-14 -0.13322676296E-14  0.35527136788E-14  0.91188000000E+02  0.91188000000E+02 0.  0.
    9900012    2    3    3    0    0 -0.24902485625E+02 -0.32209501648E+01 -0.31978989897E+02  0.50528879189E+02  0.30000058782E+02 0.  0.
         12    1    3    3    0    0  0.24902485625E+02  0.32209501648E+01  0.31978989897E+02  0.40659120811E+02  0.00000000000E+00 0. -1.
         11    1    4    4    0    0 -0.93802893797E+00 -0.75017189687E+01 -0.11171973195E+02  0.13489576387E+02  0.51100000000E-03 0. -1.
        -11    1    4    4    0    0 -0.18886499146E+02 -0.54190053063E+00 -0.22939290356E+02  0.29718757519E+02  0.51100000000E-03 0.  1.
         12    1    4    4    0    0 -0.50779575411E+01  0.48226693345E+01  0.21322736538E+01  0.73205452826E+01  0.00000000000E+00 0. -1.
</event>
<event>
 8    1  0.7311878E-012  0.9118800E+02  0.7816164E-02  0.1184000E+00
        -11   -1    0    0    0    0  0.00000000000E+00  0.00000000000E+00  0.45593999997E+02  0.45594000000E+02  0.51100000000E-03 0. -1.
         11   -1    0    0    0    0 -0.00000000000E+00 -0.00000000000E+00 -0.45593999997E+02  0.45594000000E+02  0.51100000000E-03 0.  1.
         23    2    1    2    0    0  0.71054273576E-14 -0.17763568394E-14  0.00000000000E+00  0.91188000000E+02  0.91188000000E+02 0.  0.
    9900012    2    3    3    0    0  0.38952146535E+02 -0.72739939985E+01  0.91095963223E+01  0.50528862608E+02  0.30000008382E+02 0.  0.
        -12    1    3    3    0    0 -0.38952146535E+02  0.72739939985E+01 -0.91095963223E+01  0.40659137392E+02  0.00000000000E+00 0.  1.
         11    1    4    4    0    0 -0.63262819238E+00  0.31268760505E+01 -0.38634460330E-02  0.31902331345E+01  0.51100000000E-03 0. -1.
        -11    1    4    4    0    0  0.17998876842E+02 -0.15715255185E+02  0.75269490111E+01  0.25051622199E+02  0.51100000000E-03 0.  1.
         12    1    4    4    0    0  0.21585897885E+02  0.53143851359E+01  0.15865107573E+01  0.22287007274E+02  0.00000000000E+00 0. -1.
</event>
<event>
 8    1  0.7311878E-012  0.9118800E+02  0.7816164E-02  0.1184000E+00
        -11   -1    0    0    0    0  0.00000000000E+00  0.00000000000E+00  0.45593999997E+02  0.45594000000E+02  0.51100000000E-03 0. -1.
         11   -1    0    0    0    0 -0.00000000000E+00 -0.00000000000E+00 -0.45593999997E+02  0.45594000000E+02  0.51100000000E-03 0.  1.
         23    2    1    2    0    0 -0.35527136788E-14  0.00000000000E+00  0.00000000000E+00  0.91188000000E+02  0.91188000000E+02 0.  0.
    9900012    2    3    3    0    0  0.31107659910E+02  0.10667932384E+02  0.23909725007E+02  0.50528852981E+02  0.29999979120E+02 0.  0.
        -12    1    3    3    0    0 -0.31107659910E+02 -0.10667932384E+02 -0.23909725007E+02  0.40659147019E+02  0.00000000000E+00 0.  1.
         11    1    4    4    0    0  0.47239629931E+01  0.53941404732E+01  0.63270636368E+01  0.95626519506E+01  0.51100000000E-03 0. -1.
        -11    1    4    4    0    0 -0.50747614042E+01 -0.10695658600E+00  0.27418442280E+01  0.57690859807E+01  0.51100000000E-03 0.  1.
         12    1    4    4    0    0  0.31458458321E+02  0.53807484972E+01  0.14840817143E+02  0.35197115049E+02  0.00000000000E+00 0. -1.
</event>
<event>
 8    1  0.7311878E-012  0.9118800E+02  0.7816164E-02  0.1184000E+00
        -11   -1    0    0    0    0  0.00000000000E+00  0.00000000000E+00  0.45593999997E+02  0.45594000000E+02  0.51100000000E-03 0. -1.
         11   -1    0    0    0    0 -0.00000000000E+00 -0.00000000000E+00 -0.45593999997E+02  0.45594000000E+02  0.51100000000E-03 0.  1.
         23    2    1    2    0    0 -0.44408920985E-15  0.00000000000E+00  0.71054273576E-14  0.91188000000E+02  0.91188000000E+02 0.  0.
    9900012    2    3    3    0    0 -0.14632720822E+01 -0.18901278405E+02  0.35968964574E+02  0.50528857080E+02  0.29999991579E+02 0.  0.
        -12    1    3    3    0    0  0.14632720822E+01  0.18901278405E+02 -0.35968964574E+02  0.40659142920E+02  0.00000000000E+00 0.  1.
         11    1    4    4    0    0  0.49792481038E+01 -0.11302158816E+01 -0.92862297956E+00  0.51896667058E+01  0.51100000000E-03 0. -1.
        -11    1    4    4    0    0 -0.15677453454E+01  0.32056913300E+01  0.11495960667E+02  0.12037084128E+02  0.51100000000E-03 0.  1.
         12    1    4    4    0    0 -0.48747748406E+01 -0.20976753853E+02  0.25401626886E+02  0.33302106246E+02  0.00000000000E+00 0. -1.
</event>
<event>
 8    1  0.7311878E-012  0.9118800E+02  0.7816164E-02  0.1184000E+00
        -11   -1    0    0    0    0  0.00000000000E+00  0.00000000000E+00  0.45593999997E+02  0.45594000000E+02  0.51100000000E-03 0. -1.
         11   -1    0    0    0    0 -0.00000000000E+00 -0.00000000000E+00 -0.45593999997E+02  0.45594000000E+02  0.51100000000E-03 0.  1.
         23    2    1    2    0    0  0.00000000000E+00  0.00000000000E+00  0.00000000000E+00  0.91188000000E+02  0.91188000000E+02 0.  0.
    9900012    2    3    3    0    0  0.11454782369E+02 -0.24150223471E+02 -0.30638541263E+02  0.50528861500E+02  0.30000005016E+02 0.  0.
         12    1    3    3    0    0 -0.11454782369E+02  0.24150223471E+02  0.30638541263E+02  0.40659138500E+02  0.00000000000E+00 0. -1.
         11    1    4    4    0    0  0.23309905706E+01 -0.14828479085E+02 -0.49241075641E+01  0.15797599330E+02  0.51100000000E-03 0. -1.
        -11    1    4    4    0    0  0.30238760051E+01  0.44984160195E+01 -0.64013825316E+00  0.54579620759E+01  0.51100000000E-03 0.  1.
        -12    1    4    4    0    0  0.60999157933E+01 -0.13820160405E+02 -0.25074295446E+02  0.29273300095E+02  0.00000000000E+00 0.  1.
</event>
<event>
 8    1  0.7311878E-012  0.9118800E+02  0.7816164E-02  0.1184000E+00
        -11   -1    0    0    0    0  0.00000000000E+00  0.00000000000E+00  0.45593999997E+02  0.45594000000E+02  0.51100000000E-03 0. -1.
         11   -1    0    0    0    0 -0.00000000000E+00 -0.00000000000E+00 -0.45593999997E+02  0.45594000000E+02  0.51100000000E-03 0.  1.
         23    2    1    2    0    0  0.00000000000E+00  0.17763568394E-14  0.00000000000E+00  0.91188000000E+02  0.91188000000E+02 0.  0.
    9900012    2    3    3    0    0 -0.29901600785E+01 -0.11924778190E+02  0.38755960306E+02  0.50528857714E+02  0.29999993508E+02 0.  0.
        -12    1    3    3    0    0  0.29901600785E+01  0.11924778190E+02 -0.38755960306E+02  0.40659142286E+02  0.00000000000E+00 0.  1.
         11    1    4    4    0    0  0.15129687037E+01 -0.11282264975E+02  0.55946675826E+01  0.12683803960E+02  0.51100000000E-03 0. -1.
        -11    1    4    4    0    0  0.36989486589E+01  0.19720052360E+01  0.68529199890E+00  0.42474287772E+01  0.51100000000E-03 0.  1.
        -12    1    4    4    0    0 -0.82020774412E+01 -0.26145184515E+01  0.32476000724E+02  0.33597624977E+02  0.00000000000E+00 0.  1.
</event>
<event>
 8    1  0.7311878E-012  0.9118800E+02  0.7816164E-02  0.1184000E+00
        -11   -1    0    0    0    0  0.00000000000E+00  0.00000000000E+00  0.45593999997E+02  0.45594000000E+02  0.51100000000E-03 0. -1.
         11   -1    0    0    0    0 -0.00000000000E+00 -0.00000000000E+00 -0.45593999997E+02  0.45594000000E+02  0.51100000000E-03 0.  1.
         23    2    1    2    0    0  0.00000000000E+00  0.00000000000E+00  0.17763568394E-14  0.91188000000E+02  0.91188000000E+02 0.  0.
    9900012    2    3    3    0    0 -0.10265197846E+02  0.36060724149E+02  0.15729426264E+02  0.50528868632E+02  0.30000026695E+02 0.  0.
        -12    1    3    3    0    0  0.10265197846E+02 -0.36060724149E+02 -0.15729426264E+02  0.40659131368E+02  0.00000000000E+00 0.  1.
         11    1    4    4    0    0 -0.56452793278E+01  0.23056687780E+01 -0.28514675808E+01  0.67317274773E+01  0.51100000000E-03 0. -1.
        -11    1    4    4    0    0 -0.56713735347E+01  0.33000387849E+01  0.10310996217E+02  0.12221758344E+02  0.51100000000E-03 0.  1.
         12    1    4    4    0    0  0.10514550166E+01  0.30455016586E+02  0.82698976277E+01  0.31575382811E+02  0.00000000000E+00 0. -1.
</event>
<event>
 8    1  0.7311878E-012  0.9118800E+02  0.7816164E-02  0.1184000E+00
        -11   -1    0    0    0    0  0.00000000000E+00  0.00000000000E+00  0.45593999997E+02  0.45594000000E+02  0.51100000000E-03 0.  1.
         11   -1    0    0    0    0 -0.00000000000E+00 -0.00000000000E+00 -0.45593999997E+02  0.45594000000E+02  0.51100000000E-03 0. -1.
         23    2    1    2    0    0  0.44408920985E-15  0.00000000000E+00  0.88817841970E-15  0.91188000000E+02  0.91188000000E+02 0.  0.
    9900012    2    3    3    0    0  0.25899758162E+01 -0.40129463085E+02  0.60069627945E+01  0.50528863459E+02  0.30000010970E+02 0.  0.
        -12    1    3    3    0    0 -0.25899758162E+01  0.40129463085E+02 -0.60069627945E+01  0.40659136541E+02  0.00000000000E+00 0.  1.
         11    1    4    4    0    0  0.52374651493E+01 -0.15579534454E+02  0.19058596386E+01  0.16546456909E+02  0.51100000000E-03 0.  1.
        -11    1    4    4    0    0 -0.23396112661E+01 -0.11607010426E+02  0.13520206075E+02  0.17971990554E+02  0.51100000000E-03 0. -1.
         12    1    4    4    0    0 -0.30787806692E+00 -0.12942918205E+02 -0.94191029195E+01  0.16010415996E+02  0.00000000000E+00 0. -1.
</event>
<event>
 8    1  0.7311878E-012  0.9118800E+02  0.7816164E-02  0.1184000E+00
        -11   -1    0    0    0    0  0.00000000000E+00  0.00000000000E+00  0.45593999997E+02  0.45594000000E+02  0.51100000000E-03 0. -1.
         11   -1    0    0    0    0 -0.00000000000E+00 -0.00000000000E+00 -0.45593999997E+02  0.45594000000E+02  0.51100000000E-03 0.  1.
         23    2    1    2    0    0  0.00000000000E+00  0.00000000000E+00  0.00000000000E+00  0.91188000000E+02  0.91188000000E+02 0.  0.
    9900012    2    3    3    0    0  0.25745528792E+02 -0.97234540769E+01 -0.29929704777E+02  0.50528867693E+02  0.30000023839E+02 0.  0.
         12    1    3    3    0    0 -0.25745528792E+02  0.97234540769E+01  0.29929704777E+02  0.40659132307E+02  0.00000000000E+00 0. -1.
         11    1    4    4    0    0  0.23428014085E+01  0.32110529363E+01 -0.16241275670E+02  0.16720604506E+02  0.51100000000E-03 0.  1.
        -11    1    4    4    0    0  0.51155592321E+01  0.18576902184E+01  0.16987941133E+01  0.57013911378E+01  0.51100000000E-03 0. -1.
        -12    1    4    4    0    0  0.18287168151E+02 -0.14792197232E+02 -0.15387223220E+02  0.28106872048E+02  0.00000000000E+00 0.  1.
</event>
<event>
 8    1  0.7311878E-012  0.9118800E+02  0.7816164E-02  0.1184000E+00
        -11   -1    0    0    0    0  0.00000000000E+00  0.00000000000E+00  0.45593999997E+02  0.45594000000E+02  0.51100000000E-03 0. -1.
         11   -1    0    0    0    0 -0.00000000000E+00 -0.00000000000E+00 -0.45593999997E+02  0.45594000000E+02  0.51100000000E-03 0.  1.
         23    2    1    2    0    0 -0.17763568394E-14 -0.71054273576E-14  0.00000000000E+00  0.91188000000E+02  0.91188000000E+02 0.  0.
    9900012    2    3    3    0    0 -0.12407081019E+02 -0.17460759710E+02  0.34559398092E+02  0.50528858524E+02  0.29999995970E+02 0.  0.
        -12    1    3    3    0    0  0.12407081019E+02  0.17460759710E+02 -0.34559398092E+02  0.40659141476E+02  0.00000000000E+00 0.  1.
         11    1    4    4    0    0  0.19423501219E+01 -0.62056201190E+01  0.96657040867E+00  0.65739412588E+01  0.51100000000E-03 0.  1.
        -11    1    4    4    0    0 -0.16332576081E+02 -0.12551181964E+02  0.15682864524E+02  0.25888944553E+02  0.51100000000E-03 0. -1.
         12    1    4    4    0    0  0.19831449399E+01  0.12960423725E+01  0.17909963159E+02  0.18065972712E+02  0.00000000000E+00 0. -1.
</event>
<event>
 8    1  0.7311878E-012  0.9118800E+02  0.7816164E-02  0.1184000E+00
        -11   -1    0    0    0    0  0.00000000000E+00  0.00000000000E+00  0.45593999997E+02  0.45594000000E+02  0.51100000000E-03 0. -1.
         11   -1    0    0    0    0 -0.00000000000E+00 -0.00000000000E+00 -0.45593999997E+02  0.45594000000E+02  0.51100000000E-03 0.  1.
         23    2    1    2    0    0 -0.17763568394E-14  0.88817841970E-15  0.00000000000E+00  0.91188000000E+02  0.91188000000E+02 0.  0.
    9900012    2    3    3    0    0 -0.93602229266E+01  0.25649746545E+01  0.39483828733E+02  0.50528860810E+02  0.30000002919E+02 0.  0.
        -12    1    3    3    0    0  0.93602229266E+01 -0.25649746545E+01 -0.39483828733E+02  0.40659139190E+02  0.00000000000E+00 0.  1.
         11    1    4    4    0    0  0.42378607150E+01  0.27977161561E+01  0.10974949376E+02  0.12092815768E+02  0.51100000000E-03 0. -1.
        -11    1    4    4    0    0 -0.61867267435E+01 -0.10917838199E+02  0.16547198544E+02  0.20767391715E+02  0.51100000000E-03 0.  1.
         12    1    4    4    0    0 -0.74113568981E+01  0.10685096698E+02  0.11961680813E+02  0.17668653327E+02  0.00000000000E+00 0. -1.
</event>
<event>
 8    1  0.7311878E-012  0.9118800E+02  0.7816164E-02  0.1184000E+00
        -11   -1    0    0    0    0  0.00000000000E+00  0.00000000000E+00  0.45593999997E+02  0.45594000000E+02  0.51100000000E-03 0. -1.
         11   -1    0    0    0    0 -0.00000000000E+00 -0.00000000000E+00 -0.45593999997E+02  0.45594000000E+02  0.51100000000E-03 0.  1.
         23    2    1    2    0    0  0.88817841970E-15  0.00000000000E+00  0.00000000000E+00  0.91188000000E+02  0.91188000000E+02 0.  0.
    9900012    2    3    3    0    0  0.73603406120E+01  0.24415970844E+02  0.31667805442E+02  0.50528878665E+02  0.30000057191E+02 0.  0.
        -12    1    3    3    0    0 -0.73603406120E+01 -0.24415970844E+02 -0.31667805442E+02  0.40659121335E+02  0.00000000000E+00 0.  1.
         11    1    4    4    0    0 -0.22380586024E+01  0.71031391789E+01  0.50686661444E+00  0.74646102731E+01  0.51100000000E-03 0. -1.
        -11    1    4    4    0    0 -0.45976578744E+01  0.14969194168E+01  0.16630826243E+02  0.17319457481E+02  0.51100000000E-03 0.  1.
         12    1    4    4    0    0  0.14196057089E+02  0.15815912248E+02  0.14530112585E+02  0.25744810911E+02  0.00000000000E+00 0. -1.
</event>
<event>
 8    1  0.7311878E-012  0.9118800E+02  0.7816164E-02  0.1184000E+00
        -11   -1    0    0    0    0  0.00000000000E+00  0.00000000000E+00  0.45593999997E+02  0.45594000000E+02  0.51100000000E-03 0. -1.
         11   -1    0    0    0    0 -0.00000000000E+00 -0.00000000000E+00 -0.45593999997E+02  0.45594000000E+02  0.51100000000E-03 0.  1.
         23    2    1    2    0    0 -0.88817841970E-15  0.00000000000E+00  0.00000000000E+00  0.91188000000E+02  0.91188000000E+02 0.  0.
    9900012    2    3    3    0    0 -0.78797432920E+01  0.21545982537E+02 -0.33568569133E+02  0.50528824511E+02  0.29999892584E+02 0.  0.
         12    1    3    3    0    0  0.78797432920E+01 -0.21545982537E+02  0.33568569133E+02  0.40659175489E+02  0.00000000000E+00 0. -1.
         11    1    4    4    0    0 -0.66640106749E+00  0.18291171702E+02 -0.69011404263E+01  0.19561104061E+02  0.51100000000E-03 0. -1.
        -11    1    4    4    0    0 -0.69960896895E+01  0.19002935662E+00 -0.39359005433E+01  0.80294891150E+01  0.51100000000E-03 0.  1.
        -12    1    4    4    0    0 -0.21725253495E+00  0.30647814775E+01 -0.22731528163E+02  0.22938231335E+02  0.00000000000E+00 0.  1.
</event>
<event>
 8    1  0.7311878E-012  0.9118800E+02  0.7816164E-02  0.1184000E+00
        -11   -1    0    0    0    0  0.00000000000E+00  0.00000000000E+00  0.45593999997E+02  0.45594000000E+02  0.51100000000E-03 0. -1.
         11   -1    0    0    0    0 -0.00000000000E+00 -0.00000000000E+00 -0.45593999997E+02  0.45594000000E+02  0.51100000000E-03 0.  1.
         23    2    1    2    0    0 -0.71054273576E-14  0.00000000000E+00  0.22204460493E-15  0.91188000000E+02  0.91188000000E+02 0.  0.
    9900012    2    3    3    0    0 -0.32174032472E+02  0.24848146217E+02  0.75253331475E+00  0.50528867664E+02  0.30000023751E+02 0.  0.
        -12    1    3    3    0    0  0.32174032472E+02 -0.24848146217E+02 -0.75253331475E+00  0.40659132336E+02  0.00000000000E+00 0.  1.
         11    1    4    4    0    0 -0.10144901136E+02  0.14070147639E+02  0.74449104427E+01  0.18876301688E+02  0.51100000000E-03 0. -1.
        -11    1    4    4    0    0  0.26895085472E+01 -0.17250729621E+01 -0.11957684191E+01  0.34116264924E+01  0.51100000000E-03 0.  1.
         12    1    4    4    0    0 -0.24718639884E+02  0.12503071540E+02 -0.54966087088E+01  0.28240939484E+02  0.00000000000E+00 0. -1.
</event>
<event>
 8    1  0.7311878E-012  0.9118800E+02  0.7816164E-02  0.1184000E+00
        -11   -1    0    0    0    0  0.00000000000E+00  0.00000000000E+00  0.45593999997E+02  0.45594000000E+02  0.51100000000E-03 0. -1.
         11   -1    0    0    0    0 -0.00000000000E+00 -0.00000000000E+00 -0.45593999997E+02  0.45594000000E+02  0.51100000000E-03 0.  1.
         23    2    1    2    0    0  0.44408920985E-15  0.00000000000E+00  0.00000000000E+00  0.91188000000E+02  0.91188000000E+02 0.  0.
    9900012    2    3    3    0    0 -0.22556354054E+01  0.24222689382E+02  0.32578193405E+02  0.50528865017E+02  0.30000015706E+02 0.  0.
        -12    1    3    3    0    0  0.22556354054E+01 -0.24222689382E+02 -0.32578193405E+02  0.40659134983E+02  0.00000000000E+00 0.  1.
         11    1    4    4    0    0  0.77363516084E+01  0.10629717229E+01  0.77853025032E+01  0.11026875370E+02  0.51100000000E-03 0. -1.
        -11    1    4    4    0    0  0.26183588866E+01  0.15870212486E+02  0.11400126386E+02  0.19715028011E+02  0.51100000000E-03 0.  1.
         12    1    4    4    0    0 -0.12610345900E+02  0.72895051736E+01  0.13392764517E+02  0.19786961637E+02  0.00000000000E+00 0. -1.
</event>
<event>
 8    1  0.7311878E-012  0.9118800E+02  0.7816164E-02  0.1184000E+00
        -11   -1    0    0    0    0  0.00000000000E+00  0.00000000000E+00  0.45593999997E+02  0.45594000000E+02  0.51100000000E-03 0. -1.
         11   -1    0    0    0    0 -0.00000000000E+00 -0.00000000000E+00 -0.45593999997E+02  0.45594000000E+02  0.51100000000E-03 0.  1.
         23    2    1    2    0    0  0.17763568394E-14  0.35527136788E-14  0.71054273576E-14  0.91188000000E+02  0.91188000000E+02 0.  0.
    9900012    2    3    3    0    0  0.10646470735E+02  0.14786558022E+02  0.36347988533E+02  0.50528857023E+02  0.29999991407E+02 0.  0.
        -12    1    3    3    0    0 -0.10646470735E+02 -0.14786558022E+02 -0.36347988533E+02  0.40659142977E+02  0.00000000000E+00 0.  1.
         11    1    4    4    0    0 -0.30453181062E+01  0.68692337840E+01  0.71655579604E+01  0.10382945454E+02  0.51100000000E-03 0. -1.
        -11    1    4    4    0    0  0.15148466770E+02  0.11127685040E+02  0.11326265698E+02  0.21945061284E+02  0.51100000000E-03 0.  1.
         12    1    4    4    0    0 -0.14566779297E+01 -0.32103608025E+01  0.17856164875E+02  0.18200850285E+02  0.00000000000E+00 0. -1.
</event>
<event>
 8    1  0.7311878E-012  0.9118800E+02  0.7816164E-02  0.1184000E+00
        -11   -1    0    0    0    0  0.00000000000E+00  0.00000000000E+00  0.45593999997E+02  0.45594000000E+02  0.51100000000E-03 0. -1.
         11   -1    0    0    0    0 -0.00000000000E+00 -0.00000000000E+00 -0.45593999997E+02  0.45594000000E+02  0.51100000000E-03 0.  1.
         23    2    1    2    0    0  0.00000000000E+00  0.00000000000E+00  0.00000000000E+00  0.91188000000E+02  0.91188000000E+02 0.  0.
    9900012    2    3    3    0    0 -0.20540401090E+02  0.27396849570E+02  0.21924196095E+02  0.50528858129E+02  0.29999994768E+02 0.  0.
        -12    1    3    3    0    0  0.20540401090E+02 -0.27396849570E+02 -0.21924196095E+02  0.40659141871E+02  0.00000000000E+00 0.  1.
         11    1    4    4    0    0 -0.55348165344E+01 -0.45691020658E+01 -0.18707526533E+01  0.74169133410E+01  0.51100000000E-03 0. -1.
        -11    1    4    4    0    0 -0.11019969844E+01  0.28894675494E+01  0.47738343774E+01  0.56879622886E+01  0.51100000000E-03 0.  1.
         12    1    4    4    0    0 -0.13903587571E+02  0.29076484086E+02  0.19021114371E+02  0.37423982499E+02  0.00000000000E+00 0. -1.
</event>
<event>
 8    1  0.7311878E-012  0.9118800E+02  0.7816164E-02  0.1184000E+00
        -11   -1    0    0    0    0  0.00000000000E+00  0.00000000000E+00  0.45593999997E+02  0.45594000000E+02  0.51100000000E-03 0. -1.
         11   -1    0    0    0    0 -0.00000000000E+00 -0.00000000000E+00 -0.45593999997E+02  0.45594000000E+02  0.51100000000E-03 0.  1.
         23    2    1    2    0    0  0.00000000000E+00  0.00000000000E+00  0.35527136788E-14  0.91188000000E+02  0.91188000000E+02 0.  0.
    9900012    2    3    3    0    0  0.34888136329E+02  0.10072531138E+02 -0.18290176184E+02  0.50528825330E+02  0.29999895072E+02 0.  0.
         12    1    3    3    0    0 -0.34888136329E+02 -0.10072531138E+02  0.18290176184E+02  0.40659174670E+02  0.00000000000E+00 0. -1.
         11    1    4    4    0    0  0.13007885906E+02 -0.46072188931E+01  0.40063198322E+00  0.13805508608E+02  0.51100000000E-03 0. -1.
        -11    1    4    4    0    0  0.23291340195E+02  0.77842034768E+01 -0.14053668956E+02  0.28294627815E+02  0.51100000000E-03 0.  1.
        -12    1    4    4    0    0 -0.14110897714E+01  0.68955465538E+01 -0.46371392113E+01  0.84286889066E+01  0.00000000000E+00 0.  1.
</event>
<event>
 8    1  0.7311878E-012  0.9118800E+02  0.7816164E-02  0.1184000E+00
        -11   -1    0    0    0    0  0.00000000000E+00  0.00000000000E+00  0.45593999997E+02  0.45594000000E+02  0.51100000000E-03 0. -1.
         11   -1    0    0    0    0 -0.00000000000E+00 -0.00000000000E+00 -0.45593999997E+02  0.45594000000E+02  0.51100000000E-03 0.  1.
         23    2    1    2    0    0  0.35527136788E-14  0.00000000000E+00 -0.71054273576E-14  0.91188000000E+02  0.91188000000E+02 0.  0.
    9900012    2    3    3    0    0  0.19060976975E+02 -0.12054662203E+01 -0.35894173361E+02  0.50528859904E+02  0.30000000165E+02 0.  0.
         12    1    3    3    0    0 -0.19060976975E+02  0.12054662203E+01  0.35894173361E+02  0.40659140096E+02  0.00000000000E+00 0. -1.
         11    1    4    4    0    0  0.86392842078E+01 -0.11359840683E+01 -0.51117794958E+01  0.10102375033E+02  0.51100000000E-03 0. -1.
        -11    1    4    4    0    0  0.65315100250E-01  0.17371989487E+01  0.38550091643E+01  0.42288558934E+01  0.51100000000E-03 0.  1.
        -12    1    4    4    0    0  0.10356377667E+02 -0.18066811007E+01 -0.34637403030E+02  0.36197628978E+02  0.00000000000E+00 0.  1.
</event>
<event>
 8    1  0.7311878E-012  0.9118800E+02  0.7816164E-02  0.1184000E+00
        -11   -1    0    0    0    0  0.00000000000E+00  0.00000000000E+00  0.45593999997E+02  0.45594000000E+02  0.51100000000E-03 0. -1.
         11   -1    0    0    0    0 -0.00000000000E+00 -0.00000000000E+00 -0.45593999997E+02  0.45594000000E+02  0.51100000000E-03 0.  1.
         23    2    1    2    0    0  0.88817841970E-15 -0.11102230246E-15  0.00000000000E+00  0.91188000000E+02  0.91188000000E+02 0.  0.
    9900012    2    3    3    0    0  0.52513227175E+01 -0.88065975122E+00  0.40308980796E+02  0.50528857305E+02  0.29999992264E+02 0.  0.
        -12    1    3    3    0    0 -0.52513227175E+01  0.88065975122E+00 -0.40308980796E+02  0.40659142695E+02  0.00000000000E+00 0.  1.
         11    1    4    4    0    0  0.65041482646E+01 -0.30546435921E+01  0.51291951327E+01  0.88285579283E+01  0.51100000000E-03 0. -1.
        -11    1    4    4    0    0  0.65972171571E+01  0.52554883627E+01  0.31301595058E+02  0.32418101202E+02  0.51100000000E-03 0.  1.
        -12    1    4    4    0    0 -0.78500427041E+01 -0.30815045218E+01  0.38781906058E+01  0.92821981744E+01  0.00000000000E+00 0.  1.
</event>
<event>
 8    1  0.7311878E-012  0.9118800E+02  0.7816164E-02  0.1184000E+00
        -11   -1    0    0    0    0  0.00000000000E+00  0.00000000000E+00  0.45593999997E+02  0.45594000000E+02  0.51100000000E-03 0. -1.
         11   -1    0    0    0    0 -0.00000000000E+00 -0.00000000000E+00 -0.45593999997E+02  0.45594000000E+02  0.51100000000E-03 0.  1.
         23    2    1    2    0    0  0.17763568394E-14  0.00000000000E+00  0.00000000000E+00  0.91188000000E+02  0.91188000000E+02 0.  0.
    9900012    2    3    3    0    0 -0.42659525893E+01  0.19253351548E+02  0.35556655484E+02  0.50528860234E+02  0.30000001166E+02 0.  0.
        -12    1    3    3    0    0  0.42659525893E+01 -0.19253351548E+02 -0.35556655484E+02  0.40659139766E+02  0.00000000000E+00 0.  1.
         11    1    4    4    0    0 -0.11038244079E+02  0.57497568962E+01  0.51509561564E+01  0.13469776772E+02  0.51100000000E-03 0. -1.
        -11    1    4    4    0    0 -0.35357897198E+01  0.84346885011E+01  0.17749796901E+02  0.19967500328E+02  0.51100000000E-03 0.  1.
        -12    1    4    4    0    0  0.10308081209E+02  0.50689061503E+01  0.12655902427E+02  0.17091583133E+02  0.00000000000E+00 0.  1.
</event>
<event>
 8    1  0.7311878E-012  0.9118800E+02  0.7816164E-02  0.1184000E+00
        -11   -1    0    0    0    0  0.00000000000E+00  0.00000000000E+00  0.45593999997E+02  0.45594000000E+02  0.51100000000E-03 0. -1.
         11   -1    0    0    0    0 -0.00000000000E+00 -0.00000000000E+00 -0.45593999997E+02  0.45594000000E+02  0.51100000000E-03 0.  1.
         23    2    1    2    0    0  0.66613381478E-15 -0.35527136788E-14 -0.35527136788E-14  0.91188000000E+02  0.91188000000E+02 0.  0.
    9900012    2    3    3    0    0  0.19152940875E+01 -0.26206532573E+02 -0.31027639259E+02  0.50528866968E+02  0.30000021635E+02 0.  0.
         12    1    3    3    0    0 -0.19152940875E+01  0.26206532573E+02  0.31027639259E+02  0.40659133032E+02  0.00000000000E+00 0. -1.
         11    1    4    4    0    0 -0.59093601322E+01 -0.68419376991E+00 -0.83063926636E+01  0.10216888843E+02  0.51100000000E-03 0. -1.
        -11    1    4    4    0    0 -0.67683993542E+00 -0.11556034476E+02 -0.20859225551E+02  0.23855970657E+02  0.51100000000E-03 0.  1.
        -12    1    4    4    0    0  0.85014941551E+01 -0.13966304327E+02 -0.18620210441E+01  0.16456007468E+02  0.00000000000E+00 0.  1.
</event>
<event>
 8    1  0.7311878E-012  0.9118800E+02  0.7816164E-02  0.1184000E+00
        -11   -1    0    0    0    0  0.00000000000E+00  0.00000000000E+00  0.45593999997E+02  0.45594000000E+02  0.51100000000E-03 0. -1.
         11   -1    0    0    0    0 -0.00000000000E+00 -0.00000000000E+00 -0.45593999997E+02  0.45594000000E+02  0.51100000000E-03 0.  1.
         23    2    1    2    0    0  0.00000000000E+00  0.00000000000E+00  0.00000000000E+00  0.91188000000E+02  0.91188000000E+02 0.  0.
    9900012    2    3    3    0    0  0.36398491085E+02 -0.47878299886E+01  0.17475485896E+02  0.50528854945E+02  0.29999985092E+02 0.  0.
        -12    1    3    3    0    0 -0.36398491085E+02  0.47878299886E+01 -0.17475485896E+02  0.40659145055E+02  0.00000000000E+00 0.  1.
         11    1    4    4    0    0  0.23821485997E+02 -0.19798352942E+01  0.48952224456E+01  0.24399716104E+02  0.51100000000E-03 0. -1.
        -11    1    4    4    0    0 -0.33879834411E+01  0.19946471486E+01 -0.15978767118E+01  0.42438495840E+01  0.51100000000E-03 0.  1.
         12    1    4    4    0    0  0.15964988529E+02 -0.48026418430E+01  0.14178140163E+02  0.21885289257E+02  0.00000000000E+00 0. -1.
</event>
<event>
 8    1  0.7311878E-012  0.9118800E+02  0.7816164E-02  0.1184000E+00
        -11   -1    0    0    0    0  0.00000000000E+00  0.00000000000E+00  0.45593999997E+02  0.45594000000E+02  0.51100000000E-03 0. -1.
         11   -1    0    0    0    0 -0.00000000000E+00 -0.00000000000E+00 -0.45593999997E+02  0.45594000000E+02  0.51100000000E-03 0.  1.
         23    2    1    2    0    0  0.88817841970E-15  0.00000000000E+00  0.00000000000E+00  0.91188000000E+02  0.91188000000E+02 0.  0.
    9900012    2    3    3    0    0 -0.21280113381E+01 -0.26135336938E+02  0.31073805415E+02  0.50528860165E+02  0.30000000958E+02 0.  0.
        -12    1    3    3    0    0  0.21280113381E+01  0.26135336938E+02 -0.31073805415E+02  0.40659139835E+02  0.00000000000E+00 0.  1.
         11    1    4    4    0    0  0.13351665026E+02 -0.10220341049E+02  0.17223415474E+02  0.24070072102E+02  0.51100000000E-03 0.  1.
        -11    1    4    4    0    0 -0.73935406042E+01 -0.53061846320E+01  0.68780089356E+01  0.11407324191E+02  0.51100000000E-03 0. -1.
        -12    1    4    4    0    0 -0.80861357603E+01 -0.10608811257E+02  0.69723810057E+01  0.15051463873E+02  0.00000000000E+00 0.  1.
</event>
<event>
 8    1  0.7311878E-012  0.9118800E+02  0.7816164E-02  0.1184000E+00
        -11   -1    0    0    0    0  0.00000000000E+00  0.00000000000E+00  0.45593999997E+02  0.45594000000E+02  0.51100000000E-03 0. -1.
         11   -1    0    0    0    0 -0.00000000000E+00 -0.00000000000E+00 -0.45593999997E+02  0.45594000000E+02  0.51100000000E-03 0.  1.
         23    2    1    2    0    0  0.00000000000E+00  0.88817841970E-15  0.00000000000E+00  0.91188000000E+02  0.91188000000E+02 0.  0.
    9900012    2    3    3    0    0 -0.15093843475E+02  0.64103167710E+01  0.37205502320E+02  0.50528859886E+02  0.30000000108E+02 0.  0.
        -12    1    3    3    0    0  0.15093843475E+02 -0.64103167710E+01 -0.37205502320E+02  0.40659140114E+02  0.00000000000E+00 0.  1.
         11    1    4    4    0    0 -0.61195533093E+01  0.35302217806E+01  0.18314933462E+02  0.19630287479E+02  0.51100000000E-03 0. -1.
        -11    1    4    4    0    0 -0.15064747691E+02  0.60353372810E+01  0.81643601298E+01  0.18166691930E+02  0.51100000000E-03 0.  1.
        -12    1    4    4    0    0  0.60904575255E+01 -0.31552422906E+01  0.10726208728E+02  0.12731880476E+02  0.00000000000E+00 0.  1.
</event>
<event>
 8    1  0.7311878E-012  0.9118800E+02  0.7816164E-02  0.1184000E+00
        -11   -1    0    0    0    0  0.00000000000E+00  0.00000000000E+00  0.45593999997E+02  0.45594000000E+02  0.51100000000E-03 0. -1.
         11   -1    0    0    0    0 -0.00000000000E+00 -0.00000000000E+00 -0.45593999997E+02  0.45594000000E+02  0.51100000000E-03 0.  1.
         23    2    1    2    0    0 -0.71054273576E-14  0.00000000000E+00  0.35527136788E-14  0.91188000000E+02  0.91188000000E+02 0.  0.
    9900012    2    3    3    0    0  0.33344168015E+02  0.13649869458E+02 -0.18841806735E+02  0.50528853945E+02  0.29999982052E+02 0.  0.
         12    1    3    3    0    0 -0.33344168015E+02 -0.13649869458E+02  0.18841806735E+02  0.40659146055E+02  0.00000000000E+00 0. -1.
         11    1    4    4    0    0  0.17139841247E+02  0.15582529537E+02 -0.22281132796E+01  0.23271310100E+02  0.51100000000E-03 0. -1.
        -11    1    4    4    0    0  0.16559549124E+02 -0.15519470488E+01 -0.76989437900E+01  0.18327600568E+02  0.51100000000E-03 0.  1.
        -12    1    4    4    0    0 -0.35522235514E+00 -0.38071303086E+00 -0.89147496658E+01  0.89299432774E+01  0.00000000000E+00 0.  1.
</event>
<event>
 8    1  0.7311878E-012  0.9118800E+02  0.7816164E-02  0.1184000E+00
        -11   -1    0    0    0    0  0.00000000000E+00  0.00000000000E+00  0.45593999997E+02  0.45594000000E+02  0.51100000000E-03 0. -1.
         11   -1    0    0    0    0 -0.00000000000E+00 -0.00000000000E+00 -0.45593999997E+02  0.45594000000E+02  0.51100000000E-03 0.  1.
         23    2    1    2    0    0  0.00000000000E+00 -0.88817841970E-15  0.00000000000E+00  0.91188000000E+02  0.91188000000E+02 0.  0.
    9900012    2    3    3    0    0  0.20065776998E+02 -0.45884156149E+01  0.35063890995E+02  0.50528863068E+02  0.30000009781E+02 0.  0.
        -12    1    3    3    0    0 -0.20065776998E+02  0.45884156149E+01 -0.35063890995E+02  0.40659136932E+02  0.00000000000E+00 0.  1.
         11    1    4    4    0    0  0.32632756791E+01 -0.11396297831E+02  0.12190913685E+02  0.17004203867E+02  0.51100000000E-03 0. -1.
        -11    1    4    4    0    0  0.13749644099E+02  0.63548559309E+01  0.58715417597E+01  0.16245365790E+02  0.51100000000E-03 0.  1.
         12    1    4    4    0    0  0.30528572199E+01  0.45302628565E+00  0.17001435550E+02  0.17279293411E+02  0.00000000000E+00 0. -1.
</event>
<event>
 8    1  0.7311878E-012  0.9118800E+02  0.7816164E-02  0.1184000E+00
        -11   -1    0    0    0    0  0.00000000000E+00  0.00000000000E+00  0.45593999997E+02  0.45594000000E+02  0.51100000000E-03 0. -1.
         11   -1    0    0    0    0 -0.00000000000E+00 -0.00000000000E+00 -0.45593999997E+02  0.45594000000E+02  0.51100000000E-03 0.  1.
         23    2    1    2    0    0  0.00000000000E+00  0.00000000000E+00  0.00000000000E+00  0.91188000000E+02  0.91188000000E+02 0.  0.
    9900012    2    3    3    0    0  0.93372533638E+01  0.34550891416E+02  0.19292922494E+02  0.50528865032E+02  0.30000015750E+02 0.  0.
        -12    1    3    3    0    0 -0.93372533638E+01 -0.34550891416E+02 -0.19292922494E+02  0.40659134968E+02  0.00000000000E+00 0.  1.
         11    1    4    4    0    0  0.34593751080E+01  0.21972437657E+02  0.18728853951E+02  0.29077917108E+02  0.51100000000E-03 0. -1.
        -11    1    4    4    0    0 -0.20920350055E+01  0.13091669279E+02  0.17650018765E+01  0.13374739133E+02  0.51100000000E-03 0.  1.
         12    1    4    4    0    0  0.79699132613E+01 -0.51321552063E+00 -0.12009333340E+01  0.80762087910E+01  0.00000000000E+00 0. -1.
</event>
<event>
 8    1  0.7311878E-012  0.9118800E+02  0.7816164E-02  0.1184000E+00
        -11   -1    0    0    0    0  0.00000000000E+00  0.00000000000E+00  0.45593999997E+02  0.45594000000E+02  0.51100000000E-03 0. -1.
         11   -1    0    0    0    0 -0.00000000000E+00 -0.00000000000E+00 -0.45593999997E+02  0.45594000000E+02  0.51100000000E-03 0.  1.
         23    2    1    2    0    0  0.00000000000E+00  0.17763568394E-14  0.00000000000E+00  0.91188000000E+02  0.91188000000E+02 0.  0.
    9900012    2    3    3    0    0  0.35055655692E+02  0.12682610022E+02  0.16230177409E+02  0.50528852792E+02  0.29999978546E+02 0.  0.
        -12    1    3    3    0    0 -0.35055655692E+02 -0.12682610022E+02 -0.16230177409E+02  0.40659147208E+02  0.00000000000E+00 0.  1.
         11    1    4    4    0    0  0.10515653993E+02  0.15940179355E+02  0.13400525413E+02  0.23329002944E+02  0.51100000000E-03 0. -1.
        -11    1    4    4    0    0  0.57506861823E+01  0.32803642855E+01 -0.16160040991E+01  0.68148845128E+01  0.51100000000E-03 0.  1.
        -12    1    4    4    0    0  0.18789315517E+02 -0.65379336182E+01  0.44456560958E+01  0.20384965335E+02  0.00000000000E+00 0.  1.
</event>
<event>
 8    1  0.7311878E-012  0.9118800E+02  0.7816164E-02  0.1184000E+00
        -11   -1    0    0    0    0  0.00000000000E+00  0.00000000000E+00  0.45593999997E+02  0.45594000000E+02  0.51100000000E-03 0.  1.
         11   -1    0    0    0    0 -0.00000000000E+00 -0.00000000000E+00 -0.45593999997E+02  0.45594000000E+02  0.51100000000E-03 0. -1.
         23    2    1    2    0    0  0.26645352591E-14  0.71054273576E-14  0.88817841970E-15  0.91188000000E+02  0.91188000000E+02 0.  0.
    9900012    2    3    3    0    0  0.78085722164E+01  0.39521830497E+02  0.54969971589E+01  0.50528857564E+02  0.29999993050E+02 0.  0.
        -12    1    3    3    0    0 -0.78085722164E+01 -0.39521830497E+02 -0.54969971589E+01  0.40659142436E+02  0.00000000000E+00 0.  1.
         11    1    4    4    0    0  0.49774771671E+01  0.33648944352E+02  0.57330345502E+01  0.34494846287E+02  0.51100000000E-03 0. -1.
        -11    1    4    4    0    0  0.82384182814E+01  0.63016360501E+01 -0.14569577971E+01  0.10474009689E+02  0.51100000000E-03 0.  1.
        -12    1    4    4    0    0 -0.54073232321E+01 -0.42874990469E+00  0.12209204057E+01  0.55600015876E+01  0.00000000000E+00 0.  1.
</event>
<event>
 8    1  0.7311878E-012  0.9118800E+02  0.7816164E-02  0.1184000E+00
        -11   -1    0    0    0    0  0.00000000000E+00  0.00000000000E+00  0.45593999997E+02  0.45594000000E+02  0.51100000000E-03 0. -1.
         11   -1    0    0    0    0 -0.00000000000E+00 -0.00000000000E+00 -0.45593999997E+02  0.45594000000E+02  0.51100000000E-03 0.  1.
         23    2    1    2    0    0 -0.17763568394E-14  0.00000000000E+00  0.00000000000E+00  0.91188000000E+02  0.91188000000E+02 0.  0.
    9900012    2    3    3    0    0 -0.12884902628E+02 -0.17939199906E+02  0.34136913050E+02  0.50528875052E+02  0.30000046207E+02 0.  0.
        -12    1    3    3    0    0  0.12884902628E+02  0.17939199906E+02 -0.34136913050E+02  0.40659124948E+02  0.00000000000E+00 0.  1.
         11    1    4    4    0    0  0.12141970638E+01 -0.31641557297E+01  0.23413672822E+02  0.23657688629E+02  0.51100000000E-03 0. -1.
        -11    1    4    4    0    0 -0.23171984877E+01 -0.12325965008E+02  0.64335031982E+01  0.14095700971E+02  0.51100000000E-03 0.  1.
         12    1    4    4    0    0 -0.11781901204E+02 -0.24490791681E+01  0.42897370302E+01  0.12775485452E+02  0.00000000000E+00 0. -1.
</event>
<event>
 8    1  0.7311878E-012  0.9118800E+02  0.7816164E-02  0.1184000E+00
        -11   -1    0    0    0    0  0.00000000000E+00  0.00000000000E+00  0.45593999997E+02  0.45594000000E+02  0.51100000000E-03 0.  1.
         11   -1    0    0    0    0 -0.00000000000E+00 -0.00000000000E+00 -0.45593999997E+02  0.45594000000E+02  0.51100000000E-03 0. -1.
         23    2    1    2    0    0  0.00000000000E+00 -0.17763568394E-14  0.00000000000E+00  0.91188000000E+02  0.91188000000E+02 0.  0.
    9900012    2    3    3    0    0 -0.36480336537E+02 -0.80147751409E+01  0.16065914982E+02  0.50528865741E+02  0.30000017908E+02 0.  0.
        -12    1    3    3    0    0  0.36480336537E+02  0.80147751409E+01 -0.16065914982E+02  0.40659134259E+02  0.00000000000E+00 0.  1.
         11    1    4    4    0    0  0.10499811807E+01  0.40939114997E+00  0.24860190077E+01  0.27295333596E+01  0.51100000000E-03 0. -1.
        -11    1    4    4    0    0 -0.19312788508E+00 -0.79030305953E+01  0.53982472862E+01  0.95726832703E+01  0.51100000000E-03 0.  1.
         12    1    4    4    0    0 -0.37337189833E+02 -0.52113569560E+00  0.81816486886E+01  0.38226649112E+02  0.00000000000E+00 0. -1.
</event>
<event>
 8    1  0.7311878E-012  0.9118800E+02  0.7816164E-02  0.1184000E+00
        -11   -1    0    0    0    0  0.00000000000E+00  0.00000000000E+00  0.45593999997E+02  0.45594000000E+02  0.51100000000E-03 0.  1.
         11   -1    0    0    0    0 -0.00000000000E+00 -0.00000000000E+00 -0.45593999997E+02  0.45594000000E+02  0.51100000000E-03 0. -1.
         23    2    1    2    0    0  0.00000000000E+00  0.00000000000E+00  0.00000000000E+00  0.91188000000E+02  0.91188000000E+02 0.  0.
    9900012    2    3    3    0    0  0.74776309466E+01  0.39915086802E+02  0.20084678311E+01  0.50528892017E+02  0.30000097775E+02 0.  0.
         12    1    3    3    0    0 -0.74776309466E+01 -0.39915086802E+02 -0.20084678311E+01  0.40659107983E+02  0.00000000000E+00 0. -1.
         11    1    4    4    0    0  0.23963489222E+01  0.18642807543E+02  0.16788527529E+01  0.18871017674E+02  0.51100000000E-03 0.  1.
        -11    1    4    4    0    0 -0.76793780673E+01  0.15851641714E+02 -0.14804804165E+01  0.17675950188E+02  0.51100000000E-03 0. -1.
        -12    1    4    4    0    0  0.12760660092E+02  0.54206375449E+01  0.18100954947E+01  0.13981924155E+02  0.00000000000E+00 0.  1.
</event>
<event>
 8    1  0.7311878E-012  0.9118800E+02  0.7816164E-02  0.1184000E+00
        -11   -1    0    0    0    0  0.00000000000E+00  0.00000000000E+00  0.45593999997E+02  0.45594000000E+02  0.51100000000E-03 0. -1.
         11   -1    0    0    0    0 -0.00000000000E+00 -0.00000000000E+00 -0.45593999997E+02  0.45594000000E+02  0.51100000000E-03 0.  1.
         23    2    1    2    0    0  0.71054273576E-14  0.00000000000E+00  0.00000000000E+00  0.91188000000E+02  0.91188000000E+02 0.  0.
    9900012    2    3    3    0    0 -0.35251232154E+02 -0.94076982682E+01 -0.17944680558E+02  0.50528859387E+02  0.29999998592E+02 0.  0.
         12    1    3    3    0    0  0.35251232154E+02  0.94076982682E+01  0.17944680558E+02  0.40659140613E+02  0.00000000000E+00 0. -1.
         11    1    4    4    0    0 -0.98758645723E+01  0.63819565505E+01 -0.64032010893E+00  0.11775911029E+02  0.51100000000E-03 0.  1.
        -11    1    4    4    0    0 -0.15184560865E+02 -0.50698391857E+01 -0.26078929204E-01  0.16008586396E+02  0.51100000000E-03 0. -1.
        -12    1    4    4    0    0 -0.10190806717E+02 -0.10719815633E+02 -0.17278281520E+02  0.22744361961E+02  0.00000000000E+00 0.  1.
</event>
<event>
 8    1  0.7311878E-012  0.9118800E+02  0.7816164E-02  0.1184000E+00
        -11   -1    0    0    0    0  0.00000000000E+00  0.00000000000E+00  0.45593999997E+02  0.45594000000E+02  0.51100000000E-03 0. -1.
         11   -1    0    0    0    0 -0.00000000000E+00 -0.00000000000E+00 -0.45593999997E+02  0.45594000000E+02  0.51100000000E-03 0.  1.
         23    2    1    2    0    0 -0.35527136788E-14  0.00000000000E+00  0.00000000000E+00  0.91188000000E+02  0.91188000000E+02 0.  0.
    9900012    2    3    3    0    0 -0.18414084050E+02  0.68897592364E+00  0.36243926742E+02  0.50528740232E+02  0.29999636408E+02 0.  0.
        -12    1    3    3    0    0  0.18414084050E+02 -0.68897592364E+00 -0.36243926742E+02  0.40659259768E+02  0.00000000000E+00 0.  1.
         11    1    4    4    0    0  0.56247751469E+00  0.46279367833E+01  0.81289366025E+01  0.93709012572E+01  0.51100000000E-03 0. -1.
        -11    1    4    4    0    0 -0.15105512897E+01  0.73933581687E+01  0.20914529947E+01  0.78305610335E+01  0.51100000000E-03 0.  1.
         12    1    4    4    0    0 -0.17466010275E+02 -0.11332319028E+02  0.26023537144E+02  0.33327277941E+02  0.00000000000E+00 0. -1.
</event>
<event>
 8    1  0.7311878E-012  0.9118800E+02  0.7816164E-02  0.1184000E+00
        -11   -1    0    0    0    0  0.00000000000E+00  0.00000000000E+00  0.45593999997E+02  0.45594000000E+02  0.51100000000E-03 0. -1.
         11   -1    0    0    0    0 -0.00000000000E+00 -0.00000000000E+00 -0.45593999997E+02  0.45594000000E+02  0.51100000000E-03 0.  1.
         23    2    1    2    0    0  0.00000000000E+00 -0.88817841970E-15  0.00000000000E+00  0.91188000000E+02  0.91188000000E+02 0.  0.
    9900012    2    3    3    0    0  0.93611873009E+01 -0.52227296871E+01  0.39220619205E+02  0.50528859528E+02  0.29999999021E+02 0.  0.
        -12    1    3    3    0    0 -0.93611873009E+01  0.52227296871E+01 -0.39220619205E+02  0.40659140472E+02  0.00000000000E+00 0.  1.
         11    1    4    4    0    0  0.13036420714E+02  0.26119580186E+01  0.17774499878E+02  0.22196924019E+02  0.51100000000E-03 0. -1.
        -11    1    4    4    0    0 -0.35589071661E+01  0.33698831805E+01  0.14114668632E+02  0.14941412374E+02  0.51100000000E-03 0.  1.
         12    1    4    4    0    0 -0.11632624716E+00 -0.11204570886E+02  0.73314506953E+01  0.13390523135E+02  0.00000000000E+00 0. -1.
</event>
<event>
 8    1  0.7311878E-012  0.9118800E+02  0.7816164E-02  0.1184000E+00
        -11   -1    0    0    0    0  0.00000000000E+00  0.00000000000E+00  0.45593999997E+02  0.45594000000E+02  0.51100000000E-03 0. -1.
         11   -1    0    0    0    0 -0.00000000000E+00 -0.00000000000E+00 -0.45593999997E+02  0.45594000000E+02  0.51100000000E-03 0.  1.
         23    2    1    2    0    0  0.72164496601E-15  0.00000000000E+00  0.00000000000E+00  0.91188000000E+02  0.91188000000E+02 0.  0.
    9900012    2    3    3    0    0 -0.44970700852E+00  0.36846904980E+02 -0.17183406161E+02  0.50528854777E+02  0.29999984580E+02 0.  0.
         12    1    3    3    0    0  0.44970700852E+00 -0.36846904980E+02  0.17183406161E+02  0.40659145223E+02  0.00000000000E+00 0. -1.
         11    1    4    4    0    0 -0.11507982363E+01 -0.17078510958E+01 -0.18287478432E+01  0.27541624646E+01  0.51100000000E-03 0. -1.
        -11    1    4    4    0    0 -0.87791197823E+01  0.22587082538E+02 -0.91340753383E+00  0.24250434127E+02  0.51100000000E-03 0.  1.
        -12    1    4    4    0    0  0.94802110101E+01  0.15967673537E+02 -0.14441250784E+02  0.23524258186E+02  0.00000000000E+00 0.  1.
</event>
<event>
 8    1  0.7311878E-012  0.9118800E+02  0.7816164E-02  0.1184000E+00
        -11   -1    0    0    0    0  0.00000000000E+00  0.00000000000E+00  0.45593999997E+02  0.45594000000E+02  0.51100000000E-03 0. -1.
         11   -1    0    0    0    0 -0.00000000000E+00 -0.00000000000E+00 -0.45593999997E+02  0.45594000000E+02  0.51100000000E-03 0.  1.
         23    2    1    2    0    0  0.29976021665E-14  0.71054273576E-14  0.35527136788E-14  0.91188000000E+02  0.91188000000E+02 0.  0.
    9900012    2    3    3    0    0  0.72354141088E+00  0.34515577827E+02  0.21478294509E+02  0.50528858839E+02  0.29999996927E+02 0.  0.
        -12    1    3    3    0    0 -0.72354141088E+00 -0.34515577827E+02 -0.21478294509E+02  0.40659141161E+02  0.00000000000E+00 0.  1.
         11    1    4    4    0    0 -0.56926602038E+01  0.27194645501E+02  0.10986606320E+02  0.29877426977E+02  0.51100000000E-03 0. -1.
        -11    1    4    4    0    0 -0.37059680199E+01 -0.18224912230E+01  0.20562413712E+01  0.46134371200E+01  0.51100000000E-03 0.  1.
         12    1    4    4    0    0  0.10122169635E+02  0.91434235497E+01  0.84354468178E+01  0.16037994742E+02  0.00000000000E+00 0. -1.
</event>
<event>
 8    1  0.7311878E-012  0.9118800E+02  0.7816164E-02  0.1184000E+00
        -11   -1    0    0    0    0  0.00000000000E+00  0.00000000000E+00  0.45593999997E+02  0.45594000000E+02  0.51100000000E-03 0. -1.
         11   -1    0    0    0    0 -0.00000000000E+00 -0.00000000000E+00 -0.45593999997E+02  0.45594000000E+02  0.51100000000E-03 0.  1.
         23    2    1    2    0    0 -0.35527136788E-14 -0.35527136788E-14  0.35527136788E-14  0.91188000000E+02  0.91188000000E+02 0.  0.
    9900012    2    3    3    0    0 -0.25798419382E+02 -0.25587843958E+02  0.18244748386E+02  0.50528843041E+02  0.29999948906E+02 0.  0.
        -12    1    3    3    0    0  0.25798419382E+02  0.25587843958E+02 -0.18244748386E+02  0.40659156959E+02  0.00000000000E+00 0.  1.
         11    1    4    4    0    0 -0.17499429388E+02 -0.50452214959E+01  0.11019795687E+02  0.21286619884E+02  0.51100000000E-03 0. -1.
        -11    1    4    4    0    0 -0.65290783266E+01 -0.22782511147E+01 -0.37441433331E+01  0.78637078721E+01  0.51100000000E-03 0.  1.
         12    1    4    4    0    0 -0.17699116671E+01 -0.18264371347E+02  0.10969096032E+02  0.21378515284E+02  0.00000000000E+00 0. -1.
</event>
<event>
 8    1  0.7311878E-012  0.9118800E+02  0.7816164E-02  0.1184000E+00
        -11   -1    0    0    0    0  0.00000000000E+00  0.00000000000E+00  0.45593999997E+02  0.45594000000E+02  0.51100000000E-03 0. -1.
         11   -1    0    0    0    0 -0.00000000000E+00 -0.00000000000E+00 -0.45593999997E+02  0.45594000000E+02  0.51100000000E-03 0.  1.
         23    2    1    2    0    0  0.17763568394E-14 -0.27755575616E-16  0.71054273576E-14  0.91188000000E+02  0.91188000000E+02 0.  0.
    9900012    2    3    3    0    0  0.98937344030E+01  0.70366744132E-01  0.39436920488E+02  0.50528909633E+02  0.30000151319E+02 0.  0.
        -12    1    3    3    0    0 -0.98937344030E+01 -0.70366744132E-01 -0.39436920488E+02  0.40659090367E+02  0.00000000000E+00 0.  1.
         11    1    4    4    0    0  0.23128346715E+01 -0.25380839235E+01  0.17184001523E+02  0.17523726283E+02  0.51100000000E-03 0. -1.
        -11    1    4    4    0    0 -0.39058272487E+01  0.94357413367E+01  0.13894938577E+02  0.17244072007E+02  0.51100000000E-03 0.  1.
        -12    1    4    4    0    0  0.11486726980E+02 -0.68272906690E+01  0.83579803876E+01  0.15761111343E+02  0.00000000000E+00 0.  1.
</event>
<event>
 8    1  0.7311878E-012  0.9118800E+02  0.7816164E-02  0.1184000E+00
        -11   -1    0    0    0    0  0.00000000000E+00  0.00000000000E+00  0.45593999997E+02  0.45594000000E+02  0.51100000000E-03 0. -1.
         11   -1    0    0    0    0 -0.00000000000E+00 -0.00000000000E+00 -0.45593999997E+02  0.45594000000E+02  0.51100000000E-03 0.  1.
         23    2    1    2    0    0  0.88817841970E-15  0.00000000000E+00  0.00000000000E+00  0.91188000000E+02  0.91188000000E+02 0.  0.
    9900012    2    3    3    0    0 -0.56647955504E+01  0.15894996581E+02  0.36992225196E+02  0.50528861422E+02  0.30000004778E+02 0.  0.
        -12    1    3    3    0    0  0.56647955504E+01 -0.15894996581E+02 -0.36992225196E+02  0.40659138578E+02  0.00000000000E+00 0.  1.
         11    1    4    4    0    0 -0.17554256270E+02  0.11347500372E+02  0.22678052859E+02  0.30841721087E+02  0.51100000000E-03 0. -1.
        -11    1    4    4    0    0  0.16774577656E+01  0.24172079167E+01  0.44181546009E+01  0.53081869792E+01  0.51100000000E-03 0.  1.
         12    1    4    4    0    0  0.10212002954E+02  0.21302882923E+01  0.98960177366E+01  0.14378953355E+02  0.00000000000E+00 0. -1.
</event>
<event>
 8    1  0.7311878E-012  0.9118800E+02  0.7816164E-02  0.1184000E+00
        -11   -1    0    0    0    0  0.00000000000E+00  0.00000000000E+00  0.45593999997E+02  0.45594000000E+02  0.51100000000E-03 0. -1.
         11   -1    0    0    0    0 -0.00000000000E+00 -0.00000000000E+00 -0.45593999997E+02  0.45594000000E+02  0.51100000000E-03 0.  1.
         23    2    1    2    0    0 -0.35527136788E-14  0.00000000000E+00  0.00000000000E+00  0.91188000000E+02  0.91188000000E+02 0.  0.
    9900012    2    3    3    0    0 -0.18303709619E+02 -0.24822868684E+02  0.26494629879E+02  0.50528855790E+02  0.29999987658E+02 0.  0.
        -12    1    3    3    0    0  0.18303709619E+02  0.24822868684E+02 -0.26494629879E+02  0.40659144210E+02  0.00000000000E+00 0.  1.
         11    1    4    4    0    0  0.54274616060E+00 -0.70757307621E+01  0.62979348517E+01  0.94881253612E+01  0.51100000000E-03 0. -1.
        -11    1    4    4    0    0 -0.13169415527E+02 -0.21694042696E+02  0.72999754042E+01  0.26407473089E+02  0.51100000000E-03 0.  1.
        -12    1    4    4    0    0 -0.56770402526E+01  0.39469047737E+01  0.12896719623E+02  0.14633257339E+02  0.00000000000E+00 0.  1.
</event>
<event>
 8    1  0.7311878E-012  0.9118800E+02  0.7816164E-02  0.1184000E+00
        -11   -1    0    0    0    0  0.00000000000E+00  0.00000000000E+00  0.45593999997E+02  0.45594000000E+02  0.51100000000E-03 0. -1.
         11   -1    0    0    0    0 -0.00000000000E+00 -0.00000000000E+00 -0.45593999997E+02  0.45594000000E+02  0.51100000000E-03 0.  1.
         23    2    1    2    0    0  0.71054273576E-14  0.19984014443E-14  0.35527136788E-14  0.91188000000E+02  0.91188000000E+02 0.  0.
    9900012    2    3    3    0    0  0.31152683664E+02  0.12906707825E+01  0.26096157078E+02  0.50528868864E+02  0.30000027398E+02 0.  0.
        -12    1    3    3    0    0 -0.31152683664E+02 -0.12906707825E+01 -0.26096157078E+02  0.40659131136E+02  0.00000000000E+00 0.  1.
         11    1    4    4    0    0  0.62503985832E+01  0.92353279442E+01 -0.40368240371E+00  0.11158930255E+02  0.51100000000E-03 0. -1.
        -11    1    4    4    0    0  0.10737860424E+02 -0.31487281612E+00  0.34936526384E+01  0.11296300297E+02  0.51100000000E-03 0.  1.
        -12    1    4    4    0    0  0.14164424656E+02 -0.76297843456E+01  0.23006186843E+02  0.28073638312E+02  0.00000000000E+00 0.  1.
</event>
<event>
 8    1  0.8885057E-012  0.9118800E+02  0.7816164E-02  0.1184000E+00
        -11   -1    0    0    0    0  0.00000000000E+00  0.00000000000E+00  0.45593999997E+02  0.45594000000E+02  0.51100000000E-03 0. -1.
         11   -1    0    0    0    0 -0.00000000000E+00 -0.00000000000E+00 -0.45593999997E+02  0.45594000000E+02  0.51100000000E-03 0.  1.
         23    2    1    2    0    0  0.35527136788E-14 -0.11102230246E-14 -0.71054273576E-14  0.91188000000E+02  0.91188000000E+02 0.  0.
    9900012    2    3    3    0    0  0.18853609602E+02 -0.27842181719E+00 -0.36022626255E+02  0.50528859379E+02  0.29999998568E+02 0.  0.
         12    1    3    3    0    0 -0.18853609602E+02  0.27842181719E+00  0.36022626255E+02  0.40659140621E+02  0.00000000000E+00 0. -1.
         11    1    4    4    0    0  0.44045018381E+01 -0.54457272782E+01 -0.85557207591E+01  0.11056940807E+02  0.51100000000E-03 0. -1.
        -11    1    4    4    0    0  0.20518321924E+02  0.15962615563E+01 -0.24022721815E+02  0.31632906114E+02  0.51100000000E-03 0.  1.
         12    1    4    4    0    0 -0.60692141606E+01  0.35710439047E+01 -0.34441836810E+01  0.78390124585E+01  0.00000000000E+00 0. -1.
</event>
<event>
 8    1  0.7311878E-012  0.9118800E+02  0.7816164E-02  0.1184000E+00
        -11   -1    0    0    0    0  0.00000000000E+00  0.00000000000E+00  0.45593999997E+02  0.45594000000E+02  0.51100000000E-03 0. -1.
         11   -1    0    0    0    0 -0.00000000000E+00 -0.00000000000E+00 -0.45593999997E+02  0.45594000000E+02  0.51100000000E-03 0.  1.
         23    2    1    2    0    0  0.00000000000E+00  0.00000000000E+00  0.00000000000E+00  0.91188000000E+02  0.91188000000E+02 0.  0.
    9900012    2    3    3    0    0  0.35150816500E+02  0.82063930299E+01 -0.18714715533E+02  0.50528863700E+02  0.30000011701E+02 0.  0.
         12    1    3    3    0    0 -0.35150816500E+02 -0.82063930299E+01  0.18714715533E+02  0.40659136300E+02  0.00000000000E+00 0. -1.
         11    1    4    4    0    0  0.10569682928E+02  0.11846657155E+02 -0.45971564325E+01  0.16528621554E+02  0.51100000000E-03 0.  1.
        -11    1    4    4    0    0  0.23569680237E+02 -0.76715436596E+01 -0.15931783748E+02  0.29465304042E+02  0.51100000000E-03 0. -1.
         12    1    4    4    0    0  0.10114533349E+01  0.40312795343E+01  0.18142246477E+01  0.45349381038E+01  0.00000000000E+00 0. -1.
</event>
<event>
 8    1  0.7311878E-012  0.9118800E+02  0.7816164E-02  0.1184000E+00
        -11   -1    0    0    0    0  0.00000000000E+00  0.00000000000E+00  0.45593999997E+02  0.45594000000E+02  0.51100000000E-03 0. -1.
         11   -1    0    0    0    0 -0.00000000000E+00 -0.00000000000E+00 -0.45593999997E+02  0.45594000000E+02  0.51100000000E-03 0.  1.
         23    2    1    2    0    0 -0.88817841970E-15 -0.17763568394E-14  0.00000000000E+00  0.91188000000E+02  0.91188000000E+02 0.  0.
    9900012    2    3    3    0    0 -0.59081584775E+01 -0.84598442782E+01  0.39327987761E+02  0.50528856832E+02  0.29999990828E+02 0.  0.
        -12    1    3    3    0    0  0.59081584775E+01  0.84598442782E+01 -0.39327987761E+02  0.40659143168E+02  0.00000000000E+00 0.  1.
         11    1    4    4    0    0 -0.66944622534E+01  0.64911151865E+01  0.46409237420E+01  0.10415784880E+02  0.51100000000E-03 0. -1.
        -11    1    4    4    0    0 -0.10099451899E+01 -0.84317488951E+01  0.54183835349E+01  0.10073393624E+02  0.51100000000E-03 0.  1.
         12    1    4    4    0    0  0.17962489658E+01 -0.65192105696E+01  0.29268680484E+02  0.30039678328E+02  0.00000000000E+00 0. -1.
</event>
<event>
 8    1  0.7311878E-012  0.9118800E+02  0.7816164E-02  0.1184000E+00
        -11   -1    0    0    0    0  0.00000000000E+00  0.00000000000E+00  0.45593999997E+02  0.45594000000E+02  0.51100000000E-03 0. -1.
         11   -1    0    0    0    0 -0.00000000000E+00 -0.00000000000E+00 -0.45593999997E+02  0.45594000000E+02  0.51100000000E-03 0.  1.
         23    2    1    2    0    0  0.26645352591E-14  0.00000000000E+00  0.00000000000E+00  0.91188000000E+02  0.91188000000E+02 0.  0.
    9900012    2    3    3    0    0 -0.67490301391E+01 -0.10629657103E+02  0.38660394781E+02  0.50528866431E+02  0.30000020003E+02 0.  0.
        -12    1    3    3    0    0  0.67490301391E+01  0.10629657103E+02 -0.38660394781E+02  0.40659133569E+02  0.00000000000E+00 0.  1.
         11    1    4    4    0    0 -0.17365829369E+01  0.34216990207E+01  0.61234405834E+01  0.72263593409E+01  0.51100000000E-03 0. -1.
        -11    1    4    4    0    0 -0.14574983882E+02 -0.80173195414E+01  0.14785501106E+02  0.22255754559E+02  0.51100000000E-03 0.  1.
        -12    1    4    4    0    0  0.95625366793E+01 -0.60340365827E+01  0.17751453092E+02  0.21046752531E+02  0.00000000000E+00 0.  1.
</event>
<event>
 8    1  0.7311878E-012  0.9118800E+02  0.7816164E-02  0.1184000E+00
        -11   -1    0    0    0    0  0.00000000000E+00  0.00000000000E+00  0.45593999997E+02  0.45594000000E+02  0.51100000000E-03 0. -1.
         11   -1    0    0    0    0 -0.00000000000E+00 -0.00000000000E+00 -0.45593999997E+02  0.45594000000E+02  0.51100000000E-03 0.  1.
         23    2    1    2    0    0 -0.35527136788E-14  0.35527136788E-14  0.00000000000E+00  0.91188000000E+02  0.91188000000E+02 0.  0.
    9900012    2    3    3    0    0  0.26330044396E+02 -0.24584398355E+02 -0.18854752249E+02  0.50528861264E+02  0.30000004299E+02 0.  0.
         12    1    3    3    0    0 -0.26330044396E+02  0.24584398355E+02  0.18854752249E+02  0.40659138736E+02  0.00000000000E+00 0. -1.
         11    1    4    4    0    0  0.14368111004E+02 -0.23246388540E+01 -0.13006389614E+02  0.19519547400E+02  0.51100000000E-03 0. -1.
        -11    1    4    4    0    0 -0.98804843695E+00 -0.52501841379E+01 -0.78957574470E+01  0.95332921448E+01  0.51100000000E-03 0.  1.
         12    1    4    4    0    0  0.12949981829E+02 -0.17009575363E+02  0.20473948123E+01  0.21476021720E+02  0.00000000000E+00 0. -1.
</event>
<event>
 8    1  0.7311878E-012  0.9118800E+02  0.7816164E-02  0.1184000E+00
        -11   -1    0    0    0    0  0.00000000000E+00  0.00000000000E+00  0.45593999997E+02  0.45594000000E+02  0.51100000000E-03 0. -1.
         11   -1    0    0    0    0 -0.00000000000E+00 -0.00000000000E+00 -0.45593999997E+02  0.45594000000E+02  0.51100000000E-03 0.  1.
         23    2    1    2    0    0  0.88817841970E-15 -0.88817841970E-15  0.00000000000E+00  0.91188000000E+02  0.91188000000E+02 0.  0.
    9900012    2    3    3    0    0  0.75970889107E+01  0.58849973293E+01 -0.39507169253E+02  0.50528863562E+02  0.30000011284E+02 0.  0.
         12    1    3    3    0    0 -0.75970889107E+01 -0.58849973293E+01  0.39507169253E+02  0.40659136438E+02  0.00000000000E+00 0. -1.
         11    1    4    4    0    0  0.39470317617E+01  0.56765760880E+00  0.17275999596E+01  0.43457906957E+01  0.51100000000E-03 0. -1.
        -11    1    4    4    0    0 -0.64285190474E+01 -0.15035303854E+01 -0.60563749579E+01  0.89591371601E+01  0.51100000000E-03 0.  1.
        -12    1    4    4    0    0  0.10078576196E+02  0.68208701059E+01 -0.35178394255E+02  0.37223935706E+02  0.00000000000E+00 0.  1.
</event>
<event>
 8    1  0.7311878E-012  0.9118800E+02  0.7816164E-02  0.1184000E+00
        -11   -1    0    0    0    0  0.00000000000E+00  0.00000000000E+00  0.45593999997E+02  0.45594000000E+02  0.51100000000E-03 0. -1.
         11   -1    0    0    0    0 -0.00000000000E+00 -0.00000000000E+00 -0.45593999997E+02  0.45594000000E+02  0.51100000000E-03 0.  1.
         23    2    1    2    0    0  0.35527136788E-14 -0.88817841970E-15  0.00000000000E+00  0.91188000000E+02  0.91188000000E+02 0.  0.
    9900012    2    3    3    0    0 -0.26688152234E+02 -0.21996514470E+01 -0.30595257579E+02  0.50528859300E+02  0.29999998327E+02 0.  0.
         12    1    3    3    0    0  0.26688152234E+02  0.21996514470E+01  0.30595257579E+02  0.40659140700E+02  0.00000000000E+00 0. -1.
         11    1    4    4    0    0 -0.13049990152E+01  0.18333680109E+01 -0.30574070380E+01  0.37963138371E+01  0.51100000000E-03 0.  1.
        -11    1    4    4    0    0 -0.15489002585E+01 -0.12013668177E+02 -0.54947462119E+01  0.13301110904E+02  0.51100000000E-03 0. -1.
         12    1    4    4    0    0 -0.23834252960E+02  0.79806487196E+01 -0.22043104329E+02  0.33431434558E+02  0.00000000000E+00 0. -1.
</event>
<event>
 8    1  0.7311878E-012  0.9118800E+02  0.7816164E-02  0.1184000E+00
        -11   -1    0    0    0    0  0.00000000000E+00  0.00000000000E+00  0.45593999997E+02  0.45594000000E+02  0.51100000000E-03 0. -1.
         11   -1    0    0    0    0 -0.00000000000E+00 -0.00000000000E+00 -0.45593999997E+02  0.45594000000E+02  0.51100000000E-03 0.  1.
         23    2    1    2    0    0  0.00000000000E+00  0.00000000000E+00  0.88817841970E-15  0.91188000000E+02  0.91188000000E+02 0.  0.
    9900012    2    3    3    0    0 -0.24550777883E+02  0.31544963028E+02  0.74390970470E+01  0.50528861396E+02  0.30000004700E+02 0.  0.
         12    1    3    3    0    0  0.24550777883E+02 -0.31544963028E+02 -0.74390970470E+01  0.40659138604E+02  0.00000000000E+00 0. -1.
         11    1    4    4    0    0  0.18157360156E+01 -0.13268056054E+01 -0.40501994176E+01  0.46326478364E+01  0.51100000000E-03 0. -1.
        -11    1    4    4    0    0 -0.77075437583E-01  0.17771273130E+01 -0.22985889743E+01  0.29064813166E+01  0.51100000000E-03 0.  1.
         12    1    4    4    0    0 -0.26289438461E+02  0.31094641321E+02  0.13787885439E+02  0.42989732243E+02  0.00000000000E+00 0. -1.
</event>
<event>
 8    1  0.7311878E-012  0.9118800E+02  0.7816164E-02  0.1184000E+00
        -11   -1    0    0    0    0  0.00000000000E+00  0.00000000000E+00  0.45593999997E+02  0.45594000000E+02  0.51100000000E-03 0. -1.
         11   -1    0    0    0    0 -0.00000000000E+00 -0.00000000000E+00 -0.45593999997E+02  0.45594000000E+02  0.51100000000E-03 0.  1.
         23    2    1    2    0    0  0.00000000000E+00 -0.17763568394E-14  0.00000000000E+00  0.91188000000E+02  0.91188000000E+02 0.  0.
    9900012    2    3    3    0    0 -0.15780429954E+02 -0.11809197106E+02  0.35562430201E+02  0.50528861450E+02  0.30000004865E+02 0.  0.
        -12    1    3    3    0    0  0.15780429954E+02  0.11809197106E+02 -0.35562430201E+02  0.40659138550E+02  0.00000000000E+00 0.  1.
         11    1    4    4    0    0 -0.52019727135E+01 -0.21972791518E+01  0.20379412557E+02  0.21147316903E+02  0.51100000000E-03 0. -1.
        -11    1    4    4    0    0 -0.46372883075E+01 -0.63901498073E+01  0.19719705827E+02  0.21241592585E+02  0.51100000000E-03 0.  1.
        -12    1    4    4    0    0 -0.59411689327E+01 -0.32217681470E+01 -0.45366881826E+01  0.81399519622E+01  0.00000000000E+00 0.  1.
</event>
<event>
 8    1  0.7311878E-012  0.9118800E+02  0.7816164E-02  0.1184000E+00
        -11   -1    0    0    0    0  0.00000000000E+00  0.00000000000E+00  0.45593999997E+02  0.45594000000E+02  0.51100000000E-03 0. -1.
         11   -1    0    0    0    0 -0.00000000000E+00 -0.00000000000E+00 -0.45593999997E+02  0.45594000000E+02  0.51100000000E-03 0.  1.
         23    2    1    2    0    0  0.00000000000E+00  0.00000000000E+00  0.72164496601E-15  0.91188000000E+02  0.91188000000E+02 0.  0.
    9900012    2    3    3    0    0 -0.18525220278E+02  0.36193422285E+02  0.13216749571E+00  0.50528867308E+02  0.30000022669E+02 0.  0.
         12    1    3    3    0    0  0.18525220278E+02 -0.36193422285E+02 -0.13216749571E+00  0.40659132692E+02  0.00000000000E+00 0. -1.
         11    1    4    4    0    0 -0.59772380552E+01 -0.50456739595E+00 -0.87672683836E+01  0.10622944893E+02  0.51100000000E-03 0. -1.
        -11    1    4    4    0    0 -0.32046097399E+01  0.58828275936E+01  0.16597754468E+01  0.69015968352E+01  0.51100000000E-03 0.  1.
         12    1    4    4    0    0 -0.93433724825E+01  0.30815162087E+02  0.72396604325E+01  0.33004325580E+02  0.00000000000E+00 0. -1.
</event>
<event>
 8    1  0.7311878E-012  0.9118800E+02  0.7816164E-02  0.1184000E+00
        -11   -1    0    0    0    0  0.00000000000E+00  0.00000000000E+00  0.45593999997E+02  0.45594000000E+02  0.51100000000E-03 0.  1.
         11   -1    0    0    0    0 -0.00000000000E+00 -0.00000000000E+00 -0.45593999997E+02  0.45594000000E+02  0.51100000000E-03 0. -1.
         23    2    1    2    0    0 -0.71054273576E-14  0.00000000000E+00 -0.88817841970E-15  0.91188000000E+02  0.91188000000E+02 0.  0.
    9900012    2    3    3    0    0  0.39928423222E+02  0.73175822041E+01  0.23113219738E+01  0.50528828838E+02  0.29999905735E+02 0.  0.
        -12    1    3    3    0    0 -0.39928423222E+02 -0.73175822041E+01 -0.23113219738E+01  0.40659171162E+02  0.00000000000E+00 0.  1.
         11    1    4    4    0    0  0.12656940212E+02 -0.17749063124E+01 -0.49527076463E+01  0.13706850158E+02  0.51100000000E-03 0. -1.
        -11    1    4    4    0    0  0.29794885150E+02  0.70356324068E+01  0.20599546940E+01  0.30683525190E+02  0.51100000000E-03 0.  1.
        -12    1    4    4    0    0 -0.25234021400E+01  0.20568561097E+01  0.52040749261E+01  0.61384534903E+01  0.00000000000E+00 0.  1.
</event>
<event>
 8    1  0.7311878E-012  0.9118800E+02  0.7816164E-02  0.1184000E+00
        -11   -1    0    0    0    0  0.00000000000E+00  0.00000000000E+00  0.45593999997E+02  0.45594000000E+02  0.51100000000E-03 0.  1.
         11   -1    0    0    0    0 -0.00000000000E+00 -0.00000000000E+00 -0.45593999997E+02  0.45594000000E+02  0.51100000000E-03 0. -1.
         23    2    1    2    0    0 -0.11102230246E-14  0.00000000000E+00  0.00000000000E+00  0.91188000000E+02  0.91188000000E+02 0.  0.
    9900012    2    3    3    0    0  0.12940812105E+01 -0.40557519163E+02  0.25648423993E+01  0.50528862978E+02  0.30000009507E+02 0.  0.
        -12    1    3    3    0    0 -0.12940812105E+01  0.40557519163E+02 -0.25648423993E+01  0.40659137022E+02  0.00000000000E+00 0.  1.
         11    1    4    4    0    0 -0.86350461871E+01 -0.83250342920E+01  0.20150492044E+01  0.12162674138E+02  0.51100000000E-03 0. -1.
        -11    1    4    4    0    0  0.19995975553E+01  0.16123686928E+01 -0.23534650168E+01  0.34838084090E+01  0.51100000000E-03 0.  1.
         12    1    4    4    0    0  0.79295298424E+01 -0.33844853564E+02  0.29032582117E+01  0.34882380431E+02  0.00000000000E+00 0. -1.
</event>
<event>
 8    1  0.7311878E-012  0.9118800E+02  0.7816164E-02  0.1184000E+00
        -11   -1    0    0    0    0  0.00000000000E+00  0.00000000000E+00  0.45593999997E+02  0.45594000000E+02  0.51100000000E-03 0. -1.
         11   -1    0    0    0    0 -0.00000000000E+00 -0.00000000000E+00 -0.45593999997E+02  0.45594000000E+02  0.51100000000E-03 0.  1.
         23    2    1    2    0    0  0.00000000000E+00  0.00000000000E+00  0.00000000000E+00  0.91188000000E+02  0.91188000000E+02 0.  0.
    9900012    2    3    3    0    0 -0.99553150730E+01  0.37047060191E+02 -0.13475001055E+02  0.50528823663E+02  0.29999890006E+02 0.  0.
         12    1    3    3    0    0  0.99553150730E+01 -0.37047060191E+02  0.13475001055E+02  0.40659176337E+02  0.00000000000E+00 0. -1.
         11    1    4    4    0    0  0.43690817883E+01  0.14102622514E+02 -0.14485637638E+02  0.20683484607E+02  0.51100000000E-03 0. -1.
        -11    1    4    4    0    0 -0.38323368426E+00 -0.11389129376E+01  0.16130239601E+01  0.20114266810E+01  0.51100000000E-03 0.  1.
        -12    1    4    4    0    0 -0.13941163177E+02  0.24083350614E+02 -0.60238737689E+00  0.27833912375E+02  0.00000000000E+00 0.  1.
</event>
<event>
 8    1  0.7311878E-012  0.9118800E+02  0.7816164E-02  0.1184000E+00
        -11   -1    0    0    0    0  0.00000000000E+00  0.00000000000E+00  0.45593999997E+02  0.45594000000E+02  0.51100000000E-03 0. -1.
         11   -1    0    0    0    0 -0.00000000000E+00 -0.00000000000E+00 -0.45593999997E+02  0.45594000000E+02  0.51100000000E-03 0.  1.
         23    2    1    2    0    0  0.00000000000E+00  0.00000000000E+00 -0.35527136788E-14  0.91188000000E+02  0.91188000000E+02 0.  0.
    9900012    2    3    3    0    0 -0.13728816711E+02 -0.34813363205E+02 -0.15897024805E+02  0.50528855105E+02  0.29999985578E+02 0.  0.
         12    1    3    3    0    0  0.13728816711E+02  0.34813363205E+02  0.15897024805E+02  0.40659144895E+02  0.00000000000E+00 0. -1.
         11    1    4    4    0    0  0.30143793164E+01 -0.12988461545E+02 -0.84214663750E+01  0.15770469623E+02  0.51100000000E-03 0. -1.
        -11    1    4    4    0    0 -0.84423968714E+01 -0.10907504213E+02 -0.13927719828E+02  0.19601762496E+02  0.51100000000E-03 0.  1.
        -12    1    4    4    0    0 -0.83007991559E+01 -0.10917397447E+02  0.64521613979E+01  0.15156622987E+02  0.00000000000E+00 0.  1.
</event>
<event>
 8    1  0.7311878E-012  0.9118800E+02  0.7816164E-02  0.1184000E+00
        -11   -1    0    0    0    0  0.00000000000E+00  0.00000000000E+00  0.45593999997E+02  0.45594000000E+02  0.51100000000E-03 0. -1.
         11   -1    0    0    0    0 -0.00000000000E+00 -0.00000000000E+00 -0.45593999997E+02  0.45594000000E+02  0.51100000000E-03 0.  1.
         23    2    1    2    0    0  0.00000000000E+00 -0.88817841970E-15  0.00000000000E+00  0.91188000000E+02  0.91188000000E+02 0.  0.
    9900012    2    3    3    0    0  0.39962674250E+02  0.40802617239E+01 -0.62850610444E+01  0.50528857593E+02  0.29999993139E+02 0.  0.
         12    1    3    3    0    0 -0.39962674250E+02 -0.40802617239E+01  0.62850610444E+01  0.40659142407E+02  0.00000000000E+00 0. -1.
         11    1    4    4    0    0  0.18790821085E+02  0.14172932927E+02  0.24007494449E+00  0.23537727610E+02  0.51100000000E-03 0. -1.
        -11    1    4    4    0    0  0.16789919545E+02 -0.20778615295E+01 -0.29057470928E+01  0.17165729618E+02  0.51100000000E-03 0.  1.
        -12    1    4    4    0    0  0.43819336193E+01 -0.80148096735E+01 -0.36193888960E+01  0.98254003647E+01  0.00000000000E+00 0.  1.
</event>
<event>
 8    1  0.7311878E-012  0.9118800E+02  0.7816164E-02  0.1184000E+00
        -11   -1    0    0    0    0  0.00000000000E+00  0.00000000000E+00  0.45593999997E+02  0.45594000000E+02  0.51100000000E-03 0. -1.
         11   -1    0    0    0    0 -0.00000000000E+00 -0.00000000000E+00 -0.45593999997E+02  0.45594000000E+02  0.51100000000E-03 0.  1.
         23    2    1    2    0    0  0.44408920985E-15  0.00000000000E+00  0.00000000000E+00  0.91188000000E+02  0.91188000000E+02 0.  0.
    9900012    2    3    3    0    0 -0.33013350524E+01 -0.19558353327E+02 -0.35492663677E+02  0.50528964437E+02  0.30000317901E+02 0.  0.
         12    1    3    3    0    0  0.33013350524E+01  0.19558353327E+02  0.35492663677E+02  0.40659035563E+02  0.00000000000E+00 0. -1.
         11    1    4    4    0    0  0.11026345194E+01  0.10739923144E+01  0.11105419865E+01  0.18980427128E+01  0.51100000000E-03 0. -1.
        -11    1    4    4    0    0  0.53529438300E+01 -0.16956813368E+02 -0.33202247240E+02  0.37663998052E+02  0.51100000000E-03 0.  1.
         12    1    4    4    0    0 -0.97569134018E+01 -0.36755322730E+01 -0.34009584240E+01  0.10966923672E+02  0.00000000000E+00 0. -1.
</event>
<event>
 8    1  0.7311878E-012  0.9118800E+02  0.7816164E-02  0.1184000E+00
        -11   -1    0    0    0    0  0.00000000000E+00  0.00000000000E+00  0.45593999997E+02  0.45594000000E+02  0.51100000000E-03 0. -1.
         11   -1    0    0    0    0 -0.00000000000E+00 -0.00000000000E+00 -0.45593999997E+02  0.45594000000E+02  0.51100000000E-03 0.  1.
         23    2    1    2    0    0  0.00000000000E+00  0.35527136788E-14  0.00000000000E+00  0.91188000000E+02  0.91188000000E+02 0.  0.
    9900012    2    3    3    0    0 -0.55548546942E+01  0.22247173316E+02  0.33576354417E+02  0.50528871786E+02  0.30000036280E+02 0.  0.
        -12    1    3    3    0    0  0.55548546942E+01 -0.22247173316E+02 -0.33576354417E+02  0.40659128214E+02  0.00000000000E+00 0.  1.
         11    1    4    4    0    0 -0.54258962136E+01 -0.16197344578E+01  0.83211273532E+00  0.57233120918E+01  0.51100000000E-03 0. -1.
        -11    1    4    4    0    0  0.88780518599E+01  0.66570727272E+01  0.13300886666E+02  0.17321951636E+02  0.51100000000E-03 0.  1.
         12    1    4    4    0    0 -0.90070103405E+01  0.17209835047E+02  0.19443355015E+02  0.27483608058E+02  0.00000000000E+00 0. -1.
</event>
<event>
 8    1  0.7311878E-012  0.9118800E+02  0.7816164E-02  0.1184000E+00
        -11   -1    0    0    0    0  0.00000000000E+00  0.00000000000E+00  0.45593999997E+02  0.45594000000E+02  0.51100000000E-03 0.  1.
         11   -1    0    0    0    0 -0.00000000000E+00 -0.00000000000E+00 -0.45593999997E+02  0.45594000000E+02  0.51100000000E-03 0. -1.
         23    2    1    2    0    0  0.88817841970E-15  0.00000000000E+00 -0.17763568394E-14  0.91188000000E+02  0.91188000000E+02 0.  0.
    9900012    2    3    3    0    0  0.64811095300E+01 -0.38047955356E+02 -0.12787285565E+02  0.50528851465E+02  0.29999974513E+02 0.  0.
        -12    1    3    3    0    0 -0.64811095300E+01  0.38047955356E+02  0.12787285565E+02  0.40659148535E+02  0.00000000000E+00 0.  1.
         11    1    4    4    0    0  0.68415296083E+01 -0.19098836485E+02  0.20746276993E+01  0.20393042020E+02  0.51100000000E-03 0. -1.
        -11    1    4    4    0    0  0.33526835521E+01  0.84934606058E+00  0.18858791253E+01  0.39393420857E+01  0.51100000000E-03 0.  1.
         12    1    4    4    0    0 -0.37131036304E+01 -0.19798464931E+02 -0.16747792389E+02  0.26196467359E+02  0.00000000000E+00 0. -1.
</event>
<event>
 8    1  0.7311878E-012  0.9118800E+02  0.7816164E-02  0.1184000E+00
        -11   -1    0    0    0    0  0.00000000000E+00  0.00000000000E+00  0.45593999997E+02  0.45594000000E+02  0.51100000000E-03 0. -1.
         11   -1    0    0    0    0 -0.00000000000E+00 -0.00000000000E+00 -0.45593999997E+02  0.45594000000E+02  0.51100000000E-03 0.  1.
         23    2    1    2    0    0  0.35527136788E-14 -0.17763568394E-14  0.00000000000E+00  0.91188000000E+02  0.91188000000E+02 0.  0.
    9900012    2    3    3    0    0 -0.31702028736E+02  0.14017318285E+02 -0.21252364772E+02  0.50528845480E+02  0.29999956322E+02 0.  0.
         12    1    3    3    0    0  0.31702028736E+02 -0.14017318285E+02  0.21252364772E+02  0.40659154520E+02  0.00000000000E+00 0. -1.
         11    1    4    4    0    0 -0.20896339499E+01 -0.22126589573E+00 -0.68031267106E+01  0.71202571542E+01  0.51100000000E-03 0. -1.
        -11    1    4    4    0    0 -0.27939153669E+02  0.15702775109E+01 -0.11740261140E+02  0.30346265191E+02  0.51100000000E-03 0.  1.
        -12    1    4    4    0    0 -0.16732411173E+01  0.12668306670E+02 -0.27089769217E+01  0.13062323135E+02  0.00000000000E+00 0.  1.
</event>
<event>
 8    1  0.7311878E-012  0.9118800E+02  0.7816164E-02  0.1184000E+00
        -11   -1    0    0    0    0  0.00000000000E+00  0.00000000000E+00  0.45593999997E+02  0.45594000000E+02  0.51100000000E-03 0. -1.
         11   -1    0    0    0    0 -0.00000000000E+00 -0.00000000000E+00 -0.45593999997E+02  0.45594000000E+02  0.51100000000E-03 0.  1.
         23    2    1    2    0    0  0.35527136788E-14 -0.88817841970E-15 -0.71054273576E-14  0.91188000000E+02  0.91188000000E+02 0.  0.
    9900012    2    3    3    0    0 -0.27301087503E+02  0.49164285839E+01  0.29726159359E+02  0.50528865736E+02  0.30000017892E+02 0.  0.
        -12    1    3    3    0    0  0.27301087503E+02 -0.49164285839E+01 -0.29726159359E+02  0.40659134264E+02  0.00000000000E+00 0.  1.
         11    1    4    4    0    0 -0.12985650896E+02  0.67322950714E+01  0.13830855969E+02  0.20130660775E+02  0.51100000000E-03 0. -1.
        -11    1    4    4    0    0 -0.82252700329E+01 -0.96365951290E-01  0.20815743172E+02  0.22382124957E+02  0.51100000000E-03 0.  1.
        -12    1    4    4    0    0 -0.60901665736E+01 -0.17195005362E+01 -0.49204397826E+01  0.80160800047E+01  0.00000000000E+00 0.  1.
</event>
<event>
 8    1  0.7311878E-012  0.9118800E+02  0.7816164E-02  0.1184000E+00
        -11   -1    0    0    0    0  0.00000000000E+00  0.00000000000E+00  0.45593999997E+02  0.45594000000E+02  0.51100000000E-03 0. -1.
         11   -1    0    0    0    0 -0.00000000000E+00 -0.00000000000E+00 -0.45593999997E+02  0.45594000000E+02  0.51100000000E-03 0.  1.
         23    2    1    2    0    0  0.66613381478E-15  0.00000000000E+00  0.00000000000E+00  0.91188000000E+02  0.91188000000E+02 0.  0.
    9900012    2    3    3    0    0  0.14184202282E+01  0.27717662977E+02 -0.29713349225E+02  0.50528881970E+02  0.30000067235E+02 0.  0.
         12    1    3    3    0    0 -0.14184202282E+01 -0.27717662977E+02  0.29713349225E+02  0.40659118030E+02  0.00000000000E+00 0. -1.
         11    1    4    4    0    0 -0.18154539966E+01  0.12382398035E+01 -0.74306398505E+01  0.77487753789E+01  0.51100000000E-03 0. -1.
        -11    1    4    4    0    0 -0.26624131559E+01  0.27167840507E+02 -0.24262948235E+02  0.36522194060E+02  0.51100000000E-03 0.  1.
         12    1    4    4    0    0  0.58962873808E+01 -0.68841733353E+00  0.19802388602E+01  0.62579125310E+01  0.00000000000E+00 0. -1.
</event>
<event>
 8    1  0.7311878E-012  0.9118800E+02  0.7816164E-02  0.1184000E+00
        -11   -1    0    0    0    0  0.00000000000E+00  0.00000000000E+00  0.45593999997E+02  0.45594000000E+02  0.51100000000E-03 0. -1.
         11   -1    0    0    0    0 -0.00000000000E+00 -0.00000000000E+00 -0.45593999997E+02  0.45594000000E+02  0.51100000000E-03 0.  1.
         23    2    1    2    0    0 -0.17763568394E-14  0.00000000000E+00  0.00000000000E+00  0.91188000000E+02  0.91188000000E+02 0.  0.
    9900012    2    3    3    0    0  0.13685320903E+02 -0.19779268902E+02  0.32781976824E+02  0.50528862146E+02  0.30000006980E+02 0.  0.
        -12    1    3    3    0    0 -0.13685320903E+02  0.19779268902E+02 -0.32781976824E+02  0.40659137854E+02  0.00000000000E+00 0.  1.
         11    1    4    4    0    0  0.81849588102E+01 -0.10829037534E+02  0.72459634833E+01  0.15387189207E+02  0.51100000000E-03 0.  1.
        -11    1    4    4    0    0  0.13531349652E+02 -0.23259563926E+01  0.14299225639E+02  0.19823605895E+02  0.51100000000E-03 0. -1.
        -12    1    4    4    0    0 -0.80309875593E+01 -0.66242749755E+01  0.11236787702E+02  0.15318067045E+02  0.00000000000E+00 0.  1.
</event>
<event>
 8    1  0.7311878E-012  0.9118800E+02  0.7816164E-02  0.1184000E+00
        -11   -1    0    0    0    0  0.00000000000E+00  0.00000000000E+00  0.45593999997E+02  0.45594000000E+02  0.51100000000E-03 0. -1.
         11   -1    0    0    0    0 -0.00000000000E+00 -0.00000000000E+00 -0.45593999997E+02  0.45594000000E+02  0.51100000000E-03 0.  1.
         23    2    1    2    0    0  0.00000000000E+00  0.35527136788E-14  0.00000000000E+00  0.91188000000E+02  0.91188000000E+02 0.  0.
    9900012    2    3    3    0    0  0.25680212356E+02  0.15400239061E+02 -0.27504977679E+02  0.50528874740E+02  0.30000045259E+02 0.  0.
         12    1    3    3    0    0 -0.25680212356E+02 -0.15400239061E+02  0.27504977679E+02  0.40659125260E+02  0.00000000000E+00 0. -1.
         11    1    4    4    0    0 -0.30447411499E+01 -0.34333630639E+01 -0.47012206417E+00  0.46129649484E+01  0.51100000000E-03 0. -1.
        -11    1    4    4    0    0  0.34573249513E+01  0.90062934764E+01 -0.10011124721E+02  0.13902842747E+02  0.51100000000E-03 0.  1.
        -12    1    4    4    0    0  0.25267628555E+02  0.98273086483E+01 -0.17023730894E+02  0.32013067044E+02  0.00000000000E+00 0.  1.
</event>
<event>
 8    1  0.7311878E-012  0.9118800E+02  0.7816164E-02  0.1184000E+00
        -11   -1    0    0    0    0  0.00000000000E+00  0.00000000000E+00  0.45593999997E+02  0.45594000000E+02  0.51100000000E-03 0. -1.
         11   -1    0    0    0    0 -0.00000000000E+00 -0.00000000000E+00 -0.45593999997E+02  0.45594000000E+02  0.51100000000E-03 0.  1.
         23    2    1    2    0    0  0.11102230246E-15  0.00000000000E+00 -0.71054273576E-14  0.91188000000E+02  0.91188000000E+02 0.  0.
    9900012    2    3    3    0    0  0.65087051487E+00 -0.38223261526E+01  0.40473842682E+02  0.50528858948E+02  0.29999997258E+02 0.  0.
        -12    1    3    3    0    0 -0.65087051487E+00  0.38223261526E+01 -0.40473842682E+02  0.40659141052E+02  0.00000000000E+00 0.  1.
         11    1    4    4    0    0  0.49837069856E+01 -0.31326971075E+00  0.58075243776E+01  0.76591652866E+01  0.51100000000E-03 0. -1.
        -11    1    4    4    0    0  0.70807768476E+01 -0.54201041683E+01  0.34221724353E+01  0.95512404639E+01  0.51100000000E-03 0.  1.
         12    1    4    4    0    0 -0.11413613318E+02  0.19110477265E+01  0.31244145869E+02  0.33318453198E+02  0.00000000000E+00 0. -1.
</event>
<event>
 8    1  0.7311878E-012  0.9118800E+02  0.7816164E-02  0.1184000E+00
        -11   -1    0    0    0    0  0.00000000000E+00  0.00000000000E+00  0.45593999997E+02  0.45594000000E+02  0.51100000000E-03 0. -1.
         11   -1    0    0    0    0 -0.00000000000E+00 -0.00000000000E+00 -0.45593999997E+02  0.45594000000E+02  0.51100000000E-03 0.  1.
         23    2    1    2    0    0  0.00000000000E+00  0.00000000000E+00  0.35527136788E-14  0.91188000000E+02  0.91188000000E+02 0.  0.
    9900012    2    3    3    0    0 -0.21805454771E+02 -0.14746458149E+02 -0.30987567451E+02  0.50528865452E+02  0.30000017027E+02 0.  0.
         12    1    3    3    0    0  0.21805454771E+02  0.14746458149E+02  0.30987567451E+02  0.40659134548E+02  0.00000000000E+00 0. -1.
         11    1    4    4    0    0 -0.20899519453E+01  0.57012638301E+01 -0.17300632282E+02  0.18335326177E+02  0.51100000000E-03 0. -1.
        -11    1    4    4    0    0 -0.62730212574E+01 -0.38830452884E+01 -0.60294504329E+01  0.95280170650E+01  0.51100000000E-03 0.  1.
        -12    1    4    4    0    0 -0.13442481568E+02 -0.16564676691E+02 -0.76574847358E+01  0.22665522210E+02  0.00000000000E+00 0.  1.
</event>
<event>
 8    1  0.7311878E-012  0.9118800E+02  0.7816164E-02  0.1184000E+00
        -11   -1    0    0    0    0  0.00000000000E+00  0.00000000000E+00  0.45593999997E+02  0.45594000000E+02  0.51100000000E-03 0.  1.
         11   -1    0    0    0    0 -0.00000000000E+00 -0.00000000000E+00 -0.45593999997E+02  0.45594000000E+02  0.51100000000E-03 0. -1.
         23    2    1    2    0    0  0.00000000000E+00  0.00000000000E+00  0.00000000000E+00  0.91188000000E+02  0.91188000000E+02 0.  0.
    9900012    2    3    3    0    0 -0.30884858554E+02  0.18640010551E+02 -0.18757424771E+02  0.50528862463E+02  0.30000007943E+02 0.  0.
         12    1    3    3    0    0  0.30884858554E+02 -0.18640010551E+02  0.18757424771E+02  0.40659137537E+02  0.00000000000E+00 0. -1.
         11    1    4    4    0    0 -0.21432160694E+02  0.46426306431E+01 -0.73837832443E+01  0.23138966843E+02  0.51100000000E-03 0. -1.
        -11    1    4    4    0    0 -0.39594660297E+01 -0.11437844408E+01  0.35444346096E+01  0.54358652531E+01  0.51100000000E-03 0.  1.
         12    1    4    4    0    0 -0.54932318302E+01  0.15141164348E+02 -0.14918076136E+02  0.21954030367E+02  0.00000000000E+00 0. -1.
</event>
<event>
 8    1  0.7311878E-012  0.9118800E+02  0.7816164E-02  0.1184000E+00
        -11   -1    0    0    0    0  0.00000000000E+00  0.00000000000E+00  0.45593999997E+02  0.45594000000E+02  0.51100000000E-03 0. -1.
         11   -1    0    0    0    0 -0.00000000000E+00 -0.00000000000E+00 -0.45593999997E+02  0.45594000000E+02  0.51100000000E-03 0.  1.
         23    2    1    2    0    0 -0.35527136788E-14 -0.17763568394E-14 -0.71054273576E-14  0.91188000000E+02  0.91188000000E+02 0.  0.
    9900012    2    3    3    0    0 -0.11907646662E+02 -0.64072281702E+01 -0.38344763779E+02  0.50528861653E+02  0.30000005481E+02 0.  0.
         12    1    3    3    0    0  0.11907646662E+02  0.64072281702E+01  0.38344763779E+02  0.40659138347E+02  0.00000000000E+00 0. -1.
         11    1    4    4    0    0  0.33718955619E+01 -0.13853220524E+01 -0.38856886571E+01  0.53279802430E+01  0.51100000000E-03 0. -1.
        -11    1    4    4    0    0 -0.17567643488E+02 -0.10593294129E+02 -0.16713127885E+02  0.26460699579E+02  0.51100000000E-03 0.  1.
         12    1    4    4    0    0  0.22881012637E+01  0.55713880113E+01 -0.17745947236E+02  0.18740181832E+02  0.00000000000E+00 0. -1.
</event>
<event>
 8    1  0.7311878E-012  0.9118800E+02  0.7816164E-02  0.1184000E+00
        -11   -1    0    0    0    0  0.00000000000E+00  0.00000000000E+00  0.45593999997E+02  0.45594000000E+02  0.51100000000E-03 0. -1.
         11   -1    0    0    0    0 -0.00000000000E+00 -0.00000000000E+00 -0.45593999997E+02  0.45594000000E+02  0.51100000000E-03 0.  1.
         23    2    1    2    0    0 -0.17763568394E-14 -0.22204460493E-14  0.00000000000E+00  0.91188000000E+02  0.91188000000E+02 0.  0.
    9900012    2    3    3    0    0  0.10823381624E+02 -0.24130861561E+01 -0.39117732226E+02  0.50528861432E+02  0.30000004809E+02 0.  0.
         12    1    3    3    0    0 -0.10823381624E+02  0.24130861561E+01  0.39117732226E+02  0.40659138568E+02  0.00000000000E+00 0. -1.
         11    1    4    4    0    0  0.43452294167E+01 -0.12784739887E+02 -0.68328819693E+01  0.15133369384E+02  0.51100000000E-03 0. -1.
        -11    1    4    4    0    0 -0.16875059045E+01  0.13052323462E+01 -0.31045632573E+01  0.37669113256E+01  0.51100000000E-03 0.  1.
        -12    1    4    4    0    0  0.81656581116E+01  0.90664213844E+01 -0.29180287000E+02  0.31628580722E+02  0.00000000000E+00 0.  1.
</event>
<event>
 8    1  0.7311878E-012  0.9118800E+02  0.7816164E-02  0.1184000E+00
        -11   -1    0    0    0    0  0.00000000000E+00  0.00000000000E+00  0.45593999997E+02  0.45594000000E+02  0.51100000000E-03 0. -1.
         11   -1    0    0    0    0 -0.00000000000E+00 -0.00000000000E+00 -0.45593999997E+02  0.45594000000E+02  0.51100000000E-03 0.  1.
         23    2    1    2    0    0  0.00000000000E+00  0.00000000000E+00 -0.35527136788E-14  0.91188000000E+02  0.91188000000E+02 0.  0.
    9900012    2    3    3    0    0 -0.10706524230E+02 -0.22861567426E+02  0.31872910110E+02  0.50528888781E+02  0.30000087938E+02 0.  0.
        -12    1    3    3    0    0  0.10706524230E+02  0.22861567426E+02 -0.31872910110E+02  0.40659111219E+02  0.00000000000E+00 0.  1.
         11    1    4    4    0    0 -0.64272271102E+01 -0.55148777264E+01  0.11984873062E+02  0.14675159530E+02  0.51100000000E-03 0. -1.
        -11    1    4    4    0    0 -0.36205791481E+01 -0.23145266290E+02  0.12880072945E+02  0.26734027462E+02  0.51100000000E-03 0.  1.
        -12    1    4    4    0    0 -0.65871797161E+00  0.57985765904E+01  0.70079641031E+01  0.91197017885E+01  0.00000000000E+00 0.  1.
</event>
<event>
 8    1  0.7311878E-012  0.9118800E+02  0.7816164E-02  0.1184000E+00
        -11   -1    0    0    0    0  0.00000000000E+00  0.00000000000E+00  0.45593999997E+02  0.45594000000E+02  0.51100000000E-03 0. -1.
         11   -1    0    0    0    0 -0.00000000000E+00 -0.00000000000E+00 -0.45593999997E+02  0.45594000000E+02  0.51100000000E-03 0.  1.
         23    2    1    2    0    0  0.17763568394E-14  0.35527136788E-14  0.00000000000E+00  0.91188000000E+02  0.91188000000E+02 0.  0.
    9900012    2    3    3    0    0  0.80655789165E+01  0.17790346855E+02  0.35659719179E+02  0.50528861097E+02  0.30000003790E+02 0.  0.
        -12    1    3    3    0    0 -0.80655789165E+01 -0.17790346855E+02 -0.35659719179E+02  0.40659138903E+02  0.00000000000E+00 0.  1.
         11    1    4    4    0    0  0.62850767054E+01  0.97901736177E+01  0.13438453544E+02  0.17774749579E+02  0.51100000000E-03 0. -1.
        -11    1    4    4    0    0  0.37596414808E+00  0.15937053108E+02  0.15847780871E+02  0.22478504612E+02  0.51100000000E-03 0.  1.
         12    1    4    4    0    0  0.14045380631E+01 -0.79368798711E+01  0.63734847630E+01  0.10275606906E+02  0.00000000000E+00 0. -1.
</event>
<event>
 8    1  0.7311878E-012  0.9118800E+02  0.7816164E-02  0.1184000E+00
        -11   -1    0    0    0    0  0.00000000000E+00  0.00000000000E+00  0.45593999997E+02  0.45594000000E+02  0.51100000000E-03 0. -1.
         11   -1    0    0    0    0 -0.00000000000E+00 -0.00000000000E+00 -0.45593999997E+02  0.45594000000E+02  0.51100000000E-03 0.  1.
         23    2    1    2    0    0  0.00000000000E+00  0.00000000000E+00 -0.71054273576E-14  0.91188000000E+02  0.91188000000E+02 0.  0.
    9900012    2    3    3    0    0  0.91955348358E+01  0.23458122124E+01 -0.39536164031E+02  0.50528819461E+02  0.29999877232E+02 0.  0.
         12    1    3    3    0    0 -0.91955348358E+01 -0.23458122124E+01  0.39536164031E+02  0.40659180539E+02  0.00000000000E+00 0. -1.
         11    1    4    4    0    0 -0.20039113088E+01  0.43343052896E+01 -0.27042894673E+02  0.27461245701E+02  0.51100000000E-03 0. -1.
        -11    1    4    4    0    0 -0.39420727698E+01 -0.14865918081E+01 -0.22114216545E+01  0.47581802111E+01  0.51100000000E-03 0.  1.
        -12    1    4    4    0    0  0.15141518914E+02 -0.50190126918E+00 -0.10281847703E+02  0.18309393548E+02  0.00000000000E+00 0.  1.
</event>
<event>
 8    1  0.7311878E-012  0.9118800E+02  0.7816164E-02  0.1184000E+00
        -11   -1    0    0    0    0  0.00000000000E+00  0.00000000000E+00  0.45593999997E+02  0.45594000000E+02  0.51100000000E-03 0. -1.
         11   -1    0    0    0    0 -0.00000000000E+00 -0.00000000000E+00 -0.45593999997E+02  0.45594000000E+02  0.51100000000E-03 0.  1.
         23    2    1    2    0    0  0.35527136788E-14  0.66613381478E-15 -0.35527136788E-14  0.91188000000E+02  0.91188000000E+02 0.  0.
    9900012    2    3    3    0    0  0.28852660309E+02 -0.13155364560E+01  0.28617459936E+02  0.50528860115E+02  0.30000000805E+02 0.  0.
        -12    1    3    3    0    0 -0.28852660309E+02  0.13155364560E+01 -0.28617459936E+02  0.40659139885E+02  0.00000000000E+00 0.  1.
         11    1    4    4    0    0  0.19419413828E+02 -0.89024896190E+01  0.27009140790E+02  0.34436341869E+02  0.51100000000E-03 0. -1.
        -11    1    4    4    0    0 -0.15656543262E+01  0.67916985197E+00  0.25520287424E+01  0.30700808003E+01  0.51100000000E-03 0.  1.
        -12    1    4    4    0    0  0.10998900806E+02  0.69077833110E+01 -0.94370959640E+00  0.13022437446E+02  0.00000000000E+00 0.  1.
</event>
<event>
 8    1  0.7311878E-012  0.9118800E+02  0.7816164E-02  0.1184000E+00
        -11   -1    0    0    0    0  0.00000000000E+00  0.00000000000E+00  0.45593999997E+02  0.45594000000E+02  0.51100000000E-03 0. -1.
         11   -1    0    0    0    0 -0.00000000000E+00 -0.00000000000E+00 -0.45593999997E+02  0.45594000000E+02  0.51100000000E-03 0.  1.
         23    2    1    2    0    0 -0.35527136788E-14 -0.88817841970E-15  0.00000000000E+00  0.91188000000E+02  0.91188000000E+02 0.  0.
    9900012    2    3    3    0    0  0.28840882131E+02  0.55326141500E+01  0.28120475551E+02  0.50528838097E+02  0.29999933881E+02 0.  0.
        -12    1    3    3    0    0 -0.28840882131E+02 -0.55326141500E+01 -0.28120475551E+02  0.40659161903E+02  0.00000000000E+00 0.  1.
         11    1    4    4    0    0  0.85335077438E+00  0.95654731350E+01  0.74722155249E+01  0.12168010887E+02  0.51100000000E-03 0.  1.
        -11    1    4    4    0    0  0.92514751305E+01  0.15522704793E+01  0.15543015625E+02  0.18154466963E+02  0.51100000000E-03 0. -1.
         12    1    4    4    0    0  0.18736056226E+02 -0.55851294642E+01  0.51052444006E+01  0.20206360247E+02  0.00000000000E+00 0. -1.
</event>
<event>
 8    1  0.7311878E-012  0.9118800E+02  0.7816164E-02  0.1184000E+00
        -11   -1    0    0    0    0  0.00000000000E+00  0.00000000000E+00  0.45593999997E+02  0.45594000000E+02  0.51100000000E-03 0.  1.
         11   -1    0    0    0    0 -0.00000000000E+00 -0.00000000000E+00 -0.45593999997E+02  0.45594000000E+02  0.51100000000E-03 0. -1.
         23    2    1    2    0    0  0.00000000000E+00  0.00000000000E+00  0.00000000000E+00  0.91188000000E+02  0.91188000000E+02 0.  0.
    9900012    2    3    3    0    0  0.36292760696E+02 -0.16219825596E+02  0.85394845974E+01  0.50528806470E+02  0.29999837746E+02 0.  0.
        -12    1    3    3    0    0 -0.36292760696E+02  0.16219825596E+02 -0.85394845974E+01  0.40659193530E+02  0.00000000000E+00 0.  1.
         11    1    4    4    0    0  0.30564347562E+02 -0.13576189982E+02  0.84609746703E+01  0.34497541492E+02  0.51100000000E-03 0. -1.
        -11    1    4    4    0    0  0.72376819709E+01  0.64031391215E+00  0.57774377814E+01  0.92829321767E+01  0.51100000000E-03 0.  1.
        -12    1    4    4    0    0 -0.15092688371E+01 -0.32839495262E+01 -0.56989278542E+01  0.67483328016E+01  0.00000000000E+00 0.  1.
</event>
<event>
 8    1  0.7311878E-012  0.9118800E+02  0.7816164E-02  0.1184000E+00
        -11   -1    0    0    0    0  0.00000000000E+00  0.00000000000E+00  0.45593999997E+02  0.45594000000E+02  0.51100000000E-03 0. -1.
         11   -1    0    0    0    0 -0.00000000000E+00 -0.00000000000E+00 -0.45593999997E+02  0.45594000000E+02  0.51100000000E-03 0.  1.
         23    2    1    2    0    0  0.35527136788E-14  0.88817841970E-15  0.00000000000E+00  0.91188000000E+02  0.91188000000E+02 0.  0.
    9900012    2    3    3    0    0  0.16780464381E+02  0.69563334517E+01 -0.36375695271E+02  0.50528858760E+02  0.29999996687E+02 0.  0.
         12    1    3    3    0    0 -0.16780464381E+02 -0.69563334517E+01  0.36375695271E+02  0.40659141240E+02  0.00000000000E+00 0. -1.
         11    1    4    4    0    0 -0.53008338806E+01 -0.32688913940E+01 -0.13811689876E+02  0.15150817413E+02  0.51100000000E-03 0. -1.
        -11    1    4    4    0    0  0.17970981332E+02  0.95478064623E+01 -0.23522475332E+02  0.31103434284E+02  0.51100000000E-03 0.  1.
        -12    1    4    4    0    0  0.41103169293E+01  0.67741838339E+00  0.95846993711E+00  0.42746070633E+01  0.00000000000E+00 0.  1.
</event>
<event>
 8    1  0.7311878E-012  0.9118800E+02  0.7816164E-02  0.1184000E+00
        -11   -1    0    0    0    0  0.00000000000E+00  0.00000000000E+00  0.45593999997E+02  0.45594000000E+02  0.51100000000E-03 0. -1.
         11   -1    0    0    0    0 -0.00000000000E+00 -0.00000000000E+00 -0.45593999997E+02  0.45594000000E+02  0.51100000000E-03 0.  1.
         23    2    1    2    0    0 -0.35527136788E-14 -0.14432899320E-14  0.00000000000E+00  0.91188000000E+02  0.91188000000E+02 0.  0.
    9900012    2    3    3    0    0  0.22352879214E+02  0.78890760813E+00 -0.33954267232E+02  0.50528857761E+02  0.29999993649E+02 0.  0.
         12    1    3    3    0    0 -0.22352879214E+02 -0.78890760813E+00  0.33954267232E+02  0.40659142239E+02  0.00000000000E+00 0. -1.
         11    1    4    4    0    0  0.43205320373E+01 -0.48419921940E+01 -0.10841202255E+02  0.12635012944E+02  0.51100000000E-03 0.  1.
        -11    1    4    4    0    0  0.50859088014E+01 -0.61536058121E+01  0.10534382149E+01  0.80525191810E+01  0.51100000000E-03 0. -1.
         12    1    4    4    0    0  0.12946438375E+02  0.11784505614E+02 -0.24166503192E+02  0.29841325636E+02  0.00000000000E+00 0. -1.
</event>
<event>
 8    1  0.7311878E-012  0.9118800E+02  0.7816164E-02  0.1184000E+00
        -11   -1    0    0    0    0  0.00000000000E+00  0.00000000000E+00  0.45593999997E+02  0.45594000000E+02  0.51100000000E-03 0. -1.
         11   -1    0    0    0    0 -0.00000000000E+00 -0.00000000000E+00 -0.45593999997E+02  0.45594000000E+02  0.51100000000E-03 0.  1.
         23    2    1    2    0    0  0.00000000000E+00  0.35527136788E-14  0.00000000000E+00  0.91188000000E+02  0.91188000000E+02 0.  0.
    9900012    2    3    3    0    0  0.27523843692E+02  0.23303578256E+02  0.18776507251E+02  0.50528733459E+02  0.29999615819E+02 0.  0.
        -12    1    3    3    0    0 -0.27523843692E+02 -0.23303578256E+02 -0.18776507251E+02  0.40659266541E+02  0.00000000000E+00 0.  1.
         11    1    4    4    0    0  0.59362585364E+01  0.60550917819E+01  0.10902051790E+02  0.13811518215E+02  0.51100000000E-03 0. -1.
        -11    1    4    4    0    0  0.14228298593E+02  0.21099836056E+02  0.26182653656E+00  0.25450267501E+02  0.51100000000E-03 0.  1.
         12    1    4    4    0    0  0.73592865629E+01 -0.38513495822E+01  0.76126289240E+01  0.11266947743E+02  0.00000000000E+00 0. -1.
</event>
<event>
 8    1  0.7311878E-012  0.9118800E+02  0.7816164E-02  0.1184000E+00
        -11   -1    0    0    0    0  0.00000000000E+00  0.00000000000E+00  0.45593999997E+02  0.45594000000E+02  0.51100000000E-03 0. -1.
         11   -1    0    0    0    0 -0.00000000000E+00 -0.00000000000E+00 -0.45593999997E+02  0.45594000000E+02  0.51100000000E-03 0.  1.
         23    2    1    2    0    0  0.00000000000E+00 -0.88817841970E-15  0.00000000000E+00  0.91188000000E+02  0.91188000000E+02 0.  0.
    9900012    2    3    3    0    0 -0.62231762176E+01 -0.64239667099E+01  0.39663208198E+02  0.50528863817E+02  0.30000012060E+02 0.  0.
        -12    1    3    3    0    0  0.62231762176E+01  0.64239667099E+01 -0.39663208198E+02  0.40659136183E+02  0.00000000000E+00 0.  1.
         11    1    4    4    0    0 -0.93676407417E+00 -0.12242795442E+01  0.21787078624E+02  0.21841547165E+02  0.51100000000E-03 0. -1.
        -11    1    4    4    0    0 -0.32670180611E+01  0.82083427405E+01  0.61932476130E+01  0.10789189674E+02  0.51100000000E-03 0.  1.
         12    1    4    4    0    0 -0.20193940823E+01 -0.13408029906E+02  0.11682881961E+02  0.17898126979E+02  0.00000000000E+00 0. -1.
</event>
<event>
 8    1  0.7311878E-012  0.9118800E+02  0.7816164E-02  0.1184000E+00
        -11   -1    0    0    0    0  0.00000000000E+00  0.00000000000E+00  0.45593999997E+02  0.45594000000E+02  0.51100000000E-03 0. -1.
         11   -1    0    0    0    0 -0.00000000000E+00 -0.00000000000E+00 -0.45593999997E+02  0.45594000000E+02  0.51100000000E-03 0.  1.
         23    2    1    2    0    0  0.00000000000E+00  0.22204460493E-15  0.71054273576E-14  0.91188000000E+02  0.91188000000E+02 0.  0.
    9900012    2    3    3    0    0  0.28858060222E+01  0.17642241595E+01  0.40518202343E+02  0.50528867147E+02  0.30000022180E+02 0.  0.
        -12    1    3    3    0    0 -0.28858060222E+01 -0.17642241595E+01 -0.40518202343E+02  0.40659132853E+02  0.00000000000E+00 0.  1.
         11    1    4    4    0    0  0.10203092775E+02 -0.55029246621E+01  0.12885174668E+02  0.17332426503E+02  0.51100000000E-03 0. -1.
        -11    1    4    4    0    0 -0.70133407637E+01 -0.28730588506E+01  0.75568402874E+01  0.10702674956E+02  0.51100000000E-03 0.  1.
        -12    1    4    4    0    0 -0.30394598882E+00  0.10140207672E+02  0.20076187388E+02  0.22493765688E+02  0.00000000000E+00 0.  1.
</event>
<event>
 8    1  0.8084538E-012  0.9118800E+02  0.7816164E-02  0.1184000E+00
        -11   -1    0    0    0    0  0.00000000000E+00  0.00000000000E+00  0.45593999997E+02  0.45594000000E+02  0.51100000000E-03 0. -1.
         11   -1    0    0    0    0 -0.00000000000E+00 -0.00000000000E+00 -0.45593999997E+02  0.45594000000E+02  0.51100000000E-03 0.  1.
         23    2    1    2    0    0 -0.44408920985E-15  0.35527136788E-14 -0.35527136788E-14  0.91188000000E+02  0.91188000000E+02 0.  0.
    9900012    2    3    3    0    0  0.33820366619E+01  0.31440270619E+02 -0.25558493808E+02  0.50528863335E+02  0.30000010594E+02 0.  0.
         12    1    3    3    0    0 -0.33820366619E+01 -0.31440270619E+02  0.25558493808E+02  0.40659136665E+02  0.00000000000E+00 0. -1.
         11    1    4    4    0    0 -0.47169177835E+01  0.97351469846E+01 -0.97900978761E+01  0.14590010859E+02  0.51100000000E-03 0. -1.
        -11    1    4    4    0    0  0.60150819600E+01  0.25216464034E+02 -0.17731892225E+02  0.31408140211E+02  0.51100000000E-03 0.  1.
         12    1    4    4    0    0  0.20838724854E+01 -0.35113403998E+01  0.19634962930E+01  0.45307122653E+01  0.00000000000E+00 0. -1.
</event>
<event>
 8    1  0.7311878E-012  0.9118800E+02  0.7816164E-02  0.1184000E+00
        -11   -1    0    0    0    0  0.00000000000E+00  0.00000000000E+00  0.45593999997E+02  0.45594000000E+02  0.51100000000E-03 0. -1.
         11   -1    0    0    0    0 -0.00000000000E+00 -0.00000000000E+00 -0.45593999997E+02  0.45594000000E+02  0.51100000000E-03 0.  1.
         23    2    1    2    0    0  0.00000000000E+00  0.00000000000E+00  0.00000000000E+00  0.91188000000E+02  0.91188000000E+02 0.  0.
    9900012    2    3    3    0    0  0.18458086132E+01  0.23050565966E+02 -0.33442987735E+02  0.50528818633E+02  0.29999874717E+02 0.  0.
         12    1    3    3    0    0 -0.18458086132E+01 -0.23050565966E+02  0.33442987735E+02  0.40659181367E+02  0.00000000000E+00 0. -1.
         11    1    4    4    0    0 -0.19207051976E+00  0.12621113994E+02 -0.10262078722E+02  0.16267749368E+02  0.51100000000E-03 0. -1.
        -11    1    4    4    0    0  0.15566337787E-01  0.17688702179E+02 -0.16529857227E+02  0.24210051783E+02  0.51100000000E-03 0.  1.
        -12    1    4    4    0    0  0.20223127952E+01 -0.72592502065E+01 -0.66510517850E+01  0.10051017483E+02  0.00000000000E+00 0.  1.
</event>
<event>
 8    1  0.7311878E-012  0.9118800E+02  0.7816164E-02  0.1184000E+00
        -11   -1    0    0    0    0  0.00000000000E+00  0.00000000000E+00  0.45593999997E+02  0.45594000000E+02  0.51100000000E-03 0. -1.
         11   -1    0    0    0    0 -0.00000000000E+00 -0.00000000000E+00 -0.45593999997E+02  0.45594000000E+02  0.51100000000E-03 0.  1.
         23    2    1    2    0    0  0.00000000000E+00 -0.35527136788E-14  0.88817841970E-15  0.91188000000E+02  0.91188000000E+02 0.  0.
    9900012    2    3    3    0    0  0.32702616797E+02 -0.22897793288E+02  0.77068412630E+01  0.50528862219E+02  0.30000007202E+02 0.  0.
        -12    1    3    3    0    0 -0.32702616797E+02  0.22897793288E+02 -0.77068412630E+01  0.40659137781E+02  0.00000000000E+00 0.  1.
         11    1    4    4    0    0  0.14253908117E+02 -0.19631352550E+01  0.35030114959E+01  0.14808743580E+02  0.51100000000E-03 0.  1.
        -11    1    4    4    0    0  0.39487876115E+01 -0.18688941165E+02  0.77679806599E+01  0.20620644250E+02  0.51100000000E-03 0. -1.
         12    1    4    4    0    0  0.14499921069E+02 -0.22457168677E+01 -0.35641508928E+01  0.15099474390E+02  0.00000000000E+00 0. -1.
</event>
<event>
 8    1  0.7311878E-012  0.9118800E+02  0.7816164E-02  0.1184000E+00
        -11   -1    0    0    0    0  0.00000000000E+00  0.00000000000E+00  0.45593999997E+02  0.45594000000E+02  0.51100000000E-03 0.  1.
         11   -1    0    0    0    0 -0.00000000000E+00 -0.00000000000E+00 -0.45593999997E+02  0.45594000000E+02  0.51100000000E-03 0. -1.
         23    2    1    2    0    0  0.00000000000E+00  0.00000000000E+00  0.00000000000E+00  0.91188000000E+02  0.91188000000E+02 0.  0.
    9900012    2    3    3    0    0 -0.16283432225E+02 -0.33441236538E+02 -0.16422521606E+02  0.50528859796E+02  0.29999999835E+02 0.  0.
         12    1    3    3    0    0  0.16283432225E+02  0.33441236538E+02  0.16422521606E+02  0.40659140204E+02  0.00000000000E+00 0. -1.
         11    1    4    4    0    0  0.21618952909E+01 -0.10898454242E+02 -0.58416226727E+01  0.12552874245E+02  0.51100000000E-03 0. -1.
        -11    1    4    4    0    0 -0.40683904028E+01  0.27468646886E+01 -0.71653329787E+01  0.86855663628E+01  0.51100000000E-03 0.  1.
        -12    1    4    4    0    0 -0.14376937113E+02 -0.25289646985E+02 -0.34155659543E+01  0.29290419188E+02  0.00000000000E+00 0.  1.
</event>
<event>
 8    1  0.7311878E-012  0.9118800E+02  0.7816164E-02  0.1184000E+00
        -11   -1    0    0    0    0  0.00000000000E+00  0.00000000000E+00  0.45593999997E+02  0.45594000000E+02  0.51100000000E-03 0. -1.
         11   -1    0    0    0    0 -0.00000000000E+00 -0.00000000000E+00 -0.45593999997E+02  0.45594000000E+02  0.51100000000E-03 0.  1.
         23    2    1    2    0    0  0.44408920985E-15  0.71054273576E-14 -0.35527136788E-14  0.91188000000E+02  0.91188000000E+02 0.  0.
    9900012    2    3    3    0    0  0.27471146523E+01  0.27832234546E+02 -0.29512425168E+02  0.50528890835E+02  0.30000094183E+02 0.  0.
         12    1    3    3    0    0 -0.27471146523E+01 -0.27832234546E+02  0.29512425168E+02  0.40659109165E+02  0.00000000000E+00 0. -1.
         11    1    4    4    0    0  0.98103189324E+01  0.66658349624E+01 -0.82534083193E+01  0.14449721881E+02  0.51100000000E-03 0. -1.
        -11    1    4    4    0    0 -0.71809770408E+01  0.11952103661E+02 -0.22810342436E+02  0.26734452220E+02  0.51100000000E-03 0.  1.
         12    1    4    4    0    0  0.11777276068E+00  0.92142959223E+01  0.15513255866E+01  0.93447167342E+01  0.00000000000E+00 0. -1.
</event>
<event>
 8    1  0.7311878E-012  0.9118800E+02  0.7816164E-02  0.1184000E+00
        -11   -1    0    0    0    0  0.00000000000E+00  0.00000000000E+00  0.45593999997E+02  0.45594000000E+02  0.51100000000E-03 0. -1.
         11   -1    0    0    0    0 -0.00000000000E+00 -0.00000000000E+00 -0.45593999997E+02  0.45594000000E+02  0.51100000000E-03 0.  1.
         23    2    1    2    0    0  0.00000000000E+00 -0.88817841970E-15  0.00000000000E+00  0.91188000000E+02  0.91188000000E+02 0.  0.
    9900012    2    3    3    0    0  0.36122003085E+02 -0.70638597099E+01 -0.17276223536E+02  0.50528866702E+02  0.30000020828E+02 0.  0.
         12    1    3    3    0    0 -0.36122003085E+02  0.70638597099E+01  0.17276223536E+02  0.40659133298E+02  0.00000000000E+00 0. -1.
         11    1    4    4    0    0  0.13230690796E+02  0.25704188690E+01  0.53585061615E+01  0.14504200104E+02  0.51100000000E-03 0. -1.
        -11    1    4    4    0    0  0.11922655865E+02  0.14123426842E+01 -0.67047919289E+01  0.13751315203E+02  0.51100000000E-03 0.  1.
        -12    1    4    4    0    0  0.10968656423E+02 -0.11046621263E+02 -0.15929937769E+02  0.22273351395E+02  0.00000000000E+00 0.  1.
</event>
<event>
 8    1  0.7311878E-012  0.9118800E+02  0.7816164E-02  0.1184000E+00
        -11   -1    0    0    0    0  0.00000000000E+00  0.00000000000E+00  0.45593999997E+02  0.45594000000E+02  0.51100000000E-03 0. -1.
         11   -1    0    0    0    0 -0.00000000000E+00 -0.00000000000E+00 -0.45593999997E+02  0.45594000000E+02  0.51100000000E-03 0.  1.
         23    2    1    2    0    0  0.17763568394E-14 -0.17763568394E-14  0.71054273576E-14  0.91188000000E+02  0.91188000000E+02 0.  0.
    9900012    2    3    3    0    0  0.14943247063E+02 -0.14360838256E+02  0.34980326662E+02  0.50528959658E+02  0.30000303374E+02 0.  0.
        -12    1    3    3    0    0 -0.14943247063E+02  0.14360838256E+02 -0.34980326662E+02  0.40659040342E+02  0.00000000000E+00 0.  1.
         11    1    4    4    0    0  0.12576393125E+02 -0.63230732861E+01  0.31763995201E+02  0.34743320382E+02  0.51100000000E-03 0. -1.
        -11    1    4    4    0    0 -0.31751079765E+01  0.85817252667E+00  0.41130105056E+01  0.52663674794E+01  0.51100000000E-03 0.  1.
        -12    1    4    4    0    0  0.55419619142E+01 -0.88959374969E+01 -0.89667904458E+00  0.10519271796E+02  0.00000000000E+00 0.  1.
</event>
<event>
 8    1  0.7311878E-012  0.9118800E+02  0.7816164E-02  0.1184000E+00
        -11   -1    0    0    0    0  0.00000000000E+00  0.00000000000E+00  0.45593999997E+02  0.45594000000E+02  0.51100000000E-03 0. -1.
         11   -1    0    0    0    0 -0.00000000000E+00 -0.00000000000E+00 -0.45593999997E+02  0.45594000000E+02  0.51100000000E-03 0.  1.
         23    2    1    2    0    0  0.00000000000E+00  0.00000000000E+00  0.00000000000E+00  0.91188000000E+02  0.91188000000E+02 0.  0.
    9900012    2    3    3    0    0 -0.24211960570E+02  0.68460529014E+01  0.31938659246E+02  0.50528862904E+02  0.30000009284E+02 0.  0.
        -12    1    3    3    0    0  0.24211960570E+02 -0.68460529014E+01 -0.31938659246E+02  0.40659137096E+02  0.00000000000E+00 0.  1.
         11    1    4    4    0    0 -0.20053469783E+02  0.75174702614E+01  0.73828193952E+01  0.22653035822E+02  0.51100000000E-03 0. -1.
        -11    1    4    4    0    0 -0.37262614395E+00 -0.13700622217E+01 -0.11845884270E+01  0.18490999803E+01  0.51100000000E-03 0.  1.
         12    1    4    4    0    0 -0.37858646428E+01  0.69864486164E+00  0.25740428278E+02  0.26026727102E+02  0.00000000000E+00 0. -1.
</event>
<event>
 8    1  0.7311878E-012  0.9118800E+02  0.7816164E-02  0.1184000E+00
        -11   -1    0    0    0    0  0.00000000000E+00  0.00000000000E+00  0.45593999997E+02  0.45594000000E+02  0.51100000000E-03 0. -1.
         11   -1    0    0    0    0 -0.00000000000E+00 -0.00000000000E+00 -0.45593999997E+02  0.45594000000E+02  0.51100000000E-03 0.  1.
         23    2    1    2    0    0  0.00000000000E+00  0.00000000000E+00  0.00000000000E+00  0.91188000000E+02  0.91188000000E+02 0.  0.
    9900012    2    3    3    0    0  0.23925761605E+02 -0.14244015471E+02  0.29628221790E+02  0.50528861156E+02  0.30000003970E+02 0.  0.
        -12    1    3    3    0    0 -0.23925761605E+02  0.14244015471E+02 -0.29628221790E+02  0.40659138844E+02  0.00000000000E+00 0.  1.
         11    1    4    4    0    0  0.17091652484E+02 -0.45340225831E+01  0.82409911662E+01  0.19508866730E+02  0.51100000000E-03 0. -1.
        -11    1    4    4    0    0  0.11227445308E+02 -0.12421326936E+02  0.19022143367E+02  0.25341405437E+02  0.51100000000E-03 0.  1.
        -12    1    4    4    0    0 -0.43933361875E+01  0.27113340481E+01  0.23650872566E+01  0.56785889892E+01  0.00000000000E+00 0.  1.
</event>
<event>
 8    1  0.7311878E-012  0.9118800E+02  0.7816164E-02  0.1184000E+00
        -11   -1    0    0    0    0  0.00000000000E+00  0.00000000000E+00  0.45593999997E+02  0.45594000000E+02  0.51100000000E-03 0. -1.
         11   -1    0    0    0    0 -0.00000000000E+00 -0.00000000000E+00 -0.45593999997E+02  0.45594000000E+02  0.51100000000E-03 0.  1.
         23    2    1    2    0    0  0.00000000000E+00  0.17763568394E-14  0.00000000000E+00  0.91188000000E+02  0.91188000000E+02 0.  0.
    9900012    2    3    3    0    0 -0.27980063295E+02 -0.15520846315E+02  0.25087545981E+02  0.50528861105E+02  0.30000003815E+02 0.  0.
        -12    1    3    3    0    0  0.27980063295E+02  0.15520846315E+02 -0.25087545981E+02  0.40659138895E+02  0.00000000000E+00 0.  1.
         11    1    4    4    0    0 -0.50159877363E+01 -0.42197873550E+01 -0.38932936619E+01  0.76239408504E+01  0.51100000000E-03 0. -1.
        -11    1    4    4    0    0 -0.18753473483E+01 -0.16526584625E+01 -0.26763030088E+01  0.36620766959E+01  0.51100000000E-03 0.  1.
         12    1    4    4    0    0 -0.21088728211E+02 -0.96484004973E+01  0.31657142652E+02  0.39242843559E+02  0.00000000000E+00 0. -1.
</event>
<event>
 8    1  0.7311878E-012  0.9118800E+02  0.7816164E-02  0.1184000E+00
        -11   -1    0    0    0    0  0.00000000000E+00  0.00000000000E+00  0.45593999997E+02  0.45594000000E+02  0.51100000000E-03 0. -1.
         11   -1    0    0    0    0 -0.00000000000E+00 -0.00000000000E+00 -0.45593999997E+02  0.45594000000E+02  0.51100000000E-03 0.  1.
         23    2    1    2    0    0  0.88817841970E-15  0.35527136788E-14 -0.35527136788E-14  0.91188000000E+02  0.91188000000E+02 0.  0.
    9900012    2    3    3    0    0 -0.60511918499E+01  0.25056672893E+02 -0.31443792556E+02  0.50528857491E+02  0.29999992828E+02 0.  0.
         12    1    3    3    0    0  0.60511918499E+01 -0.25056672893E+02  0.31443792556E+02  0.40659142509E+02  0.00000000000E+00 0. -1.
         11    1    4    4    0    0  0.51077218916E+01  0.17942926977E+01  0.16138559702E+00  0.54161199007E+01  0.51100000000E-03 0. -1.
        -11    1    4    4    0    0 -0.12092643105E+02  0.42094179472E+01 -0.96857452142E+01  0.16055057687E+02  0.51100000000E-03 0.  1.
        -12    1    4    4    0    0  0.93372936357E+00  0.19052962248E+02 -0.21919432939E+02  0.29057679903E+02  0.00000000000E+00 0.  1.
</event>
<event>
 8    1  0.7311878E-012  0.9118800E+02  0.7816164E-02  0.1184000E+00
        -11   -1    0    0    0    0  0.00000000000E+00  0.00000000000E+00  0.45593999997E+02  0.45594000000E+02  0.51100000000E-03 0.  1.
         11   -1    0    0    0    0 -0.00000000000E+00 -0.00000000000E+00 -0.45593999997E+02  0.45594000000E+02  0.51100000000E-03 0. -1.
         23    2    1    2    0    0  0.17763568394E-14  0.00000000000E+00 -0.35527136788E-14  0.91188000000E+02  0.91188000000E+02 0.  0.
    9900012    2    3    3    0    0  0.14673500663E+02 -0.32167835575E+02  0.20077005287E+02  0.50528838565E+02  0.29999935302E+02 0.  0.
        -12    1    3    3    0    0 -0.14673500663E+02  0.32167835575E+02 -0.20077005287E+02  0.40659161435E+02  0.00000000000E+00 0.  1.
         11    1    4    4    0    0  0.27033579186E+01 -0.10703389399E+02  0.11653842319E+01  0.11100847235E+02  0.51100000000E-03 0. -1.
        -11    1    4    4    0    0 -0.22942122975E+01 -0.18110702870E+02  0.16441505246E+02  0.24567947890E+02  0.51100000000E-03 0.  1.
        -12    1    4    4    0    0  0.14264355042E+02 -0.33537433060E+01  0.24701158090E+01  0.14860043440E+02  0.00000000000E+00 0.  1.
</event>
<event>
 8    1  0.7311878E-012  0.9118800E+02  0.7816164E-02  0.1184000E+00
        -11   -1    0    0    0    0  0.00000000000E+00  0.00000000000E+00  0.45593999997E+02  0.45594000000E+02  0.51100000000E-03 0. -1.
         11   -1    0    0    0    0 -0.00000000000E+00 -0.00000000000E+00 -0.45593999997E+02  0.45594000000E+02  0.51100000000E-03 0.  1.
         23    2    1    2    0    0 -0.35527136788E-14  0.00000000000E+00  0.00000000000E+00  0.91188000000E+02  0.91188000000E+02 0.  0.
    9900012    2    3    3    0    0 -0.26190444898E+02  0.18322693439E+02 -0.25129809456E+02  0.50528833480E+02  0.29999919845E+02 0.  0.
         12    1    3    3    0    0  0.26190444898E+02 -0.18322693439E+02  0.25129809456E+02  0.40659166520E+02  0.00000000000E+00 0. -1.
         11    1    4    4    0    0 -0.80231136715E+01  0.10937279571E+02 -0.89844964965E+01  0.16270083434E+02  0.51100000000E-03 0. -1.
        -11    1    4    4    0    0 -0.58319746895E+01  0.11169813334E+02 -0.17190038589E+02  0.21313706521E+02  0.51100000000E-03 0.  1.
         12    1    4    4    0    0 -0.12335356537E+02 -0.37843994657E+01  0.10447256296E+01  0.12945043525E+02  0.00000000000E+00 0. -1.
</event>
<event>
 8    1  0.7311878E-012  0.9118800E+02  0.7816164E-02  0.1184000E+00
        -11   -1    0    0    0    0  0.00000000000E+00  0.00000000000E+00  0.45593999997E+02  0.45594000000E+02  0.51100000000E-03 0. -1.
         11   -1    0    0    0    0 -0.00000000000E+00 -0.00000000000E+00 -0.45593999997E+02  0.45594000000E+02  0.51100000000E-03 0.  1.
         23    2    1    2    0    0  0.17763568394E-14  0.00000000000E+00  0.35527136788E-14  0.91188000000E+02  0.91188000000E+02 0.  0.
    9900012    2    3    3    0    0 -0.12330585278E+02  0.34718584540E+02 -0.17197148720E+02  0.50528863636E+02  0.30000011507E+02 0.  0.
         12    1    3    3    0    0  0.12330585278E+02 -0.34718584540E+02  0.17197148720E+02  0.40659136364E+02  0.00000000000E+00 0. -1.
         11    1    4    4    0    0  0.26511829458E+00 -0.17016424783E+00 -0.51236082431E+01  0.51332840630E+01  0.51100000000E-03 0.  1.
        -11    1    4    4    0    0  0.23579894312E+00  0.27965150756E+02 -0.12887261033E+02  0.30792641250E+02  0.51100000000E-03 0. -1.
        -12    1    4    4    0    0 -0.12831502516E+02  0.69235980324E+01  0.81372055595E+00  0.14602938323E+02  0.00000000000E+00 0.  1.
</event>
<event>
 8    1  0.7311878E-012  0.9118800E+02  0.7816164E-02  0.1184000E+00
        -11   -1    0    0    0    0  0.00000000000E+00  0.00000000000E+00  0.45593999997E+02  0.45594000000E+02  0.51100000000E-03 0.  1.
         11   -1    0    0    0    0 -0.00000000000E+00 -0.00000000000E+00 -0.45593999997E+02  0.45594000000E+02  0.51100000000E-03 0. -1.
         23    2    1    2    0    0  0.71054273576E-14  0.35527136788E-14  0.00000000000E+00  0.91188000000E+02  0.91188000000E+02 0.  0.
    9900012    2    3    3    0    0  0.36826892601E+02  0.16928973586E+02 -0.32180360512E+01  0.50528856854E+02  0.29999990894E+02 0.  0.
         12    1    3    3    0    0 -0.36826892601E+02 -0.16928973586E+02  0.32180360512E+01  0.40659143146E+02  0.00000000000E+00 0. -1.
         11    1    4    4    0    0  0.91433298022E+01  0.17490362194E+02 -0.11013906443E-01  0.19736093107E+02  0.51100000000E-03 0. -1.
        -11    1    4    4    0    0  0.20349944090E+02  0.40230525797E+01  0.17616344415E+01  0.20818466146E+02  0.51100000000E-03 0.  1.
         12    1    4    4    0    0  0.73336187089E+01 -0.45844411876E+01 -0.49686565862E+01  0.99742976015E+01  0.00000000000E+00 0. -1.
</event>
<event>
 8    1  0.7311878E-012  0.9118800E+02  0.7816164E-02  0.1184000E+00
        -11   -1    0    0    0    0  0.00000000000E+00  0.00000000000E+00  0.45593999997E+02  0.45594000000E+02  0.51100000000E-03 0. -1.
         11   -1    0    0    0    0 -0.00000000000E+00 -0.00000000000E+00 -0.45593999997E+02  0.45594000000E+02  0.51100000000E-03 0.  1.
         23    2    1    2    0    0  0.00000000000E+00 -0.35527136788E-14  0.35527136788E-14  0.91188000000E+02  0.91188000000E+02 0.  0.
    9900012    2    3    3    0    0  0.21262614034E+01 -0.27582078043E+02  0.29797213411E+02  0.50528856578E+02  0.29999990055E+02 0.  0.
        -12    1    3    3    0    0 -0.21262614034E+01  0.27582078043E+02 -0.29797213411E+02  0.40659143422E+02  0.00000000000E+00 0.  1.
         11    1    4    4    0    0  0.68624528131E+01 -0.22261306814E+02  0.11394282184E+02  0.25932387210E+02  0.51100000000E-03 0. -1.
        -11    1    4    4    0    0  0.92018004036E+00  0.22363798093E+01 -0.13025194807E+01  0.27467586746E+01  0.51100000000E-03 0.  1.
         12    1    4    4    0    0 -0.56563714501E+01 -0.75571510388E+01  0.19705450708E+02  0.21849710694E+02  0.00000000000E+00 0. -1.
</event>
<event>
 8    1  0.7311878E-012  0.9118800E+02  0.7816164E-02  0.1184000E+00
        -11   -1    0    0    0    0  0.00000000000E+00  0.00000000000E+00  0.45593999997E+02  0.45594000000E+02  0.51100000000E-03 0.  1.
         11   -1    0    0    0    0 -0.00000000000E+00 -0.00000000000E+00 -0.45593999997E+02  0.45594000000E+02  0.51100000000E-03 0. -1.
         23    2    1    2    0    0  0.35527136788E-14 -0.71054273576E-14  0.00000000000E+00  0.91188000000E+02  0.91188000000E+02 0.  0.
    9900012    2    3    3    0    0 -0.15199995703E+02 -0.35893564270E+02  0.11566252814E+02  0.50528855524E+02  0.29999986852E+02 0.  0.
        -12    1    3    3    0    0  0.15199995703E+02  0.35893564270E+02 -0.11566252814E+02  0.40659144476E+02  0.00000000000E+00 0.  1.
         11    1    4    4    0    0 -0.17897416150E+01 -0.19706288581E+02 -0.31259043460E+01  0.20032779711E+02  0.51100000000E-03 0. -1.
        -11    1    4    4    0    0 -0.20857125181E+01 -0.71945438473E+01 -0.26228920614E+01  0.79367008830E+01  0.51100000000E-03 0.  1.
        -12    1    4    4    0    0 -0.11324541570E+02 -0.89927318412E+01  0.17315049221E+02  0.22559374931E+02  0.00000000000E+00 0.  1.
</event>
<event>
 8    1  0.7311878E-012  0.9118800E+02  0.7816164E-02  0.1184000E+00
        -11   -1    0    0    0    0  0.00000000000E+00  0.00000000000E+00  0.45593999997E+02  0.45594000000E+02  0.51100000000E-03 0. -1.
         11   -1    0    0    0    0 -0.00000000000E+00 -0.00000000000E+00 -0.45593999997E+02  0.45594000000E+02  0.51100000000E-03 0.  1.
         23    2    1    2    0    0  0.88817841970E-15  0.00000000000E+00 -0.17763568394E-14  0.91188000000E+02  0.91188000000E+02 0.  0.
    9900012    2    3    3    0    0  0.56938820760E+01  0.38975082242E+02  0.10084051445E+02  0.50528862990E+02  0.30000009544E+02 0.  0.
        -12    1    3    3    0    0 -0.56938820760E+01 -0.38975082242E+02 -0.10084051445E+02  0.40659137010E+02  0.00000000000E+00 0.  1.
         11    1    4    4    0    0 -0.33427359090E+01 -0.63729949478E+00 -0.63574155679E+00  0.34618205603E+01  0.51100000000E-03 0. -1.
        -11    1    4    4    0    0 -0.18386339143E+01  0.29791065566E+02  0.12392690912E+02  0.32318213913E+02  0.51100000000E-03 0.  1.
         12    1    4    4    0    0  0.10875251899E+02  0.98213161710E+01 -0.16728979106E+01  0.14748828517E+02  0.00000000000E+00 0. -1.
</event>
<event>
 8    1  0.1474252E-011  0.9118800E+02  0.7816164E-02  0.1184000E+00
        -11   -1    0    0    0    0  0.00000000000E+00  0.00000000000E+00  0.45593999997E+02  0.45594000000E+02  0.51100000000E-03 0.  1.
         11   -1    0    0    0    0 -0.00000000000E+00 -0.00000000000E+00 -0.45593999997E+02  0.45594000000E+02  0.51100000000E-03 0. -1.
         23    2    1    2    0    0 -0.35527136788E-14  0.00000000000E+00  0.00000000000E+00  0.91188000000E+02  0.91188000000E+02 0.  0.
    9900012    2    3    3    0    0  0.31953071121E+02 -0.15617242274E+02 -0.19704520989E+02  0.50528866244E+02  0.30000019437E+02 0.  0.
         12    1    3    3    0    0 -0.31953071121E+02  0.15617242274E+02  0.19704520989E+02  0.40659133756E+02  0.00000000000E+00 0. -1.
         11    1    4    4    0    0  0.13288033250E+02  0.60991300939E+01 -0.73878689448E+01  0.16381447536E+02  0.51100000000E-03 0. -1.
        -11    1    4    4    0    0  0.14396704920E+02 -0.60587848057E+01 -0.59815373779E+01  0.16725811656E+02  0.51100000000E-03 0.  1.
         12    1    4    4    0    0  0.42683329506E+01 -0.15657587563E+02 -0.63351146666E+01  0.17421607053E+02  0.00000000000E+00 0. -1.
</event>
<event>
 8    1  0.7311878E-012  0.9118800E+02  0.7816164E-02  0.1184000E+00
        -11   -1    0    0    0    0  0.00000000000E+00  0.00000000000E+00  0.45593999997E+02  0.45594000000E+02  0.51100000000E-03 0. -1.
         11   -1    0    0    0    0 -0.00000000000E+00 -0.00000000000E+00 -0.45593999997E+02  0.45594000000E+02  0.51100000000E-03 0.  1.
         23    2    1    2    0    0 -0.17763568394E-14  0.35527136788E-14 -0.71054273576E-14  0.91188000000E+02  0.91188000000E+02 0.  0.
    9900012    2    3    3    0    0  0.11260931279E+02 -0.19766572417E+02  0.33699244752E+02  0.50528867505E+02  0.30000023270E+02 0.  0.
        -12    1    3    3    0    0 -0.11260931279E+02  0.19766572417E+02 -0.33699244752E+02  0.40659132495E+02  0.00000000000E+00 0.  1.
         11    1    4    4    0    0  0.50616620121E+00 -0.13380262488E+02  0.79014970745E+01  0.15547388358E+02  0.51100000000E-03 0. -1.
        -11    1    4    4    0    0  0.12930846907E+02 -0.97044046358E+01  0.10739632280E+02  0.19409326955E+02  0.51100000000E-03 0.  1.
         12    1    4    4    0    0 -0.21760818292E+01  0.33180947069E+01  0.15058115397E+02  0.15572152193E+02  0.00000000000E+00 0. -1.
</event>
<event>
 8    1  0.7311878E-012  0.9118800E+02  0.7816164E-02  0.1184000E+00
        -11   -1    0    0    0    0  0.00000000000E+00  0.00000000000E+00  0.45593999997E+02  0.45594000000E+02  0.51100000000E-03 0. -1.
         11   -1    0    0    0    0 -0.00000000000E+00 -0.00000000000E+00 -0.45593999997E+02  0.45594000000E+02  0.51100000000E-03 0.  1.
         23    2    1    2    0    0  0.61062266354E-15  0.00000000000E+00  0.00000000000E+00  0.91188000000E+02  0.91188000000E+02 0.  0.
    9900012    2    3    3    0    0  0.25512723296E+00  0.18812035291E+02  0.36044532397E+02  0.50528854936E+02  0.29999985062E+02 0.  0.
        -12    1    3    3    0    0 -0.25512723296E+00 -0.18812035291E+02 -0.36044532397E+02  0.40659145064E+02  0.00000000000E+00 0.  1.
         11    1    4    4    0    0  0.46211117994E+01  0.13373398504E+02  0.49991934095E+01  0.15006478494E+02  0.51100000000E-03 0. -1.
        -11    1    4    4    0    0  0.32580581605E+00  0.69293640043E+01  0.39486283018E+01  0.79820987629E+01  0.51100000000E-03 0.  1.
        -12    1    4    4    0    0 -0.46917903825E+01 -0.14907272172E+01  0.27096710685E+02  0.27540277678E+02  0.00000000000E+00 0.  1.
</event>
<event>
 8    1  0.7311878E-012  0.9118800E+02  0.7816164E-02  0.1184000E+00
        -11   -1    0    0    0    0  0.00000000000E+00  0.00000000000E+00  0.45593999997E+02  0.45594000000E+02  0.51100000000E-03 0. -1.
         11   -1    0    0    0    0 -0.00000000000E+00 -0.00000000000E+00 -0.45593999997E+02  0.45594000000E+02  0.51100000000E-03 0.  1.
         23    2    1    2    0    0  0.00000000000E+00  0.44408920985E-15  0.00000000000E+00  0.91188000000E+02  0.91188000000E+02 0.  0.
    9900012    2    3    3    0    0 -0.35518060397E+02 -0.36830364854E+01  0.19443961211E+02  0.50528868189E+02  0.30000025346E+02 0.  0.
        -12    1    3    3    0    0  0.35518060397E+02  0.36830364854E+01 -0.19443961211E+02  0.40659131811E+02  0.00000000000E+00 0.  1.
         11    1    4    4    0    0 -0.10357333016E+02 -0.21077479552E+01  0.12449473702E+02  0.16331146450E+02  0.51100000000E-03 0. -1.
        -11    1    4    4    0    0 -0.29285747615E+02 -0.18042979364E+01  0.60037289753E+01  0.29949211446E+02  0.51100000000E-03 0.  1.
        -12    1    4    4    0    0  0.41250202336E+01  0.22900940616E+00  0.99075853342E+00  0.42485102927E+01  0.00000000000E+00 0.  1.
</event>
<event>
 8    1  0.7311878E-012  0.9118800E+02  0.7816164E-02  0.1184000E+00
        -11   -1    0    0    0    0  0.00000000000E+00  0.00000000000E+00  0.45593999997E+02  0.45594000000E+02  0.51100000000E-03 0. -1.
         11   -1    0    0    0    0 -0.00000000000E+00 -0.00000000000E+00 -0.45593999997E+02  0.45594000000E+02  0.51100000000E-03 0.  1.
         23    2    1    2    0    0  0.00000000000E+00  0.00000000000E+00  0.00000000000E+00  0.91188000000E+02  0.91188000000E+02 0.  0.
    9900012    2    3    3    0    0 -0.89870835398E+01  0.24833464979E+02  0.30914359808E+02  0.50528852250E+02  0.29999976898E+02 0.  0.
        -12    1    3    3    0    0  0.89870835398E+01 -0.24833464979E+02 -0.30914359808E+02  0.40659147750E+02  0.00000000000E+00 0.  1.
         11    1    4    4    0    0  0.19789222932E+01 -0.16868653993E+00 -0.17937280348E+01  0.26762004998E+01  0.51100000000E-03 0.  1.
        -11    1    4    4    0    0 -0.95994050885E+01  0.11676219729E+00  0.12533332530E+02  0.15787546866E+02  0.51100000000E-03 0. -1.
         12    1    4    4    0    0 -0.13666007445E+01  0.24885389322E+02  0.20174755313E+02  0.32065104884E+02  0.00000000000E+00 0. -1.
</event>
<event>
 8    1  0.7311878E-012  0.9118800E+02  0.7816164E-02  0.1184000E+00
        -11   -1    0    0    0    0  0.00000000000E+00  0.00000000000E+00  0.45593999997E+02  0.45594000000E+02  0.51100000000E-03 0. -1.
         11   -1    0    0    0    0 -0.00000000000E+00 -0.00000000000E+00 -0.45593999997E+02  0.45594000000E+02  0.51100000000E-03 0.  1.
         23    2    1    2    0    0  0.17763568394E-14  0.00000000000E+00  0.71054273576E-14  0.91188000000E+02  0.91188000000E+02 0.  0.
    9900012    2    3    3    0    0  0.14733844809E+02  0.80530145950E+01  0.37030098110E+02  0.50528863352E+02  0.30000010645E+02 0.  0.
        -12    1    3    3    0    0 -0.14733844809E+02 -0.80530145950E+01 -0.37030098110E+02  0.40659136648E+02  0.00000000000E+00 0.  1.
         11    1    4    4    0    0 -0.49755918050E+01 -0.10161648509E+01  0.11708601882E+01  0.52115274781E+01  0.51100000000E-03 0. -1.
        -11    1    4    4    0    0  0.65708842298E+01 -0.19713640274E-01  0.58860528657E+00  0.65972240097E+01  0.51100000000E-03 0.  1.
         12    1    4    4    0    0  0.13138552384E+02  0.90888930861E+01  0.35270632635E+02  0.38720111864E+02  0.00000000000E+00 0. -1.
</event>
<event>
 8    1  0.7311878E-012  0.9118800E+02  0.7816164E-02  0.1184000E+00
        -11   -1    0    0    0    0  0.00000000000E+00  0.00000000000E+00  0.45593999997E+02  0.45594000000E+02  0.51100000000E-03 0. -1.
         11   -1    0    0    0    0 -0.00000000000E+00 -0.00000000000E+00 -0.45593999997E+02  0.45594000000E+02  0.51100000000E-03 0.  1.
         23    2    1    2    0    0  0.00000000000E+00 -0.35527136788E-14  0.35527136788E-14  0.91188000000E+02  0.91188000000E+02 0.  0.
    9900012    2    3    3    0    0 -0.85308620422E+01  0.24899631868E+02 -0.30990283247E+02  0.50528869044E+02  0.30000027948E+02 0.  0.
         12    1    3    3    0    0  0.85308620422E+01 -0.24899631868E+02  0.30990283247E+02  0.40659130956E+02  0.00000000000E+00 0. -1.
         11    1    4    4    0    0  0.56839251905E+01  0.32263280432E+01  0.27429519018E+01  0.70880169025E+01  0.51100000000E-03 0. -1.
        -11    1    4    4    0    0  0.14055586806E+00  0.56792072018E+01 -0.50625829664E+01  0.76093953075E+01  0.51100000000E-03 0.  1.
         12    1    4    4    0    0 -0.14355343101E+02  0.15994096623E+02 -0.28670652183E+02  0.35831456834E+02  0.00000000000E+00 0. -1.
</event>
<event>
 8    1  0.7311878E-012  0.9118800E+02  0.7816164E-02  0.1184000E+00
        -11   -1    0    0    0    0  0.00000000000E+00  0.00000000000E+00  0.45593999997E+02  0.45594000000E+02  0.51100000000E-03 0. -1.
         11   -1    0    0    0    0 -0.00000000000E+00 -0.00000000000E+00 -0.45593999997E+02  0.45594000000E+02  0.51100000000E-03 0.  1.
         23    2    1    2    0    0  0.00000000000E+00 -0.35527136788E-14  0.00000000000E+00  0.91188000000E+02  0.91188000000E+02 0.  0.
    9900012    2    3    3    0    0  0.17524439041E+02 -0.23447180745E+02 -0.28218611279E+02  0.50528852553E+02  0.29999977820E+02 0.  0.
         12    1    3    3    0    0 -0.17524439041E+02  0.23447180745E+02  0.28218611279E+02  0.40659147447E+02  0.00000000000E+00 0. -1.
         11    1    4    4    0    0  0.13276355421E+02 -0.60740792285E+01 -0.15581152777E+02  0.21352479338E+02  0.51100000000E-03 0. -1.
        -11    1    4    4    0    0  0.58384284159E+01 -0.17050954655E+02 -0.16843419235E+02  0.24668260433E+02  0.51100000000E-03 0.  1.
        -12    1    4    4    0    0 -0.15903447959E+01 -0.32214686168E+00  0.42059607329E+01  0.45081127822E+01  0.00000000000E+00 0.  1.
</event>
<event>
 8    1  0.7311878E-012  0.9118800E+02  0.7816164E-02  0.1184000E+00
        -11   -1    0    0    0    0  0.00000000000E+00  0.00000000000E+00  0.45593999997E+02  0.45594000000E+02  0.51100000000E-03 0. -1.
         11   -1    0    0    0    0 -0.00000000000E+00 -0.00000000000E+00 -0.45593999997E+02  0.45594000000E+02  0.51100000000E-03 0.  1.
         23    2    1    2    0    0 -0.71054273576E-14  0.17763568394E-14  0.00000000000E+00  0.91188000000E+02  0.91188000000E+02 0.  0.
    9900012    2    3    3    0    0  0.33343521997E+02 -0.76858889950E+01  0.21961386592E+02  0.50528857734E+02  0.29999993567E+02 0.  0.
        -12    1    3    3    0    0 -0.33343521997E+02  0.76858889950E+01 -0.21961386592E+02  0.40659142266E+02  0.00000000000E+00 0.  1.
         11    1    4    4    0    0  0.37631658635E+01  0.19608632496E+01  0.57601812340E+01  0.71544454788E+01  0.51100000000E-03 0. -1.
        -11    1    4    4    0    0  0.26548183309E+01  0.67164278775E+01  0.80793206610E+01  0.10836691673E+02  0.51100000000E-03 0.  1.
        -12    1    4    4    0    0  0.26925537802E+02 -0.16363180122E+02  0.81218846967E+01  0.32537720582E+02  0.00000000000E+00 0.  1.
</event>
<event>
 8    1  0.7311878E-012  0.9118800E+02  0.7816164E-02  0.1184000E+00
        -11   -1    0    0    0    0  0.00000000000E+00  0.00000000000E+00  0.45593999997E+02  0.45594000000E+02  0.51100000000E-03 0. -1.
         11   -1    0    0    0    0 -0.00000000000E+00 -0.00000000000E+00 -0.45593999997E+02  0.45594000000E+02  0.51100000000E-03 0.  1.
         23    2    1    2    0    0 -0.35527136788E-14  0.00000000000E+00  0.35527136788E-14  0.91188000000E+02  0.91188000000E+02 0.  0.
    9900012    2    3    3    0    0  0.16648363769E+02  0.27232709202E+02 -0.25186864269E+02  0.50528848529E+02  0.29999965588E+02 0.  0.
         12    1    3    3    0    0 -0.16648363769E+02 -0.27232709202E+02  0.25186864269E+02  0.40659151471E+02  0.00000000000E+00 0. -1.
         11    1    4    4    0    0  0.11438773342E+02 -0.45317668932E+00 -0.13812551170E+02  0.17939829285E+02  0.51100000000E-03 0. -1.
        -11    1    4    4    0    0  0.38404222225E+01  0.13079261813E+01 -0.22798046140E+01  0.46537106788E+01  0.51100000000E-03 0.  1.
        -12    1    4    4    0    0  0.13691682040E+01  0.26377959710E+02 -0.90945084852E+01  0.27935308565E+02  0.00000000000E+00 0.  1.
</event>
<event>
 8    1  0.7311878E-012  0.9118800E+02  0.7816164E-02  0.1184000E+00
        -11   -1    0    0    0    0  0.00000000000E+00  0.00000000000E+00  0.45593999997E+02  0.45594000000E+02  0.51100000000E-03 0. -1.
         11   -1    0    0    0    0 -0.00000000000E+00 -0.00000000000E+00 -0.45593999997E+02  0.45594000000E+02  0.51100000000E-03 0.  1.
         23    2    1    2    0    0  0.00000000000E+00  0.00000000000E+00  0.17763568394E-14  0.91188000000E+02  0.91188000000E+02 0.  0.
    9900012    2    3    3    0    0  0.36434894467E+02  0.10263398359E+02 -0.14843502591E+02  0.50528825760E+02  0.29999896381E+02 0.  0.
         12    1    3    3    0    0 -0.36434894467E+02 -0.10263398359E+02  0.14843502591E+02  0.40659174240E+02  0.00000000000E+00 0. -1.
         11    1    4    4    0    0 -0.22225023142E+01 -0.39798206166E+01 -0.13131545438E+01  0.47437183511E+01  0.51100000000E-03 0. -1.
        -11    1    4    4    0    0  0.13049735284E+02  0.65982310111E+00  0.14661076289E+01  0.13148400258E+02  0.51100000000E-03 0.  1.
        -12    1    4    4    0    0  0.25607661497E+02  0.13583395875E+02 -0.14996455676E+02  0.32636707151E+02  0.00000000000E+00 0.  1.
</event>
<event>
 8    1  0.7311878E-012  0.9118800E+02  0.7816164E-02  0.1184000E+00
        -11   -1    0    0    0    0  0.00000000000E+00  0.00000000000E+00  0.45593999997E+02  0.45594000000E+02  0.51100000000E-03 0. -1.
         11   -1    0    0    0    0 -0.00000000000E+00 -0.00000000000E+00 -0.45593999997E+02  0.45594000000E+02  0.51100000000E-03 0.  1.
         23    2    1    2    0    0  0.00000000000E+00  0.00000000000E+00  0.00000000000E+00  0.91188000000E+02  0.91188000000E+02 0.  0.
    9900012    2    3    3    0    0  0.32011970345E+02 -0.15567882789E+00 -0.25067403104E+02  0.50528865975E+02  0.30000018617E+02 0.  0.
         12    1    3    3    0    0 -0.32011970345E+02  0.15567882789E+00  0.25067403104E+02  0.40659134025E+02  0.00000000000E+00 0. -1.
         11    1    4    4    0    0 -0.15578192335E+01 -0.11242843861E+01 -0.90377117268E+00  0.21231153381E+01  0.51100000000E-03 0. -1.
        -11    1    4    4    0    0 -0.13234353769E+01 -0.71457280372E+00  0.35231655108E+01  0.38307689784E+01  0.51100000000E-03 0.  1.
        -12    1    4    4    0    0  0.34893224956E+02  0.16831783620E+01 -0.27686797443E+02  0.44574981658E+02  0.00000000000E+00 0.  1.
</event>
<event>
 8    1  0.7311878E-012  0.9118800E+02  0.7816164E-02  0.1184000E+00
        -11   -1    0    0    0    0  0.00000000000E+00  0.00000000000E+00  0.45593999997E+02  0.45594000000E+02  0.51100000000E-03 0. -1.
         11   -1    0    0    0    0 -0.00000000000E+00 -0.00000000000E+00 -0.45593999997E+02  0.45594000000E+02  0.51100000000E-03 0.  1.
         23    2    1    2    0    0 -0.17763568394E-14  0.17763568394E-14  0.00000000000E+00  0.91188000000E+02  0.91188000000E+02 0.  0.
    9900012    2    3    3    0    0 -0.13135649807E+02 -0.14216055444E+02  0.35756449207E+02  0.50528865871E+02  0.30000018302E+02 0.  0.
        -12    1    3    3    0    0  0.13135649807E+02  0.14216055444E+02 -0.35756449207E+02  0.40659134129E+02  0.00000000000E+00 0.  1.
         11    1    4    4    0    0 -0.30184976642E+01  0.40732561561E+00  0.22690771702E+02  0.22894286689E+02  0.51100000000E-03 0. -1.
        -11    1    4    4    0    0  0.12062147652E+00 -0.20692405429E+01 -0.37504102613E+01  0.42850768201E+01  0.51100000000E-03 0.  1.
         12    1    4    4    0    0 -0.10237773619E+02 -0.12554140517E+02  0.16816087766E+02  0.23349502362E+02  0.00000000000E+00 0. -1.
</event>
<event>
 8    1  0.7311878E-012  0.9118800E+02  0.7816164E-02  0.1184000E+00
        -11   -1    0    0    0    0  0.00000000000E+00  0.00000000000E+00  0.45593999997E+02  0.45594000000E+02  0.51100000000E-03 0.  1.
         11   -1    0    0    0    0 -0.00000000000E+00 -0.00000000000E+00 -0.45593999997E+02  0.45594000000E+02  0.51100000000E-03 0. -1.
         23    2    1    2    0    0  0.00000000000E+00 -0.71054273576E-14  0.00000000000E+00  0.91188000000E+02  0.91188000000E+02 0.  0.
    9900012    2    3    3    0    0  0.22087420646E+02 -0.33045590323E+02 -0.85616311614E+01  0.50528847048E+02  0.29999961088E+02 0.  0.
         12    1    3    3    0    0 -0.22087420646E+02  0.33045590323E+02  0.85616311614E+01  0.40659152952E+02  0.00000000000E+00 0. -1.
         11    1    4    4    0    0  0.11801490622E+02 -0.11970562954E+02  0.11248838223E+01  0.16847401052E+02  0.51100000000E-03 0. -1.
        -11    1    4    4    0    0  0.12977425794E+02 -0.20154494101E+02 -0.40582858206E+00  0.23974609690E+02  0.51100000000E-03 0.  1.
         12    1    4    4    0    0 -0.26914957700E+01 -0.92053326841E+00 -0.92806864017E+01  0.97068363056E+01  0.00000000000E+00 0. -1.
</event>
<event>
 8    1  0.7311878E-012  0.9118800E+02  0.7816164E-02  0.1184000E+00
        -11   -1    0    0    0    0  0.00000000000E+00  0.00000000000E+00  0.45593999997E+02  0.45594000000E+02  0.51100000000E-03 0. -1.
         11   -1    0    0    0    0 -0.00000000000E+00 -0.00000000000E+00 -0.45593999997E+02  0.45594000000E+02  0.51100000000E-03 0.  1.
         23    2    1    2    0    0  0.00000000000E+00  0.44408920985E-15  0.00000000000E+00  0.91188000000E+02  0.91188000000E+02 0.  0.
    9900012    2    3    3    0    0 -0.40313999438E+02 -0.39323975151E+01 -0.35331897417E+01  0.50528859199E+02  0.29999998021E+02 0.  0.
        -12    1    3    3    0    0  0.40313999438E+02  0.39323975151E+01  0.35331897417E+01  0.40659140801E+02  0.00000000000E+00 0.  1.
         11    1    4    4    0    0 -0.16218590169E+02  0.92691795747E-01  0.13393795833E+01  0.16274065158E+02  0.51100000000E-03 0. -1.
        -11    1    4    4    0    0  0.78075049039E+00  0.39912642719E+01  0.48854590208E+01  0.63566871813E+01  0.51100000000E-03 0.  1.
         12    1    4    4    0    0 -0.24876159759E+02 -0.80163535827E+01 -0.97580283457E+01  0.27898106859E+02  0.00000000000E+00 0. -1.
</event>
<event>
 8    1  0.7311878E-012  0.9118800E+02  0.7816164E-02  0.1184000E+00
        -11   -1    0    0    0    0  0.00000000000E+00  0.00000000000E+00  0.45593999997E+02  0.45594000000E+02  0.51100000000E-03 0.  1.
         11   -1    0    0    0    0 -0.00000000000E+00 -0.00000000000E+00 -0.45593999997E+02  0.45594000000E+02  0.51100000000E-03 0. -1.
         23    2    1    2    0    0  0.00000000000E+00  0.17763568394E-14  0.00000000000E+00  0.91188000000E+02  0.91188000000E+02 0.  0.
    9900012    2    3    3    0    0 -0.35688295543E+02  0.13915129795E+02  0.13633943186E+02  0.50528810598E+02  0.29999850295E+02 0.  0.
         12    1    3    3    0    0  0.35688295543E+02 -0.13915129795E+02 -0.13633943186E+02  0.40659189402E+02  0.00000000000E+00 0. -1.
         11    1    4    4    0    0 -0.19659528520E+02  0.48466430535E+01  0.20589283409E+01  0.20352547670E+02  0.51100000000E-03 0. -1.
        -11    1    4    4    0    0 -0.14355950349E+02  0.11377013888E+02  0.16390571836E+02  0.24580085452E+02  0.51100000000E-03 0.  1.
         12    1    4    4    0    0 -0.16728166746E+01 -0.23085271462E+01 -0.48155569912E+01  0.55961774764E+01  0.00000000000E+00 0. -1.
</event>
<event>
 8    1  0.7311878E-012  0.9118800E+02  0.7816164E-02  0.1184000E+00
        -11   -1    0    0    0    0  0.00000000000E+00  0.00000000000E+00  0.45593999997E+02  0.45594000000E+02  0.51100000000E-03 0. -1.
         11   -1    0    0    0    0 -0.00000000000E+00 -0.00000000000E+00 -0.45593999997E+02  0.45594000000E+02  0.51100000000E-03 0.  1.
         23    2    1    2    0    0 -0.22204460493E-15 -0.35527136788E-14  0.00000000000E+00  0.91188000000E+02  0.91188000000E+02 0.  0.
    9900012    2    3    3    0    0 -0.12255416689E+01 -0.29772765496E+02 -0.27663083534E+02  0.50528859474E+02  0.29999998858E+02 0.  0.
         12    1    3    3    0    0  0.12255416689E+01  0.29772765496E+02  0.27663083534E+02  0.40659140526E+02  0.00000000000E+00 0. -1.
         11    1    4    4    0    0 -0.15598843343E+01 -0.81257839298E+01  0.26590332394E+01  0.86909183427E+01  0.51100000000E-03 0. -1.
        -11    1    4    4    0    0 -0.53213675834E+01 -0.18197987726E+02 -0.12207560874E+02  0.22550127561E+02  0.51100000000E-03 0.  1.
        -12    1    4    4    0    0  0.56557102488E+01 -0.34489938401E+01 -0.18114555899E+02  0.19287813571E+02  0.00000000000E+00 0.  1.
</event>
<event>
 8    1  0.7311878E-012  0.9118800E+02  0.7816164E-02  0.1184000E+00
        -11   -1    0    0    0    0  0.00000000000E+00  0.00000000000E+00  0.45593999997E+02  0.45594000000E+02  0.51100000000E-03 0. -1.
         11   -1    0    0    0    0 -0.00000000000E+00 -0.00000000000E+00 -0.45593999997E+02  0.45594000000E+02  0.51100000000E-03 0.  1.
         23    2    1    2    0    0  0.00000000000E+00  0.00000000000E+00  0.00000000000E+00  0.91188000000E+02  0.91188000000E+02 0.  0.
    9900012    2    3    3    0    0 -0.31540028887E+02  0.22810014768E+02 -0.11751442149E+02  0.50528848650E+02  0.29999965956E+02 0.  0.
         12    1    3    3    0    0  0.31540028887E+02 -0.22810014768E+02  0.11751442149E+02  0.40659151350E+02  0.00000000000E+00 0. -1.
         11    1    4    4    0    0  0.36512898379E+00  0.28004284443E+01  0.86392963607E+00  0.29533190352E+01  0.51100000000E-03 0. -1.
        -11    1    4    4    0    0 -0.18766687210E+02  0.21225149859E+02 -0.17732305206E+02  0.33423497476E+02  0.51100000000E-03 0.  1.
        -12    1    4    4    0    0 -0.13138470661E+02 -0.12155635347E+01  0.51169334212E+01  0.14152032138E+02  0.00000000000E+00 0.  1.
</event>
<event>
 8    1  0.7311878E-012  0.9118800E+02  0.7816164E-02  0.1184000E+00
        -11   -1    0    0    0    0  0.00000000000E+00  0.00000000000E+00  0.45593999997E+02  0.45594000000E+02  0.51100000000E-03 0. -1.
         11   -1    0    0    0    0 -0.00000000000E+00 -0.00000000000E+00 -0.45593999997E+02  0.45594000000E+02  0.51100000000E-03 0.  1.
         23    2    1    2    0    0  0.17763568394E-14  0.00000000000E+00  0.00000000000E+00  0.91188000000E+02  0.91188000000E+02 0.  0.
    9900012    2    3    3    0    0  0.12657499736E+02  0.16775319943E+02 -0.34807220021E+02  0.50528853128E+02  0.29999979569E+02 0.  0.
         12    1    3    3    0    0 -0.12657499736E+02 -0.16775319943E+02  0.34807220021E+02  0.40659146872E+02  0.00000000000E+00 0. -1.
         11    1    4    4    0    0 -0.46962146727E+01 -0.12083156442E+01 -0.89978021601E+01  0.10221296538E+02  0.51100000000E-03 0. -1.
        -11    1    4    4    0    0  0.16037057047E+02  0.15679097786E+02 -0.28673228415E+02  0.36402957766E+02  0.51100000000E-03 0.  1.
         12    1    4    4    0    0  0.13166573617E+01  0.23045378011E+01  0.28638105546E+01  0.39045988241E+01  0.00000000000E+00 0. -1.
</event>
<event>
 8    1  0.7311878E-012  0.9118800E+02  0.7816164E-02  0.1184000E+00
        -11   -1    0    0    0    0  0.00000000000E+00  0.00000000000E+00  0.45593999997E+02  0.45594000000E+02  0.51100000000E-03 0. -1.
         11   -1    0    0    0    0 -0.00000000000E+00 -0.00000000000E+00 -0.45593999997E+02  0.45594000000E+02  0.51100000000E-03 0.  1.
         23    2    1    2    0    0  0.00000000000E+00 -0.88817841970E-15  0.00000000000E+00  0.91188000000E+02  0.91188000000E+02 0.  0.
    9900012    2    3    3    0    0 -0.28274348191E+02  0.77875366987E+01  0.28161701173E+02  0.50528857038E+02  0.29999991452E+02 0.  0.
        -12    1    3    3    0    0  0.28274348191E+02 -0.77875366987E+01 -0.28161701173E+02  0.40659142962E+02  0.00000000000E+00 0.  1.
         11    1    4    4    0    0 -0.24477597640E+01  0.45185369023E+01  0.13032362727E+01  0.53016156634E+01  0.51100000000E-03 0.  1.
        -11    1    4    4    0    0 -0.11013765613E+02 -0.78637558069E+01  0.12120814415E+01  0.13587156805E+02  0.51100000000E-03 0. -1.
         12    1    4    4    0    0 -0.14812822814E+02  0.11132755603E+02  0.25646383459E+02  0.31640084570E+02  0.00000000000E+00 0. -1.
</event>
<event>
 8    1  0.7311878E-012  0.9118800E+02  0.7816164E-02  0.1184000E+00
        -11   -1    0    0    0    0  0.00000000000E+00  0.00000000000E+00  0.45593999997E+02  0.45594000000E+02  0.51100000000E-03 0. -1.
         11   -1    0    0    0    0 -0.00000000000E+00 -0.00000000000E+00 -0.45593999997E+02  0.45594000000E+02  0.51100000000E-03 0.  1.
         23    2    1    2    0    0  0.35527136788E-14  0.00000000000E+00 -0.35527136788E-14  0.91188000000E+02  0.91188000000E+02 0.  0.
    9900012    2    3    3    0    0  0.21890282649E+02  0.30071429160E+02  0.16422256351E+02  0.50528857980E+02  0.29999994315E+02 0.  0.
        -12    1    3    3    0    0 -0.21890282649E+02 -0.30071429160E+02 -0.16422256351E+02  0.40659142020E+02  0.00000000000E+00 0.  1.
         11    1    4    4    0    0  0.13698049811E+02  0.18239737198E+02  0.22071849325E+02  0.31741000529E+02  0.51100000000E-03 0. -1.
        -11    1    4    4    0    0 -0.22342037626E+01  0.38555846112E+01  0.98288433510E-01  0.44572255972E+01  0.51100000000E-03 0.  1.
        -12    1    4    4    0    0  0.10426436600E+02  0.79761073509E+01 -0.57478814074E+01  0.14330631854E+02  0.00000000000E+00 0.  1.
</event>
<event>
 8    1  0.9339505E-012  0.9118800E+02  0.7816164E-02  0.1184000E+00
        -11   -1    0    0    0    0  0.00000000000E+00  0.00000000000E+00  0.45593999997E+02  0.45594000000E+02  0.51100000000E-03 0. -1.
         11   -1    0    0    0    0 -0.00000000000E+00 -0.00000000000E+00 -0.45593999997E+02  0.45594000000E+02  0.51100000000E-03 0.  1.
         23    2    1    2    0    0  0.00000000000E+00  0.00000000000E+00  0.00000000000E+00  0.91188000000E+02  0.91188000000E+02 0.  0.
    9900012    2    3    3    0    0  0.15433166897E+02 -0.23519010742E+02 -0.29357098319E+02  0.50528859226E+02  0.29999998103E+02 0.  0.
         12    1    3    3    0    0 -0.15433166897E+02  0.23519010742E+02  0.29357098319E+02  0.40659140774E+02  0.00000000000E+00 0. -1.
         11    1    4    4    0    0  0.30494470539E+00 -0.17118953124E+01 -0.16102357252E+02  0.16195971294E+02  0.51100000000E-03 0.  1.
        -11    1    4    4    0    0  0.10637003438E+02 -0.37731344461E+01 -0.10738035255E+02  0.15578439815E+02  0.51100000000E-03 0. -1.
         12    1    4    4    0    0  0.44912187543E+01 -0.18033980984E+02 -0.25167058123E+01  0.18754448117E+02  0.00000000000E+00 0. -1.
</event>
<event>
 8    1  0.7311878E-012  0.9118800E+02  0.7816164E-02  0.1184000E+00
        -11   -1    0    0    0    0  0.00000000000E+00  0.00000000000E+00  0.45593999997E+02  0.45594000000E+02  0.51100000000E-03 0. -1.
         11   -1    0    0    0    0 -0.00000000000E+00 -0.00000000000E+00 -0.45593999997E+02  0.45594000000E+02  0.51100000000E-03 0.  1.
         23    2    1    2    0    0  0.35527136788E-14  0.00000000000E+00  0.71054273576E-14  0.91188000000E+02  0.91188000000E+02 0.  0.
    9900012    2    3    3    0    0  0.31379941288E+02 -0.12553436770E+02  0.22602565877E+02  0.50528862353E+02  0.30000007608E+02 0.  0.
        -12    1    3    3    0    0 -0.31379941288E+02  0.12553436770E+02 -0.22602565877E+02  0.40659137647E+02  0.00000000000E+00 0.  1.
         11    1    4    4    0    0  0.50801906949E+01 -0.77147502938E+01 -0.45105865171E+01  0.10279644964E+02  0.51100000000E-03 0. -1.
        -11    1    4    4    0    0  0.12271472280E+02 -0.88359867641E+00  0.40240505567E+01  0.12944603574E+02  0.51100000000E-03 0.  1.
         12    1    4    4    0    0  0.14028278313E+02 -0.39550877997E+01  0.23089101838E+02  0.27304613815E+02  0.00000000000E+00 0. -1.
</event>
<event>
 8    1  0.7311878E-012  0.9118800E+02  0.7816164E-02  0.1184000E+00
        -11   -1    0    0    0    0  0.00000000000E+00  0.00000000000E+00  0.45593999997E+02  0.45594000000E+02  0.51100000000E-03 0. -1.
         11   -1    0    0    0    0 -0.00000000000E+00 -0.00000000000E+00 -0.45593999997E+02  0.45594000000E+02  0.51100000000E-03 0.  1.
         23    2    1    2    0    0  0.00000000000E+00  0.88817841970E-15  0.00000000000E+00  0.91188000000E+02  0.91188000000E+02 0.  0.
    9900012    2    3    3    0    0  0.46217052471E+01 -0.64665795367E+01 -0.39874665074E+02  0.50528859268E+02  0.29999998231E+02 0.  0.
         12    1    3    3    0    0 -0.46217052471E+01  0.64665795367E+01  0.39874665074E+02  0.40659140732E+02  0.00000000000E+00 0. -1.
         11    1    4    4    0    0 -0.20165909850E+01  0.42465049194E+01  0.23344725684E+01  0.52487337201E+01  0.51100000000E-03 0. -1.
        -11    1    4    4    0    0 -0.36988477776E+00  0.13656382944E+01 -0.10981870525E+02  0.11072635783E+02  0.51100000000E-03 0.  1.
         12    1    4    4    0    0  0.70081810099E+01 -0.12078722750E+02 -0.31227267118E+02  0.34207489764E+02  0.00000000000E+00 0. -1.
</event>
<event>
 8    1  0.7311878E-012  0.9118800E+02  0.7816164E-02  0.1184000E+00
        -11   -1    0    0    0    0  0.00000000000E+00  0.00000000000E+00  0.45593999997E+02  0.45594000000E+02  0.51100000000E-03 0. -1.
         11   -1    0    0    0    0 -0.00000000000E+00 -0.00000000000E+00 -0.45593999997E+02  0.45594000000E+02  0.51100000000E-03 0.  1.
         23    2    1    2    0    0 -0.88817841970E-15  0.35527136788E-14  0.00000000000E+00  0.91188000000E+02  0.91188000000E+02 0.  0.
    9900012    2    3    3    0    0  0.40572675983E+01 -0.25443314427E+02  0.31453838437E+02  0.50528835943E+02  0.29999927331E+02 0.  0.
        -12    1    3    3    0    0 -0.40572675983E+01  0.25443314427E+02 -0.31453838437E+02  0.40659164057E+02  0.00000000000E+00 0.  1.
         11    1    4    4    0    0  0.38986641145E+00  0.22224757121E+01 -0.36387148516E+01  0.42815464661E+01  0.51100000000E-03 0. -1.
        -11    1    4    4    0    0 -0.16952245797E+01 -0.71940249158E+01  0.33926189558E+01  0.81325054261E+01  0.51100000000E-03 0.  1.
         12    1    4    4    0    0  0.53626257666E+01 -0.20471765223E+02  0.31699934333E+02  0.38114784050E+02  0.00000000000E+00 0. -1.
</event>
<event>
 8    1  0.7311878E-012  0.9118800E+02  0.7816164E-02  0.1184000E+00
        -11   -1    0    0    0    0  0.00000000000E+00  0.00000000000E+00  0.45593999997E+02  0.45594000000E+02  0.51100000000E-03 0. -1.
         11   -1    0    0    0    0 -0.00000000000E+00 -0.00000000000E+00 -0.45593999997E+02  0.45594000000E+02  0.51100000000E-03 0.  1.
         23    2    1    2    0    0  0.97404723176E-15  0.71054273576E-14 -0.71054273576E-14  0.91188000000E+02  0.91188000000E+02 0.  0.
    9900012    2    3    3    0    0 -0.51892276373E-02 -0.24113427936E+02  0.32736953547E+02  0.50528861282E+02  0.30000004353E+02 0.  0.
        -12    1    3    3    0    0  0.51892276373E-02  0.24113427936E+02 -0.32736953547E+02  0.40659138718E+02  0.00000000000E+00 0.  1.
         11    1    4    4    0    0 -0.13435970481E+01 -0.20027199667E+02  0.23160730093E+02  0.30648220147E+02  0.51100000000E-03 0. -1.
        -11    1    4    4    0    0 -0.31403279027E+01 -0.25762884851E+00  0.12787681079E+02  0.13170148807E+02  0.51100000000E-03 0.  1.
        -12    1    4    4    0    0  0.44787357232E+01 -0.38285994209E+01 -0.32114576248E+01  0.67104923277E+01  0.00000000000E+00 0.  1.
</event>
<event>
 8    1  0.7311878E-012  0.9118800E+02  0.7816164E-02  0.1184000E+00
        -11   -1    0    0    0    0  0.00000000000E+00  0.00000000000E+00  0.45593999997E+02  0.45594000000E+02  0.51100000000E-03 0.  1.
         11   -1    0    0    0    0 -0.00000000000E+00 -0.00000000000E+00 -0.45593999997E+02  0.45594000000E+02  0.51100000000E-03 0. -1.
         23    2    1    2    0    0  0.00000000000E+00  0.00000000000E+00  0.00000000000E+00  0.91188000000E+02  0.91188000000E+02 0.  0.
    9900012    2    3    3    0    0  0.38611757883E+02  0.67760375919E+01  0.10788121874E+02  0.50528854585E+02  0.29999983998E+02 0.  0.
         12    1    3    3    0    0 -0.38611757883E+02 -0.67760375919E+01 -0.10788121874E+02  0.40659145415E+02  0.00000000000E+00 0. -1.
         11    1    4    4    0    0  0.13215210123E+02 -0.11121747180E+02  0.15053072041E+01  0.17337848453E+02  0.51100000000E-03 0.  1.
        -11    1    4    4    0    0  0.18678664511E+02  0.10100126499E+02  0.84874540616E+01  0.22867923822E+02  0.51100000000E-03 0. -1.
        -12    1    4    4    0    0  0.67178832491E+01  0.77976582736E+01  0.79536060870E+00  0.10323082311E+02  0.00000000000E+00 0.  1.
</event>
<event>
 8    1  0.7311878E-012  0.9118800E+02  0.7816164E-02  0.1184000E+00
        -11   -1    0    0    0    0  0.00000000000E+00  0.00000000000E+00  0.45593999997E+02  0.45594000000E+02  0.51100000000E-03 0. -1.
         11   -1    0    0    0    0 -0.00000000000E+00 -0.00000000000E+00 -0.45593999997E+02  0.45594000000E+02  0.51100000000E-03 0.  1.
         23    2    1    2    0    0  0.17763568394E-14  0.00000000000E+00  0.00000000000E+00  0.91188000000E+02  0.91188000000E+02 0.  0.
    9900012    2    3    3    0    0 -0.14943418895E+02 -0.23490842800E+02  0.29631744789E+02  0.50528858802E+02  0.29999996814E+02 0.  0.
        -12    1    3    3    0    0  0.14943418895E+02  0.23490842800E+02 -0.29631744789E+02  0.40659141198E+02  0.00000000000E+00 0.  1.
         11    1    4    4    0    0 -0.14125813946E+02 -0.77797074222E+00  0.43838175421E+01  0.14810864749E+02  0.51100000000E-03 0. -1.
        -11    1    4    4    0    0  0.12318956486E+01  0.41984187759E+00  0.41245055632E+01  0.43249717333E+01  0.51100000000E-03 0.  1.
        -12    1    4    4    0    0 -0.20495005973E+01 -0.23132713936E+02  0.21123421684E+02  0.31393022320E+02  0.00000000000E+00 0.  1.
</event>
<event>
 8    1  0.7311878E-012  0.9118800E+02  0.7816164E-02  0.1184000E+00
        -11   -1    0    0    0    0  0.00000000000E+00  0.00000000000E+00  0.45593999997E+02  0.45594000000E+02  0.51100000000E-03 0. -1.
         11   -1    0    0    0    0 -0.00000000000E+00 -0.00000000000E+00 -0.45593999997E+02  0.45594000000E+02  0.51100000000E-03 0.  1.
         23    2    1    2    0    0  0.71054273576E-14  0.00000000000E+00  0.00000000000E+00  0.91188000000E+02  0.91188000000E+02 0.  0.
    9900012    2    3    3    0    0 -0.37690040749E+02  0.95044138580E+01  0.11928639555E+02  0.50528862084E+02  0.30000006790E+02 0.  0.
        -12    1    3    3    0    0  0.37690040749E+02 -0.95044138580E+01 -0.11928639555E+02  0.40659137916E+02  0.00000000000E+00 0.  1.
         11    1    4    4    0    0  0.80415325104E+00  0.59091837715E+01  0.54331195971E+01  0.80674595824E+01  0.51100000000E-03 0. -1.
        -11    1    4    4    0    0  0.91552902306E+00  0.15311912963E-01 -0.18088905870E+01  0.20274400765E+01  0.51100000000E-03 0.  1.
         12    1    4    4    0    0 -0.39409723023E+02  0.35799181736E+01  0.83044105451E+01  0.40433962425E+02  0.00000000000E+00 0. -1.
</event>
<event>
 8    1  0.7311878E-012  0.9118800E+02  0.7816164E-02  0.1184000E+00
        -11   -1    0    0    0    0  0.00000000000E+00  0.00000000000E+00  0.45593999997E+02  0.45594000000E+02  0.51100000000E-03 0. -1.
         11   -1    0    0    0    0 -0.00000000000E+00 -0.00000000000E+00 -0.45593999997E+02  0.45594000000E+02  0.51100000000E-03 0.  1.
         23    2    1    2    0    0 -0.17763568394E-14  0.00000000000E+00  0.00000000000E+00  0.91188000000E+02  0.91188000000E+02 0.  0.
    9900012    2    3    3    0    0 -0.10225161107E+02  0.38169003208E+02  0.95780800559E+01  0.50528851668E+02  0.29999975129E+02 0.  0.
        -12    1    3    3    0    0  0.10225161107E+02 -0.38169003208E+02 -0.95780800559E+01  0.40659148332E+02  0.00000000000E+00 0.  1.
         11    1    4    4    0    0 -0.45782359648E+01 -0.21693775943E+01 -0.64053655608E+00  0.51065380677E+01  0.51100000000E-03 0.  1.
        -11    1    4    4    0    0 -0.66029654444E+01  0.13113080485E+02  0.10714691749E+02  0.18175715997E+02  0.51100000000E-03 0. -1.
         12    1    4    4    0    0  0.95604030264E+00  0.27225300317E+02 -0.49607513667E+00  0.27246597603E+02  0.00000000000E+00 0. -1.
</event>
<event>
 8    1  0.7311878E-012  0.9118800E+02  0.7816164E-02  0.1184000E+00
        -11   -1    0    0    0    0  0.00000000000E+00  0.00000000000E+00  0.45593999997E+02  0.45594000000E+02  0.51100000000E-03 0. -1.
         11   -1    0    0    0    0 -0.00000000000E+00 -0.00000000000E+00 -0.45593999997E+02  0.45594000000E+02  0.51100000000E-03 0.  1.
         23    2    1    2    0    0  0.00000000000E+00 -0.13877787808E-14  0.00000000000E+00  0.91188000000E+02  0.91188000000E+02 0.  0.
    9900012    2    3    3    0    0  0.23877678840E+02 -0.37105113515E+00 -0.32907217092E+02  0.50528853889E+02  0.29999981881E+02 0.  0.
         12    1    3    3    0    0 -0.23877678840E+02  0.37105113515E+00  0.32907217092E+02  0.40659146111E+02  0.00000000000E+00 0. -1.
         11    1    4    4    0    0  0.51659987466E+01 -0.84204159097E+01 -0.38720570047E+01  0.10610550073E+02  0.51100000000E-03 0. -1.
        -11    1    4    4    0    0  0.15393042318E+02 -0.17528654381E+01 -0.23595341139E+02  0.28226909374E+02  0.51100000000E-03 0.  1.
        -12    1    4    4    0    0  0.33186377751E+01  0.98022302126E+01 -0.54398189483E+01  0.11691394443E+02  0.00000000000E+00 0.  1.
</event>
<event>
 8    1  0.7311878E-012  0.9118800E+02  0.7816164E-02  0.1184000E+00
        -11   -1    0    0    0    0  0.00000000000E+00  0.00000000000E+00  0.45593999997E+02  0.45594000000E+02  0.51100000000E-03 0. -1.
         11   -1    0    0    0    0 -0.00000000000E+00 -0.00000000000E+00 -0.45593999997E+02  0.45594000000E+02  0.51100000000E-03 0.  1.
         23    2    1    2    0    0  0.00000000000E+00  0.88817841970E-15  0.00000000000E+00  0.91188000000E+02  0.91188000000E+02 0.  0.
    9900012    2    3    3    0    0  0.33592821648E+02 -0.73633595841E+01 -0.21690286664E+02  0.50528864911E+02  0.30000015382E+02 0.  0.
         12    1    3    3    0    0 -0.33592821648E+02  0.73633595841E+01  0.21690286664E+02  0.40659135089E+02  0.00000000000E+00 0. -1.
         11    1    4    4    0    0  0.90359748464E+01 -0.11569819292E+02 -0.65265974317E+01  0.16065678765E+02  0.51100000000E-03 0.  1.
        -11    1    4    4    0    0 -0.75675302991E-01  0.55199916625E+01 -0.59877897782E+01  0.81443023885E+01  0.51100000000E-03 0. -1.
         12    1    4    4    0    0  0.24632522105E+02 -0.13135319545E+01 -0.91758994545E+01  0.26318883757E+02  0.00000000000E+00 0. -1.
</event>
<event>
 8    1  0.7311878E-012  0.9118800E+02  0.7816164E-02  0.1184000E+00
        -11   -1    0    0    0    0  0.00000000000E+00  0.00000000000E+00  0.45593999997E+02  0.45594000000E+02  0.51100000000E-03 0. -1.
         11   -1    0    0    0    0 -0.00000000000E+00 -0.00000000000E+00 -0.45593999997E+02  0.45594000000E+02  0.51100000000E-03 0.  1.
         23    2    1    2    0    0  0.00000000000E+00  0.35527136788E-14  0.00000000000E+00  0.91188000000E+02  0.91188000000E+02 0.  0.
    9900012    2    3    3    0    0 -0.44851671585E+01 -0.28205013469E+02  0.28940043680E+02  0.50528860346E+02  0.30000001507E+02 0.  0.
        -12    1    3    3    0    0  0.44851671585E+01  0.28205013469E+02 -0.28940043680E+02  0.40659139654E+02  0.00000000000E+00 0.  1.
         11    1    4    4    0    0  0.16882640720E+01 -0.22906499955E+02  0.25851498662E+02  0.34581179261E+02  0.51100000000E-03 0. -1.
        -11    1    4    4    0    0 -0.50421648673E+01  0.10341895150E+00  0.73924000022E+01  0.89488379180E+01  0.51100000000E-03 0.  1.
        -12    1    4    4    0    0 -0.11312663632E+01 -0.54019324654E+01 -0.43038549842E+01  0.69988431666E+01  0.00000000000E+00 0.  1.
</event>
<event>
 8    1  0.7311878E-012  0.9118800E+02  0.7816164E-02  0.1184000E+00
        -11   -1    0    0    0    0  0.00000000000E+00  0.00000000000E+00  0.45593999997E+02  0.45594000000E+02  0.51100000000E-03 0. -1.
         11   -1    0    0    0    0 -0.00000000000E+00 -0.00000000000E+00 -0.45593999997E+02  0.45594000000E+02  0.51100000000E-03 0.  1.
         23    2    1    2    0    0  0.00000000000E+00  0.00000000000E+00  0.00000000000E+00  0.91188000000E+02  0.91188000000E+02 0.  0.
    9900012    2    3    3    0    0  0.24267889401E+01  0.13055947242E+02 -0.38429400883E+02  0.50528856930E+02  0.29999991124E+02 0.  0.
         12    1    3    3    0    0 -0.24267889401E+01 -0.13055947242E+02  0.38429400883E+02  0.40659143070E+02  0.00000000000E+00 0. -1.
         11    1    4    4    0    0 -0.56798515878E+01  0.79790419224E+01 -0.12879073974E+02  0.16180122705E+02  0.51100000000E-03 0. -1.
        -11    1    4    4    0    0  0.16105954341E+01  0.66432146450E+01  0.10554333836E+01  0.69166652630E+01  0.51100000000E-03 0.  1.
        -12    1    4    4    0    0  0.64960450938E+01 -0.15663093250E+01 -0.26605760293E+02  0.27432068962E+02  0.00000000000E+00 0.  1.
</event>
<event>
 8    1  0.7311878E-012  0.9118800E+02  0.7816164E-02  0.1184000E+00
        -11   -1    0    0    0    0  0.00000000000E+00  0.00000000000E+00  0.45593999997E+02  0.45594000000E+02  0.51100000000E-03 0. -1.
         11   -1    0    0    0    0 -0.00000000000E+00 -0.00000000000E+00 -0.45593999997E+02  0.45594000000E+02  0.51100000000E-03 0.  1.
         23    2    1    2    0    0  0.00000000000E+00  0.71054273576E-14  0.35527136788E-14  0.91188000000E+02  0.91188000000E+02 0.  0.
    9900012    2    3    3    0    0  0.51370518316E+01 -0.37214741477E+02  0.15551163376E+02  0.50528868589E+02  0.30000026565E+02 0.  0.
        -12    1    3    3    0    0 -0.51370518316E+01  0.37214741477E+02 -0.15551163376E+02  0.40659131411E+02  0.00000000000E+00 0.  1.
         11    1    4    4    0    0 -0.84178069083E+01 -0.21939003730E+02  0.90828585607E+01  0.25192810040E+02  0.51100000000E-03 0. -1.
        -11    1    4    4    0    0  0.45694811191E+01 -0.65730793996E+01  0.95417002480E+01  0.12455102343E+02  0.51100000000E-03 0.  1.
        -12    1    4    4    0    0  0.89853776209E+01 -0.87026583470E+01 -0.30733954332E+01  0.12880956206E+02  0.00000000000E+00 0.  1.
</event>
<event>
 8    1  0.7311878E-012  0.9118800E+02  0.7816164E-02  0.1184000E+00
        -11   -1    0    0    0    0  0.00000000000E+00  0.00000000000E+00  0.45593999997E+02  0.45594000000E+02  0.51100000000E-03 0. -1.
         11   -1    0    0    0    0 -0.00000000000E+00 -0.00000000000E+00 -0.45593999997E+02  0.45594000000E+02  0.51100000000E-03 0.  1.
         23    2    1    2    0    0  0.00000000000E+00  0.11102230246E-14  0.71054273576E-14  0.91188000000E+02  0.91188000000E+02 0.  0.
    9900012    2    3    3    0    0  0.35567225107E+01  0.46821021877E+00 -0.40500574796E+02  0.50528855215E+02  0.29999985912E+02 0.  0.
         12    1    3    3    0    0 -0.35567225107E+01 -0.46821021877E+00  0.40500574796E+02  0.40659144785E+02  0.00000000000E+00 0. -1.
         11    1    4    4    0    0 -0.78927387401E+00  0.76923111295E+01 -0.18816584246E+02  0.20343511170E+02  0.51100000000E-03 0. -1.
        -11    1    4    4    0    0 -0.71575931147E+01 -0.16236855915E+01 -0.12281961205E+02  0.14307832309E+02  0.51100000000E-03 0.  1.
         12    1    4    4    0    0  0.11503589499E+02 -0.56004153193E+01 -0.94020293451E+01  0.15877511736E+02  0.00000000000E+00 0. -1.
</event>
<event>
 8    1  0.7311878E-012  0.9118800E+02  0.7816164E-02  0.1184000E+00
        -11   -1    0    0    0    0  0.00000000000E+00  0.00000000000E+00  0.45593999997E+02  0.45594000000E+02  0.51100000000E-03 0. -1.
         11   -1    0    0    0    0 -0.00000000000E+00 -0.00000000000E+00 -0.45593999997E+02  0.45594000000E+02  0.51100000000E-03 0.  1.
         23    2    1    2    0    0  0.10658141036E-13  0.17763568394E-14  0.00000000000E+00  0.91188000000E+02  0.91188000000E+02 0.  0.
    9900012    2    3    3    0    0 -0.25255620691E+02 -0.15998503990E+02 -0.27556602793E+02  0.50528869858E+02  0.30000030422E+02 0.  0.
         12    1    3    3    0    0  0.25255620691E+02  0.15998503990E+02  0.27556602793E+02  0.40659130142E+02  0.00000000000E+00 0. -1.
         11    1    4    4    0    0  0.12432654986E+01 -0.13803572155E+02 -0.10078050858E+02  0.17136260464E+02  0.51100000000E-03 0. -1.
        -11    1    4    4    0    0 -0.18881929993E+02 -0.49552500723E+01 -0.15810973513E+02  0.25121080137E+02  0.51100000000E-03 0.  1.
        -12    1    4    4    0    0 -0.76169561966E+01  0.27603182372E+01 -0.16675784215E+01  0.82715292579E+01  0.00000000000E+00 0.  1.
</event>
<event>
 8    1  0.1005471E-011  0.9118800E+02  0.7816164E-02  0.1184000E+00
        -11   -1    0    0    0    0  0.00000000000E+00  0.00000000000E+00  0.45593999997E+02  0.45594000000E+02  0.51100000000E-03 0. -1.
         11   -1    0    0    0    0 -0.00000000000E+00 -0.00000000000E+00 -0.45593999997E+02  0.45594000000E+02  0.51100000000E-03 0.  1.
         23    2    1    2    0    0 -0.35527136788E-14  0.35527136788E-14  0.10658141036E-13  0.91188000000E+02  0.91188000000E+02 0.  0.
    9900012    2    3    3    0    0 -0.26545632841E+02 -0.15718575885E+02 -0.26484341180E+02  0.50528873367E+02  0.30000041087E+02 0.  0.
         12    1    3    3    0    0  0.26545632841E+02  0.15718575885E+02  0.26484341180E+02  0.40659126633E+02  0.00000000000E+00 0. -1.
         11    1    4    4    0    0 -0.11238039239E+02 -0.11069027307E+01 -0.14585475806E+02  0.18445998599E+02  0.51100000000E-03 0. -1.
        -11    1    4    4    0    0 -0.16938739480E+02 -0.16316708238E+02 -0.15215941211E+02  0.28012153257E+02  0.51100000000E-03 0.  1.
         12    1    4    4    0    0  0.16311458771E+01  0.17050350840E+01  0.33170758370E+01  0.40707215107E+01  0.00000000000E+00 0. -1.
</event>
<event>
 8    1  0.7311878E-012  0.9118800E+02  0.7816164E-02  0.1184000E+00
        -11   -1    0    0    0    0  0.00000000000E+00  0.00000000000E+00  0.45593999997E+02  0.45594000000E+02  0.51100000000E-03 0. -1.
         11   -1    0    0    0    0 -0.00000000000E+00 -0.00000000000E+00 -0.45593999997E+02  0.45594000000E+02  0.51100000000E-03 0.  1.
         23    2    1    2    0    0 -0.71054273576E-14  0.00000000000E+00  0.35527136788E-14  0.91188000000E+02  0.91188000000E+02 0.  0.
    9900012    2    3    3    0    0  0.29528466147E+02  0.17083532844E+02 -0.22122113532E+02  0.50528864316E+02  0.30000013575E+02 0.  0.
         12    1    3    3    0    0 -0.29528466147E+02 -0.17083532844E+02  0.22122113532E+02  0.40659135684E+02  0.00000000000E+00 0. -1.
         11    1    4    4    0    0  0.11392223512E+02  0.19668693427E+02 -0.10600024054E+02  0.25079887717E+02  0.51100000000E-03 0. -1.
        -11    1    4    4    0    0  0.30498442636E+01 -0.26190292148E+01 -0.93877869931E+01  0.10212316532E+02  0.51100000000E-03 0.  1.
        -12    1    4    4    0    0  0.15086398371E+02  0.33868631839E-01 -0.21343024846E+01  0.15236660067E+02  0.00000000000E+00 0.  1.
</event>
<event>
 8    1  0.7311878E-012  0.9118800E+02  0.7816164E-02  0.1184000E+00
        -11   -1    0    0    0    0  0.00000000000E+00  0.00000000000E+00  0.45593999997E+02  0.45594000000E+02  0.51100000000E-03 0. -1.
         11   -1    0    0    0    0 -0.00000000000E+00 -0.00000000000E+00 -0.45593999997E+02  0.45594000000E+02  0.51100000000E-03 0.  1.
         23    2    1    2    0    0  0.35527136788E-14  0.13322676296E-14 -0.35527136788E-14  0.91188000000E+02  0.91188000000E+02 0.  0.
    9900012    2    3    3    0    0 -0.30908948145E+02 -0.38370393012E+01  0.26135795411E+02  0.50528858989E+02  0.29999997382E+02 0.  0.
        -12    1    3    3    0    0  0.30908948145E+02  0.38370393012E+01 -0.26135795411E+02  0.40659141011E+02  0.00000000000E+00 0.  1.
         11    1    4    4    0    0 -0.13470510347E+02 -0.44281012612E+01  0.20094785359E+02  0.24593965290E+02  0.51100000000E-03 0. -1.
        -11    1    4    4    0    0  0.25437129358E+01 -0.38854738930E+01  0.20298003323E+01  0.50682810226E+01  0.51100000000E-03 0.  1.
        -12    1    4    4    0    0 -0.19982150733E+02  0.44765358531E+01  0.40112097197E+01  0.20866612677E+02  0.00000000000E+00 0.  1.
</event>
<event>
 8    1  0.7311878E-012  0.9118800E+02  0.7816164E-02  0.1184000E+00
        -11   -1    0    0    0    0  0.00000000000E+00  0.00000000000E+00  0.45593999997E+02  0.45594000000E+02  0.51100000000E-03 0. -1.
         11   -1    0    0    0    0 -0.00000000000E+00 -0.00000000000E+00 -0.45593999997E+02  0.45594000000E+02  0.51100000000E-03 0.  1.
         23    2    1    2    0    0  0.00000000000E+00  0.00000000000E+00  0.00000000000E+00  0.91188000000E+02  0.91188000000E+02 0.  0.
    9900012    2    3    3    0    0  0.12837867839E+02 -0.24914455199E+02 -0.29455479099E+02  0.50528853705E+02  0.29999981320E+02 0.  0.
         12    1    3    3    0    0 -0.12837867839E+02  0.24914455199E+02  0.29455479099E+02  0.40659146295E+02  0.00000000000E+00 0. -1.
         11    1    4    4    0    0  0.71348311526E+01 -0.37378345392E+00  0.39109693486E+01  0.81450114274E+01  0.51100000000E-03 0. -1.
        -11    1    4    4    0    0  0.24655904761E+01 -0.10145204133E+02 -0.84728504689E+01  0.13445947294E+02  0.51100000000E-03 0.  1.
         12    1    4    4    0    0  0.32374462104E+01 -0.14395467612E+02 -0.24893597979E+02  0.28937894983E+02  0.00000000000E+00 0. -1.
</event>
<event>
 8    1  0.7311878E-012  0.9118800E+02  0.7816164E-02  0.1184000E+00
        -11   -1    0    0    0    0  0.00000000000E+00  0.00000000000E+00  0.45593999997E+02  0.45594000000E+02  0.51100000000E-03 0. -1.
         11   -1    0    0    0    0 -0.00000000000E+00 -0.00000000000E+00 -0.45593999997E+02  0.45594000000E+02  0.51100000000E-03 0.  1.
         23    2    1    2    0    0  0.00000000000E+00  0.35527136788E-14 -0.71054273576E-14  0.91188000000E+02  0.91188000000E+02 0.  0.
    9900012    2    3    3    0    0 -0.11134358115E+02 -0.19206048077E+02  0.34063498825E+02  0.50528829256E+02  0.29999907005E+02 0.  0.
        -12    1    3    3    0    0  0.11134358115E+02  0.19206048077E+02 -0.34063498825E+02  0.40659170744E+02  0.00000000000E+00 0.  1.
         11    1    4    4    0    0 -0.12757172140E+02 -0.93173318978E+01  0.10443305234E+02  0.18937284366E+02  0.51100000000E-03 0. -1.
        -11    1    4    4    0    0 -0.23925726052E+00 -0.82363094818E+01  0.41186201753E+00  0.82500708178E+01  0.51100000000E-03 0.  1.
         12    1    4    4    0    0  0.18620712855E+01 -0.16524066978E+01  0.23208331574E+02  0.23341474071E+02  0.00000000000E+00 0. -1.
</event>
<event>
 8    1  0.7311878E-012  0.9118800E+02  0.7816164E-02  0.1184000E+00
        -11   -1    0    0    0    0  0.00000000000E+00  0.00000000000E+00  0.45593999997E+02  0.45594000000E+02  0.51100000000E-03 0. -1.
         11   -1    0    0    0    0 -0.00000000000E+00 -0.00000000000E+00 -0.45593999997E+02  0.45594000000E+02  0.51100000000E-03 0.  1.
         23    2    1    2    0    0 -0.17763568394E-14  0.00000000000E+00  0.00000000000E+00  0.91188000000E+02  0.91188000000E+02 0.  0.
    9900012    2    3    3    0    0  0.11705711413E+02 -0.10991571238E+02  0.37354083652E+02  0.50528857321E+02  0.29999992312E+02 0.  0.
        -12    1    3    3    0    0 -0.11705711413E+02  0.10991571238E+02 -0.37354083652E+02  0.40659142679E+02  0.00000000000E+00 0.  1.
         11    1    4    4    0    0  0.14191481782E+02 -0.59506182714E+01  0.15183804682E+02  0.21618416637E+02  0.51100000000E-03 0. -1.
        -11    1    4    4    0    0  0.20196200979E+01 -0.10817901336E+02  0.11060416223E+02  0.15602521012E+02  0.51100000000E-03 0.  1.
        -12    1    4    4    0    0 -0.45053904675E+01  0.57769483697E+01  0.11109862747E+02  0.13307919671E+02  0.00000000000E+00 0.  1.
</event>
<event>
 8    1  0.7311878E-012  0.9118800E+02  0.7816164E-02  0.1184000E+00
        -11   -1    0    0    0    0  0.00000000000E+00  0.00000000000E+00  0.45593999997E+02  0.45594000000E+02  0.51100000000E-03 0. -1.
         11   -1    0    0    0    0 -0.00000000000E+00 -0.00000000000E+00 -0.45593999997E+02  0.45594000000E+02  0.51100000000E-03 0.  1.
         23    2    1    2    0    0  0.00000000000E+00  0.17763568394E-14  0.00000000000E+00  0.91188000000E+02  0.91188000000E+02 0.  0.
    9900012    2    3    3    0    0  0.31467940143E+02 -0.13751238886E+02 -0.21767817253E+02  0.50528859630E+02  0.29999999330E+02 0.  0.
         12    1    3    3    0    0 -0.31467940143E+02  0.13751238886E+02  0.21767817253E+02  0.40659140370E+02  0.00000000000E+00 0. -1.
         11    1    4    4    0    0 -0.91269601382E+00  0.28403738828E+01 -0.46743150663E+01  0.55452645931E+01  0.51100000000E-03 0. -1.
        -11    1    4    4    0    0  0.15501538582E+02 -0.61452460872E+01  0.27677921198E+01  0.16903325749E+02  0.51100000000E-03 0.  1.
         12    1    4    4    0    0  0.16879097574E+02 -0.10446366681E+02 -0.19861294306E+02  0.28080269288E+02  0.00000000000E+00 0. -1.
</event>
<event>
 8    1  0.7311878E-012  0.9118800E+02  0.7816164E-02  0.1184000E+00
        -11   -1    0    0    0    0  0.00000000000E+00  0.00000000000E+00  0.45593999997E+02  0.45594000000E+02  0.51100000000E-03 0. -1.
         11   -1    0    0    0    0 -0.00000000000E+00 -0.00000000000E+00 -0.45593999997E+02  0.45594000000E+02  0.51100000000E-03 0.  1.
         23    2    1    2    0    0  0.00000000000E+00  0.00000000000E+00  0.00000000000E+00  0.91188000000E+02  0.91188000000E+02 0.  0.
    9900012    2    3    3    0    0 -0.27794717099E+02  0.11102606204E+02 -0.27520005283E+02  0.50528869980E+02  0.30000030792E+02 0.  0.
         12    1    3    3    0    0  0.27794717099E+02 -0.11102606204E+02  0.27520005283E+02  0.40659130020E+02  0.00000000000E+00 0. -1.
         11    1    4    4    0    0 -0.61337648003E+01  0.20965580643E+01 -0.96395632159E+01  0.11616359395E+02  0.51100000000E-03 0.  1.
        -11    1    4    4    0    0 -0.63967688641E+01 -0.89411373995E+01 -0.53277481848E+01  0.12216689031E+02  0.51100000000E-03 0. -1.
        -12    1    4    4    0    0 -0.15264183435E+02  0.17947185540E+02 -0.12552693883E+02  0.26695821554E+02  0.00000000000E+00 0.  1.
</event>
<event>
 8    1  0.7311878E-012  0.9118800E+02  0.7816164E-02  0.1184000E+00
        -11   -1    0    0    0    0  0.00000000000E+00  0.00000000000E+00  0.45593999997E+02  0.45594000000E+02  0.51100000000E-03 0.  1.
         11   -1    0    0    0    0 -0.00000000000E+00 -0.00000000000E+00 -0.45593999997E+02  0.45594000000E+02  0.51100000000E-03 0. -1.
         23    2    1    2    0    0  0.22204460493E-14  0.00000000000E+00 -0.35527136788E-14  0.91188000000E+02  0.91188000000E+02 0.  0.
    9900012    2    3    3    0    0 -0.36790279784E+01  0.34019206721E+02 -0.21961879026E+02  0.50528858308E+02  0.29999995312E+02 0.  0.
         12    1    3    3    0    0  0.36790279784E+01 -0.34019206721E+02  0.21961879026E+02  0.40659141692E+02  0.00000000000E+00 0. -1.
         11    1    4    4    0    0  0.82960172514E+01  0.18196252144E+02 -0.11500917824E+02  0.23069430105E+02  0.51100000000E-03 0. -1.
        -11    1    4    4    0    0  0.24755766430E+01 -0.14493357616E+01 -0.11618487614E+01  0.30949873459E+01  0.51100000000E-03 0.  1.
        -12    1    4    4    0    0 -0.14450621873E+02  0.17272290339E+02 -0.92991124407E+01  0.24364440856E+02  0.00000000000E+00 0.  1.
</event>
<event>
 8    1  0.1030060E-011  0.9118800E+02  0.7816164E-02  0.1184000E+00
        -11   -1    0    0    0    0  0.00000000000E+00  0.00000000000E+00  0.45593999997E+02  0.45594000000E+02  0.51100000000E-03 0. -1.
         11   -1    0    0    0    0 -0.00000000000E+00 -0.00000000000E+00 -0.45593999997E+02  0.45594000000E+02  0.51100000000E-03 0.  1.
         23    2    1    2    0    0  0.00000000000E+00  0.17763568394E-14 -0.71054273576E-14  0.91188000000E+02  0.91188000000E+02 0.  0.
    9900012    2    3    3    0    0 -0.86425242615E+01  0.14267965851E+02 -0.37079593260E+02  0.50528876652E+02  0.30000051071E+02 0.  0.
         12    1    3    3    0    0  0.86425242615E+01 -0.14267965851E+02  0.37079593260E+02  0.40659123348E+02  0.00000000000E+00 0. -1.
         11    1    4    4    0    0 -0.12423933066E+02  0.71521485377E+01 -0.18094884690E+02  0.23085324207E+02  0.51100000000E-03 0. -1.
        -11    1    4    4    0    0  0.13647585606E+01  0.63431707481E+01 -0.22325115791E+02  0.23248853228E+02  0.51100000000E-03 0.  1.
         12    1    4    4    0    0  0.24166502441E+01  0.77264656498E+00  0.33404072212E+01  0.41946992169E+01  0.00000000000E+00 0. -1.
</event>
<event>
 8    1  0.7311878E-012  0.9118800E+02  0.7816164E-02  0.1184000E+00
        -11   -1    0    0    0    0  0.00000000000E+00  0.00000000000E+00  0.45593999997E+02  0.45594000000E+02  0.51100000000E-03 0.  1.
         11   -1    0    0    0    0 -0.00000000000E+00 -0.00000000000E+00 -0.45593999997E+02  0.45594000000E+02  0.51100000000E-03 0. -1.
         23    2    1    2    0    0  0.00000000000E+00  0.88817841970E-15  0.00000000000E+00  0.91188000000E+02  0.91188000000E+02 0.  0.
    9900012    2    3    3    0    0  0.38508674740E+02 -0.47741160589E+01  0.12143111584E+02  0.50528863594E+02  0.30000011379E+02 0.  0.
        -12    1    3    3    0    0 -0.38508674740E+02  0.47741160589E+01 -0.12143111584E+02  0.40659136406E+02  0.00000000000E+00 0.  1.
         11    1    4    4    0    0  0.82353883768E+01  0.48205758412E+01  0.67611248485E+01  0.11694972537E+02  0.51100000000E-03 0. -1.
        -11    1    4    4    0    0  0.11462535489E+02  0.41201550257E+01  0.91721379014E+01  0.15247737905E+02  0.51100000000E-03 0.  1.
         12    1    4    4    0    0  0.18810750874E+02 -0.13714846926E+02 -0.37901511662E+01  0.23586153152E+02  0.00000000000E+00 0. -1.
</event>
<event>
 8    1  0.7311878E-012  0.9118800E+02  0.7816164E-02  0.1184000E+00
        -11   -1    0    0    0    0  0.00000000000E+00  0.00000000000E+00  0.45593999997E+02  0.45594000000E+02  0.51100000000E-03 0. -1.
         11   -1    0    0    0    0 -0.00000000000E+00 -0.00000000000E+00 -0.45593999997E+02  0.45594000000E+02  0.51100000000E-03 0.  1.
         23    2    1    2    0    0 -0.71054273576E-14  0.00000000000E+00 -0.35527136788E-14  0.91188000000E+02  0.91188000000E+02 0.  0.
    9900012    2    3    3    0    0 -0.24056833179E+02 -0.10697177260E+02 -0.30983944261E+02  0.50528860487E+02  0.30000001938E+02 0.  0.
         12    1    3    3    0    0  0.24056833179E+02  0.10697177260E+02  0.30983944261E+02  0.40659139513E+02  0.00000000000E+00 0. -1.
         11    1    4    4    0    0 -0.44310928308E+01  0.45783954784E+01 -0.11218928326E+02  0.12901962714E+02  0.51100000000E-03 0. -1.
        -11    1    4    4    0    0 -0.16415476095E+02 -0.46044586154E+01 -0.20251828008E+02  0.26472729978E+02  0.51100000000E-03 0.  1.
         12    1    4    4    0    0 -0.32102642533E+01 -0.10671114123E+02  0.48681207340E+00  0.11154167795E+02  0.00000000000E+00 0. -1.
</event>
<event>
 8    1  0.7311878E-012  0.9118800E+02  0.7816164E-02  0.1184000E+00
        -11   -1    0    0    0    0  0.00000000000E+00  0.00000000000E+00  0.45593999997E+02  0.45594000000E+02  0.51100000000E-03 0. -1.
         11   -1    0    0    0    0 -0.00000000000E+00 -0.00000000000E+00 -0.45593999997E+02  0.45594000000E+02  0.51100000000E-03 0.  1.
         23    2    1    2    0    0  0.00000000000E+00  0.35527136788E-14  0.35527136788E-14  0.91188000000E+02  0.91188000000E+02 0.  0.
    9900012    2    3    3    0    0  0.35458721283E+02  0.13016381567E+02  0.15047247677E+02  0.50528846458E+02  0.29999959293E+02 0.  0.
        -12    1    3    3    0    0 -0.35458721283E+02 -0.13016381567E+02 -0.15047247677E+02  0.40659153542E+02  0.00000000000E+00 0.  1.
         11    1    4    4    0    0  0.77622711713E+01  0.78072733448E+01  0.94044716693E+01  0.14479311394E+02  0.51100000000E-03 0. -1.
        -11    1    4    4    0    0  0.16513121565E+02  0.92114889834E+01  0.12179544228E+02  0.22491687598E+02  0.51100000000E-03 0.  1.
        -12    1    4    4    0    0  0.11183328546E+02 -0.40023807611E+01 -0.65367682207E+01  0.13557847466E+02  0.00000000000E+00 0.  1.
</event>
<event>
 8    1  0.7311878E-012  0.9118800E+02  0.7816164E-02  0.1184000E+00
        -11   -1    0    0    0    0  0.00000000000E+00  0.00000000000E+00  0.45593999997E+02  0.45594000000E+02  0.51100000000E-03 0.  1.
         11   -1    0    0    0    0 -0.00000000000E+00 -0.00000000000E+00 -0.45593999997E+02  0.45594000000E+02  0.51100000000E-03 0. -1.
         23    2    1    2    0    0  0.00000000000E+00  0.44408920985E-15  0.00000000000E+00  0.91188000000E+02  0.91188000000E+02 0.  0.
    9900012    2    3    3    0    0  0.39436932158E+02  0.33907876755E+01  0.92949803814E+01  0.50528859338E+02  0.29999998444E+02 0.  0.
        -12    1    3    3    0    0 -0.39436932158E+02 -0.33907876755E+01 -0.92949803814E+01  0.40659140662E+02  0.00000000000E+00 0.  1.
         11    1    4    4    0    0  0.66129111546E+01  0.91470424927E+00  0.13526754166E+01  0.68115349846E+01  0.51100000000E-03 0. -1.
        -11    1    4    4    0    0  0.35381048842E+00  0.51968160454E+01 -0.62847875830E+01  0.81627589757E+01  0.51100000000E-03 0.  1.
         12    1    4    4    0    0  0.32470210515E+02 -0.27207326192E+01  0.14227092548E+02  0.35554565378E+02  0.00000000000E+00 0. -1.
</event>
<event>
 8    1  0.7311878E-012  0.9118800E+02  0.7816164E-02  0.1184000E+00
        -11   -1    0    0    0    0  0.00000000000E+00  0.00000000000E+00  0.45593999997E+02  0.45594000000E+02  0.51100000000E-03 0. -1.
         11   -1    0    0    0    0 -0.00000000000E+00 -0.00000000000E+00 -0.45593999997E+02  0.45594000000E+02  0.51100000000E-03 0.  1.
         23    2    1    2    0    0 -0.10547118734E-14  0.44408920985E-15  0.71054273576E-14  0.91188000000E+02  0.91188000000E+02 0.  0.
    9900012    2    3    3    0    0 -0.28439177241E+00 -0.33505690122E+01 -0.40519717870E+02  0.50528994508E+02  0.30000409303E+02 0.  0.
         12    1    3    3    0    0  0.28439177241E+00  0.33505690122E+01  0.40519717870E+02  0.40659005492E+02  0.00000000000E+00 0. -1.
         11    1    4    4    0    0 -0.87826846726E+01  0.36533171109E+01 -0.84398927704E+01  0.12716684560E+02  0.51100000000E-03 0. -1.
        -11    1    4    4    0    0  0.96458306922E+01 -0.12325253526E+01 -0.68232179749E+01  0.11879287533E+02  0.51100000000E-03 0.  1.
        -12    1    4    4    0    0 -0.11475377920E+01 -0.57713607705E+01 -0.25256607124E+02  0.25933022415E+02  0.00000000000E+00 0.  1.
</event>
<event>
 8    1  0.7311878E-012  0.9118800E+02  0.7816164E-02  0.1184000E+00
        -11   -1    0    0    0    0  0.00000000000E+00  0.00000000000E+00  0.45593999997E+02  0.45594000000E+02  0.51100000000E-03 0. -1.
         11   -1    0    0    0    0 -0.00000000000E+00 -0.00000000000E+00 -0.45593999997E+02  0.45594000000E+02  0.51100000000E-03 0.  1.
         23    2    1    2    0    0  0.17763568394E-14  0.17763568394E-14  0.00000000000E+00  0.91188000000E+02  0.91188000000E+02 0.  0.
    9900012    2    3    3    0    0 -0.14455110708E+02 -0.94273242142E+01  0.36814951172E+02  0.50528864529E+02  0.30000014223E+02 0.  0.
        -12    1    3    3    0    0  0.14455110708E+02  0.94273242142E+01 -0.36814951172E+02  0.40659135471E+02  0.00000000000E+00 0.  1.
         11    1    4    4    0    0  0.17448929553E+01 -0.50072539955E+01  0.20457745061E+02  0.21133778111E+02  0.51100000000E-03 0. -1.
        -11    1    4    4    0    0 -0.62820090478E+01 -0.10733009798E+02  0.63897238311E+01  0.13981763404E+02  0.51100000000E-03 0.  1.
         12    1    4    4    0    0 -0.99179946150E+01  0.63129395792E+01  0.99674822804E+01  0.15413323014E+02  0.00000000000E+00 0. -1.
</event>
<event>
 8    1  0.7311878E-012  0.9118800E+02  0.7816164E-02  0.1184000E+00
        -11   -1    0    0    0    0  0.00000000000E+00  0.00000000000E+00  0.45593999997E+02  0.45594000000E+02  0.51100000000E-03 0. -1.
         11   -1    0    0    0    0 -0.00000000000E+00 -0.00000000000E+00 -0.45593999997E+02  0.45594000000E+02  0.51100000000E-03 0.  1.
         23    2    1    2    0    0 -0.35527136788E-14  0.17763568394E-14  0.35527136788E-14  0.91188000000E+02  0.91188000000E+02 0.  0.
    9900012    2    3    3    0    0 -0.29575713600E+02 -0.10417831260E+02 -0.25882687117E+02  0.50528837005E+02  0.29999930559E+02 0.  0.
         12    1    3    3    0    0  0.29575713600E+02  0.10417831260E+02  0.25882687117E+02  0.40659162995E+02  0.00000000000E+00 0. -1.
         11    1    4    4    0    0  0.10549911533E+01  0.10390396135E+01  0.28834604123E+01  0.32414431758E+01  0.51100000000E-03 0. -1.
        -11    1    4    4    0    0 -0.20999337036E+02  0.66849644269E-01 -0.10021345686E+02  0.23268089617E+02  0.51100000000E-03 0.  1.
         12    1    4    4    0    0 -0.96313677173E+01 -0.11523720517E+02 -0.18744801843E+02  0.24019304212E+02  0.00000000000E+00 0. -1.
</event>
<event>
 8    1  0.7311878E-012  0.9118800E+02  0.7816164E-02  0.1184000E+00
        -11   -1    0    0    0    0  0.00000000000E+00  0.00000000000E+00  0.45593999997E+02  0.45594000000E+02  0.51100000000E-03 0. -1.
         11   -1    0    0    0    0 -0.00000000000E+00 -0.00000000000E+00 -0.45593999997E+02  0.45594000000E+02  0.51100000000E-03 0.  1.
         23    2    1    2    0    0 -0.88817841970E-15  0.00000000000E+00  0.00000000000E+00  0.91188000000E+02  0.91188000000E+02 0.  0.
    9900012    2    3    3    0    0 -0.68819554954E+01 -0.36464689871E+02  0.16617170317E+02  0.50528864887E+02  0.30000015311E+02 0.  0.
        -12    1    3    3    0    0  0.68819554954E+01  0.36464689871E+02 -0.16617170317E+02  0.40659135113E+02  0.00000000000E+00 0.  1.
         11    1    4    4    0    0  0.37067649865E+01 -0.22676569154E+02  0.38143816215E+01  0.23291981510E+02  0.51100000000E-03 0. -1.
        -11    1    4    4    0    0  0.26511947182E+01 -0.61524273892E+00 -0.20229140386E+01  0.33910969509E+01  0.51100000000E-03 0.  1.
         12    1    4    4    0    0 -0.13239915200E+02 -0.13172877978E+02  0.14825702734E+02  0.23845786426E+02  0.00000000000E+00 0. -1.
</event>
<event>
 8    1  0.7311878E-012  0.9118800E+02  0.7816164E-02  0.1184000E+00
        -11   -1    0    0    0    0  0.00000000000E+00  0.00000000000E+00  0.45593999997E+02  0.45594000000E+02  0.51100000000E-03 0. -1.
         11   -1    0    0    0    0 -0.00000000000E+00 -0.00000000000E+00 -0.45593999997E+02  0.45594000000E+02  0.51100000000E-03 0.  1.
         23    2    1    2    0    0  0.35527136788E-14  0.71054273576E-14  0.35527136788E-14  0.91188000000E+02  0.91188000000E+02 0.  0.
    9900012    2    3    3    0    0  0.20533939105E+02  0.20848110228E+02  0.28229042353E+02  0.50528865880E+02  0.30000018328E+02 0.  0.
        -12    1    3    3    0    0 -0.20533939105E+02 -0.20848110228E+02 -0.28229042353E+02  0.40659134120E+02  0.00000000000E+00 0.  1.
         11    1    4    4    0    0  0.72937586324E+01  0.18641509385E+01 -0.43402761088E+01  0.86897624059E+01  0.51100000000E-03 0.  1.
        -11    1    4    4    0    0  0.10246607900E+02  0.43421321302E+01  0.11452288127E+02  0.15968781685E+02  0.51100000000E-03 0. -1.
        -12    1    4    4    0    0  0.29935725724E+01  0.14641827159E+02  0.21117030335E+02  0.25870321789E+02  0.00000000000E+00 0.  1.
</event>
<event>
 8    1  0.7311878E-012  0.9118800E+02  0.7816164E-02  0.1184000E+00
        -11   -1    0    0    0    0  0.00000000000E+00  0.00000000000E+00  0.45593999997E+02  0.45594000000E+02  0.51100000000E-03 0. -1.
         11   -1    0    0    0    0 -0.00000000000E+00 -0.00000000000E+00 -0.45593999997E+02  0.45594000000E+02  0.51100000000E-03 0.  1.
         23    2    1    2    0    0 -0.17763568394E-14 -0.17763568394E-14  0.71054273576E-14  0.91188000000E+02  0.91188000000E+02 0.  0.
    9900012    2    3    3    0    0  0.14406902510E+02  0.13939419519E+02 -0.35373717833E+02  0.50528853798E+02  0.29999981606E+02 0.  0.
         12    1    3    3    0    0 -0.14406902510E+02 -0.13939419519E+02  0.35373717833E+02  0.40659146202E+02  0.00000000000E+00 0. -1.
         11    1    4    4    0    0 -0.73106758446E+01  0.12353832012E+01 -0.64864240056E+01  0.98511851876E+01  0.51100000000E-03 0. -1.
        -11    1    4    4    0    0  0.40903914292E+01 -0.23227687207E+01 -0.89719382547E+01  0.10130263219E+02  0.51100000000E-03 0.  1.
         12    1    4    4    0    0  0.17627186926E+02  0.15026805039E+02 -0.19915355573E+02  0.30547405392E+02  0.00000000000E+00 0. -1.
</event>
<event>
 8    1  0.7311878E-012  0.9118800E+02  0.7816164E-02  0.1184000E+00
        -11   -1    0    0    0    0  0.00000000000E+00  0.00000000000E+00  0.45593999997E+02  0.45594000000E+02  0.51100000000E-03 0. -1.
         11   -1    0    0    0    0 -0.00000000000E+00 -0.00000000000E+00 -0.45593999997E+02  0.45594000000E+02  0.51100000000E-03 0.  1.
         23    2    1    2    0    0  0.17763568394E-14  0.88817841970E-15  0.00000000000E+00  0.91188000000E+02  0.91188000000E+02 0.  0.
    9900012    2    3    3    0    0  0.10119179523E+02  0.49307072704E+01  0.39069882173E+02  0.50528863740E+02  0.30000011824E+02 0.  0.
        -12    1    3    3    0    0 -0.10119179523E+02 -0.49307072704E+01 -0.39069882173E+02  0.40659136260E+02  0.00000000000E+00 0.  1.
         11    1    4    4    0    0 -0.13960089716E+01  0.87686035591E+01  0.38032137640E+01  0.96592797154E+01  0.51100000000E-03 0. -1.
        -11    1    4    4    0    0  0.14248212103E+01  0.46082230033E+01  0.20634854519E+02  0.21191107946E+02  0.51100000000E-03 0.  1.
        -12    1    4    4    0    0  0.10090367285E+02 -0.84461192920E+01  0.14631813890E+02  0.19678476078E+02  0.00000000000E+00 0.  1.
</event>
<event>
 8    1  0.7311878E-012  0.9118800E+02  0.7816164E-02  0.1184000E+00
        -11   -1    0    0    0    0  0.00000000000E+00  0.00000000000E+00  0.45593999997E+02  0.45594000000E+02  0.51100000000E-03 0. -1.
         11   -1    0    0    0    0 -0.00000000000E+00 -0.00000000000E+00 -0.45593999997E+02  0.45594000000E+02  0.51100000000E-03 0.  1.
         23    2    1    2    0    0  0.00000000000E+00  0.00000000000E+00 -0.35527136788E-14  0.91188000000E+02  0.91188000000E+02 0.  0.
    9900012    2    3    3    0    0 -0.25233954018E+02  0.20000548719E+02 -0.24827219628E+02  0.50528865492E+02  0.30000017150E+02 0.  0.
         12    1    3    3    0    0  0.25233954018E+02 -0.20000548719E+02  0.24827219628E+02  0.40659134508E+02  0.00000000000E+00 0. -1.
         11    1    4    4    0    0 -0.49705811638E+01  0.40508980849E+01  0.36454161676E+01  0.73760091985E+01  0.51100000000E-03 0. -1.
        -11    1    4    4    0    0  0.33918649347E+01  0.22644582806E+01 -0.80913646226E+01  0.90610540643E+01  0.51100000000E-03 0.  1.
        -12    1    4    4    0    0 -0.23655237789E+02  0.13685192354E+02 -0.20381271173E+02  0.34091802229E+02  0.00000000000E+00 0.  1.
</event>
<event>
 8    1  0.7311878E-012  0.9118800E+02  0.7816164E-02  0.1184000E+00
        -11   -1    0    0    0    0  0.00000000000E+00  0.00000000000E+00  0.45593999997E+02  0.45594000000E+02  0.51100000000E-03 0. -1.
         11   -1    0    0    0    0 -0.00000000000E+00 -0.00000000000E+00 -0.45593999997E+02  0.45594000000E+02  0.51100000000E-03 0.  1.
         23    2    1    2    0    0 -0.44408920985E-15  0.35527136788E-14 -0.35527136788E-14  0.91188000000E+02  0.91188000000E+02 0.  0.
    9900012    2    3    3    0    0  0.27100445137E+01 -0.31828088116E+02  0.25155410368E+02  0.50528853364E+02  0.29999980286E+02 0.  0.
        -12    1    3    3    0    0 -0.27100445137E+01  0.31828088116E+02 -0.25155410368E+02  0.40659146636E+02  0.00000000000E+00 0.  1.
         11    1    4    4    0    0  0.11879155804E+02 -0.13038283324E+02  0.26251574902E+01  0.17832628150E+02  0.51100000000E-03 0. -1.
        -11    1    4    4    0    0 -0.61556332346E+01 -0.16790053116E+02  0.11932692180E+02  0.21498531278E+02  0.51100000000E-03 0.  1.
        -12    1    4    4    0    0 -0.30134780555E+01 -0.19997516759E+01  0.10597560697E+02  0.11197693936E+02  0.00000000000E+00 0.  1.
</event>
<event>
 8    1  0.7311878E-012  0.9118800E+02  0.7816164E-02  0.1184000E+00
        -11   -1    0    0    0    0  0.00000000000E+00  0.00000000000E+00  0.45593999997E+02  0.45594000000E+02  0.51100000000E-03 0. -1.
         11   -1    0    0    0    0 -0.00000000000E+00 -0.00000000000E+00 -0.45593999997E+02  0.45594000000E+02  0.51100000000E-03 0.  1.
         23    2    1    2    0    0  0.00000000000E+00  0.00000000000E+00  0.00000000000E+00  0.91188000000E+02  0.91188000000E+02 0.  0.
    9900012    2    3    3    0    0 -0.14202509563E+02 -0.16630098828E+02  0.34276721417E+02  0.50528867003E+02  0.30000021744E+02 0.  0.
        -12    1    3    3    0    0  0.14202509563E+02  0.16630098828E+02 -0.34276721417E+02  0.40659132997E+02  0.00000000000E+00 0.  1.
         11    1    4    4    0    0 -0.39278433053E+01  0.58705602549E+00  0.24051171475E+01  0.46429706613E+01  0.51100000000E-03 0. -1.
        -11    1    4    4    0    0 -0.29319060901E+01 -0.12706079288E+02  0.17759463987E+00  0.13041168058E+02  0.51100000000E-03 0.  1.
        -12    1    4    4    0    0 -0.73427601674E+01 -0.45110755652E+01  0.31694009630E+02  0.32844728284E+02  0.00000000000E+00 0.  1.
</event>
<event>
 8    1  0.7311878E-012  0.9118800E+02  0.7816164E-02  0.1184000E+00
        -11   -1    0    0    0    0  0.00000000000E+00  0.00000000000E+00  0.45593999997E+02  0.45594000000E+02  0.51100000000E-03 0. -1.
         11   -1    0    0    0    0 -0.00000000000E+00 -0.00000000000E+00 -0.45593999997E+02  0.45594000000E+02  0.51100000000E-03 0.  1.
         23    2    1    2    0    0 -0.17763568394E-14  0.17763568394E-14  0.00000000000E+00  0.91188000000E+02  0.91188000000E+02 0.  0.
    9900012    2    3    3    0    0 -0.11596915773E+02  0.15776574434E+02 -0.35633928683E+02  0.50528860441E+02  0.30000001796E+02 0.  0.
         12    1    3    3    0    0  0.11596915773E+02 -0.15776574434E+02  0.35633928683E+02  0.40659139559E+02  0.00000000000E+00 0. -1.
         11    1    4    4    0    0  0.27418006678E+01  0.90358413383E+01 -0.57624681713E+01  0.11062094706E+02  0.51100000000E-03 0. -1.
        -11    1    4    4    0    0 -0.52755887968E+01  0.13228282845E+02 -0.13235352919E+02  0.19442064482E+02  0.51100000000E-03 0.  1.
         12    1    4    4    0    0 -0.90631276445E+01 -0.64875497489E+01 -0.16636107592E+02  0.20024701253E+02  0.00000000000E+00 0. -1.
</event>
<event>
 8    1  0.7311878E-012  0.9118800E+02  0.7816164E-02  0.1184000E+00
        -11   -1    0    0    0    0  0.00000000000E+00  0.00000000000E+00  0.45593999997E+02  0.45594000000E+02  0.51100000000E-03 0. -1.
         11   -1    0    0    0    0 -0.00000000000E+00 -0.00000000000E+00 -0.45593999997E+02  0.45594000000E+02  0.51100000000E-03 0.  1.
         23    2    1    2    0    0  0.00000000000E+00  0.00000000000E+00 -0.71054273576E-14  0.91188000000E+02  0.91188000000E+02 0.  0.
    9900012    2    3    3    0    0  0.44378140744E+01 -0.58006150383E+01  0.39997813425E+02  0.50528850877E+02  0.29999972727E+02 0.  0.
        -12    1    3    3    0    0 -0.44378140744E+01  0.58006150383E+01 -0.39997813425E+02  0.40659149123E+02  0.00000000000E+00 0.  1.
         11    1    4    4    0    0 -0.48536433804E+01  0.15711939466E+01  0.24846431487E+01  0.56745005348E+01  0.51100000000E-03 0.  1.
        -11    1    4    4    0    0 -0.38329873550E+01 -0.23960070088E+00  0.25215166258E+02  0.25505956368E+02  0.51100000000E-03 0. -1.
         12    1    4    4    0    0  0.13124444810E+02 -0.71322082840E+01  0.12298004019E+02  0.19348393975E+02  0.00000000000E+00 0. -1.
</event>
<event>
 8    1  0.9230129E-012  0.9118800E+02  0.7816164E-02  0.1184000E+00
        -11   -1    0    0    0    0  0.00000000000E+00  0.00000000000E+00  0.45593999997E+02  0.45594000000E+02  0.51100000000E-03 0. -1.
         11   -1    0    0    0    0 -0.00000000000E+00 -0.00000000000E+00 -0.45593999997E+02  0.45594000000E+02  0.51100000000E-03 0.  1.
         23    2    1    2    0    0 -0.44408920985E-15 -0.35527136788E-14 -0.35527136788E-14  0.91188000000E+02  0.91188000000E+02 0.  0.
    9900012    2    3    3    0    0 -0.31952874150E+01 -0.29474075780E+02 -0.27825069266E+02  0.50528862227E+02  0.30000007225E+02 0.  0.
         12    1    3    3    0    0  0.31952874150E+01  0.29474075780E+02  0.27825069266E+02  0.40659137773E+02  0.00000000000E+00 0. -1.
         11    1    4    4    0    0 -0.29316034958E+01 -0.11021849952E+02 -0.17174125417E+02  0.20616160155E+02  0.51100000000E-03 0. -1.
        -11    1    4    4    0    0  0.57859896988E+01 -0.19212775926E+02 -0.12377533086E+02  0.23575660354E+02  0.51100000000E-03 0.  1.
         12    1    4    4    0    0 -0.60496736180E+01  0.76055009775E+00  0.17265892377E+01  0.63370417177E+01  0.00000000000E+00 0. -1.
</event>
<event>
 8    1  0.7311878E-012  0.9118800E+02  0.7816164E-02  0.1184000E+00
        -11   -1    0    0    0    0  0.00000000000E+00  0.00000000000E+00  0.45593999997E+02  0.45594000000E+02  0.51100000000E-03 0. -1.
         11   -1    0    0    0    0 -0.00000000000E+00 -0.00000000000E+00 -0.45593999997E+02  0.45594000000E+02  0.51100000000E-03 0.  1.
         23    2    1    2    0    0 -0.88817841970E-15  0.00000000000E+00 -0.35527136788E-14  0.91188000000E+02  0.91188000000E+02 0.  0.
    9900012    2    3    3    0    0 -0.71143067790E+01 -0.27553573163E+02 -0.29040539618E+02  0.50528859622E+02  0.29999999306E+02 0.  0.
         12    1    3    3    0    0  0.71143067790E+01  0.27553573163E+02  0.29040539618E+02  0.40659140378E+02  0.00000000000E+00 0. -1.
         11    1    4    4    0    0  0.17144775011E+01 -0.97174183757E+01 -0.17499894617E+00  0.98690565853E+01  0.51100000000E-03 0. -1.
        -11    1    4    4    0    0 -0.90301481975E+01 -0.48619098347E+01 -0.14883708824E+01  0.10363251992E+02  0.51100000000E-03 0.  1.
         12    1    4    4    0    0  0.20136391729E+00 -0.12974244953E+02 -0.27377169789E+02  0.30296551044E+02  0.00000000000E+00 0. -1.
</event>
<event>
 8    1  0.7311878E-012  0.9118800E+02  0.7816164E-02  0.1184000E+00
        -11   -1    0    0    0    0  0.00000000000E+00  0.00000000000E+00  0.45593999997E+02  0.45594000000E+02  0.51100000000E-03 0.  1.
         11   -1    0    0    0    0 -0.00000000000E+00 -0.00000000000E+00 -0.45593999997E+02  0.45594000000E+02  0.51100000000E-03 0. -1.
         23    2    1    2    0    0  0.00000000000E+00  0.00000000000E+00  0.00000000000E+00  0.91188000000E+02  0.91188000000E+02 0.  0.
    9900012    2    3    3    0    0  0.37527587090E+02  0.14698370842E+02 -0.53669080982E+01  0.50528860796E+02  0.30000002877E+02 0.  0.
         12    1    3    3    0    0 -0.37527587090E+02 -0.14698370842E+02  0.53669080982E+01  0.40659139204E+02  0.00000000000E+00 0. -1.
         11    1    4    4    0    0 -0.33534230800E+01 -0.75843703160E+00 -0.17260266603E+01  0.38470561963E+01  0.51100000000E-03 0. -1.
        -11    1    4    4    0    0  0.12771109808E+02  0.13156564558E+02 -0.14785065572E+01  0.18395173785E+02  0.51100000000E-03 0.  1.
         12    1    4    4    0    0  0.28109900363E+02  0.23002433156E+01 -0.21623748807E+01  0.28286630815E+02  0.00000000000E+00 0. -1.
</event>
<event>
 8    1  0.7311878E-012  0.9118800E+02  0.7816164E-02  0.1184000E+00
        -11   -1    0    0    0    0  0.00000000000E+00  0.00000000000E+00  0.45593999997E+02  0.45594000000E+02  0.51100000000E-03 0. -1.
         11   -1    0    0    0    0 -0.00000000000E+00 -0.00000000000E+00 -0.45593999997E+02  0.45594000000E+02  0.51100000000E-03 0.  1.
         23    2    1    2    0    0 -0.71054273576E-14 -0.35527136788E-14 -0.17763568394E-14  0.91188000000E+02  0.91188000000E+02 0.  0.
    9900012    2    3    3    0    0  0.30827072397E+02  0.21533935429E+02  0.15464360499E+02  0.50528865561E+02  0.30000017360E+02 0.  0.
        -12    1    3    3    0    0 -0.30827072397E+02 -0.21533935429E+02 -0.15464360499E+02  0.40659134439E+02  0.00000000000E+00 0.  1.
         11    1    4    4    0    0  0.55165234166E+01  0.87666813306E+01  0.12862387103E+01  0.10437487362E+02  0.51100000000E-03 0. -1.
        -11    1    4    4    0    0  0.19116346638E+02  0.22492276523E+01 -0.25146534339E+01  0.19411780340E+02  0.51100000000E-03 0.  1.
        -12    1    4    4    0    0  0.61942023428E+01  0.10518026446E+02  0.16692775222E+02  0.20679597859E+02  0.00000000000E+00 0.  1.
</event>
<event>
 8    1  0.7311878E-012  0.9118800E+02  0.7816164E-02  0.1184000E+00
        -11   -1    0    0    0    0  0.00000000000E+00  0.00000000000E+00  0.45593999997E+02  0.45594000000E+02  0.51100000000E-03 0.  1.
         11   -1    0    0    0    0 -0.00000000000E+00 -0.00000000000E+00 -0.45593999997E+02  0.45594000000E+02  0.51100000000E-03 0. -1.
         23    2    1    2    0    0  0.00000000000E+00  0.00000000000E+00  0.00000000000E+00  0.91188000000E+02  0.91188000000E+02 0.  0.
    9900012    2    3    3    0    0 -0.39053710878E+02  0.54290805914E+01 -0.99248994346E+01  0.50528795898E+02  0.29999805611E+02 0.  0.
         12    1    3    3    0    0  0.39053710878E+02 -0.54290805914E+01  0.99248994346E+01  0.40659204102E+02  0.00000000000E+00 0. -1.
         11    1    4    4    0    0  0.20109167224E+01 -0.50128391555E+01 -0.44172051731E+01  0.69773952350E+01  0.51100000000E-03 0. -1.
        -11    1    4    4    0    0 -0.15532907622E+02  0.28551638276E+01 -0.60460432296E+01  0.16910878708E+02  0.51100000000E-03 0.  1.
        -12    1    4    4    0    0 -0.25531719978E+02  0.75867559192E+01  0.53834896816E+00  0.26640521955E+02  0.00000000000E+00 0.  1.
</event>
<event>
 8    1  0.7311878E-012  0.9118800E+02  0.7816164E-02  0.1184000E+00
        -11   -1    0    0    0    0  0.00000000000E+00  0.00000000000E+00  0.45593999997E+02  0.45594000000E+02  0.51100000000E-03 0.  1.
         11   -1    0    0    0    0 -0.00000000000E+00 -0.00000000000E+00 -0.45593999997E+02  0.45594000000E+02  0.51100000000E-03 0. -1.
         23    2    1    2    0    0  0.00000000000E+00  0.17763568394E-14  0.00000000000E+00  0.91188000000E+02  0.91188000000E+02 0.  0.
    9900012    2    3    3    0    0 -0.39611400151E+02  0.70960813038E+01 -0.58093481519E+01  0.50528856899E+02  0.29999991029E+02 0.  0.
         12    1    3    3    0    0  0.39611400151E+02 -0.70960813038E+01  0.58093481519E+01  0.40659143101E+02  0.00000000000E+00 0. -1.
         11    1    4    4    0    0 -0.10886456323E+02  0.83338945395E+01 -0.93184415448E+01  0.16577155442E+02  0.51100000000E-03 0. -1.
        -11    1    4    4    0    0 -0.13341832764E+02  0.76662939441E+01  0.48317983138E+01  0.16128324139E+02  0.51100000000E-03 0.  1.
        -12    1    4    4    0    0 -0.15383111064E+02 -0.89041071799E+01 -0.13227049209E+01  0.17823377317E+02  0.00000000000E+00 0.  1.
</event>
<event>
 8    1  0.7311878E-012  0.9118800E+02  0.7816164E-02  0.1184000E+00
        -11   -1    0    0    0    0  0.00000000000E+00  0.00000000000E+00  0.45593999997E+02  0.45594000000E+02  0.51100000000E-03 0. -1.
         11   -1    0    0    0    0 -0.00000000000E+00 -0.00000000000E+00 -0.45593999997E+02  0.45594000000E+02  0.51100000000E-03 0.  1.
         23    2    1    2    0    0  0.35527136788E-14 -0.88817841970E-15  0.00000000000E+00  0.91188000000E+02  0.91188000000E+02 0.  0.
    9900012    2    3    3    0    0  0.28647127473E+02  0.79177256463E+01 -0.27745585810E+02  0.50528858054E+02  0.29999994541E+02 0.  0.
         12    1    3    3    0    0 -0.28647127473E+02 -0.79177256463E+01  0.27745585810E+02  0.40659141946E+02  0.00000000000E+00 0. -1.
         11    1    4    4    0    0  0.26653852858E+00 -0.51608247337E+00  0.11229226715E+01  0.12642545210E+01  0.51100000000E-03 0. -1.
        -11    1    4    4    0    0  0.88951191617E-01  0.11260286093E+02 -0.58928696183E+01  0.12709361424E+02  0.51100000000E-03 0.  1.
        -12    1    4    4    0    0  0.28291637752E+02 -0.28264779735E+01 -0.22975638863E+02  0.36555242109E+02  0.00000000000E+00 0.  1.
</event>
<event>
 8    1  0.7311878E-012  0.9118800E+02  0.7816164E-02  0.1184000E+00
        -11   -1    0    0    0    0  0.00000000000E+00  0.00000000000E+00  0.45593999997E+02  0.45594000000E+02  0.51100000000E-03 0. -1.
         11   -1    0    0    0    0 -0.00000000000E+00 -0.00000000000E+00 -0.45593999997E+02  0.45594000000E+02  0.51100000000E-03 0.  1.
         23    2    1    2    0    0  0.17763568394E-14 -0.88817841970E-15  0.00000000000E+00  0.91188000000E+02  0.91188000000E+02 0.  0.
    9900012    2    3    3    0    0 -0.11691177359E+02  0.42367449559E+01 -0.38710859571E+02  0.50528876982E+02  0.30000052073E+02 0.  0.
         12    1    3    3    0    0  0.11691177359E+02 -0.42367449559E+01  0.38710859571E+02  0.40659123018E+02  0.00000000000E+00 0. -1.
         11    1    4    4    0    0  0.21041846312E+01 -0.28095383747E+01 -0.11729388881E+02  0.12243351773E+02  0.51100000000E-03 0. -1.
        -11    1    4    4    0    0 -0.10124301029E+02 -0.46012650230E+00 -0.28084341265E+02  0.29857049625E+02  0.51100000000E-03 0.  1.
         12    1    4    4    0    0 -0.36710609616E+01  0.75064098329E+01  0.11028705754E+01  0.84284755839E+01  0.00000000000E+00 0. -1.
</event>
<event>
 8    1  0.7311878E-012  0.9118800E+02  0.7816164E-02  0.1184000E+00
        -11   -1    0    0    0    0  0.00000000000E+00  0.00000000000E+00  0.45593999997E+02  0.45594000000E+02  0.51100000000E-03 0. -1.
         11   -1    0    0    0    0 -0.00000000000E+00 -0.00000000000E+00 -0.45593999997E+02  0.45594000000E+02  0.51100000000E-03 0.  1.
         23    2    1    2    0    0 -0.35527136788E-14  0.00000000000E+00  0.17763568394E-14  0.91188000000E+02  0.91188000000E+02 0.  0.
    9900012    2    3    3    0    0 -0.31200732226E+02 -0.23764699665E+02  0.10719992022E+02  0.50528869776E+02  0.30000030172E+02 0.  0.
        -12    1    3    3    0    0  0.31200732226E+02  0.23764699665E+02 -0.10719992022E+02  0.40659130224E+02  0.00000000000E+00 0.  1.
         11    1    4    4    0    0 -0.25420133490E+02 -0.14948040516E+02  0.86207006338E+01  0.30723664846E+02  0.51100000000E-03 0. -1.
        -11    1    4    4    0    0 -0.56137035453E+01  0.39536616161E+01  0.23946251484E-01  0.68662712846E+01  0.51100000000E-03 0.  1.
        -12    1    4    4    0    0 -0.16689519095E+00 -0.12770320765E+02  0.20753451364E+01  0.12938933646E+02  0.00000000000E+00 0.  1.
</event>
<event>
 8    1  0.7311878E-012  0.9118800E+02  0.7816164E-02  0.1184000E+00
        -11   -1    0    0    0    0  0.00000000000E+00  0.00000000000E+00  0.45593999997E+02  0.45594000000E+02  0.51100000000E-03 0. -1.
         11   -1    0    0    0    0 -0.00000000000E+00 -0.00000000000E+00 -0.45593999997E+02  0.45594000000E+02  0.51100000000E-03 0.  1.
         23    2    1    2    0    0 -0.17763568394E-14  0.00000000000E+00  0.00000000000E+00  0.91188000000E+02  0.91188000000E+02 0.  0.
    9900012    2    3    3    0    0 -0.12577861175E+02  0.19752537143E+02  0.33238537096E+02  0.50528860024E+02  0.30000000529E+02 0.  0.
        -12    1    3    3    0    0  0.12577861175E+02 -0.19752537143E+02 -0.33238537096E+02  0.40659139976E+02  0.00000000000E+00 0.  1.
         11    1    4    4    0    0 -0.92290016059E+01  0.37094499222E+01  0.64226315174E+01  0.11839961370E+02  0.51100000000E-03 0. -1.
        -11    1    4    4    0    0 -0.85925037033E+01 -0.48951509243E+00  0.27714513214E+01  0.90416639843E+01  0.51100000000E-03 0.  1.
        -12    1    4    4    0    0  0.52436441345E+01  0.16532602314E+02  0.24044454257E+02  0.29647234670E+02  0.00000000000E+00 0.  1.
</event>
<event>
 8    1  0.7311878E-012  0.9118800E+02  0.7816164E-02  0.1184000E+00
        -11   -1    0    0    0    0  0.00000000000E+00  0.00000000000E+00  0.45593999997E+02  0.45594000000E+02  0.51100000000E-03 0. -1.
         11   -1    0    0    0    0 -0.00000000000E+00 -0.00000000000E+00 -0.45593999997E+02  0.45594000000E+02  0.51100000000E-03 0.  1.
         23    2    1    2    0    0  0.00000000000E+00 -0.77715611724E-15  0.00000000000E+00  0.91188000000E+02  0.91188000000E+02 0.  0.
    9900012    2    3    3    0    0 -0.33708521297E+02 -0.21750113766E+00 -0.22734437072E+02  0.50528851659E+02  0.29999975104E+02 0.  0.
         12    1    3    3    0    0  0.33708521297E+02  0.21750113766E+00  0.22734437072E+02  0.40659148341E+02  0.00000000000E+00 0. -1.
         11    1    4    4    0    0 -0.17467075742E+02  0.41408840000E+01 -0.35109825284E+01  0.18291327285E+02  0.51100000000E-03 0. -1.
        -11    1    4    4    0    0 -0.10097708416E+02  0.72907625248E+01 -0.11601664739E+02  0.17021091576E+02  0.51100000000E-03 0.  1.
         12    1    4    4    0    0 -0.61437371396E+01 -0.11649147662E+02 -0.76217898045E+01  0.15216432799E+02  0.00000000000E+00 0. -1.
</event>
<event>
 8    1  0.7311878E-012  0.9118800E+02  0.7816164E-02  0.1184000E+00
        -11   -1    0    0    0    0  0.00000000000E+00  0.00000000000E+00  0.45593999997E+02  0.45594000000E+02  0.51100000000E-03 0. -1.
         11   -1    0    0    0    0 -0.00000000000E+00 -0.00000000000E+00 -0.45593999997E+02  0.45594000000E+02  0.51100000000E-03 0.  1.
         23    2    1    2    0    0  0.00000000000E+00  0.00000000000E+00  0.00000000000E+00  0.91188000000E+02  0.91188000000E+02 0.  0.
    9900012    2    3    3    0    0  0.72687586649E+01  0.15383065027E+02  0.36928208756E+02  0.50528854115E+02  0.29999982567E+02 0.  0.
        -12    1    3    3    0    0 -0.72687586649E+01 -0.15383065027E+02 -0.36928208756E+02  0.40659145885E+02  0.00000000000E+00 0.  1.
         11    1    4    4    0    0 -0.20800970325E+01  0.34891582804E+01 -0.28236384252E+00  0.40719477859E+01  0.51100000000E-03 0. -1.
        -11    1    4    4    0    0  0.10298093453E+02  0.11441979229E+02  0.82270824477E+01  0.17454354852E+02  0.51100000000E-03 0.  1.
         12    1    4    4    0    0 -0.94923775591E+00  0.45192751807E+00  0.28983490151E+02  0.29002551476E+02  0.00000000000E+00 0. -1.
</event>
<event>
 8    1  0.7311878E-012  0.9118800E+02  0.7816164E-02  0.1184000E+00
        -11   -1    0    0    0    0  0.00000000000E+00  0.00000000000E+00  0.45593999997E+02  0.45594000000E+02  0.51100000000E-03 0. -1.
         11   -1    0    0    0    0 -0.00000000000E+00 -0.00000000000E+00 -0.45593999997E+02  0.45594000000E+02  0.51100000000E-03 0.  1.
         23    2    1    2    0    0  0.00000000000E+00  0.00000000000E+00  0.00000000000E+00  0.91188000000E+02  0.91188000000E+02 0.  0.
    9900012    2    3    3    0    0 -0.17940693378E+02  0.51027109006E+01 -0.36128378694E+02  0.50528857307E+02  0.29999992271E+02 0.  0.
         12    1    3    3    0    0  0.17940693378E+02 -0.51027109006E+01  0.36128378694E+02  0.40659142693E+02  0.00000000000E+00 0. -1.
         11    1    4    4    0    0 -0.75562867692E+01  0.53880279563E-01  0.17212669514E+01  0.77500408387E+01  0.51100000000E-03 0. -1.
        -11    1    4    4    0    0  0.28818708083E+01  0.43385756970E+01 -0.45102411065E+01  0.68898979336E+01  0.51100000000E-03 0.  1.
        -12    1    4    4    0    0 -0.13266277418E+02  0.71025492399E+00 -0.33339404539E+02  0.35888918535E+02  0.00000000000E+00 0.  1.
</event>
<event>
 8    1  0.7311878E-012  0.9118800E+02  0.7816164E-02  0.1184000E+00
        -11   -1    0    0    0    0  0.00000000000E+00  0.00000000000E+00  0.45593999997E+02  0.45594000000E+02  0.51100000000E-03 0. -1.
         11   -1    0    0    0    0 -0.00000000000E+00 -0.00000000000E+00 -0.45593999997E+02  0.45594000000E+02  0.51100000000E-03 0.  1.
         23    2    1    2    0    0  0.17763568394E-14  0.35527136788E-14 -0.35527136788E-14  0.91188000000E+02  0.91188000000E+02 0.  0.
    9900012    2    3    3    0    0 -0.45038857524E+01 -0.31795366159E+02  0.24938632107E+02  0.50528859977E+02  0.30000000386E+02 0.  0.
        -12    1    3    3    0    0  0.45038857524E+01  0.31795366159E+02 -0.24938632107E+02  0.40659140023E+02  0.00000000000E+00 0.  1.
         11    1    4    4    0    0  0.22222324985E+00 -0.25061167652E+02  0.19460387692E+02  0.31730398621E+02  0.51100000000E-03 0. -1.
        -11    1    4    4    0    0  0.53926527841E+01 -0.27104929679E+00  0.39603573786E+01  0.66961632745E+01  0.51100000000E-03 0.  1.
        -12    1    4    4    0    0 -0.10118761786E+02 -0.64631492105E+01  0.15178870366E+01  0.12102298082E+02  0.00000000000E+00 0.  1.
</event>
<event>
 8    1  0.7311878E-012  0.9118800E+02  0.7816164E-02  0.1184000E+00
        -11   -1    0    0    0    0  0.00000000000E+00  0.00000000000E+00  0.45593999997E+02  0.45594000000E+02  0.51100000000E-03 0. -1.
         11   -1    0    0    0    0 -0.00000000000E+00 -0.00000000000E+00 -0.45593999997E+02  0.45594000000E+02  0.51100000000E-03 0.  1.
         23    2    1    2    0    0  0.88817841970E-15  0.88817841970E-15  0.00000000000E+00  0.91188000000E+02  0.91188000000E+02 0.  0.
    9900012    2    3    3    0    0  0.21725123425E+01  0.59220755585E+01  0.40166829697E+02  0.50528868224E+02  0.30000025455E+02 0.  0.
        -12    1    3    3    0    0 -0.21725123425E+01 -0.59220755585E+01 -0.40166829697E+02  0.40659131776E+02  0.00000000000E+00 0.  1.
         11    1    4    4    0    0  0.82947594354E+01  0.14347701158E+01  0.30955536424E+02  0.32079695057E+02  0.51100000000E-03 0. -1.
        -11    1    4    4    0    0  0.35999654038E+01 -0.21445330846E+01  0.19619122945E+01  0.46268642915E+01  0.51100000000E-03 0.  1.
         12    1    4    4    0    0 -0.97222124967E+01  0.66318385273E+01  0.72493809787E+01  0.13822308876E+02  0.00000000000E+00 0. -1.
</event>
<event>
 8    1  0.7311878E-012  0.9118800E+02  0.7816164E-02  0.1184000E+00
        -11   -1    0    0    0    0  0.00000000000E+00  0.00000000000E+00  0.45593999997E+02  0.45594000000E+02  0.51100000000E-03 0. -1.
         11   -1    0    0    0    0 -0.00000000000E+00 -0.00000000000E+00 -0.45593999997E+02  0.45594000000E+02  0.51100000000E-03 0.  1.
         23    2    1    2    0    0  0.71054273576E-14  0.17763568394E-14 -0.17763568394E-14  0.91188000000E+02  0.91188000000E+02 0.  0.
    9900012    2    3    3    0    0 -0.35851225674E+02 -0.15053979494E+02  0.11884151402E+02  0.50528859140E+02  0.29999997843E+02 0.  0.
        -12    1    3    3    0    0  0.35851225674E+02  0.15053979494E+02 -0.11884151402E+02  0.40659140860E+02  0.00000000000E+00 0.  1.
         11    1    4    4    0    0 -0.12538959920E+02 -0.10462917964E+02 -0.23405617224E+01  0.16497769475E+02  0.51100000000E-03 0. -1.
        -11    1    4    4    0    0 -0.34743918248E+01 -0.89287584841E+01  0.88081695883E+01  0.13014529510E+02  0.51100000000E-03 0.  1.
        -12    1    4    4    0    0 -0.19837873929E+02  0.43376969543E+01  0.54165435359E+01  0.21016560155E+02  0.00000000000E+00 0.  1.
</event>
<event>
 8    1  0.7311878E-012  0.9118800E+02  0.7816164E-02  0.1184000E+00
        -11   -1    0    0    0    0  0.00000000000E+00  0.00000000000E+00  0.45593999997E+02  0.45594000000E+02  0.51100000000E-03 0. -1.
         11   -1    0    0    0    0 -0.00000000000E+00 -0.00000000000E+00 -0.45593999997E+02  0.45594000000E+02  0.51100000000E-03 0.  1.
         23    2    1    2    0    0 -0.44408920985E-15  0.00000000000E+00  0.71054273576E-14  0.91188000000E+02  0.91188000000E+02 0.  0.
    9900012    2    3    3    0    0  0.21981292287E+01  0.18933708750E+02 -0.35914463788E+02  0.50528858244E+02  0.29999995119E+02 0.  0.
         12    1    3    3    0    0 -0.21981292287E+01 -0.18933708750E+02  0.35914463788E+02  0.40659141756E+02  0.00000000000E+00 0. -1.
         11    1    4    4    0    0 -0.13028459584E+01  0.16466960851E+02 -0.14640012094E+02  0.22072339287E+02  0.51100000000E-03 0. -1.
        -11    1    4    4    0    0 -0.94693525219E+00  0.94849628684E+01 -0.15970821335E+02  0.18599148942E+02  0.51100000000E-03 0.  1.
         12    1    4    4    0    0  0.44479104393E+01 -0.70182149692E+01 -0.53036303598E+01  0.98573700155E+01  0.00000000000E+00 0. -1.
</event>
<event>
 8    1  0.7311878E-012  0.9118800E+02  0.7816164E-02  0.1184000E+00
        -11   -1    0    0    0    0  0.00000000000E+00  0.00000000000E+00  0.45593999997E+02  0.45594000000E+02  0.51100000000E-03 0. -1.
         11   -1    0    0    0    0 -0.00000000000E+00 -0.00000000000E+00 -0.45593999997E+02  0.45594000000E+02  0.51100000000E-03 0.  1.
         23    2    1    2    0    0 -0.44408920985E-15  0.00000000000E+00  0.00000000000E+00  0.91188000000E+02  0.91188000000E+02 0.  0.
    9900012    2    3    3    0    0 -0.31917875167E+01  0.23459457295E+02  0.33054994937E+02  0.50528851775E+02  0.29999975454E+02 0.  0.
        -12    1    3    3    0    0  0.31917875167E+01 -0.23459457295E+02 -0.33054994937E+02  0.40659148225E+02  0.00000000000E+00 0.  1.
         11    1    4    4    0    0 -0.81487704449E+00  0.15266275974E+02  0.13778689444E+02  0.20580949681E+02  0.51100000000E-03 0. -1.
        -11    1    4    4    0    0 -0.66321960759E+01 -0.50244232096E+01  0.10966249942E+02  0.13765518204E+02  0.51100000000E-03 0.  1.
         12    1    4    4    0    0  0.42552856037E+01  0.13217604530E+02  0.83100555507E+01  0.16182383889E+02  0.00000000000E+00 0. -1.
</event>
<event>
 8    1  0.7311878E-012  0.9118800E+02  0.7816164E-02  0.1184000E+00
        -11   -1    0    0    0    0  0.00000000000E+00  0.00000000000E+00  0.45593999997E+02  0.45594000000E+02  0.51100000000E-03 0. -1.
         11   -1    0    0    0    0 -0.00000000000E+00 -0.00000000000E+00 -0.45593999997E+02  0.45594000000E+02  0.51100000000E-03 0.  1.
         23    2    1    2    0    0  0.88817841970E-15  0.00000000000E+00  0.00000000000E+00  0.91188000000E+02  0.91188000000E+02 0.  0.
    9900012    2    3    3    0    0 -0.12686127102E+01 -0.39506018220E+02 -0.95305161905E+01  0.50528860896E+02  0.30000003180E+02 0.  0.
        -12    1    3    3    0    0  0.12686127102E+01  0.39506018220E+02  0.95305161905E+01  0.40659139104E+02  0.00000000000E+00 0.  1.
         11    1    4    4    0    0 -0.11315731911E+02 -0.81079355079E+01 -0.12302898214E+01  0.13974906805E+02  0.51100000000E-03 0. -1.
        -11    1    4    4    0    0 -0.32339230664E+01 -0.57697163253E+01 -0.39578194527E+00  0.66260492364E+01  0.51100000000E-03 0.  1.
         12    1    4    4    0    0  0.13281042268E+02 -0.25628366387E+02 -0.79044444238E+01  0.29927904855E+02  0.00000000000E+00 0. -1.
</event>
<event>
 8    1  0.7311878E-012  0.9118800E+02  0.7816164E-02  0.1184000E+00
        -11   -1    0    0    0    0  0.00000000000E+00  0.00000000000E+00  0.45593999997E+02  0.45594000000E+02  0.51100000000E-03 0. -1.
         11   -1    0    0    0    0 -0.00000000000E+00 -0.00000000000E+00 -0.45593999997E+02  0.45594000000E+02  0.51100000000E-03 0.  1.
         23    2    1    2    0    0  0.00000000000E+00  0.17763568394E-14  0.35527136788E-14  0.91188000000E+02  0.91188000000E+02 0.  0.
    9900012    2    3    3    0    0  0.22586503236E+02  0.14603938357E+02  0.30491595631E+02  0.50528898337E+02  0.30000116983E+02 0.  0.
        -12    1    3    3    0    0 -0.22586503236E+02 -0.14603938357E+02 -0.30491595631E+02  0.40659101663E+02  0.00000000000E+00 0.  1.
         11    1    4    4    0    0  0.10378845302E+02 -0.21825647174E+01  0.78771816926E+01  0.13211132057E+02  0.51100000000E-03 0. -1.
        -11    1    4    4    0    0  0.78205802331E+01  0.67445950544E+01 -0.18679571650E+01  0.10494774979E+02  0.51100000000E-03 0.  1.
         12    1    4    4    0    0  0.43870776999E+01  0.10041908020E+02  0.24482371103E+02  0.26822991300E+02  0.00000000000E+00 0. -1.
</event>
<event>
 8    1  0.7311878E-012  0.9118800E+02  0.7816164E-02  0.1184000E+00
        -11   -1    0    0    0    0  0.00000000000E+00  0.00000000000E+00  0.45593999997E+02  0.45594000000E+02  0.51100000000E-03 0. -1.
         11   -1    0    0    0    0 -0.00000000000E+00 -0.00000000000E+00 -0.45593999997E+02  0.45594000000E+02  0.51100000000E-03 0.  1.
         23    2    1    2    0    0  0.00000000000E+00 -0.35527136788E-14 -0.35527136788E-14  0.91188000000E+02  0.91188000000E+02 0.  0.
    9900012    2    3    3    0    0 -0.22625576075E+01  0.25623805688E+02  0.31487561408E+02  0.50528866853E+02  0.30000021287E+02 0.  0.
        -12    1    3    3    0    0  0.22625576075E+01 -0.25623805688E+02 -0.31487561408E+02  0.40659133147E+02  0.00000000000E+00 0.  1.
         11    1    4    4    0    0  0.24170252597E+01  0.54271262087E+01  0.14146859439E+02  0.15343706926E+02  0.51100000000E-03 0. -1.
        -11    1    4    4    0    0  0.21426810940E+01 -0.44037969246E+01  0.14216584497E+01  0.50995708283E+01  0.51100000000E-03 0.  1.
         12    1    4    4    0    0 -0.68222639612E+01  0.24600476404E+02  0.15919043519E+02  0.30085589099E+02  0.00000000000E+00 0. -1.
</event>
<event>
 8    1  0.7311878E-012  0.9118800E+02  0.7816164E-02  0.1184000E+00
        -11   -1    0    0    0    0  0.00000000000E+00  0.00000000000E+00  0.45593999997E+02  0.45594000000E+02  0.51100000000E-03 0. -1.
         11   -1    0    0    0    0 -0.00000000000E+00 -0.00000000000E+00 -0.45593999997E+02  0.45594000000E+02  0.51100000000E-03 0.  1.
         23    2    1    2    0    0  0.00000000000E+00  0.00000000000E+00  0.00000000000E+00  0.91188000000E+02  0.91188000000E+02 0.  0.
    9900012    2    3    3    0    0 -0.26501580977E+02  0.83204716348E+01 -0.29691777133E+02  0.50528859923E+02  0.30000000222E+02 0.  0.
         12    1    3    3    0    0  0.26501580977E+02 -0.83204716348E+01  0.29691777133E+02  0.40659140077E+02  0.00000000000E+00 0. -1.
         11    1    4    4    0    0 -0.95575347969E+01 -0.70402134808E+00 -0.42205046924E+00  0.95927182963E+01  0.51100000000E-03 0. -1.
        -11    1    4    4    0    0 -0.50584144174E+01 -0.43023172947E+01 -0.19460500737E+02  0.20562309688E+02  0.51100000000E-03 0.  1.
         12    1    4    4    0    0 -0.11885631763E+02  0.13326810278E+02 -0.98092259265E+01  0.20373831938E+02  0.00000000000E+00 0. -1.
</event>
<event>
 8    1  0.7311878E-012  0.9118800E+02  0.7816164E-02  0.1184000E+00
        -11   -1    0    0    0    0  0.00000000000E+00  0.00000000000E+00  0.45593999997E+02  0.45594000000E+02  0.51100000000E-03 0.  1.
         11   -1    0    0    0    0 -0.00000000000E+00 -0.00000000000E+00 -0.45593999997E+02  0.45594000000E+02  0.51100000000E-03 0. -1.
         23    2    1    2    0    0  0.00000000000E+00 -0.35527136788E-14  0.00000000000E+00  0.91188000000E+02  0.91188000000E+02 0.  0.
    9900012    2    3    3    0    0 -0.21502052427E+02  0.23485572599E+02  0.25283531998E+02  0.50528839050E+02  0.29999936776E+02 0.  0.
        -12    1    3    3    0    0  0.21502052427E+02 -0.23485572599E+02 -0.25283531998E+02  0.40659160950E+02  0.00000000000E+00 0.  1.
         11    1    4    4    0    0 -0.82612756520E+01 -0.18672185825E+01  0.60574172998E+01  0.10412851926E+02  0.51100000000E-03 0. -1.
        -11    1    4    4    0    0  0.41686905393E+01  0.13350251315E+01 -0.62654679077E+00  0.44218586653E+01  0.51100000000E-03 0.  1.
         12    1    4    4    0    0 -0.17409467314E+02  0.24017766050E+02  0.19852661489E+02  0.35694128458E+02  0.00000000000E+00 0. -1.
</event>
<event>
 8    1  0.7311878E-012  0.9118800E+02  0.7816164E-02  0.1184000E+00
        -11   -1    0    0    0    0  0.00000000000E+00  0.00000000000E+00  0.45593999997E+02  0.45594000000E+02  0.51100000000E-03 0. -1.
         11   -1    0    0    0    0 -0.00000000000E+00 -0.00000000000E+00 -0.45593999997E+02  0.45594000000E+02  0.51100000000E-03 0.  1.
         23    2    1    2    0    0  0.00000000000E+00 -0.17763568394E-14 -0.35527136788E-14  0.91188000000E+02  0.91188000000E+02 0.  0.
    9900012    2    3    3    0    0  0.33074049299E+02 -0.72631190109E+01  0.22506010251E+02  0.50528854261E+02  0.29999983013E+02 0.  0.
        -12    1    3    3    0    0 -0.33074049299E+02  0.72631190109E+01 -0.22506010251E+02  0.40659145739E+02  0.00000000000E+00 0.  1.
         11    1    4    4    0    0  0.82164327296E+01 -0.78021593793E+01 -0.14802593828E+01  0.11426925478E+02  0.51100000000E-03 0. -1.
        -11    1    4    4    0    0  0.20252078989E+02 -0.42028143708E+01  0.86834119152E+01  0.22432387184E+02  0.51100000000E-03 0.  1.
         12    1    4    4    0    0  0.46055375799E+01  0.47418547393E+01  0.15302857719E+02  0.16669541599E+02  0.00000000000E+00 0. -1.
</event>
<event>
 8    1  0.7311878E-012  0.9118800E+02  0.7816164E-02  0.1184000E+00
        -11   -1    0    0    0    0  0.00000000000E+00  0.00000000000E+00  0.45593999997E+02  0.45594000000E+02  0.51100000000E-03 0. -1.
         11   -1    0    0    0    0 -0.00000000000E+00 -0.00000000000E+00 -0.45593999997E+02  0.45594000000E+02  0.51100000000E-03 0.  1.
         23    2    1    2    0    0 -0.55511151231E-15  0.00000000000E+00  0.00000000000E+00  0.91188000000E+02  0.91188000000E+02 0.  0.
    9900012    2    3    3    0    0 -0.96083732123E+00  0.23199983962E+02 -0.33376685983E+02  0.50528860420E+02  0.30000001731E+02 0.  0.
         12    1    3    3    0    0  0.96083732123E+00 -0.23199983962E+02  0.33376685983E+02  0.40659139580E+02  0.00000000000E+00 0. -1.
         11    1    4    4    0    0  0.10488163737E+02  0.21432090091E+02 -0.16858618134E+02  0.29215562119E+02  0.51100000000E-03 0. -1.
        -11    1    4    4    0    0 -0.50156118635E+01  0.16767870236E+01 -0.24188315335E+01  0.58153867745E+01  0.51100000000E-03 0.  1.
        -12    1    4    4    0    0 -0.64333891948E+01  0.91106846864E-01 -0.14099236316E+02  0.15497911527E+02  0.00000000000E+00 0.  1.
</event>
<event>
 8    1  0.7311878E-012  0.9118800E+02  0.7816164E-02  0.1184000E+00
        -11   -1    0    0    0    0  0.00000000000E+00  0.00000000000E+00  0.45593999997E+02  0.45594000000E+02  0.51100000000E-03 0. -1.
         11   -1    0    0    0    0 -0.00000000000E+00 -0.00000000000E+00 -0.45593999997E+02  0.45594000000E+02  0.51100000000E-03 0.  1.
         23    2    1    2    0    0  0.00000000000E+00  0.00000000000E+00 -0.35527136788E-14  0.91188000000E+02  0.91188000000E+02 0.  0.
    9900012    2    3    3    0    0 -0.33504525506E+02 -0.99056081116E+01  0.20796435956E+02  0.50528855273E+02  0.29999986087E+02 0.  0.
        -12    1    3    3    0    0  0.33504525506E+02  0.99056081116E+01 -0.20796435956E+02  0.40659144727E+02  0.00000000000E+00 0.  1.
         11    1    4    4    0    0 -0.49925416229E+01  0.21248721230E+00  0.11509524978E+02  0.12547501271E+02  0.51100000000E-03 0. -1.
        -11    1    4    4    0    0 -0.11090521493E+02  0.62279867641E+01  0.12705712976E+01  0.12782872830E+02  0.51100000000E-03 0.  1.
        -12    1    4    4    0    0 -0.17421462391E+02 -0.16346082088E+02  0.80163396802E+01  0.25198481171E+02  0.00000000000E+00 0.  1.
</event>
<event>
 8    1  0.7311878E-012  0.9118800E+02  0.7816164E-02  0.1184000E+00
        -11   -1    0    0    0    0  0.00000000000E+00  0.00000000000E+00  0.45593999997E+02  0.45594000000E+02  0.51100000000E-03 0. -1.
         11   -1    0    0    0    0 -0.00000000000E+00 -0.00000000000E+00 -0.45593999997E+02  0.45594000000E+02  0.51100000000E-03 0.  1.
         23    2    1    2    0    0  0.00000000000E+00  0.00000000000E+00  0.00000000000E+00  0.91188000000E+02  0.91188000000E+02 0.  0.
    9900012    2    3    3    0    0  0.22502967581E+02  0.17229245215E+02 -0.29153638301E+02  0.50528867362E+02  0.30000022834E+02 0.  0.
         12    1    3    3    0    0 -0.22502967581E+02 -0.17229245215E+02  0.29153638301E+02  0.40659132638E+02  0.00000000000E+00 0. -1.
         11    1    4    4    0    0  0.92070419511E+00  0.11531455152E+01  0.26917866506E+01  0.30697160174E+01  0.51100000000E-03 0. -1.
        -11    1    4    4    0    0  0.18238749052E+02  0.48375842836E+01 -0.72545432748E+01  0.20215899363E+02  0.51100000000E-03 0.  1.
        -12    1    4    4    0    0  0.33435143341E+01  0.11238515416E+02 -0.24590881677E+02  0.27243251982E+02  0.00000000000E+00 0.  1.
</event>
<event>
 8    1  0.7311878E-012  0.9118800E+02  0.7816164E-02  0.1184000E+00
        -11   -1    0    0    0    0  0.00000000000E+00  0.00000000000E+00  0.45593999997E+02  0.45594000000E+02  0.51100000000E-03 0. -1.
         11   -1    0    0    0    0 -0.00000000000E+00 -0.00000000000E+00 -0.45593999997E+02  0.45594000000E+02  0.51100000000E-03 0.  1.
         23    2    1    2    0    0  0.35527136788E-14  0.00000000000E+00  0.00000000000E+00  0.91188000000E+02  0.91188000000E+02 0.  0.
    9900012    2    3    3    0    0 -0.31314492234E+02  0.87125772174E+01  0.24426614849E+02  0.50528856642E+02  0.29999990248E+02 0.  0.
        -12    1    3    3    0    0  0.31314492234E+02 -0.87125772174E+01 -0.24426614849E+02  0.40659143358E+02  0.00000000000E+00 0.  1.
         11    1    4    4    0    0 -0.24470154611E+02  0.93679156789E+01  0.15391694107E+02  0.30388329316E+02  0.51100000000E-03 0. -1.
        -11    1    4    4    0    0 -0.10161282064E+01 -0.43006045776E+01  0.11899291713E+02  0.12693339190E+02  0.51100000000E-03 0.  1.
        -12    1    4    4    0    0 -0.58282094164E+01  0.36452661161E+01 -0.28643709717E+01  0.74471881352E+01  0.00000000000E+00 0.  1.
</event>
<event>
 8    1  0.7311878E-012  0.9118800E+02  0.7816164E-02  0.1184000E+00
        -11   -1    0    0    0    0  0.00000000000E+00  0.00000000000E+00  0.45593999997E+02  0.45594000000E+02  0.51100000000E-03 0. -1.
         11   -1    0    0    0    0 -0.00000000000E+00 -0.00000000000E+00 -0.45593999997E+02  0.45594000000E+02  0.51100000000E-03 0.  1.
         23    2    1    2    0    0  0.17763568394E-14 -0.22204460493E-15  0.00000000000E+00  0.91188000000E+02  0.91188000000E+02 0.  0.
    9900012    2    3    3    0    0  0.12411685472E+02  0.10991206369E+01 -0.38702778111E+02  0.50528892337E+02  0.30000098746E+02 0.  0.
         12    1    3    3    0    0 -0.12411685472E+02 -0.10991206369E+01  0.38702778111E+02  0.40659107663E+02  0.00000000000E+00 0. -1.
         11    1    4    4    0    0  0.27306854764E+01 -0.75087575304E+01 -0.19792635037E+02  0.21344471996E+02  0.51100000000E-03 0. -1.
        -11    1    4    4    0    0 -0.57693530787E+00 -0.12610866393E+01  0.28572061694E+01  0.31759756323E+01  0.51100000000E-03 0.  1.
        -12    1    4    4    0    0  0.10257935304E+02  0.98689648067E+01 -0.21767349244E+02  0.26008444709E+02  0.00000000000E+00 0.  1.
</event>
<event>
 8    1  0.7311878E-012  0.9118800E+02  0.7816164E-02  0.1184000E+00
        -11   -1    0    0    0    0  0.00000000000E+00  0.00000000000E+00  0.45593999997E+02  0.45594000000E+02  0.51100000000E-03 0. -1.
         11   -1    0    0    0    0 -0.00000000000E+00 -0.00000000000E+00 -0.45593999997E+02  0.45594000000E+02  0.51100000000E-03 0.  1.
         23    2    1    2    0    0 -0.17763568394E-14 -0.17763568394E-14  0.00000000000E+00  0.91188000000E+02  0.91188000000E+02 0.  0.
    9900012    2    3    3    0    0 -0.80026626988E+01 -0.93774763721E+01  0.38745139914E+02  0.50528861540E+02  0.30000005137E+02 0.  0.
        -12    1    3    3    0    0  0.80026626988E+01  0.93774763721E+01 -0.38745139914E+02  0.40659138460E+02  0.00000000000E+00 0.  1.
         11    1    4    4    0    0 -0.52223744504E+01 -0.98784804975E+01  0.14219327691E+02  0.18084436736E+02  0.51100000000E-03 0. -1.
        -11    1    4    4    0    0 -0.25013519701E+01 -0.28723121007E+00  0.28384620010E+02  0.28496068445E+02  0.51100000000E-03 0.  1.
         12    1    4    4    0    0 -0.27893627833E+00  0.78823533554E+00 -0.38588077873E+01  0.39483563582E+01  0.00000000000E+00 0. -1.
</event>
<event>
 8    1  0.7311878E-012  0.9118800E+02  0.7816164E-02  0.1184000E+00
        -11   -1    0    0    0    0  0.00000000000E+00  0.00000000000E+00  0.45593999997E+02  0.45594000000E+02  0.51100000000E-03 0. -1.
         11   -1    0    0    0    0 -0.00000000000E+00 -0.00000000000E+00 -0.45593999997E+02  0.45594000000E+02  0.51100000000E-03 0.  1.
         23    2    1    2    0    0 -0.88817841970E-15  0.00000000000E+00  0.00000000000E+00  0.91188000000E+02  0.91188000000E+02 0.  0.
    9900012    2    3    3    0    0  0.53802296059E+01 -0.36575050287E+02 -0.16925818445E+02  0.50528874282E+02  0.30000043868E+02 0.  0.
         12    1    3    3    0    0 -0.53802296059E+01  0.36575050287E+02  0.16925818445E+02  0.40659125718E+02  0.00000000000E+00 0. -1.
         11    1    4    4    0    0 -0.64622196377E+01 -0.15568751397E+02 -0.25906271181E+01  0.17054549300E+02  0.51100000000E-03 0. -1.
        -11    1    4    4    0    0  0.18114083954E+01  0.50512408590E+00  0.33725254359E+01  0.38613830157E+01  0.51100000000E-03 0.  1.
        -12    1    4    4    0    0  0.10031040848E+02 -0.21511422976E+02 -0.17707716762E+02  0.29612941966E+02  0.00000000000E+00 0.  1.
</event>
<event>
 8    1  0.7311878E-012  0.9118800E+02  0.7816164E-02  0.1184000E+00
        -11   -1    0    0    0    0  0.00000000000E+00  0.00000000000E+00  0.45593999997E+02  0.45594000000E+02  0.51100000000E-03 0. -1.
         11   -1    0    0    0    0 -0.00000000000E+00 -0.00000000000E+00 -0.45593999997E+02  0.45594000000E+02  0.51100000000E-03 0.  1.
         23    2    1    2    0    0  0.17763568394E-14 -0.35527136788E-14 -0.35527136788E-14  0.91188000000E+02  0.91188000000E+02 0.  0.
    9900012    2    3    3    0    0 -0.14194374358E+02  0.29497594029E+02  0.24115931394E+02  0.50528850182E+02  0.29999970613E+02 0.  0.
        -12    1    3    3    0    0  0.14194374358E+02 -0.29497594029E+02 -0.24115931394E+02  0.40659149818E+02  0.00000000000E+00 0.  1.
         11    1    4    4    0    0 -0.72596134036E+01  0.19906893295E+02  0.17300928867E+02  0.27355228519E+02  0.51100000000E-03 0. -1.
        -11    1    4    4    0    0 -0.13257775369E+02  0.79781311331E+01  0.35420780951E+01  0.15873421232E+02  0.51100000000E-03 0.  1.
        -12    1    4    4    0    0  0.63230144140E+01  0.16125696008E+01  0.32729244320E+01  0.73002004311E+01  0.00000000000E+00 0.  1.
</event>
<event>
 8    1  0.7311878E-012  0.9118800E+02  0.7816164E-02  0.1184000E+00
        -11   -1    0    0    0    0  0.00000000000E+00  0.00000000000E+00  0.45593999997E+02  0.45594000000E+02  0.51100000000E-03 0.  1.
         11   -1    0    0    0    0 -0.00000000000E+00 -0.00000000000E+00 -0.45593999997E+02  0.45594000000E+02  0.51100000000E-03 0. -1.
         23    2    1    2    0    0 -0.17763568394E-14  0.71054273576E-14  0.00000000000E+00  0.91188000000E+02  0.91188000000E+02 0.  0.
    9900012    2    3    3    0    0 -0.93761948196E+01  0.39492179899E+02  0.23707887154E+01  0.50528856605E+02  0.29999990137E+02 0.  0.
         12    1    3    3    0    0  0.93761948196E+01 -0.39492179899E+02 -0.23707887154E+01  0.40659143395E+02  0.00000000000E+00 0. -1.
         11    1    4    4    0    0  0.29609418744E+01 -0.31930910035E+01  0.26259192139E+01  0.50851213278E+01  0.51100000000E-03 0. -1.
        -11    1    4    4    0    0 -0.33579802943E+01  0.21737169647E+02 -0.39733599504E+01  0.22351021576E+02  0.51100000000E-03 0.  1.
        -12    1    4    4    0    0 -0.89791563997E+01  0.20948101255E+02  0.37182294519E+01  0.23092713702E+02  0.00000000000E+00 0.  1.
</event>
<event>
 8    1  0.7311878E-012  0.9118800E+02  0.7816164E-02  0.1184000E+00
        -11   -1    0    0    0    0  0.00000000000E+00  0.00000000000E+00  0.45593999997E+02  0.45594000000E+02  0.51100000000E-03 0. -1.
         11   -1    0    0    0    0 -0.00000000000E+00 -0.00000000000E+00 -0.45593999997E+02  0.45594000000E+02  0.51100000000E-03 0.  1.
         23    2    1    2    0    0  0.71054273576E-14  0.00000000000E+00  0.00000000000E+00  0.91188000000E+02  0.91188000000E+02 0.  0.
    9900012    2    3    3    0    0  0.32979165926E+02  0.90770997095E+01 -0.21980590498E+02  0.50528862246E+02  0.30000007282E+02 0.  0.
         12    1    3    3    0    0 -0.32979165926E+02 -0.90770997095E+01  0.21980590498E+02  0.40659137754E+02  0.00000000000E+00 0. -1.
         11    1    4    4    0    0  0.17456535909E+02 -0.61115594633E+00 -0.37332984297E+01  0.17861737736E+02  0.51100000000E-03 0. -1.
        -11    1    4    4    0    0  0.11807276508E+02  0.99507445020E+01 -0.15036202582E+01  0.15514186051E+02  0.51100000000E-03 0.  1.
         12    1    4    4    0    0  0.37153535092E+01 -0.26248884614E+00 -0.16743671810E+02  0.17152938459E+02  0.00000000000E+00 0. -1.
</event>
<event>
 8    1  0.7311878E-012  0.9118800E+02  0.7816164E-02  0.1184000E+00
        -11   -1    0    0    0    0  0.00000000000E+00  0.00000000000E+00  0.45593999997E+02  0.45594000000E+02  0.51100000000E-03 0. -1.
         11   -1    0    0    0    0 -0.00000000000E+00 -0.00000000000E+00 -0.45593999997E+02  0.45594000000E+02  0.51100000000E-03 0.  1.
         23    2    1    2    0    0  0.00000000000E+00  0.35527136788E-14 -0.35527136788E-14  0.91188000000E+02  0.91188000000E+02 0.  0.
    9900012    2    3    3    0    0  0.54883261653E+01 -0.31320195599E+02  0.25339495345E+02  0.50528850959E+02  0.29999972974E+02 0.  0.
        -12    1    3    3    0    0 -0.54883261653E+01  0.31320195599E+02 -0.25339495345E+02  0.40659149041E+02  0.00000000000E+00 0.  1.
         11    1    4    4    0    0  0.99510430315E+01 -0.13814616995E+02  0.15603335067E+02  0.23093959505E+02  0.51100000000E-03 0. -1.
        -11    1    4    4    0    0  0.83264262620E+00 -0.59750837068E+00 -0.45567924569E+01  0.46706174916E+01  0.51100000000E-03 0.  1.
         12    1    4    4    0    0 -0.52953594924E+01 -0.16908070233E+02  0.14292952735E+02  0.22764273962E+02  0.00000000000E+00 0. -1.
</event>
<event>
 8    1  0.7311878E-012  0.9118800E+02  0.7816164E-02  0.1184000E+00
        -11   -1    0    0    0    0  0.00000000000E+00  0.00000000000E+00  0.45593999997E+02  0.45594000000E+02  0.51100000000E-03 0. -1.
         11   -1    0    0    0    0 -0.00000000000E+00 -0.00000000000E+00 -0.45593999997E+02  0.45594000000E+02  0.51100000000E-03 0.  1.
         23    2    1    2    0    0  0.17763568394E-14  0.17763568394E-14  0.00000000000E+00  0.91188000000E+02  0.91188000000E+02 0.  0.
    9900012    2    3    3    0    0 -0.10328514655E+02 -0.14095445299E+02 -0.36712482647E+02  0.50528853732E+02  0.29999981404E+02 0.  0.
         12    1    3    3    0    0  0.10328514655E+02  0.14095445299E+02  0.36712482647E+02  0.40659146268E+02  0.00000000000E+00 0. -1.
         11    1    4    4    0    0 -0.55362217336E+01 -0.57958047084E+01 -0.57073380226E+01  0.98394517565E+01  0.51100000000E-03 0. -1.
        -11    1    4    4    0    0 -0.14541873272E+02 -0.47552382436E+01 -0.22825066494E+02  0.27478392051E+02  0.51100000000E-03 0.  1.
         12    1    4    4    0    0  0.97495803504E+01 -0.35444023473E+01 -0.81800781304E+01  0.13211009925E+02  0.00000000000E+00 0. -1.
</event>
<event>
 8    1  0.7311878E-012  0.9118800E+02  0.7816164E-02  0.1184000E+00
        -11   -1    0    0    0    0  0.00000000000E+00  0.00000000000E+00  0.45593999997E+02  0.45594000000E+02  0.51100000000E-03 0. -1.
         11   -1    0    0    0    0 -0.00000000000E+00 -0.00000000000E+00 -0.45593999997E+02  0.45594000000E+02  0.51100000000E-03 0.  1.
         23    2    1    2    0    0 -0.35527136788E-14  0.00000000000E+00  0.00000000000E+00  0.91188000000E+02  0.91188000000E+02 0.  0.
    9900012    2    3    3    0    0  0.19984266248E+02  0.12382287610E+02  0.33173451074E+02  0.50528809156E+02  0.29999845911E+02 0.  0.
        -12    1    3    3    0    0 -0.19984266248E+02 -0.12382287610E+02 -0.33173451074E+02  0.40659190844E+02  0.00000000000E+00 0.  1.
         11    1    4    4    0    0  0.14416486911E+02  0.10983361204E+02  0.61780400816E+01  0.19147780490E+02  0.51100000000E-03 0.  1.
        -11    1    4    4    0    0  0.34403684323E+01 -0.33878741598E+01  0.10881911218E+01  0.49495440650E+01  0.51100000000E-03 0. -1.
         12    1    4    4    0    0  0.21274109051E+01  0.47868005660E+01  0.25907219870E+02  0.26431484601E+02  0.00000000000E+00 0. -1.
</event>
<event>
 8    1  0.7311878E-012  0.9118800E+02  0.7816164E-02  0.1184000E+00
        -11   -1    0    0    0    0  0.00000000000E+00  0.00000000000E+00  0.45593999997E+02  0.45594000000E+02  0.51100000000E-03 0. -1.
         11   -1    0    0    0    0 -0.00000000000E+00 -0.00000000000E+00 -0.45593999997E+02  0.45594000000E+02  0.51100000000E-03 0.  1.
         23    2    1    2    0    0 -0.35527136788E-14  0.35527136788E-14  0.00000000000E+00  0.91188000000E+02  0.91188000000E+02 0.  0.
    9900012    2    3    3    0    0  0.27812222945E+02 -0.22709148141E+02 -0.19077216610E+02  0.50528863904E+02  0.30000012323E+02 0.  0.
         12    1    3    3    0    0 -0.27812222945E+02  0.22709148141E+02  0.19077216610E+02  0.40659136096E+02  0.00000000000E+00 0. -1.
         11    1    4    4    0    0  0.59208023249E+01 -0.15300371875E+02 -0.16490798776E+02  0.23261636319E+02  0.51100000000E-03 0. -1.
        -11    1    4    4    0    0  0.12784070418E+02 -0.11449054906E+02 -0.21350608851E+01  0.17293692490E+02  0.51100000000E-03 0.  1.
         12    1    4    4    0    0  0.91073502029E+01  0.40402786401E+01 -0.45135694896E+00  0.99735350956E+01  0.00000000000E+00 0. -1.
</event>
<event>
 8    1  0.7311878E-012  0.9118800E+02  0.7816164E-02  0.1184000E+00
        -11   -1    0    0    0    0  0.00000000000E+00  0.00000000000E+00  0.45593999997E+02  0.45594000000E+02  0.51100000000E-03 0.  1.
         11   -1    0    0    0    0 -0.00000000000E+00 -0.00000000000E+00 -0.45593999997E+02  0.45594000000E+02  0.51100000000E-03 0. -1.
         23    2    1    2    0    0 -0.88817841970E-15  0.71054273576E-14 -0.17763568394E-14  0.91188000000E+02  0.91188000000E+02 0.  0.
    9900012    2    3    3    0    0 -0.64616379518E+01  0.38368921123E+02 -0.11799942070E+02  0.50528861961E+02  0.30000006418E+02 0.  0.
         12    1    3    3    0    0  0.64616379518E+01 -0.38368921123E+02  0.11799942070E+02  0.40659138039E+02  0.00000000000E+00 0. -1.
         11    1    4    4    0    0 -0.94207928632E+01  0.77151768239E+01  0.49144740764E+00  0.12186747409E+02  0.51100000000E-03 0. -1.
        -11    1    4    4    0    0 -0.42754310597E+00  0.93267000032E+00 -0.80668945512E+01  0.81318788972E+01  0.51100000000E-03 0.  1.
        -12    1    4    4    0    0  0.33866980174E+01  0.29721074299E+02 -0.42244949266E+01  0.30210235655E+02  0.00000000000E+00 0.  1.
</event>
<event>
 8    1  0.7311878E-012  0.9118800E+02  0.7816164E-02  0.1184000E+00
        -11   -1    0    0    0    0  0.00000000000E+00  0.00000000000E+00  0.45593999997E+02  0.45594000000E+02  0.51100000000E-03 0.  1.
         11   -1    0    0    0    0 -0.00000000000E+00 -0.00000000000E+00 -0.45593999997E+02  0.45594000000E+02  0.51100000000E-03 0. -1.
         23    2    1    2    0    0  0.00000000000E+00  0.00000000000E+00 -0.35527136788E-14  0.91188000000E+02  0.91188000000E+02 0.  0.
    9900012    2    3    3    0    0  0.32070375626E+02  0.12030986033E+02 -0.21906900926E+02  0.50528856799E+02  0.29999990725E+02 0.  0.
         12    1    3    3    0    0 -0.32070375626E+02 -0.12030986033E+02  0.21906900926E+02  0.40659143201E+02  0.00000000000E+00 0. -1.
         11    1    4    4    0    0  0.88422133741E+01 -0.23208710590E+01 -0.14202644127E+02  0.16890419778E+02  0.51100000000E-03 0. -1.
        -11    1    4    4    0    0  0.17881722266E+02  0.77284402717E+01 -0.13177398540E+02  0.23518686460E+02  0.51100000000E-03 0.  1.
         12    1    4    4    0    0  0.53464399853E+01  0.66234168200E+01  0.54731417414E+01  0.10119750561E+02  0.00000000000E+00 0. -1.
</event>
<event>
 8    1  0.7311878E-012  0.9118800E+02  0.7816164E-02  0.1184000E+00
        -11   -1    0    0    0    0  0.00000000000E+00  0.00000000000E+00  0.45593999997E+02  0.45594000000E+02  0.51100000000E-03 0. -1.
         11   -1    0    0    0    0 -0.00000000000E+00 -0.00000000000E+00 -0.45593999997E+02  0.45594000000E+02  0.51100000000E-03 0.  1.
         23    2    1    2    0    0  0.17763568394E-14 -0.35527136788E-14  0.71054273576E-14  0.91188000000E+02  0.91188000000E+02 0.  0.
    9900012    2    3    3    0    0  0.83104422589E+01 -0.15395982188E+02  0.36702398389E+02  0.50528858770E+02  0.29999996718E+02 0.  0.
        -12    1    3    3    0    0 -0.83104422589E+01  0.15395982188E+02 -0.36702398389E+02  0.40659141230E+02  0.00000000000E+00 0.  1.
         11    1    4    4    0    0 -0.28239508247E+01  0.10218153791E+01 -0.20163173950E+01  0.36172283626E+01  0.51100000000E-03 0. -1.
        -11    1    4    4    0    0  0.11117469860E+02 -0.63571532039E+01  0.93196853250E+01  0.15838815226E+02  0.51100000000E-03 0.  1.
         12    1    4    4    0    0  0.16923223142E-01 -0.10060644363E+02  0.29399030458E+02  0.31072815181E+02  0.00000000000E+00 0. -1.
</event>
<event>
 8    1  0.7311878E-012  0.9118800E+02  0.7816164E-02  0.1184000E+00
        -11   -1    0    0    0    0  0.00000000000E+00  0.00000000000E+00  0.45593999997E+02  0.45594000000E+02  0.51100000000E-03 0. -1.
         11   -1    0    0    0    0 -0.00000000000E+00 -0.00000000000E+00 -0.45593999997E+02  0.45594000000E+02  0.51100000000E-03 0.  1.
         23    2    1    2    0    0  0.35527136788E-14  0.00000000000E+00  0.00000000000E+00  0.91188000000E+02  0.91188000000E+02 0.  0.
    9900012    2    3    3    0    0 -0.19851616845E+02 -0.21844998873E+02  0.27962028573E+02  0.50528859465E+02  0.29999998829E+02 0.  0.
        -12    1    3    3    0    0  0.19851616845E+02  0.21844998873E+02 -0.27962028573E+02  0.40659140535E+02  0.00000000000E+00 0.  1.
         11    1    4    4    0    0 -0.83298371865E+01  0.88661230359E+00  0.87224765823E+01  0.12093546499E+02  0.51100000000E-03 0. -1.
        -11    1    4    4    0    0 -0.17642033529E+02 -0.13785407122E+02  0.13888141023E+02  0.26346902244E+02  0.51100000000E-03 0.  1.
        -12    1    4    4    0    0  0.61202538702E+01 -0.89462040545E+01  0.53514109685E+01  0.12088410722E+02  0.00000000000E+00 0.  1.
</event>
<event>
 8    1  0.7311878E-012  0.9118800E+02  0.7816164E-02  0.1184000E+00
        -11   -1    0    0    0    0  0.00000000000E+00  0.00000000000E+00  0.45593999997E+02  0.45594000000E+02  0.51100000000E-03 0. -1.
         11   -1    0    0    0    0 -0.00000000000E+00 -0.00000000000E+00 -0.45593999997E+02  0.45594000000E+02  0.51100000000E-03 0.  1.
         23    2    1    2    0    0 -0.35527136788E-14  0.00000000000E+00  0.00000000000E+00  0.91188000000E+02  0.91188000000E+02 0.  0.
    9900012    2    3    3    0    0  0.19668324899E+02 -0.26374615813E+02  0.23889372029E+02  0.50528862533E+02  0.30000008155E+02 0.  0.
        -12    1    3    3    0    0 -0.19668324899E+02  0.26374615813E+02 -0.23889372029E+02  0.40659137467E+02  0.00000000000E+00 0.  1.
         11    1    4    4    0    0  0.69853255793E+01  0.35861860625E+01  0.35454783730E+01  0.86154466558E+01  0.51100000000E-03 0. -1.
        -11    1    4    4    0    0 -0.38629248628E+01 -0.95559932058E+01  0.46037355018E+01  0.11288648080E+02  0.51100000000E-03 0.  1.
         12    1    4    4    0    0  0.16545924183E+02 -0.20404808669E+02  0.15740158155E+02  0.30624767797E+02  0.00000000000E+00 0. -1.
</event>
<event>
 8    1  0.7311878E-012  0.9118800E+02  0.7816164E-02  0.1184000E+00
        -11   -1    0    0    0    0  0.00000000000E+00  0.00000000000E+00  0.45593999997E+02  0.45594000000E+02  0.51100000000E-03 0. -1.
         11   -1    0    0    0    0 -0.00000000000E+00 -0.00000000000E+00 -0.45593999997E+02  0.45594000000E+02  0.51100000000E-03 0.  1.
         23    2    1    2    0    0  0.00000000000E+00  0.00000000000E+00  0.71054273576E-14  0.91188000000E+02  0.91188000000E+02 0.  0.
    9900012    2    3    3    0    0  0.11711338989E+02  0.27207058121E+02 -0.27852940209E+02  0.50528858951E+02  0.29999997269E+02 0.  0.
         12    1    3    3    0    0 -0.11711338989E+02 -0.27207058121E+02  0.27852940209E+02  0.40659141049E+02  0.00000000000E+00 0. -1.
         11    1    4    4    0    0 -0.46383785094E+01  0.10156555660E+02 -0.19065966880E+02  0.22094824539E+02  0.51100000000E-03 0. -1.
        -11    1    4    4    0    0  0.10263710428E+02  0.95602292400E+01 -0.11793350098E+02  0.18325524322E+02  0.51100000000E-03 0.  1.
         12    1    4    4    0    0  0.60860070700E+01  0.74902732205E+01  0.30063767687E+01  0.10108510090E+02  0.00000000000E+00 0. -1.
</event>
<event>
 8    1  0.7311878E-012  0.9118800E+02  0.7816164E-02  0.1184000E+00
        -11   -1    0    0    0    0  0.00000000000E+00  0.00000000000E+00  0.45593999997E+02  0.45594000000E+02  0.51100000000E-03 0. -1.
         11   -1    0    0    0    0 -0.00000000000E+00 -0.00000000000E+00 -0.45593999997E+02  0.45594000000E+02  0.51100000000E-03 0.  1.
         23    2    1    2    0    0 -0.19984014443E-14 -0.17763568394E-14  0.71054273576E-14  0.91188000000E+02  0.91188000000E+02 0.  0.
    9900012    2    3    3    0    0 -0.12842221000E+01 -0.95718599768E+01  0.39495500450E+02  0.50528876970E+02  0.30000052038E+02 0.  0.
        -12    1    3    3    0    0  0.12842221000E+01  0.95718599768E+01 -0.39495500450E+02  0.40659123030E+02  0.00000000000E+00 0.  1.
         11    1    4    4    0    0 -0.80717637680E+00 -0.40740507032E+01  0.14217411761E+02  0.14811624498E+02  0.51100000000E-03 0. -1.
        -11    1    4    4    0    0 -0.11417085084E+02 -0.75401157179E+01  0.10659019816E+02  0.17344102184E+02  0.51100000000E-03 0.  1.
        -12    1    4    4    0    0  0.10940039360E+02  0.20423064443E+01  0.14619068872E+02  0.18373150288E+02  0.00000000000E+00 0.  1.
</event>
<event>
 8    1  0.7311878E-012  0.9118800E+02  0.7816164E-02  0.1184000E+00
        -11   -1    0    0    0    0  0.00000000000E+00  0.00000000000E+00  0.45593999997E+02  0.45594000000E+02  0.51100000000E-03 0. -1.
         11   -1    0    0    0    0 -0.00000000000E+00 -0.00000000000E+00 -0.45593999997E+02  0.45594000000E+02  0.51100000000E-03 0.  1.
         23    2    1    2    0    0  0.00000000000E+00 -0.77715611724E-15  0.00000000000E+00  0.91188000000E+02  0.91188000000E+02 0.  0.
    9900012    2    3    3    0    0  0.12916627185E+02  0.67765879682E+00 -0.38546934135E+02  0.50528872974E+02  0.30000039892E+02 0.  0.
         12    1    3    3    0    0 -0.12916627185E+02 -0.67765879682E+00  0.38546934135E+02  0.40659127026E+02  0.00000000000E+00 0. -1.
         11    1    4    4    0    0  0.46463055662E+01  0.73575469245E+01 -0.69759410310E+01  0.11152820526E+02  0.51100000000E-03 0. -1.
        -11    1    4    4    0    0  0.12876585121E+02 -0.18583670232E+01 -0.89461922375E+01  0.15789057229E+02  0.51100000000E-03 0.  1.
        -12    1    4    4    0    0 -0.46062635015E+01 -0.48215211045E+01 -0.22624800867E+02  0.23586995219E+02  0.00000000000E+00 0.  1.
</event>
<event>
 8    1  0.7311878E-012  0.9118800E+02  0.7816164E-02  0.1184000E+00
        -11   -1    0    0    0    0  0.00000000000E+00  0.00000000000E+00  0.45593999997E+02  0.45594000000E+02  0.51100000000E-03 0. -1.
         11   -1    0    0    0    0 -0.00000000000E+00 -0.00000000000E+00 -0.45593999997E+02  0.45594000000E+02  0.51100000000E-03 0.  1.
         23    2    1    2    0    0  0.00000000000E+00  0.00000000000E+00 -0.17763568394E-14  0.91188000000E+02  0.91188000000E+02 0.  0.
    9900012    2    3    3    0    0  0.32732203952E+02  0.23637673570E+02 -0.47989626287E+01  0.50528845684E+02  0.29999956942E+02 0.  0.
         12    1    3    3    0    0 -0.32732203952E+02 -0.23637673570E+02  0.47989626287E+01  0.40659154316E+02  0.00000000000E+00 0. -1.
         11    1    4    4    0    0  0.17205713417E+02  0.14086966969E+02 -0.26190965211E+00  0.22238430914E+02  0.51100000000E-03 0. -1.
        -11    1    4    4    0    0  0.61574353619E+00  0.47585615658E+01 -0.10490029709E+02  0.11535327123E+02  0.51100000000E-03 0.  1.
         12    1    4    4    0    0  0.14910746999E+02  0.47921450354E+01  0.59529767328E+01  0.16755087647E+02  0.00000000000E+00 0. -1.
</event>
<event>
 8    1  0.7311878E-012  0.9118800E+02  0.7816164E-02  0.1184000E+00
        -11   -1    0    0    0    0  0.00000000000E+00  0.00000000000E+00  0.45593999997E+02  0.45594000000E+02  0.51100000000E-03 0. -1.
         11   -1    0    0    0    0 -0.00000000000E+00 -0.00000000000E+00 -0.45593999997E+02  0.45594000000E+02  0.51100000000E-03 0.  1.
         23    2    1    2    0    0  0.00000000000E+00  0.17763568394E-14  0.00000000000E+00  0.91188000000E+02  0.91188000000E+02 0.  0.
    9900012    2    3    3    0    0  0.50778971966E+01 -0.12514631758E+02 -0.38350545952E+02  0.50528862985E+02  0.30000009528E+02 0.  0.
         12    1    3    3    0    0 -0.50778971966E+01  0.12514631758E+02  0.38350545952E+02  0.40659137015E+02  0.00000000000E+00 0. -1.
         11    1    4    4    0    0 -0.25126410429E+01  0.29128971857E+01 -0.14129129715E+02  0.14643450474E+02  0.51100000000E-03 0. -1.
        -11    1    4    4    0    0 -0.29067950488E+01 -0.87354443500E+00  0.23385606912E+01  0.38316319895E+01  0.51100000000E-03 0.  1.
        -12    1    4    4    0    0  0.10497333288E+02 -0.14553984509E+02 -0.26559976929E+02  0.32053780521E+02  0.00000000000E+00 0.  1.
</event>
<event>
 8    1  0.7311878E-012  0.9118800E+02  0.7816164E-02  0.1184000E+00
        -11   -1    0    0    0    0  0.00000000000E+00  0.00000000000E+00  0.45593999997E+02  0.45594000000E+02  0.51100000000E-03 0. -1.
         11   -1    0    0    0    0 -0.00000000000E+00 -0.00000000000E+00 -0.45593999997E+02  0.45594000000E+02  0.51100000000E-03 0.  1.
         23    2    1    2    0    0  0.00000000000E+00  0.44408920985E-15  0.00000000000E+00  0.91188000000E+02  0.91188000000E+02 0.  0.
    9900012    2    3    3    0    0  0.86539789120E+01  0.30647888365E+01  0.39609102064E+02  0.50528865135E+02  0.30000016065E+02 0.  0.
        -12    1    3    3    0    0 -0.86539789120E+01 -0.30647888365E+01 -0.39609102064E+02  0.40659134865E+02  0.00000000000E+00 0.  1.
         11    1    4    4    0    0  0.11203568420E+00 -0.29015669896E+01 -0.24679515003E+01  0.38108303371E+01  0.51100000000E-03 0. -1.
        -11    1    4    4    0    0  0.67969706855E+01 -0.54546903356E+01  0.16813230395E+02  0.18937718282E+02  0.51100000000E-03 0.  1.
         12    1    4    4    0    0  0.17449725423E+01  0.11421046162E+02  0.25263823170E+02  0.27780316516E+02  0.00000000000E+00 0. -1.
</event>
<event>
 8    1  0.7311878E-012  0.9118800E+02  0.7816164E-02  0.1184000E+00
        -11   -1    0    0    0    0  0.00000000000E+00  0.00000000000E+00  0.45593999997E+02  0.45594000000E+02  0.51100000000E-03 0. -1.
         11   -1    0    0    0    0 -0.00000000000E+00 -0.00000000000E+00 -0.45593999997E+02  0.45594000000E+02  0.51100000000E-03 0.  1.
         23    2    1    2    0    0  0.00000000000E+00  0.00000000000E+00  0.00000000000E+00  0.91188000000E+02  0.91188000000E+02 0.  0.
    9900012    2    3    3    0    0 -0.27465837529E+02 -0.20146406325E+02 -0.22201704931E+02  0.50528860549E+02  0.30000002126E+02 0.  0.
         12    1    3    3    0    0  0.27465837529E+02  0.20146406325E+02  0.22201704931E+02  0.40659139451E+02  0.00000000000E+00 0. -1.
         11    1    4    4    0    0  0.11322048781E+01 -0.68181943229E+01 -0.37385344683E+01  0.78578815175E+01  0.51100000000E-03 0. -1.
        -11    1    4    4    0    0 -0.14236191008E+02 -0.14730923692E+02 -0.19395241568E+02  0.28210718583E+02  0.51100000000E-03 0.  1.
        -12    1    4    4    0    0 -0.14361851400E+02  0.14027116899E+01  0.93207110477E+00  0.14460260449E+02  0.00000000000E+00 0.  1.
</event>
<event>
 8    1  0.7311878E-012  0.9118800E+02  0.7816164E-02  0.1184000E+00
        -11   -1    0    0    0    0  0.00000000000E+00  0.00000000000E+00  0.45593999997E+02  0.45594000000E+02  0.51100000000E-03 0. -1.
         11   -1    0    0    0    0 -0.00000000000E+00 -0.00000000000E+00 -0.45593999997E+02  0.45594000000E+02  0.51100000000E-03 0.  1.
         23    2    1    2    0    0  0.00000000000E+00 -0.35527136788E-14  0.00000000000E+00  0.91188000000E+02  0.91188000000E+02 0.  0.
    9900012    2    3    3    0    0  0.74524942148E+01  0.23838635034E+02  0.32083416105E+02  0.50528858601E+02  0.29999996205E+02 0.  0.
        -12    1    3    3    0    0 -0.74524942148E+01 -0.23838635034E+02 -0.32083416105E+02  0.40659141399E+02  0.00000000000E+00 0.  1.
         11    1    4    4    0    0  0.44717131513E+01  0.21676326314E+01  0.14412312733E+01  0.51741663653E+01  0.51100000000E-03 0. -1.
        -11    1    4    4    0    0  0.19708069316E+01 -0.93198197262E+00  0.20404688967E+02  0.20520818757E+02  0.51100000000E-03 0.  1.
         12    1    4    4    0    0  0.10099741320E+01  0.22602984375E+02  0.10237495865E+02  0.24833873479E+02  0.00000000000E+00 0. -1.
</event>
<event>
 8    1  0.7311878E-012  0.9118800E+02  0.7816164E-02  0.1184000E+00
        -11   -1    0    0    0    0  0.00000000000E+00  0.00000000000E+00  0.45593999997E+02  0.45594000000E+02  0.51100000000E-03 0. -1.
         11   -1    0    0    0    0 -0.00000000000E+00 -0.00000000000E+00 -0.45593999997E+02  0.45594000000E+02  0.51100000000E-03 0.  1.
         23    2    1    2    0    0  0.00000000000E+00  0.00000000000E+00  0.35527136788E-14  0.91188000000E+02  0.91188000000E+02 0.  0.
    9900012    2    3    3    0    0  0.32522457291E+02 -0.80919364127E+01 -0.23021195936E+02  0.50528866642E+02  0.30000020644E+02 0.  0.
         12    1    3    3    0    0 -0.32522457291E+02  0.80919364127E+01  0.23021195936E+02  0.40659133358E+02  0.00000000000E+00 0. -1.
         11    1    4    4    0    0  0.28953262053E+01 -0.68101379277E+01  0.41097055989E+01  0.84646661363E+01  0.51100000000E-03 0. -1.
        -11    1    4    4    0    0  0.63296019125E+01  0.25773901383E+01 -0.11077256596E+01  0.69234281028E+01  0.51100000000E-03 0.  1.
        -12    1    4    4    0    0  0.23297529173E+02 -0.38591886234E+01 -0.26023175876E+02  0.35140772402E+02  0.00000000000E+00 0.  1.
</event>
<event>
 8    1  0.7311878E-012  0.9118800E+02  0.7816164E-02  0.1184000E+00
        -11   -1    0    0    0    0  0.00000000000E+00  0.00000000000E+00  0.45593999997E+02  0.45594000000E+02  0.51100000000E-03 0. -1.
         11   -1    0    0    0    0 -0.00000000000E+00 -0.00000000000E+00 -0.45593999997E+02  0.45594000000E+02  0.51100000000E-03 0.  1.
         23    2    1    2    0    0  0.17763568394E-14 -0.44408920985E-15  0.71054273576E-14  0.91188000000E+02  0.91188000000E+02 0.  0.
    9900012    2    3    3    0    0  0.36337525999E+01 -0.25590498514E+01  0.40415510393E+02  0.50528851282E+02  0.29999973958E+02 0.  0.
        -12    1    3    3    0    0 -0.36337525999E+01  0.25590498514E+01 -0.40415510393E+02  0.40659148718E+02  0.00000000000E+00 0.  1.
         11    1    4    4    0    0  0.28905600836E+00  0.66128223061E+01  0.30996498330E+01  0.73089535212E+01  0.51100000000E-03 0. -1.
        -11    1    4    4    0    0 -0.72985298043E+01 -0.25346058075E+01  0.70556144219E+01  0.10463004303E+02  0.51100000000E-03 0.  1.
         12    1    4    4    0    0  0.10643226396E+02 -0.66372663500E+01  0.30260246138E+02  0.32756893459E+02  0.00000000000E+00 0. -1.
</event>
<event>
 8    1  0.7311878E-012  0.9118800E+02  0.7816164E-02  0.1184000E+00
        -11   -1    0    0    0    0  0.00000000000E+00  0.00000000000E+00  0.45593999997E+02  0.45594000000E+02  0.51100000000E-03 0.  1.
         11   -1    0    0    0    0 -0.00000000000E+00 -0.00000000000E+00 -0.45593999997E+02  0.45594000000E+02  0.51100000000E-03 0. -1.
         23    2    1    2    0    0 -0.44408920985E-15  0.00000000000E+00  0.00000000000E+00  0.91188000000E+02  0.91188000000E+02 0.  0.
    9900012    2    3    3    0    0  0.35728264427E+01 -0.37174793545E+02  0.16075931892E+02  0.50528856500E+02  0.29999989818E+02 0.  0.
        -12    1    3    3    0    0 -0.35728264427E+01  0.37174793545E+02 -0.16075931892E+02  0.40659143500E+02  0.00000000000E+00 0.  1.
         11    1    4    4    0    0  0.55377524583E+01 -0.13701602068E+02  0.58755639923E+01  0.15903548472E+02  0.51100000000E-03 0. -1.
        -11    1    4    4    0    0  0.34435887261E+00 -0.27976882209E+02  0.93034005494E+01  0.29485212958E+02  0.51100000000E-03 0.  1.
         12    1    4    4    0    0 -0.23092848883E+01  0.45036907314E+01  0.89696735013E+00  0.51400950697E+01  0.00000000000E+00 0. -1.
</event>
<event>
 8    1  0.7311878E-012  0.9118800E+02  0.7816164E-02  0.1184000E+00
        -11   -1    0    0    0    0  0.00000000000E+00  0.00000000000E+00  0.45593999997E+02  0.45594000000E+02  0.51100000000E-03 0.  1.
         11   -1    0    0    0    0 -0.00000000000E+00 -0.00000000000E+00 -0.45593999997E+02  0.45594000000E+02  0.51100000000E-03 0. -1.
         23    2    1    2    0    0 -0.35527136788E-14 -0.71054273576E-14  0.18873791419E-14  0.91188000000E+02  0.91188000000E+02 0.  0.
    9900012    2    3    3    0    0 -0.25670349552E+02 -0.31528633495E+02  0.37967662872E+00  0.50528859201E+02  0.29999998027E+02 0.  0.
        -12    1    3    3    0    0  0.25670349552E+02  0.31528633495E+02 -0.37967662872E+00  0.40659140799E+02  0.00000000000E+00 0.  1.
         11    1    4    4    0    0 -0.12998768140E+02 -0.23116930531E+02 -0.62085598760E+00  0.26528209754E+02  0.51100000000E-03 0. -1.
        -11    1    4    4    0    0 -0.12526206494E+02 -0.52154500467E+01  0.83866839298E+01  0.15951276937E+02  0.51100000000E-03 0.  1.
        -12    1    4    4    0    0 -0.14537491782E+00 -0.31962529174E+01 -0.73861513134E+01  0.80493725099E+01  0.00000000000E+00 0.  1.
</event>
<event>
 8    1  0.7311878E-012  0.9118800E+02  0.7816164E-02  0.1184000E+00
        -11   -1    0    0    0    0  0.00000000000E+00  0.00000000000E+00  0.45593999997E+02  0.45594000000E+02  0.51100000000E-03 0. -1.
         11   -1    0    0    0    0 -0.00000000000E+00 -0.00000000000E+00 -0.45593999997E+02  0.45594000000E+02  0.51100000000E-03 0.  1.
         23    2    1    2    0    0  0.00000000000E+00  0.00000000000E+00  0.00000000000E+00  0.91188000000E+02  0.91188000000E+02 0.  0.
    9900012    2    3    3    0    0 -0.75354160174E+01 -0.50151666877E+01 -0.39638759208E+02  0.50528860523E+02  0.30000002046E+02 0.  0.
         12    1    3    3    0    0  0.75354160174E+01  0.50151666877E+01  0.39638759208E+02  0.40659139477E+02  0.00000000000E+00 0. -1.
         11    1    4    4    0    0  0.50686621385E+01 -0.41250137578E+01 -0.31660856860E+02  0.32328268307E+02  0.51100000000E-03 0. -1.
        -11    1    4    4    0    0 -0.27930962683E+01  0.33057612388E+01 -0.59203095418E+01  0.73334514018E+01  0.51100000000E-03 0.  1.
        -12    1    4    4    0    0 -0.98109818877E+01 -0.41959141686E+01 -0.20575928060E+01  0.10867140814E+02  0.00000000000E+00 0.  1.
</event>
<event>
 8    1  0.7311878E-012  0.9118800E+02  0.7816164E-02  0.1184000E+00
        -11   -1    0    0    0    0  0.00000000000E+00  0.00000000000E+00  0.45593999997E+02  0.45594000000E+02  0.51100000000E-03 0. -1.
         11   -1    0    0    0    0 -0.00000000000E+00 -0.00000000000E+00 -0.45593999997E+02  0.45594000000E+02  0.51100000000E-03 0.  1.
         23    2    1    2    0    0 -0.17763568394E-14  0.00000000000E+00  0.35527136788E-14  0.91188000000E+02  0.91188000000E+02 0.  0.
    9900012    2    3    3    0    0 -0.15662271516E+02  0.23599286151E+02  0.29170746280E+02  0.50528862105E+02  0.30000006853E+02 0.  0.
        -12    1    3    3    0    0  0.15662271516E+02 -0.23599286151E+02 -0.29170746280E+02  0.40659137895E+02  0.00000000000E+00 0.  1.
         11    1    4    4    0    0 -0.85722887184E+01  0.21266177258E+01  0.11795500138E+02  0.14735686635E+02  0.51100000000E-03 0. -1.
        -11    1    4    4    0    0 -0.14309047524E+02  0.17988108419E+02  0.14945622134E+02  0.27417011266E+02  0.51100000000E-03 0.  1.
        -12    1    4    4    0    0  0.72190647259E+01  0.34845600066E+01  0.24296240074E+01  0.83761642041E+01  0.00000000000E+00 0.  1.
</event>
<event>
 8    1  0.7311878E-012  0.9118800E+02  0.7816164E-02  0.1184000E+00
        -11   -1    0    0    0    0  0.00000000000E+00  0.00000000000E+00  0.45593999997E+02  0.45594000000E+02  0.51100000000E-03 0. -1.
         11   -1    0    0    0    0 -0.00000000000E+00 -0.00000000000E+00 -0.45593999997E+02  0.45594000000E+02  0.51100000000E-03 0.  1.
         23    2    1    2    0    0  0.00000000000E+00  0.35527136788E-14  0.71054273576E-14  0.91188000000E+02  0.91188000000E+02 0.  0.
    9900012    2    3    3    0    0  0.17933987441E+02  0.19368732311E+02  0.30925547175E+02  0.50528866156E+02  0.30000019168E+02 0.  0.
        -12    1    3    3    0    0 -0.17933987441E+02 -0.19368732311E+02 -0.30925547175E+02  0.40659133844E+02  0.00000000000E+00 0.  1.
         11    1    4    4    0    0  0.14790932054E+02  0.18181364045E+02  0.31538694808E+02  0.39294057312E+02  0.51100000000E-03 0. -1.
        -11    1    4    4    0    0  0.58107500274E+01 -0.21797602023E+01  0.15905560023E+01  0.64067182768E+01  0.51100000000E-03 0.  1.
        -12    1    4    4    0    0 -0.26676946408E+01  0.33671284683E+01 -0.22037036350E+01  0.48280905677E+01  0.00000000000E+00 0.  1.
</event>
<event>
 8    1  0.7311878E-012  0.9118800E+02  0.7816164E-02  0.1184000E+00
        -11   -1    0    0    0    0  0.00000000000E+00  0.00000000000E+00  0.45593999997E+02  0.45594000000E+02  0.51100000000E-03 0. -1.
         11   -1    0    0    0    0 -0.00000000000E+00 -0.00000000000E+00 -0.45593999997E+02  0.45594000000E+02  0.51100000000E-03 0.  1.
         23    2    1    2    0    0 -0.17763568394E-14 -0.17763568394E-14  0.00000000000E+00  0.91188000000E+02  0.91188000000E+02 0.  0.
    9900012    2    3    3    0    0 -0.64071845653E+01 -0.98723247343E+01  0.38918533449E+02  0.50528842906E+02  0.29999948498E+02 0.  0.
        -12    1    3    3    0    0  0.64071845653E+01  0.98723247343E+01 -0.38918533449E+02  0.40659157094E+02  0.00000000000E+00 0.  1.
         11    1    4    4    0    0  0.33669025352E+01 -0.35598106970E+01  0.71980573854E+01  0.87074861622E+01  0.51100000000E-03 0. -1.
        -11    1    4    4    0    0  0.66257151692E+01 -0.64205993157E+01  0.18804017428E+02  0.20945530998E+02  0.51100000000E-03 0.  1.
        -12    1    4    4    0    0 -0.16399802270E+02  0.10808527843E+00  0.12916458636E+02  0.20875825747E+02  0.00000000000E+00 0.  1.
</event>
<event>
 8    1  0.7311878E-012  0.9118800E+02  0.7816164E-02  0.1184000E+00
        -11   -1    0    0    0    0  0.00000000000E+00  0.00000000000E+00  0.45593999997E+02  0.45594000000E+02  0.51100000000E-03 0. -1.
         11   -1    0    0    0    0 -0.00000000000E+00 -0.00000000000E+00 -0.45593999997E+02  0.45594000000E+02  0.51100000000E-03 0.  1.
         23    2    1    2    0    0  0.00000000000E+00  0.35527136788E-14  0.00000000000E+00  0.91188000000E+02  0.91188000000E+02 0.  0.
    9900012    2    3    3    0    0 -0.95026592263E+01 -0.17904759908E+02 -0.35246058502E+02  0.50528860810E+02  0.30000002919E+02 0.  0.
         12    1    3    3    0    0  0.95026592263E+01  0.17904759908E+02  0.35246058502E+02  0.40659139190E+02  0.00000000000E+00 0. -1.
         11    1    4    4    0    0 -0.19768566240E+01  0.23448715229E+01  0.19149537752E+01  0.36157202316E+01  0.51100000000E-03 0. -1.
        -11    1    4    4    0    0 -0.10853338025E+02 -0.10321429059E+02 -0.10561386633E+02  0.18326749083E+02  0.51100000000E-03 0.  1.
         12    1    4    4    0    0  0.33275354222E+01 -0.99282023721E+01 -0.26599625644E+02  0.28586391496E+02  0.00000000000E+00 0. -1.
</event>
<event>
 8    1  0.7311878E-012  0.9118800E+02  0.7816164E-02  0.1184000E+00
        -11   -1    0    0    0    0  0.00000000000E+00  0.00000000000E+00  0.45593999997E+02  0.45594000000E+02  0.51100000000E-03 0. -1.
         11   -1    0    0    0    0 -0.00000000000E+00 -0.00000000000E+00 -0.45593999997E+02  0.45594000000E+02  0.51100000000E-03 0.  1.
         23    2    1    2    0    0  0.00000000000E+00  0.00000000000E+00  0.00000000000E+00  0.91188000000E+02  0.91188000000E+02 0.  0.
    9900012    2    3    3    0    0 -0.23961232128E+02  0.27181076626E+01 -0.32735851987E+02  0.50528871140E+02  0.30000034317E+02 0.  0.
         12    1    3    3    0    0  0.23961232128E+02 -0.27181076626E+01  0.32735851987E+02  0.40659128860E+02  0.00000000000E+00 0. -1.
         11    1    4    4    0    0 -0.10228373181E+02 -0.39851216305E+01 -0.93583520749E+01  0.14424963298E+02  0.51100000000E-03 0. -1.
        -11    1    4    4    0    0 -0.14199889674E+02  0.74868081280E+01 -0.37885162010E+01  0.16493696310E+02  0.51100000000E-03 0.  1.
         12    1    4    4    0    0  0.46703072719E+00 -0.78357883495E+00 -0.19588983711E+02  0.19610211532E+02  0.00000000000E+00 0. -1.
</event>
<event>
 8    1  0.7311878E-012  0.9118800E+02  0.7816164E-02  0.1184000E+00
        -11   -1    0    0    0    0  0.00000000000E+00  0.00000000000E+00  0.45593999997E+02  0.45594000000E+02  0.51100000000E-03 0. -1.
         11   -1    0    0    0    0 -0.00000000000E+00 -0.00000000000E+00 -0.45593999997E+02  0.45594000000E+02  0.51100000000E-03 0.  1.
         23    2    1    2    0    0  0.00000000000E+00  0.00000000000E+00  0.00000000000E+00  0.91188000000E+02  0.91188000000E+02 0.  0.
    9900012    2    3    3    0    0 -0.21359424862E+02  0.19287055789E+02  0.28721936593E+02  0.50528865810E+02  0.30000018117E+02 0.  0.
        -12    1    3    3    0    0  0.21359424862E+02 -0.19287055789E+02 -0.28721936593E+02  0.40659134190E+02  0.00000000000E+00 0.  1.
         11    1    4    4    0    0 -0.56884877880E+01 -0.29719522974E+01  0.57612816923E+01  0.86246020645E+01  0.51100000000E-03 0. -1.
        -11    1    4    4    0    0 -0.31723818553E+01  0.19005874652E+01 -0.42907578570E+01  0.56645249224E+01  0.51100000000E-03 0.  1.
        -12    1    4    4    0    0 -0.12498555218E+02  0.20358420621E+02  0.27251412757E+02  0.36239738823E+02  0.00000000000E+00 0.  1.
</event>
<event>
 8    1  0.7311878E-012  0.9118800E+02  0.7816164E-02  0.1184000E+00
        -11   -1    0    0    0    0  0.00000000000E+00  0.00000000000E+00  0.45593999997E+02  0.45594000000E+02  0.51100000000E-03 0.  1.
         11   -1    0    0    0    0 -0.00000000000E+00 -0.00000000000E+00 -0.45593999997E+02  0.45594000000E+02  0.51100000000E-03 0. -1.
         23    2    1    2    0    0  0.35527136788E-14  0.00000000000E+00 -0.35527136788E-14  0.91188000000E+02  0.91188000000E+02 0.  0.
    9900012    2    3    3    0    0 -0.16629654527E+02  0.33300209131E+02  0.16362097490E+02  0.50528836555E+02  0.29999929191E+02 0.  0.
        -12    1    3    3    0    0  0.16629654527E+02 -0.33300209131E+02 -0.16362097490E+02  0.40659163445E+02  0.00000000000E+00 0.  1.
         11    1    4    4    0    0  0.15045830021E+01  0.10436250687E+02 -0.16379305883E+01  0.10670609884E+02  0.51100000000E-03 0. -1.
        -11    1    4    4    0    0  0.45448336685E+01  0.37823800305E+01  0.33638401779E+01  0.68027445030E+01  0.51100000000E-03 0.  1.
        -12    1    4    4    0    0 -0.22679071197E+02  0.19081578413E+02  0.14636187900E+02  0.33055482168E+02  0.00000000000E+00 0.  1.
</event>
<event>
 8    1  0.7311878E-012  0.9118800E+02  0.7816164E-02  0.1184000E+00
        -11   -1    0    0    0    0  0.00000000000E+00  0.00000000000E+00  0.45593999997E+02  0.45594000000E+02  0.51100000000E-03 0. -1.
         11   -1    0    0    0    0 -0.00000000000E+00 -0.00000000000E+00 -0.45593999997E+02  0.45594000000E+02  0.51100000000E-03 0.  1.
         23    2    1    2    0    0  0.00000000000E+00  0.00000000000E+00  0.00000000000E+00  0.91188000000E+02  0.91188000000E+02 0.  0.
    9900012    2    3    3    0    0  0.16083061529E+02 -0.26155279983E+02 -0.26653345332E+02  0.50528876097E+02  0.30000049385E+02 0.  0.
         12    1    3    3    0    0 -0.16083061529E+02  0.26155279983E+02  0.26653345332E+02  0.40659123903E+02  0.00000000000E+00 0. -1.
         11    1    4    4    0    0  0.24304217595E+01 -0.83006038836E+01  0.10025007054E+01  0.87070076770E+01  0.51100000000E-03 0. -1.
        -11    1    4    4    0    0  0.18900199693E+02 -0.11417080848E+02 -0.15035810791E+02  0.26714095342E+02  0.51100000000E-03 0.  1.
        -12    1    4    4    0    0 -0.52475599228E+01 -0.64375952507E+01 -0.12620035247E+02  0.15107773078E+02  0.00000000000E+00 0.  1.
</event>
<event>
 8    1  0.7311878E-012  0.9118800E+02  0.7816164E-02  0.1184000E+00
        -11   -1    0    0    0    0  0.00000000000E+00  0.00000000000E+00  0.45593999997E+02  0.45594000000E+02  0.51100000000E-03 0. -1.
         11   -1    0    0    0    0 -0.00000000000E+00 -0.00000000000E+00 -0.45593999997E+02  0.45594000000E+02  0.51100000000E-03 0.  1.
         23    2    1    2    0    0  0.00000000000E+00 -0.88817841970E-15  0.00000000000E+00  0.91188000000E+02  0.91188000000E+02 0.  0.
    9900012    2    3    3    0    0 -0.94555812073E+01  0.27899826679E+01 -0.39445839412E+02  0.50528852614E+02  0.29999978005E+02 0.  0.
         12    1    3    3    0    0  0.94555812073E+01 -0.27899826679E+01  0.39445839412E+02  0.40659147386E+02  0.00000000000E+00 0. -1.
         11    1    4    4    0    0 -0.27281599585E+00 -0.23549497031E+01 -0.72453354657E+00  0.24789444917E+01  0.51100000000E-03 0. -1.
        -11    1    4    4    0    0 -0.80815827897E+01 -0.97776870706E+01 -0.12206612485E+02  0.17604446412E+02  0.51100000000E-03 0.  1.
         12    1    4    4    0    0 -0.11011824217E+01  0.14922619442E+02 -0.26514693380E+02  0.30445461711E+02  0.00000000000E+00 0. -1.
</event>
<event>
 8    1  0.7311878E-012  0.9118800E+02  0.7816164E-02  0.1184000E+00
        -11   -1    0    0    0    0  0.00000000000E+00  0.00000000000E+00  0.45593999997E+02  0.45594000000E+02  0.51100000000E-03 0. -1.
         11   -1    0    0    0    0 -0.00000000000E+00 -0.00000000000E+00 -0.45593999997E+02  0.45594000000E+02  0.51100000000E-03 0.  1.
         23    2    1    2    0    0 -0.17763568394E-14  0.71054273576E-14  0.00000000000E+00  0.91188000000E+02  0.91188000000E+02 0.  0.
    9900012    2    3    3    0    0  0.75692227358E+01 -0.35022957543E+02 -0.19216228486E+02  0.50528878943E+02  0.30000058036E+02 0.  0.
         12    1    3    3    0    0 -0.75692227358E+01  0.35022957543E+02  0.19216228486E+02  0.40659121057E+02  0.00000000000E+00 0. -1.
         11    1    4    4    0    0 -0.16505765615E+01 -0.76942273855E+01 -0.43981143590E+01  0.90149291856E+01  0.51100000000E-03 0. -1.
        -11    1    4    4    0    0  0.43628677250E+01 -0.27103384322E+02 -0.20332648129E+02  0.34162035020E+02  0.51100000000E-03 0.  1.
        -12    1    4    4    0    0  0.48569315724E+01 -0.22534583537E+00  0.55145340023E+01  0.73519147374E+01  0.00000000000E+00 0.  1.
</event>
<event>
 8    1  0.7311878E-012  0.9118800E+02  0.7816164E-02  0.1184000E+00
        -11   -1    0    0    0    0  0.00000000000E+00  0.00000000000E+00  0.45593999997E+02  0.45594000000E+02  0.51100000000E-03 0. -1.
         11   -1    0    0    0    0 -0.00000000000E+00 -0.00000000000E+00 -0.45593999997E+02  0.45594000000E+02  0.51100000000E-03 0.  1.
         23    2    1    2    0    0  0.00000000000E+00  0.88817841970E-15  0.35527136788E-14  0.91188000000E+02  0.91188000000E+02 0.  0.
    9900012    2    3    3    0    0 -0.33953707453E+02  0.67176195238E+01 -0.21335072778E+02  0.50528855981E+02  0.29999988241E+02 0.  0.
         12    1    3    3    0    0  0.33953707453E+02 -0.67176195238E+01  0.21335072778E+02  0.40659144019E+02  0.00000000000E+00 0. -1.
         11    1    4    4    0    0 -0.72654056003E+01  0.10878074453E+02  0.31744903055E+01  0.13460906779E+02  0.51100000000E-03 0. -1.
        -11    1    4    4    0    0 -0.28970831690E+01 -0.19106276532E+01 -0.11653522061E+01  0.36608243529E+01  0.51100000000E-03 0.  1.
         12    1    4    4    0    0 -0.23791218684E+02 -0.22498272761E+01 -0.23344210878E+02  0.33407124850E+02  0.00000000000E+00 0. -1.
</event>
<event>
 8    1  0.7311878E-012  0.9118800E+02  0.7816164E-02  0.1184000E+00
        -11   -1    0    0    0    0  0.00000000000E+00  0.00000000000E+00  0.45593999997E+02  0.45594000000E+02  0.51100000000E-03 0. -1.
         11   -1    0    0    0    0 -0.00000000000E+00 -0.00000000000E+00 -0.45593999997E+02  0.45594000000E+02  0.51100000000E-03 0.  1.
         23    2    1    2    0    0  0.00000000000E+00  0.44408920985E-15  0.00000000000E+00  0.91188000000E+02  0.91188000000E+02 0.  0.
    9900012    2    3    3    0    0  0.24321374421E+02 -0.32341426266E+01 -0.32421860804E+02  0.50528856007E+02  0.29999988320E+02 0.  0.
         12    1    3    3    0    0 -0.24321374421E+02  0.32341426266E+01  0.32421860804E+02  0.40659143993E+02  0.00000000000E+00 0. -1.
         11    1    4    4    0    0  0.57189807916E+01  0.47069071971E+01 -0.67476062314E+01  0.10019576177E+02  0.51100000000E-03 0.  1.
        -11    1    4    4    0    0  0.20688796698E+02 -0.39463616512E+01 -0.84306487612E+01  0.22686469930E+02  0.51100000000E-03 0. -1.
         12    1    4    4    0    0 -0.20864030686E+01 -0.39946881725E+01 -0.17243605811E+02  0.17822809900E+02  0.00000000000E+00 0. -1.
</event>
<event>
 8    1  0.7311878E-012  0.9118800E+02  0.7816164E-02  0.1184000E+00
        -11   -1    0    0    0    0  0.00000000000E+00  0.00000000000E+00  0.45593999997E+02  0.45594000000E+02  0.51100000000E-03 0. -1.
         11   -1    0    0    0    0 -0.00000000000E+00 -0.00000000000E+00 -0.45593999997E+02  0.45594000000E+02  0.51100000000E-03 0.  1.
         23    2    1    2    0    0  0.00000000000E+00  0.35527136788E-14  0.71054273576E-14  0.91188000000E+02  0.91188000000E+02 0.  0.
    9900012    2    3    3    0    0 -0.49006188458E+01  0.22160659873E+02  0.33735056417E+02  0.50528868891E+02  0.30000027480E+02 0.  0.
        -12    1    3    3    0    0  0.49006188458E+01 -0.22160659873E+02 -0.33735056417E+02  0.40659131109E+02  0.00000000000E+00 0.  1.
         11    1    4    4    0    0 -0.45218898932E+01  0.83676495431E+01  0.22109240785E+02  0.24068310606E+02  0.51100000000E-03 0. -1.
        -11    1    4    4    0    0 -0.44795111815E+01 -0.34205578970E+01  0.50976127744E+01  0.75994666267E+01  0.51100000000E-03 0.  1.
        -12    1    4    4    0    0  0.41007822289E+01  0.17213568227E+02  0.65282028585E+01  0.18861091658E+02  0.00000000000E+00 0.  1.
</event>
<event>
 8    1  0.7311878E-012  0.9118800E+02  0.7816164E-02  0.1184000E+00
        -11   -1    0    0    0    0  0.00000000000E+00  0.00000000000E+00  0.45593999997E+02  0.45594000000E+02  0.51100000000E-03 0. -1.
         11   -1    0    0    0    0 -0.00000000000E+00 -0.00000000000E+00 -0.45593999997E+02  0.45594000000E+02  0.51100000000E-03 0.  1.
         23    2    1    2    0    0 -0.88817841970E-15  0.00000000000E+00 -0.71054273576E-14  0.91188000000E+02  0.91188000000E+02 0.  0.
    9900012    2    3    3    0    0  0.41440023033E+01  0.17181098884E+02  0.36616971178E+02  0.50528862131E+02  0.30000006935E+02 0.  0.
        -12    1    3    3    0    0 -0.41440023033E+01 -0.17181098884E+02 -0.36616971178E+02  0.40659137869E+02  0.00000000000E+00 0.  1.
         11    1    4    4    0    0  0.95704168305E+01  0.84734400469E+01  0.10285967982E+02  0.16407108280E+02  0.51100000000E-03 0. -1.
        -11    1    4    4    0    0  0.44836867443E+00  0.47395699792E+01 -0.18162667345E+01  0.50954276727E+01  0.51100000000E-03 0.  1.
        -12    1    4    4    0    0 -0.58747832016E+01  0.39680888580E+01  0.28147269931E+02  0.29026326179E+02  0.00000000000E+00 0.  1.
</event>
<event>
 8    1  0.7311878E-012  0.9118800E+02  0.7816164E-02  0.1184000E+00
        -11   -1    0    0    0    0  0.00000000000E+00  0.00000000000E+00  0.45593999997E+02  0.45594000000E+02  0.51100000000E-03 0. -1.
         11   -1    0    0    0    0 -0.00000000000E+00 -0.00000000000E+00 -0.45593999997E+02  0.45594000000E+02  0.51100000000E-03 0.  1.
         23    2    1    2    0    0 -0.71054273576E-14  0.17763568394E-14  0.17763568394E-14  0.91188000000E+02  0.91188000000E+02 0.  0.
    9900012    2    3    3    0    0  0.38949997633E+02 -0.93713640474E+01 -0.69455662902E+01  0.50528859935E+02  0.30000000259E+02 0.  0.
         12    1    3    3    0    0 -0.38949997633E+02  0.93713640474E+01  0.69455662902E+01  0.40659140065E+02  0.00000000000E+00 0. -1.
         11    1    4    4    0    0  0.97442531474E+01  0.41135852513E+01 -0.90597373882E+01  0.13926625393E+02  0.51100000000E-03 0. -1.
        -11    1    4    4    0    0  0.16428229411E+02 -0.59225893035E+01 -0.74015104986E+01  0.18966975077E+02  0.51100000000E-03 0.  1.
         12    1    4    4    0    0  0.12777515074E+02 -0.75623599952E+01  0.95156815967E+01  0.17635259466E+02  0.00000000000E+00 0. -1.
</event>
<event>
 8    1  0.7330262E-012  0.9118800E+02  0.7816164E-02  0.1184000E+00
        -11   -1    0    0    0    0  0.00000000000E+00  0.00000000000E+00  0.45593999997E+02  0.45594000000E+02  0.51100000000E-03 0. -1.
         11   -1    0    0    0    0 -0.00000000000E+00 -0.00000000000E+00 -0.45593999997E+02  0.45594000000E+02  0.51100000000E-03 0.  1.
         23    2    1    2    0    0 -0.35527136788E-14  0.00000000000E+00  0.00000000000E+00  0.91188000000E+02  0.91188000000E+02 0.  0.
    9900012    2    3    3    0    0  0.20582208278E+02 -0.84930087702E+01 -0.34020743414E+02  0.50528813116E+02  0.29999857948E+02 0.  0.
         12    1    3    3    0    0 -0.20582208278E+02  0.84930087702E+01  0.34020743414E+02  0.40659186884E+02  0.00000000000E+00 0. -1.
         11    1    4    4    0    0  0.31289331549E+01  0.32436450457E+01  0.22701904478E+01  0.50463076403E+01  0.51100000000E-03 0. -1.
        -11    1    4    4    0    0  0.10270951547E+02  0.24969717051E+01 -0.20381438414E+02  0.22959319360E+02  0.51100000000E-03 0.  1.
        -12    1    4    4    0    0  0.71823235764E+01 -0.14233625521E+02 -0.15909495448E+02  0.22523186116E+02  0.00000000000E+00 0.  1.
</event>
<event>
 8    1  0.7311878E-012  0.9118800E+02  0.7816164E-02  0.1184000E+00
        -11   -1    0    0    0    0  0.00000000000E+00  0.00000000000E+00  0.45593999997E+02  0.45594000000E+02  0.51100000000E-03 0. -1.
         11   -1    0    0    0    0 -0.00000000000E+00 -0.00000000000E+00 -0.45593999997E+02  0.45594000000E+02  0.51100000000E-03 0.  1.
         23    2    1    2    0    0 -0.35527136788E-14  0.00000000000E+00  0.00000000000E+00  0.91188000000E+02  0.91188000000E+02 0.  0.
    9900012    2    3    3    0    0 -0.27588450222E+02 -0.13623574890E+02  0.26578961560E+02  0.50528861100E+02  0.30000003800E+02 0.  0.
        -12    1    3    3    0    0  0.27588450222E+02  0.13623574890E+02 -0.26578961560E+02  0.40659138900E+02  0.00000000000E+00 0.  1.
         11    1    4    4    0    0 -0.67511332010E+01  0.69046872150E+01  0.60452911503E+01  0.11392894733E+02  0.51100000000E-03 0.  1.
        -11    1    4    4    0    0  0.23684865024E+01 -0.14463962375E+01  0.39250825982E+01  0.48070847769E+01  0.51100000000E-03 0. -1.
         12    1    4    4    0    0 -0.23205803524E+02 -0.19081865867E+02  0.16608587812E+02  0.34328881591E+02  0.00000000000E+00 0. -1.
</event>
<event>
 8    1  0.7311878E-012  0.9118800E+02  0.7816164E-02  0.1184000E+00
        -11   -1    0    0    0    0  0.00000000000E+00  0.00000000000E+00  0.45593999997E+02  0.45594000000E+02  0.51100000000E-03 0.  1.
         11   -1    0    0    0    0 -0.00000000000E+00 -0.00000000000E+00 -0.45593999997E+02  0.45594000000E+02  0.51100000000E-03 0. -1.
         23    2    1    2    0    0  0.00000000000E+00  0.00000000000E+00  0.88817841970E-15  0.91188000000E+02  0.91188000000E+02 0.  0.
    9900012    2    3    3    0    0  0.34658743388E+02 -0.20563687559E+02 -0.53919450722E+01  0.50528845915E+02  0.29999957643E+02 0.  0.
        -12    1    3    3    0    0 -0.34658743388E+02  0.20563687559E+02  0.53919450722E+01  0.40659154085E+02  0.00000000000E+00 0.  1.
         11    1    4    4    0    0  0.19706897486E+02 -0.56025605261E+01 -0.54511634262E+01  0.21200605556E+02  0.51100000000E-03 0. -1.
        -11    1    4    4    0    0  0.14348724636E+02 -0.13787141383E+01 -0.43138345299E+01  0.15046458718E+02  0.51100000000E-03 0.  1.
        -12    1    4    4    0    0  0.60312126585E+00 -0.13582412895E+02  0.43730528840E+01  0.14281781641E+02  0.00000000000E+00 0.  1.
</event>
<event>
 8    1  0.7311878E-012  0.9118800E+02  0.7816164E-02  0.1184000E+00
        -11   -1    0    0    0    0  0.00000000000E+00  0.00000000000E+00  0.45593999997E+02  0.45594000000E+02  0.51100000000E-03 0.  1.
         11   -1    0    0    0    0 -0.00000000000E+00 -0.00000000000E+00 -0.45593999997E+02  0.45594000000E+02  0.51100000000E-03 0. -1.
         23    2    1    2    0    0  0.17763568394E-14  0.00000000000E+00  0.00000000000E+00  0.91188000000E+02  0.91188000000E+02 0.  0.
    9900012    2    3    3    0    0 -0.12321722348E+02 -0.34930835643E+02  0.16768335090E+02  0.50528865946E+02  0.30000018530E+02 0.  0.
        -12    1    3    3    0    0  0.12321722348E+02  0.34930835643E+02 -0.16768335090E+02  0.40659134054E+02  0.00000000000E+00 0.  1.
         11    1    4    4    0    0 -0.61067160375E+01 -0.16634255428E+02  0.15340658601E+01  0.17786056132E+02  0.51100000000E-03 0. -1.
        -11    1    4    4    0    0 -0.32565137732E+01 -0.16037406632E+02 -0.69985452924E+00  0.16379654760E+02  0.51100000000E-03 0.  1.
        -12    1    4    4    0    0 -0.29584925375E+01 -0.22591735832E+01  0.15934123759E+02  0.16363155054E+02  0.00000000000E+00 0.  1.
</event>
<event>
 8    1  0.7311878E-012  0.9118800E+02  0.7816164E-02  0.1184000E+00
        -11   -1    0    0    0    0  0.00000000000E+00  0.00000000000E+00  0.45593999997E+02  0.45594000000E+02  0.51100000000E-03 0. -1.
         11   -1    0    0    0    0 -0.00000000000E+00 -0.00000000000E+00 -0.45593999997E+02  0.45594000000E+02  0.51100000000E-03 0.  1.
         23    2    1    2    0    0  0.71054273576E-14  0.00000000000E+00 -0.17763568394E-14  0.91188000000E+02  0.91188000000E+02 0.  0.
    9900012    2    3    3    0    0  0.34439311867E+02 -0.15466362486E+02 -0.15096055111E+02  0.50528862647E+02  0.30000008501E+02 0.  0.
         12    1    3    3    0    0 -0.34439311867E+02  0.15466362486E+02  0.15096055111E+02  0.40659137353E+02  0.00000000000E+00 0. -1.
         11    1    4    4    0    0  0.95928439952E+01 -0.13251289452E+02  0.31265629238E+01  0.16655171090E+02  0.51100000000E-03 0. -1.
        -11    1    4    4    0    0 -0.15139948193E+01  0.45776311838E+00 -0.28012290435E+01  0.32169258307E+01  0.51100000000E-03 0.  1.
        -12    1    4    4    0    0  0.26360462691E+02 -0.26728361524E+01 -0.15421388992E+02  0.30656765726E+02  0.00000000000E+00 0.  1.
</event>
<event>
 8    1  0.7311878E-012  0.9118800E+02  0.7816164E-02  0.1184000E+00
        -11   -1    0    0    0    0  0.00000000000E+00  0.00000000000E+00  0.45593999997E+02  0.45594000000E+02  0.51100000000E-03 0. -1.
         11   -1    0    0    0    0 -0.00000000000E+00 -0.00000000000E+00 -0.45593999997E+02  0.45594000000E+02  0.51100000000E-03 0.  1.
         23    2    1    2    0    0 -0.35527136788E-14 -0.17763568394E-14  0.35527136788E-14  0.91188000000E+02  0.91188000000E+02 0.  0.
    9900012    2    3    3    0    0  0.27586340468E+02  0.83200297867E+01  0.28686869221E+02  0.50528861522E+02  0.30000005081E+02 0.  0.
        -12    1    3    3    0    0 -0.27586340468E+02 -0.83200297867E+01 -0.28686869221E+02  0.40659138478E+02  0.00000000000E+00 0.  1.
         11    1    4    4    0    0  0.15369004247E+02  0.14672524444E+02  0.22639834901E+02  0.31049176957E+02  0.51100000000E-03 0. -1.
        -11    1    4    4    0    0  0.53995251815E+01  0.14559277172E+01 -0.24216211997E+01  0.60941650125E+01  0.51100000000E-03 0.  1.
        -12    1    4    4    0    0  0.68178110399E+01 -0.78084223747E+01  0.84686555201E+01  0.13385519552E+02  0.00000000000E+00 0.  1.
</event>
<event>
 8    1  0.7311878E-012  0.9118800E+02  0.7816164E-02  0.1184000E+00
        -11   -1    0    0    0    0  0.00000000000E+00  0.00000000000E+00  0.45593999997E+02  0.45594000000E+02  0.51100000000E-03 0. -1.
         11   -1    0    0    0    0 -0.00000000000E+00 -0.00000000000E+00 -0.45593999997E+02  0.45594000000E+02  0.51100000000E-03 0.  1.
         23    2    1    2    0    0  0.00000000000E+00 -0.88817841970E-15 -0.71054273576E-14  0.91188000000E+02  0.91188000000E+02 0.  0.
    9900012    2    3    3    0    0  0.19932941852E+02  0.13013002352E+01  0.35413980809E+02  0.50528860930E+02  0.30000003284E+02 0.  0.
        -12    1    3    3    0    0 -0.19932941852E+02 -0.13013002352E+01 -0.35413980809E+02  0.40659139070E+02  0.00000000000E+00 0.  1.
         11    1    4    4    0    0  0.41012909694E+01 -0.41454670676E+01  0.47555667480E+01  0.75246860520E+01  0.51100000000E-03 0. -1.
        -11    1    4    4    0    0 -0.29441864528E+01 -0.69696549652E+01  0.91178765125E+01  0.11848206470E+02  0.51100000000E-03 0.  1.
         12    1    4    4    0    0  0.18775837336E+02  0.12416422268E+02  0.21540537548E+02  0.31155968408E+02  0.00000000000E+00 0. -1.
</event>
<event>
 8    1  0.7311878E-012  0.9118800E+02  0.7816164E-02  0.1184000E+00
        -11   -1    0    0    0    0  0.00000000000E+00  0.00000000000E+00  0.45593999997E+02  0.45594000000E+02  0.51100000000E-03 0. -1.
         11   -1    0    0    0    0 -0.00000000000E+00 -0.00000000000E+00 -0.45593999997E+02  0.45594000000E+02  0.51100000000E-03 0.  1.
         23    2    1    2    0    0  0.00000000000E+00  0.00000000000E+00  0.00000000000E+00  0.91188000000E+02  0.91188000000E+02 0.  0.
    9900012    2    3    3    0    0  0.65206232072E+01  0.37332898585E+02  0.14727535874E+02  0.50528878555E+02  0.30000056856E+02 0.  0.
        -12    1    3    3    0    0 -0.65206232072E+01 -0.37332898585E+02 -0.14727535874E+02  0.40659121445E+02  0.00000000000E+00 0.  1.
         11    1    4    4    0    0 -0.20711261679E+01 -0.47404784471E+00  0.63137686098E+01  0.66616784132E+01  0.51100000000E-03 0. -1.
        -11    1    4    4    0    0  0.10829867895E+02  0.21276577445E+02  0.12127092265E+02  0.26777698808E+02  0.51100000000E-03 0.  1.
        -12    1    4    4    0    0 -0.22381185201E+01  0.16530368985E+02 -0.37133250008E+01  0.17089501334E+02  0.00000000000E+00 0.  1.
</event>
<event>
 8    1  0.7311878E-012  0.9118800E+02  0.7816164E-02  0.1184000E+00
        -11   -1    0    0    0    0  0.00000000000E+00  0.00000000000E+00  0.45593999997E+02  0.45594000000E+02  0.51100000000E-03 0. -1.
         11   -1    0    0    0    0 -0.00000000000E+00 -0.00000000000E+00 -0.45593999997E+02  0.45594000000E+02  0.51100000000E-03 0.  1.
         23    2    1    2    0    0  0.00000000000E+00  0.00000000000E+00  0.00000000000E+00  0.91188000000E+02  0.91188000000E+02 0.  0.
    9900012    2    3    3    0    0 -0.11241230852E+02 -0.16139007575E+02 -0.35585589208E+02  0.50528843640E+02  0.29999950729E+02 0.  0.
         12    1    3    3    0    0  0.11241230852E+02  0.16139007575E+02  0.35585589208E+02  0.40659156360E+02  0.00000000000E+00 0. -1.
         11    1    4    4    0    0 -0.12058957903E+02 -0.43275105300E+01 -0.29903861820E+02  0.32532856701E+02  0.51100000000E-03 0. -1.
        -11    1    4    4    0    0  0.12716579660E+01  0.20430383359E+01 -0.30522682376E+01  0.38868317792E+01  0.51100000000E-03 0.  1.
         12    1    4    4    0    0 -0.45393091458E+00 -0.13854535381E+02 -0.26294591504E+01  0.14109155160E+02  0.00000000000E+00 0. -1.
</event>
<event>
 8    1  0.7311878E-012  0.9118800E+02  0.7816164E-02  0.1184000E+00
        -11   -1    0    0    0    0  0.00000000000E+00  0.00000000000E+00  0.45593999997E+02  0.45594000000E+02  0.51100000000E-03 0.  1.
         11   -1    0    0    0    0 -0.00000000000E+00 -0.00000000000E+00 -0.45593999997E+02  0.45594000000E+02  0.51100000000E-03 0. -1.
         23    2    1    2    0    0  0.00000000000E+00  0.00000000000E+00 -0.35527136788E-14  0.91188000000E+02  0.91188000000E+02 0.  0.
    9900012    2    3    3    0    0 -0.59434701661E+01  0.35531212689E+02  0.18851360391E+02  0.50528859559E+02  0.29999999117E+02 0.  0.
        -12    1    3    3    0    0  0.59434701661E+01 -0.35531212689E+02 -0.18851360391E+02  0.40659140441E+02  0.00000000000E+00 0.  1.
         11    1    4    4    0    0  0.21869196715E+01  0.31657314974E+01 -0.50950255370E+01  0.63846502681E+01  0.51100000000E-03 0. -1.
        -11    1    4    4    0    0 -0.34630644725E+01  0.19231520426E+02  0.42218033580E+01  0.19991693707E+02  0.51100000000E-03 0.  1.
        -12    1    4    4    0    0 -0.46673253651E+01  0.13133960766E+02  0.19724582570E+02  0.24152515584E+02  0.00000000000E+00 0.  1.
</event>
<event>
 8    1  0.8830352E-012  0.9118800E+02  0.7816164E-02  0.1184000E+00
        -11   -1    0    0    0    0  0.00000000000E+00  0.00000000000E+00  0.45593999997E+02  0.45594000000E+02  0.51100000000E-03 0. -1.
         11   -1    0    0    0    0 -0.00000000000E+00 -0.00000000000E+00 -0.45593999997E+02  0.45594000000E+02  0.51100000000E-03 0.  1.
         23    2    1    2    0    0  0.88817841970E-15  0.00000000000E+00  0.00000000000E+00  0.91188000000E+02  0.91188000000E+02 0.  0.
    9900012    2    3    3    0    0  0.35389786804E+01  0.85676998478E+01 -0.39588330263E+02  0.50528859037E+02  0.29999997530E+02 0.  0.
         12    1    3    3    0    0 -0.35389786804E+01 -0.85676998478E+01  0.39588330263E+02  0.40659140963E+02  0.00000000000E+00 0. -1.
         11    1    4    4    0    0  0.15530700680E+01  0.98187039115E+01 -0.44209087140E+01  0.10879494807E+02  0.51100000000E-03 0. -1.
        -11    1    4    4    0    0  0.53649524240E+01 -0.18853177877E+01 -0.16014448417E+01  0.59077714507E+01  0.51100000000E-03 0.  1.
        -12    1    4    4    0    0 -0.33790438115E+01  0.63431372393E+00 -0.33565976708E+02  0.33741592780E+02  0.00000000000E+00 0.  1.
</event>
<event>
 8    1  0.1436200E-011  0.9118800E+02  0.7816164E-02  0.1184000E+00
        -11   -1    0    0    0    0  0.00000000000E+00  0.00000000000E+00  0.45593999997E+02  0.45594000000E+02  0.51100000000E-03 0. -1.
         11   -1    0    0    0    0 -0.00000000000E+00 -0.00000000000E+00 -0.45593999997E+02  0.45594000000E+02  0.51100000000E-03 0.  1.
         23    2    1    2    0    0  0.35527136788E-14 -0.22204460493E-15  0.14210854715E-13  0.91188000000E+02  0.91188000000E+02 0.  0.
    9900012    2    3    3    0    0 -0.23473199582E+02 -0.19809222776E+01 -0.33139844266E+02  0.50528875198E+02  0.30000046652E+02 0.  0.
         12    1    3    3    0    0  0.23473199582E+02  0.19809222776E+01  0.33139844266E+02  0.40659124802E+02  0.00000000000E+00 0. -1.
         11    1    4    4    0    0 -0.11084197814E+02  0.70213018541E+01 -0.10501020640E+02  0.16805640590E+02  0.51100000000E-03 0. -1.
        -11    1    4    4    0    0 -0.11844002408E+02 -0.59916569370E+01 -0.25991405912E+02  0.29184474081E+02  0.51100000000E-03 0.  1.
         12    1    4    4    0    0 -0.54499936072E+00 -0.30105671947E+01  0.33525822854E+01  0.45387605265E+01  0.00000000000E+00 0. -1.
</event>
<event>
 8    1  0.7311878E-012  0.9118800E+02  0.7816164E-02  0.1184000E+00
        -11   -1    0    0    0    0  0.00000000000E+00  0.00000000000E+00  0.45593999997E+02  0.45594000000E+02  0.51100000000E-03 0. -1.
         11   -1    0    0    0    0 -0.00000000000E+00 -0.00000000000E+00 -0.45593999997E+02  0.45594000000E+02  0.51100000000E-03 0.  1.
         23    2    1    2    0    0 -0.88817841970E-15  0.17763568394E-14  0.00000000000E+00  0.91188000000E+02  0.91188000000E+02 0.  0.
    9900012    2    3    3    0    0 -0.26551073620E+01 -0.92704063355E+01  0.39499060843E+02  0.50528857901E+02  0.29999994076E+02 0.  0.
        -12    1    3    3    0    0  0.26551073620E+01  0.92704063355E+01 -0.39499060843E+02  0.40659142099E+02  0.00000000000E+00 0.  1.
         11    1    4    4    0    0  0.30826238126E+01 -0.97080813309E+01  0.94156298320E+01  0.13870958802E+02  0.51100000000E-03 0. -1.
        -11    1    4    4    0    0  0.42209226518E+01 -0.33557895495E+01  0.23546445652E+02  0.24156005767E+02  0.51100000000E-03 0.  1.
        -12    1    4    4    0    0 -0.99586538264E+01  0.37934645449E+01  0.65369853596E+01  0.12501893332E+02  0.00000000000E+00 0.  1.
</event>
<event>
 8    1  0.7311878E-012  0.9118800E+02  0.7816164E-02  0.1184000E+00
        -11   -1    0    0    0    0  0.00000000000E+00  0.00000000000E+00  0.45593999997E+02  0.45594000000E+02  0.51100000000E-03 0. -1.
         11   -1    0    0    0    0 -0.00000000000E+00 -0.00000000000E+00 -0.45593999997E+02  0.45594000000E+02  0.51100000000E-03 0.  1.
         23    2    1    2    0    0  0.00000000000E+00  0.35527136788E-14 -0.35527136788E-14  0.91188000000E+02  0.91188000000E+02 0.  0.
    9900012    2    3    3    0    0 -0.16770872791E+02  0.23051709708E+02 -0.28991768490E+02  0.50528854229E+02  0.29999982916E+02 0.  0.
         12    1    3    3    0    0  0.16770872791E+02 -0.23051709708E+02  0.28991768490E+02  0.40659145771E+02  0.00000000000E+00 0. -1.
         11    1    4    4    0    0 -0.28337139497E+00  0.10856722849E+02  0.38699076274E+01  0.11529306817E+02  0.51100000000E-03 0. -1.
        -11    1    4    4    0    0 -0.18428257238E+01  0.35388429940E+01 -0.63173908360E+01  0.74718701555E+01  0.51100000000E-03 0.  1.
        -12    1    4    4    0    0 -0.14644675672E+02  0.86561438648E+01 -0.26544285281E+02  0.31527677257E+02  0.00000000000E+00 0.  1.
</event>
<event>
 8    1  0.7311878E-012  0.9118800E+02  0.7816164E-02  0.1184000E+00
        -11   -1    0    0    0    0  0.00000000000E+00  0.00000000000E+00  0.45593999997E+02  0.45594000000E+02  0.51100000000E-03 0. -1.
         11   -1    0    0    0    0 -0.00000000000E+00 -0.00000000000E+00 -0.45593999997E+02  0.45594000000E+02  0.51100000000E-03 0.  1.
         23    2    1    2    0    0 -0.17763568394E-14 -0.17763568394E-14  0.00000000000E+00  0.91188000000E+02  0.91188000000E+02 0.  0.
    9900012    2    3    3    0    0 -0.12387611577E+02  0.11197523383E+02 -0.37071924533E+02  0.50528867704E+02  0.30000023872E+02 0.  0.
         12    1    3    3    0    0  0.12387611577E+02 -0.11197523383E+02  0.37071924533E+02  0.40659132296E+02  0.00000000000E+00 0. -1.
         11    1    4    4    0    0 -0.12415523101E+02  0.11414938307E+02 -0.12119080912E+02  0.20768200521E+02  0.51100000000E-03 0. -1.
        -11    1    4    4    0    0 -0.27976236391E+01  0.64004487180E+01 -0.51139374081E+01  0.86570663560E+01  0.51100000000E-03 0.  1.
        -12    1    4    4    0    0  0.28255351638E+01 -0.66178636426E+01 -0.19838906213E+02  0.21103600827E+02  0.00000000000E+00 0.  1.
</event>
<event>
 8    1  0.7311878E-012  0.9118800E+02  0.7816164E-02  0.1184000E+00
        -11   -1    0    0    0    0  0.00000000000E+00  0.00000000000E+00  0.45593999997E+02  0.45594000000E+02  0.51100000000E-03 0. -1.
         11   -1    0    0    0    0 -0.00000000000E+00 -0.00000000000E+00 -0.45593999997E+02  0.45594000000E+02  0.51100000000E-03 0.  1.
         23    2    1    2    0    0  0.35527136788E-14 -0.35527136788E-14 -0.35527136788E-14  0.91188000000E+02  0.91188000000E+02 0.  0.
    9900012    2    3    3    0    0  0.26842767190E+02 -0.24468128961E+02 -0.18274079848E+02  0.50528862288E+02  0.30000007409E+02 0.  0.
         12    1    3    3    0    0 -0.26842767190E+02  0.24468128961E+02  0.18274079848E+02  0.40659137712E+02  0.00000000000E+00 0. -1.
         11    1    4    4    0    0  0.56550474240E+01 -0.13408712861E+02  0.24883635661E+01  0.14763640995E+02  0.51100000000E-03 0. -1.
        -11    1    4    4    0    0  0.36205551061E+01  0.32807107709E+01  0.19131821659E+00  0.48895894878E+01  0.51100000000E-03 0.  1.
        -12    1    4    4    0    0  0.17567164660E+02 -0.14340126871E+02 -0.20953761630E+02  0.30875631804E+02  0.00000000000E+00 0.  1.
</event>
<event>
 8    1  0.7311878E-012  0.9118800E+02  0.7816164E-02  0.1184000E+00
        -11   -1    0    0    0    0  0.00000000000E+00  0.00000000000E+00  0.45593999997E+02  0.45594000000E+02  0.51100000000E-03 0. -1.
         11   -1    0    0    0    0 -0.00000000000E+00 -0.00000000000E+00 -0.45593999997E+02  0.45594000000E+02  0.51100000000E-03 0.  1.
         23    2    1    2    0    0 -0.35527136788E-14 -0.17763568394E-14  0.35527136788E-14  0.91188000000E+02  0.91188000000E+02 0.  0.
    9900012    2    3    3    0    0  0.22859407392E+02  0.10346448151E+02 -0.31993191891E+02  0.50528858063E+02  0.29999994568E+02 0.  0.
         12    1    3    3    0    0 -0.22859407392E+02 -0.10346448151E+02  0.31993191891E+02  0.40659141937E+02  0.00000000000E+00 0. -1.
         11    1    4    4    0    0  0.67359068884E+01 -0.18338116124E+01  0.15428565148E+01  0.71495253777E+01  0.51100000000E-03 0. -1.
        -11    1    4    4    0    0  0.16557592688E+02  0.38797045904E+01 -0.13584635641E+02  0.21765760016E+02  0.51100000000E-03 0.  1.
         12    1    4    4    0    0 -0.43409218374E+00  0.83005551731E+01 -0.19951412766E+02  0.21613572670E+02  0.00000000000E+00 0. -1.
</event>
<event>
 8    1  0.7311878E-012  0.9118800E+02  0.7816164E-02  0.1184000E+00
        -11   -1    0    0    0    0  0.00000000000E+00  0.00000000000E+00  0.45593999997E+02  0.45594000000E+02  0.51100000000E-03 0. -1.
         11   -1    0    0    0    0 -0.00000000000E+00 -0.00000000000E+00 -0.45593999997E+02  0.45594000000E+02  0.51100000000E-03 0.  1.
         23    2    1    2    0    0  0.00000000000E+00  0.00000000000E+00  0.00000000000E+00  0.91188000000E+02  0.91188000000E+02 0.  0.
    9900012    2    3    3    0    0  0.34766762914E+02  0.71666153038E+01  0.19826185366E+02  0.50528858290E+02  0.29999995258E+02 0.  0.
        -12    1    3    3    0    0 -0.34766762914E+02 -0.71666153038E+01 -0.19826185366E+02  0.40659141710E+02  0.00000000000E+00 0.  1.
         11    1    4    4    0    0  0.16500715242E+02 -0.63208969077E+01  0.17822664829E+01  0.17759611912E+02  0.51100000000E-03 0. -1.
        -11    1    4    4    0    0 -0.56906205465E+00  0.30896727435E+01 -0.16966471924E+01  0.35705071405E+01  0.51100000000E-03 0.  1.
         12    1    4    4    0    0  0.18835109727E+02  0.10397839468E+02  0.19740566076E+02  0.29198739237E+02  0.00000000000E+00 0. -1.
</event>
<event>
 8    1  0.7311878E-012  0.9118800E+02  0.7816164E-02  0.1184000E+00
        -11   -1    0    0    0    0  0.00000000000E+00  0.00000000000E+00  0.45593999997E+02  0.45594000000E+02  0.51100000000E-03 0. -1.
         11   -1    0    0    0    0 -0.00000000000E+00 -0.00000000000E+00 -0.45593999997E+02  0.45594000000E+02  0.51100000000E-03 0.  1.
         23    2    1    2    0    0  0.53290705182E-14  0.35527136788E-14  0.14210854715E-13  0.91188000000E+02  0.91188000000E+02 0.  0.
    9900012    2    3    3    0    0  0.14255753214E+02  0.14262151610E+02  0.35306231868E+02  0.50528862319E+02  0.30000007506E+02 0.  0.
        -12    1    3    3    0    0 -0.14255753214E+02 -0.14262151610E+02 -0.35306231868E+02  0.40659137681E+02  0.00000000000E+00 0.  1.
         11    1    4    4    0    0  0.16845018639E+02  0.97404331432E+01  0.32468134483E+02  0.37852482717E+02  0.51100000000E-03 0. -1.
        -11    1    4    4    0    0 -0.16653784630E+01  0.39994626842E+01  0.70818618576E+01  0.83019247659E+01  0.51100000000E-03 0.  1.
        -12    1    4    4    0    0 -0.92388696176E+00  0.52225578214E+00 -0.42437644727E+01  0.43744548369E+01  0.00000000000E+00 0.  1.
</event>
<event>
 8    1  0.7311878E-012  0.9118800E+02  0.7816164E-02  0.1184000E+00
        -11   -1    0    0    0    0  0.00000000000E+00  0.00000000000E+00  0.45593999997E+02  0.45594000000E+02  0.51100000000E-03 0. -1.
         11   -1    0    0    0    0 -0.00000000000E+00 -0.00000000000E+00 -0.45593999997E+02  0.45594000000E+02  0.51100000000E-03 0.  1.
         23    2    1    2    0    0 -0.17763568394E-14  0.00000000000E+00  0.00000000000E+00  0.91188000000E+02  0.91188000000E+02 0.  0.
    9900012    2    3    3    0    0  0.11309516529E+02 -0.91046050240E+01 -0.37978497148E+02  0.50528865204E+02  0.30000016274E+02 0.  0.
         12    1    3    3    0    0 -0.11309516529E+02  0.91046050240E+01  0.37978497148E+02  0.40659134796E+02  0.00000000000E+00 0. -1.
         11    1    4    4    0    0  0.25698422608E+01 -0.86931580712E+00  0.69881373415E+00  0.28014532147E+01  0.51100000000E-03 0. -1.
        -11    1    4    4    0    0  0.12521755206E+02 -0.31265075012E+01 -0.39276699368E+02  0.41342816983E+02  0.51100000000E-03 0.  1.
         12    1    4    4    0    0 -0.37820809378E+01 -0.51087817156E+01  0.59938848590E+00  0.63845950063E+01  0.00000000000E+00 0. -1.
</event>
<event>
 8    1  0.7311878E-012  0.9118800E+02  0.7816164E-02  0.1184000E+00
        -11   -1    0    0    0    0  0.00000000000E+00  0.00000000000E+00  0.45593999997E+02  0.45594000000E+02  0.51100000000E-03 0. -1.
         11   -1    0    0    0    0 -0.00000000000E+00 -0.00000000000E+00 -0.45593999997E+02  0.45594000000E+02  0.51100000000E-03 0.  1.
         23    2    1    2    0    0  0.00000000000E+00  0.17763568394E-14  0.00000000000E+00  0.91188000000E+02  0.91188000000E+02 0.  0.
    9900012    2    3    3    0    0  0.78678742448E+01 -0.84360237440E+01  0.38988405725E+02  0.50528859297E+02  0.29999998319E+02 0.  0.
        -12    1    3    3    0    0 -0.78678742448E+01  0.84360237440E+01 -0.38988405725E+02  0.40659140703E+02  0.00000000000E+00 0.  1.
         11    1    4    4    0    0  0.22214070384E+01 -0.44424099088E+01  0.23491592805E+02  0.24010926425E+02  0.51100000000E-03 0. -1.
        -11    1    4    4    0    0  0.63565707367E+01 -0.11008107613E+02  0.14682661025E+02  0.19420735305E+02  0.51100000000E-03 0.  1.
        -12    1    4    4    0    0 -0.71010353024E+00  0.70144937782E+01  0.81415189450E+00  0.70971975663E+01  0.00000000000E+00 0.  1.
</event>
<event>
 8    1  0.7311878E-012  0.9118800E+02  0.7816164E-02  0.1184000E+00
        -11   -1    0    0    0    0  0.00000000000E+00  0.00000000000E+00  0.45593999997E+02  0.45594000000E+02  0.51100000000E-03 0. -1.
         11   -1    0    0    0    0 -0.00000000000E+00 -0.00000000000E+00 -0.45593999997E+02  0.45594000000E+02  0.51100000000E-03 0.  1.
         23    2    1    2    0    0  0.00000000000E+00 -0.88817841970E-15  0.00000000000E+00  0.91188000000E+02  0.91188000000E+02 0.  0.
    9900012    2    3    3    0    0 -0.30766895612E+02  0.70125515979E+01  0.25639580496E+02  0.50528857935E+02  0.29999994178E+02 0.  0.
        -12    1    3    3    0    0  0.30766895612E+02 -0.70125515979E+01 -0.25639580496E+02  0.40659142065E+02  0.00000000000E+00 0.  1.
         11    1    4    4    0    0 -0.14150133223E+02  0.61722935870E+01  0.20523178373E+00  0.15439093195E+02  0.51100000000E-03 0.  1.
        -11    1    4    4    0    0  0.14279654565E+01  0.53045111606E+01  0.71394576274E+01  0.90082617343E+01  0.51100000000E-03 0. -1.
         12    1    4    4    0    0 -0.18044727845E+02 -0.44642531497E+01  0.18294891085E+02  0.26081503005E+02  0.00000000000E+00 0. -1.
</event>
<event>
 8    1  0.7311878E-012  0.9118800E+02  0.7816164E-02  0.1184000E+00
        -11   -1    0    0    0    0  0.00000000000E+00  0.00000000000E+00  0.45593999997E+02  0.45594000000E+02  0.51100000000E-03 0.  1.
         11   -1    0    0    0    0 -0.00000000000E+00 -0.00000000000E+00 -0.45593999997E+02  0.45594000000E+02  0.51100000000E-03 0. -1.
         23    2    1    2    0    0  0.17763568394E-14 -0.71054273576E-14 -0.17763568394E-14  0.91188000000E+02  0.91188000000E+02 0.  0.
    9900012    2    3    3    0    0 -0.96000931850E+01  0.38257881014E+02  0.98659968558E+01  0.50528866428E+02  0.30000019996E+02 0.  0.
        -12    1    3    3    0    0  0.96000931850E+01 -0.38257881014E+02 -0.98659968558E+01  0.40659133572E+02  0.00000000000E+00 0.  1.
         11    1    4    4    0    0 -0.78567928231E+01  0.23894052086E+02  0.15509974079E+02  0.29550198218E+02  0.51100000000E-03 0. -1.
        -11    1    4    4    0    0 -0.63315519451E+01  0.16695629450E+01 -0.62496382473E+00  0.65777329304E+01  0.51100000000E-03 0.  1.
         12    1    4    4    0    0  0.45882515831E+01  0.12694265983E+02 -0.50190133983E+01  0.14400935280E+02  0.00000000000E+00 0. -1.
</event>
<event>
 8    1  0.7311878E-012  0.9118800E+02  0.7816164E-02  0.1184000E+00
        -11   -1    0    0    0    0  0.00000000000E+00  0.00000000000E+00  0.45593999997E+02  0.45594000000E+02  0.51100000000E-03 0. -1.
         11   -1    0    0    0    0 -0.00000000000E+00 -0.00000000000E+00 -0.45593999997E+02  0.45594000000E+02  0.51100000000E-03 0.  1.
         23    2    1    2    0    0 -0.35527136788E-14 -0.17763568394E-14  0.00000000000E+00  0.91188000000E+02  0.91188000000E+02 0.  0.
    9900012    2    3    3    0    0 -0.30714195285E+02  0.14218234699E+02 -0.22531029241E+02  0.50528840287E+02  0.29999940535E+02 0.  0.
         12    1    3    3    0    0  0.30714195285E+02 -0.14218234699E+02  0.22531029241E+02  0.40659159713E+02  0.00000000000E+00 0. -1.
         11    1    4    4    0    0 -0.17822590442E+01 -0.43177531862E+01 -0.24619587564E+01  0.52802160048E+01  0.51100000000E-03 0. -1.
        -11    1    4    4    0    0 -0.30206859059E+02  0.13724277688E+02 -0.11091319912E+02  0.34983246132E+02  0.51100000000E-03 0.  1.
         12    1    4    4    0    0  0.12749228184E+01  0.48117101975E+01 -0.89777505728E+01  0.10265378150E+02  0.00000000000E+00 0. -1.
</event>
<event>
 8    1  0.7311878E-012  0.9118800E+02  0.7816164E-02  0.1184000E+00
        -11   -1    0    0    0    0  0.00000000000E+00  0.00000000000E+00  0.45593999997E+02  0.45594000000E+02  0.51100000000E-03 0. -1.
         11   -1    0    0    0    0 -0.00000000000E+00 -0.00000000000E+00 -0.45593999997E+02  0.45594000000E+02  0.51100000000E-03 0.  1.
         23    2    1    2    0    0  0.00000000000E+00 -0.71054273576E-14  0.71054273576E-14  0.91188000000E+02  0.91188000000E+02 0.  0.
    9900012    2    3    3    0    0 -0.11161285435E+02  0.26529415206E+02 -0.28719010017E+02  0.50528859575E+02  0.29999999163E+02 0.  0.
         12    1    3    3    0    0  0.11161285435E+02 -0.26529415206E+02  0.28719010017E+02  0.40659140425E+02  0.00000000000E+00 0. -1.
         11    1    4    4    0    0 -0.86664592293E+01  0.20285593476E+00 -0.80683604162E+01  0.11842597104E+02  0.51100000000E-03 0. -1.
        -11    1    4    4    0    0  0.10827400666E+01  0.90016950834E+01 -0.18834189315E+02  0.20902859322E+02  0.51100000000E-03 0.  1.
        -12    1    4    4    0    0 -0.35775662727E+01  0.17324864188E+02 -0.18164602862E+01  0.17783403148E+02  0.00000000000E+00 0.  1.
</event>
<event>
 8    1  0.7311878E-012  0.9118800E+02  0.7816164E-02  0.1184000E+00
        -11   -1    0    0    0    0  0.00000000000E+00  0.00000000000E+00  0.45593999997E+02  0.45594000000E+02  0.51100000000E-03 0. -1.
         11   -1    0    0    0    0 -0.00000000000E+00 -0.00000000000E+00 -0.45593999997E+02  0.45594000000E+02  0.51100000000E-03 0.  1.
         23    2    1    2    0    0  0.00000000000E+00  0.00000000000E+00  0.71054273576E-14  0.91188000000E+02  0.91188000000E+02 0.  0.
    9900012    2    3    3    0    0 -0.65313585065E+01 -0.93250228608E+01  0.39032678350E+02  0.50528872188E+02  0.30000037502E+02 0.  0.
        -12    1    3    3    0    0  0.65313585065E+01  0.93250228608E+01 -0.39032678350E+02  0.40659127812E+02  0.00000000000E+00 0.  1.
         11    1    4    4    0    0 -0.26730377871E+01 -0.41867844246E+01 -0.16694001044E+00  0.49701271672E+01  0.51100000000E-03 0. -1.
        -11    1    4    4    0    0  0.63090283446E+01 -0.97786467193E+01  0.24205484522E+02  0.26857610682E+02  0.51100000000E-03 0.  1.
         12    1    4    4    0    0 -0.10167349064E+02  0.46404082831E+01  0.14994133838E+02  0.18701134339E+02  0.00000000000E+00 0. -1.
</event>
<event>
 8    1  0.7311878E-012  0.9118800E+02  0.7816164E-02  0.1184000E+00
        -11   -1    0    0    0    0  0.00000000000E+00  0.00000000000E+00  0.45593999997E+02  0.45594000000E+02  0.51100000000E-03 0. -1.
         11   -1    0    0    0    0 -0.00000000000E+00 -0.00000000000E+00 -0.45593999997E+02  0.45594000000E+02  0.51100000000E-03 0.  1.
         23    2    1    2    0    0  0.00000000000E+00  0.35527136788E-14  0.00000000000E+00  0.91188000000E+02  0.91188000000E+02 0.  0.
    9900012    2    3    3    0    0 -0.95911238650E+01  0.12399714284E+02 -0.37515643878E+02  0.50528854572E+02  0.29999983957E+02 0.  0.
         12    1    3    3    0    0  0.95911238650E+01 -0.12399714284E+02  0.37515643878E+02  0.40659145428E+02  0.00000000000E+00 0. -1.
         11    1    4    4    0    0 -0.51504647206E+01  0.13895300290E+02 -0.19766443987E+02  0.24704634487E+02  0.51100000000E-03 0. -1.
        -11    1    4    4    0    0  0.40648448348E+00  0.79810807647E+01 -0.90834960526E+01  0.12098461911E+02  0.51100000000E-03 0.  1.
        -12    1    4    4    0    0 -0.48471436279E+01 -0.94766667703E+01 -0.86657038389E+01  0.13725758174E+02  0.00000000000E+00 0.  1.
</event>
<event>
 8    1  0.7311878E-012  0.9118800E+02  0.7816164E-02  0.1184000E+00
        -11   -1    0    0    0    0  0.00000000000E+00  0.00000000000E+00  0.45593999997E+02  0.45594000000E+02  0.51100000000E-03 0. -1.
         11   -1    0    0    0    0 -0.00000000000E+00 -0.00000000000E+00 -0.45593999997E+02  0.45594000000E+02  0.51100000000E-03 0.  1.
         23    2    1    2    0    0  0.00000000000E+00  0.00000000000E+00  0.71054273576E-14  0.91188000000E+02  0.91188000000E+02 0.  0.
    9900012    2    3    3    0    0 -0.87752255408E+01 -0.30907727174E+01 -0.39580411331E+02  0.50528850717E+02  0.29999972240E+02 0.  0.
         12    1    3    3    0    0  0.87752255408E+01  0.30907727174E+01  0.39580411331E+02  0.40659149283E+02  0.00000000000E+00 0. -1.
         11    1    4    4    0    0  0.20836022369E+01 -0.93917394155E+01 -0.83229502145E+01  0.12720757370E+02  0.51100000000E-03 0. -1.
        -11    1    4    4    0    0 -0.14001245178E+02  0.47266285564E+01 -0.14562253070E+02  0.20746929864E+02  0.51100000000E-03 0.  1.
        -12    1    4    4    0    0  0.31424174002E+01  0.15743381416E+01 -0.16695208046E+02  0.17061163483E+02  0.00000000000E+00 0.  1.
</event>
<event>
 8    1  0.7311878E-012  0.9118800E+02  0.7816164E-02  0.1184000E+00
        -11   -1    0    0    0    0  0.00000000000E+00  0.00000000000E+00  0.45593999997E+02  0.45594000000E+02  0.51100000000E-03 0. -1.
         11   -1    0    0    0    0 -0.00000000000E+00 -0.00000000000E+00 -0.45593999997E+02  0.45594000000E+02  0.51100000000E-03 0.  1.
         23    2    1    2    0    0  0.00000000000E+00  0.00000000000E+00  0.35527136788E-14  0.91188000000E+02  0.91188000000E+02 0.  0.
    9900012    2    3    3    0    0 -0.23546280937E+02  0.16213273315E+02  0.28911383911E+02  0.50528859611E+02  0.29999999272E+02 0.  0.
        -12    1    3    3    0    0  0.23546280937E+02 -0.16213273315E+02 -0.28911383911E+02  0.40659140389E+02  0.00000000000E+00 0.  1.
         11    1    4    4    0    0 -0.10984316384E+02  0.16448689415E+02  0.71092092186E+01  0.21017979110E+02  0.51100000000E-03 0. -1.
        -11    1    4    4    0    0 -0.52298090553E+01  0.70026271002E+01  0.14324779045E+02  0.16780553746E+02  0.51100000000E-03 0.  1.
        -12    1    4    4    0    0 -0.73321554977E+01 -0.72380432005E+01  0.74773956471E+01  0.12730326755E+02  0.00000000000E+00 0.  1.
</event>
<event>
 8    1  0.7311878E-012  0.9118800E+02  0.7816164E-02  0.1184000E+00
        -11   -1    0    0    0    0  0.00000000000E+00  0.00000000000E+00  0.45593999997E+02  0.45594000000E+02  0.51100000000E-03 0.  1.
         11   -1    0    0    0    0 -0.00000000000E+00 -0.00000000000E+00 -0.45593999997E+02  0.45594000000E+02  0.51100000000E-03 0. -1.
         23    2    1    2    0    0  0.00000000000E+00  0.00000000000E+00 -0.11379786002E-14  0.91188000000E+02  0.91188000000E+02 0.  0.
    9900012    2    3    3    0    0  0.58645950606E+01  0.40233923301E+02  0.67158506987E-01  0.50528848882E+02  0.29999966661E+02 0.  0.
        -12    1    3    3    0    0 -0.58645950606E+01 -0.40233923301E+02 -0.67158506987E-01  0.40659151118E+02  0.00000000000E+00 0.  1.
         11    1    4    4    0    0  0.30496863480E+01  0.53573939314E+01 -0.63154920886E+01  0.88254006787E+01  0.51100000000E-03 0. -1.
        -11    1    4    4    0    0 -0.72198181901E+01  0.14494869208E+02 -0.40685975312E+01  0.16696721061E+02  0.51100000000E-03 0.  1.
        -12    1    4    4    0    0  0.10034726903E+02  0.20381660161E+02  0.10451248127E+02  0.25006727142E+02  0.00000000000E+00 0.  1.
</event>
<event>
 8    1  0.7311878E-012  0.9118800E+02  0.7816164E-02  0.1184000E+00
        -11   -1    0    0    0    0  0.00000000000E+00  0.00000000000E+00  0.45593999997E+02  0.45594000000E+02  0.51100000000E-03 0. -1.
         11   -1    0    0    0    0 -0.00000000000E+00 -0.00000000000E+00 -0.45593999997E+02  0.45594000000E+02  0.51100000000E-03 0.  1.
         23    2    1    2    0    0  0.00000000000E+00  0.00000000000E+00  0.00000000000E+00  0.91188000000E+02  0.91188000000E+02 0.  0.
    9900012    2    3    3    0    0  0.19241607731E+02  0.93860658873E+01  0.34566277689E+02  0.50528865058E+02  0.30000015831E+02 0.  0.
        -12    1    3    3    0    0 -0.19241607731E+02 -0.93860658873E+01 -0.34566277689E+02  0.40659134942E+02  0.00000000000E+00 0.  1.
         11    1    4    4    0    0  0.98820504129E+01 -0.19823580146E+00  0.13355309430E+02  0.16615008518E+02  0.51100000000E-03 0. -1.
        -11    1    4    4    0    0  0.10039407686E+01  0.35679686196E+01  0.23142984384E+02  0.23437918500E+02  0.51100000000E-03 0.  1.
        -12    1    4    4    0    0  0.83556165494E+01  0.60163330692E+01 -0.19320161254E+01  0.10475938041E+02  0.00000000000E+00 0.  1.
</event>
<event>
 8    1  0.7311878E-012  0.9118800E+02  0.7816164E-02  0.1184000E+00
        -11   -1    0    0    0    0  0.00000000000E+00  0.00000000000E+00  0.45593999997E+02  0.45594000000E+02  0.51100000000E-03 0. -1.
         11   -1    0    0    0    0 -0.00000000000E+00 -0.00000000000E+00 -0.45593999997E+02  0.45594000000E+02  0.51100000000E-03 0.  1.
         23    2    1    2    0    0  0.00000000000E+00  0.00000000000E+00 -0.35527136788E-14  0.91188000000E+02  0.91188000000E+02 0.  0.
    9900012    2    3    3    0    0 -0.16599885060E+02 -0.24453816597E+02  0.27921675587E+02  0.50528864523E+02  0.30000014203E+02 0.  0.
        -12    1    3    3    0    0  0.16599885060E+02  0.24453816597E+02 -0.27921675587E+02  0.40659135477E+02  0.00000000000E+00 0.  1.
         11    1    4    4    0    0 -0.10693565203E+02 -0.33343930711E+01  0.21480869328E+02  0.24225983185E+02  0.51100000000E-03 0. -1.
        -11    1    4    4    0    0  0.38920701598E+01 -0.72349844783E+01  0.39909136639E+01  0.91334879790E+01  0.51100000000E-03 0.  1.
        -12    1    4    4    0    0 -0.97983900169E+01 -0.13884439048E+02  0.24498925948E+01  0.17169393359E+02  0.00000000000E+00 0.  1.
</event>
<event>
 8    1  0.7311878E-012  0.9118800E+02  0.7816164E-02  0.1184000E+00
        -11   -1    0    0    0    0  0.00000000000E+00  0.00000000000E+00  0.45593999997E+02  0.45594000000E+02  0.51100000000E-03 0. -1.
         11   -1    0    0    0    0 -0.00000000000E+00 -0.00000000000E+00 -0.45593999997E+02  0.45594000000E+02  0.51100000000E-03 0.  1.
         23    2    1    2    0    0  0.00000000000E+00  0.00000000000E+00  0.00000000000E+00  0.91188000000E+02  0.91188000000E+02 0.  0.
    9900012    2    3    3    0    0 -0.53589558598E+01 -0.95378782692E+01  0.39159622777E+02  0.50528860980E+02  0.30000003435E+02 0.  0.
        -12    1    3    3    0    0  0.53589558598E+01  0.95378782692E+01 -0.39159622777E+02  0.40659139020E+02  0.00000000000E+00 0.  1.
         11    1    4    4    0    0 -0.86027832163E+01 -0.11751210815E+01  0.25891127447E+02  0.27308227137E+02  0.51100000000E-03 0. -1.
        -11    1    4    4    0    0  0.99797769470E+01 -0.31532375023E+01  0.83334884031E+01  0.13378560606E+02  0.51100000000E-03 0.  1.
         12    1    4    4    0    0 -0.67359495904E+01 -0.52095196854E+01  0.49350069273E+01  0.98420732374E+01  0.00000000000E+00 0. -1.
</event>
<event>
 8    1  0.7311878E-012  0.9118800E+02  0.7816164E-02  0.1184000E+00
        -11   -1    0    0    0    0  0.00000000000E+00  0.00000000000E+00  0.45593999997E+02  0.45594000000E+02  0.51100000000E-03 0. -1.
         11   -1    0    0    0    0 -0.00000000000E+00 -0.00000000000E+00 -0.45593999997E+02  0.45594000000E+02  0.51100000000E-03 0.  1.
         23    2    1    2    0    0 -0.71054273576E-14 -0.88817841970E-15  0.35527136788E-14  0.91188000000E+02  0.91188000000E+02 0.  0.
    9900012    2    3    3    0    0  0.32184686052E+02  0.20039219440E+01 -0.24764834018E+02  0.50528846991E+02  0.29999960915E+02 0.  0.
         12    1    3    3    0    0 -0.32184686052E+02 -0.20039219440E+01  0.24764834018E+02  0.40659153009E+02  0.00000000000E+00 0. -1.
         11    1    4    4    0    0  0.12736189007E+02 -0.96151738499E+01 -0.38169276661E+01  0.16408260592E+02  0.51100000000E-03 0. -1.
        -11    1    4    4    0    0  0.14368332792E+02  0.10539912650E+01 -0.73716604157E+01  0.16183363752E+02  0.51100000000E-03 0.  1.
        -12    1    4    4    0    0  0.50801642530E+01  0.10565104529E+02 -0.13576245937E+02  0.17937222647E+02  0.00000000000E+00 0.  1.
</event>
<event>
 8    1  0.7311878E-012  0.9118800E+02  0.7816164E-02  0.1184000E+00
        -11   -1    0    0    0    0  0.00000000000E+00  0.00000000000E+00  0.45593999997E+02  0.45594000000E+02  0.51100000000E-03 0. -1.
         11   -1    0    0    0    0 -0.00000000000E+00 -0.00000000000E+00 -0.45593999997E+02  0.45594000000E+02  0.51100000000E-03 0.  1.
         23    2    1    2    0    0  0.00000000000E+00  0.00000000000E+00 -0.35527136788E-14  0.91188000000E+02  0.91188000000E+02 0.  0.
    9900012    2    3    3    0    0  0.14655832454E+02 -0.21842503853E+02  0.31004470911E+02  0.50528860610E+02  0.30000002309E+02 0.  0.
        -12    1    3    3    0    0 -0.14655832454E+02  0.21842503853E+02 -0.31004470911E+02  0.40659139390E+02  0.00000000000E+00 0.  1.
         11    1    4    4    0    0 -0.33445776744E+00 -0.93836421322E+01 -0.39168920732E+00  0.93977668816E+01  0.51100000000E-03 0. -1.
        -11    1    4    4    0    0 -0.22995870518E+01 -0.24935983651E+01  0.14776190426E+02  0.15160538816E+02  0.51100000000E-03 0.  1.
         12    1    4    4    0    0  0.17289877274E+02 -0.99652633558E+01  0.16619969691E+02  0.25970554912E+02  0.00000000000E+00 0. -1.
</event>
<event>
 8    1  0.7311878E-012  0.9118800E+02  0.7816164E-02  0.1184000E+00
        -11   -1    0    0    0    0  0.00000000000E+00  0.00000000000E+00  0.45593999997E+02  0.45594000000E+02  0.51100000000E-03 0. -1.
         11   -1    0    0    0    0 -0.00000000000E+00 -0.00000000000E+00 -0.45593999997E+02  0.45594000000E+02  0.51100000000E-03 0.  1.
         23    2    1    2    0    0  0.00000000000E+00  0.00000000000E+00  0.00000000000E+00  0.91188000000E+02  0.91188000000E+02 0.  0.
    9900012    2    3    3    0    0 -0.19318649940E+02 -0.23412667475E+02  0.27051865659E+02  0.50528847654E+02  0.29999962929E+02 0.  0.
        -12    1    3    3    0    0  0.19318649940E+02  0.23412667475E+02 -0.27051865659E+02  0.40659152346E+02  0.00000000000E+00 0.  1.
         11    1    4    4    0    0 -0.14571057357E+02 -0.12621633045E+02  0.24134470719E+01  0.19427971079E+02  0.51100000000E-03 0. -1.
        -11    1    4    4    0    0  0.34324070258E+01 -0.17084993590E+01  0.27592356049E+00  0.38440242094E+01  0.51100000000E-03 0.  1.
         12    1    4    4    0    0 -0.81799996090E+01 -0.90825350717E+01  0.24362495027E+02  0.27256852366E+02  0.00000000000E+00 0. -1.
</event>
<event>
 8    1  0.7311878E-012  0.9118800E+02  0.7816164E-02  0.1184000E+00
        -11   -1    0    0    0    0  0.00000000000E+00  0.00000000000E+00  0.45593999997E+02  0.45594000000E+02  0.51100000000E-03 0. -1.
         11   -1    0    0    0    0 -0.00000000000E+00 -0.00000000000E+00 -0.45593999997E+02  0.45594000000E+02  0.51100000000E-03 0.  1.
         23    2    1    2    0    0  0.00000000000E+00  0.00000000000E+00  0.00000000000E+00  0.91188000000E+02  0.91188000000E+02 0.  0.
    9900012    2    3    3    0    0  0.18881535647E+02  0.93067017927E+01 -0.34785609077E+02  0.50528859754E+02  0.29999999709E+02 0.  0.
         12    1    3    3    0    0 -0.18881535647E+02 -0.93067017927E+01  0.34785609077E+02  0.40659140246E+02  0.00000000000E+00 0. -1.
         11    1    4    4    0    0  0.76524712322E+01  0.16089434577E+02 -0.15982410003E+02  0.23934653762E+02  0.51100000000E-03 0.  1.
        -11    1    4    4    0    0 -0.28107470662E+01  0.39520591239E+00 -0.44110452357E+01  0.52453605325E+01  0.51100000000E-03 0. -1.
         12    1    4    4    0    0  0.14039811481E+02 -0.71779386963E+01 -0.14392153839E+02  0.21348845460E+02  0.00000000000E+00 0. -1.
</event>
<event>
 8    1  0.7311878E-012  0.9118800E+02  0.7816164E-02  0.1184000E+00
        -11   -1    0    0    0    0  0.00000000000E+00  0.00000000000E+00  0.45593999997E+02  0.45594000000E+02  0.51100000000E-03 0.  1.
         11   -1    0    0    0    0 -0.00000000000E+00 -0.00000000000E+00 -0.45593999997E+02  0.45594000000E+02  0.51100000000E-03 0. -1.
         23    2    1    2    0    0  0.00000000000E+00  0.44408920985E-15  0.00000000000E+00  0.91188000000E+02  0.91188000000E+02 0.  0.
    9900012    2    3    3    0    0 -0.37131302223E+02 -0.21398522165E+01  0.16427217093E+02  0.50528855473E+02  0.29999986695E+02 0.  0.
        -12    1    3    3    0    0  0.37131302223E+02  0.21398522165E+01 -0.16427217093E+02  0.40659144527E+02  0.00000000000E+00 0.  1.
         11    1    4    4    0    0 -0.52566260038E+01  0.28962672373E+01 -0.39944641045E+01  0.72094538348E+01  0.51100000000E-03 0. -1.
        -11    1    4    4    0    0 -0.39305706545E+00  0.45367475172E+01  0.56344544577E+01  0.72445599721E+01  0.51100000000E-03 0.  1.
         12    1    4    4    0    0 -0.31481619154E+02 -0.95728669710E+01  0.14787226739E+02  0.36074841666E+02  0.00000000000E+00 0. -1.
</event>
<event>
 8    1  0.7311878E-012  0.9118800E+02  0.7816164E-02  0.1184000E+00
        -11   -1    0    0    0    0  0.00000000000E+00  0.00000000000E+00  0.45593999997E+02  0.45594000000E+02  0.51100000000E-03 0. -1.
         11   -1    0    0    0    0 -0.00000000000E+00 -0.00000000000E+00 -0.45593999997E+02  0.45594000000E+02  0.51100000000E-03 0.  1.
         23    2    1    2    0    0  0.00000000000E+00  0.00000000000E+00  0.00000000000E+00  0.91188000000E+02  0.91188000000E+02 0.  0.
    9900012    2    3    3    0    0  0.94770620967E+01  0.20744638681E+02  0.33660211944E+02  0.50528873004E+02  0.30000039982E+02 0.  0.
        -12    1    3    3    0    0 -0.94770620967E+01 -0.20744638681E+02 -0.33660211944E+02  0.40659126996E+02  0.00000000000E+00 0.  1.
         11    1    4    4    0    0  0.16665302838E+02  0.60652610773E+01  0.16698954137E+02  0.24359285297E+02  0.51100000000E-03 0. -1.
        -11    1    4    4    0    0 -0.13012402747E+01  0.13755115403E+02  0.10309901175E+02  0.17239213686E+02  0.51100000000E-03 0.  1.
         12    1    4    4    0    0 -0.58870004669E+01  0.92426220080E+00  0.66513566320E+01  0.89303740212E+01  0.00000000000E+00 0. -1.
</event>
<event>
 8    1  0.7311878E-012  0.9118800E+02  0.7816164E-02  0.1184000E+00
        -11   -1    0    0    0    0  0.00000000000E+00  0.00000000000E+00  0.45593999997E+02  0.45594000000E+02  0.51100000000E-03 0. -1.
         11   -1    0    0    0    0 -0.00000000000E+00 -0.00000000000E+00 -0.45593999997E+02  0.45594000000E+02  0.51100000000E-03 0.  1.
         23    2    1    2    0    0 -0.22204460493E-15  0.00000000000E+00  0.00000000000E+00  0.91188000000E+02  0.91188000000E+02 0.  0.
    9900012    2    3    3    0    0  0.16695781483E+01 -0.19908444137E+02 -0.35412336059E+02  0.50528841323E+02  0.29999943684E+02 0.  0.
         12    1    3    3    0    0 -0.16695781483E+01  0.19908444137E+02  0.35412336059E+02  0.40659158677E+02  0.00000000000E+00 0. -1.
         11    1    4    4    0    0  0.69808634380E+01 -0.20800036539E+01 -0.51916788842E+01  0.89449650328E+01  0.51100000000E-03 0. -1.
        -11    1    4    4    0    0  0.30495368906E+01 -0.13228292436E+02 -0.28926735670E+02  0.31953770244E+02  0.51100000000E-03 0.  1.
        -12    1    4    4    0    0 -0.83608221804E+01 -0.46001480475E+01 -0.12939215052E+01  0.96301060457E+01  0.00000000000E+00 0.  1.
</event>
<event>
 8    1  0.7311878E-012  0.9118800E+02  0.7816164E-02  0.1184000E+00
        -11   -1    0    0    0    0  0.00000000000E+00  0.00000000000E+00  0.45593999997E+02  0.45594000000E+02  0.51100000000E-03 0. -1.
         11   -1    0    0    0    0 -0.00000000000E+00 -0.00000000000E+00 -0.45593999997E+02  0.45594000000E+02  0.51100000000E-03 0.  1.
         23    2    1    2    0    0 -0.35527136788E-14  0.00000000000E+00  0.00000000000E+00  0.91188000000E+02  0.91188000000E+02 0.  0.
    9900012    2    3    3    0    0  0.16350673789E+02  0.27962817901E+02 -0.24574418253E+02  0.50528858951E+02  0.29999997269E+02 0.  0.
         12    1    3    3    0    0 -0.16350673789E+02 -0.27962817901E+02  0.24574418253E+02  0.40659141049E+02  0.00000000000E+00 0. -1.
         11    1    4    4    0    0  0.13385009741E+02  0.72325296161E+01 -0.96585802776E+01  0.18020991750E+02  0.51100000000E-03 0.  1.
        -11    1    4    4    0    0  0.11054815610E+02  0.10488093260E+02 -0.47405789494E+01  0.15958763656E+02  0.51100000000E-03 0. -1.
         12    1    4    4    0    0 -0.80891515612E+01  0.10242195025E+02 -0.10175259026E+02  0.16549103545E+02  0.00000000000E+00 0. -1.
</event>
<event>
 8    1  0.7311878E-012  0.9118800E+02  0.7816164E-02  0.1184000E+00
        -11   -1    0    0    0    0  0.00000000000E+00  0.00000000000E+00  0.45593999997E+02  0.45594000000E+02  0.51100000000E-03 0. -1.
         11   -1    0    0    0    0 -0.00000000000E+00 -0.00000000000E+00 -0.45593999997E+02  0.45594000000E+02  0.51100000000E-03 0.  1.
         23    2    1    2    0    0  0.00000000000E+00  0.00000000000E+00  0.00000000000E+00  0.91188000000E+02  0.91188000000E+02 0.  0.
    9900012    2    3    3    0    0  0.17768930370E+02  0.26529314133E+02  0.25171945132E+02  0.50528853224E+02  0.29999979860E+02 0.  0.
        -12    1    3    3    0    0 -0.17768930370E+02 -0.26529314133E+02 -0.25171945132E+02  0.40659146776E+02  0.00000000000E+00 0.  1.
         11    1    4    4    0    0  0.70062878738E+01  0.33904413922E+01  0.15999619359E+02  0.17792441724E+02  0.51100000000E-03 0. -1.
        -11    1    4    4    0    0  0.47710123467E+01  0.18584509899E+01  0.93134766315E+01  0.10628134649E+02  0.51100000000E-03 0.  1.
         12    1    4    4    0    0  0.59916301494E+01  0.21280421751E+02 -0.14115085937E+00  0.22108276850E+02  0.00000000000E+00 0. -1.
</event>
<event>
 8    1  0.7311878E-012  0.9118800E+02  0.7816164E-02  0.1184000E+00
        -11   -1    0    0    0    0  0.00000000000E+00  0.00000000000E+00  0.45593999997E+02  0.45594000000E+02  0.51100000000E-03 0. -1.
         11   -1    0    0    0    0 -0.00000000000E+00 -0.00000000000E+00 -0.45593999997E+02  0.45594000000E+02  0.51100000000E-03 0.  1.
         23    2    1    2    0    0  0.00000000000E+00  0.00000000000E+00  0.17763568394E-14  0.91188000000E+02  0.91188000000E+02 0.  0.
    9900012    2    3    3    0    0 -0.85106465798E+01 -0.38059462575E+02 -0.11498379844E+02  0.50528849299E+02  0.29999967928E+02 0.  0.
         12    1    3    3    0    0  0.85106465798E+01  0.38059462575E+02  0.11498379844E+02  0.40659150701E+02  0.00000000000E+00 0. -1.
         11    1    4    4    0    0  0.30050151545E+01 -0.14448756349E+02  0.51243636449E+01  0.15622284697E+02  0.51100000000E-03 0. -1.
        -11    1    4    4    0    0 -0.77602817396E+01 -0.24155801236E+02 -0.99952590810E+01  0.27269578478E+02  0.51100000000E-03 0.  1.
        -12    1    4    4    0    0 -0.37553799947E+01  0.54509500973E+00 -0.66274844082E+01  0.76369861238E+01  0.00000000000E+00 0.  1.
</event>
<event>
 8    1  0.7311878E-012  0.9118800E+02  0.7816164E-02  0.1184000E+00
        -11   -1    0    0    0    0  0.00000000000E+00  0.00000000000E+00  0.45593999997E+02  0.45594000000E+02  0.51100000000E-03 0. -1.
         11   -1    0    0    0    0 -0.00000000000E+00 -0.00000000000E+00 -0.45593999997E+02  0.45594000000E+02  0.51100000000E-03 0.  1.
         23    2    1    2    0    0 -0.71054273576E-14 -0.88817841970E-15 -0.88817841970E-15  0.91188000000E+02  0.91188000000E+02 0.  0.
    9900012    2    3    3    0    0 -0.39759918661E+02 -0.41959269028E+01 -0.73965077610E+01  0.50528864968E+02  0.30000015557E+02 0.  0.
         12    1    3    3    0    0  0.39759918661E+02  0.41959269028E+01  0.73965077610E+01  0.40659135032E+02  0.00000000000E+00 0. -1.
         11    1    4    4    0    0 -0.40257153136E+01  0.56636263384E+01 -0.44850091051E+01  0.82703297408E+01  0.51100000000E-03 0. -1.
        -11    1    4    4    0    0 -0.20639986795E+02  0.18695788110E+01  0.53964443452E+01  0.21415554900E+02  0.51100000000E-03 0.  1.
        -12    1    4    4    0    0 -0.15094216552E+02 -0.11729132052E+02 -0.83079430011E+01  0.20842980327E+02  0.00000000000E+00 0.  1.
</event>
<event>
 8    1  0.7311878E-012  0.9118800E+02  0.7816164E-02  0.1184000E+00
        -11   -1    0    0    0    0  0.00000000000E+00  0.00000000000E+00  0.45593999997E+02  0.45594000000E+02  0.51100000000E-03 0. -1.
         11   -1    0    0    0    0 -0.00000000000E+00 -0.00000000000E+00 -0.45593999997E+02  0.45594000000E+02  0.51100000000E-03 0.  1.
         23    2    1    2    0    0  0.88817841970E-15  0.00000000000E+00 -0.71054273576E-14  0.91188000000E+02  0.91188000000E+02 0.  0.
    9900012    2    3    3    0    0  0.49779686010E+01 -0.22061069365E+02 -0.33789120814E+02  0.50528737362E+02  0.29999627683E+02 0.  0.
         12    1    3    3    0    0 -0.49779686010E+01  0.22061069365E+02  0.33789120814E+02  0.40659262638E+02  0.00000000000E+00 0. -1.
         11    1    4    4    0    0  0.26550416271E+01 -0.16494915678E+02 -0.77985443976E+01  0.18437700080E+02  0.51100000000E-03 0. -1.
        -11    1    4    4    0    0  0.73071370562E+01 -0.98319595106E+01 -0.16349937833E+02  0.20429932628E+02  0.51100000000E-03 0.  1.
        -12    1    4    4    0    0 -0.49842100824E+01  0.42658058231E+01 -0.96406385832E+01  0.11661104654E+02  0.00000000000E+00 0.  1.
</event>
<event>
 8    1  0.7311878E-012  0.9118800E+02  0.7816164E-02  0.1184000E+00
        -11   -1    0    0    0    0  0.00000000000E+00  0.00000000000E+00  0.45593999997E+02  0.45594000000E+02  0.51100000000E-03 0. -1.
         11   -1    0    0    0    0 -0.00000000000E+00 -0.00000000000E+00 -0.45593999997E+02  0.45594000000E+02  0.51100000000E-03 0.  1.
         23    2    1    2    0    0  0.71054273576E-14  0.44408920985E-15  0.00000000000E+00  0.91188000000E+02  0.91188000000E+02 0.  0.
    9900012    2    3    3    0    0 -0.32157669533E+02  0.29497408812E+01  0.24705233942E+02  0.50528864923E+02  0.30000015421E+02 0.  0.
        -12    1    3    3    0    0  0.32157669533E+02 -0.29497408812E+01 -0.24705233942E+02  0.40659135077E+02  0.00000000000E+00 0.  1.
         11    1    4    4    0    0 -0.25449227347E+01  0.71212777452E+01  0.41259382636E+01  0.86146732536E+01  0.51100000000E-03 0. -1.
        -11    1    4    4    0    0 -0.12739641956E+02  0.28858983711E+01 -0.16072121618E+01  0.13160927694E+02  0.51100000000E-03 0.  1.
         12    1    4    4    0    0 -0.16873104842E+02 -0.70574352352E+01  0.22186507840E+02  0.28753263976E+02  0.00000000000E+00 0. -1.
</event>
<event>
 8    1  0.7311878E-012  0.9118800E+02  0.7816164E-02  0.1184000E+00
        -11   -1    0    0    0    0  0.00000000000E+00  0.00000000000E+00  0.45593999997E+02  0.45594000000E+02  0.51100000000E-03 0.  1.
         11   -1    0    0    0    0 -0.00000000000E+00 -0.00000000000E+00 -0.45593999997E+02  0.45594000000E+02  0.51100000000E-03 0. -1.
         23    2    1    2    0    0  0.35527136788E-14 -0.35527136788E-14  0.00000000000E+00  0.91188000000E+02  0.91188000000E+02 0.  0.
    9900012    2    3    3    0    0 -0.29347131158E+02  0.26872719132E+02 -0.83526464281E+01  0.50528882411E+02  0.30000068576E+02 0.  0.
        -12    1    3    3    0    0  0.29347131158E+02 -0.26872719132E+02  0.83526464281E+01  0.40659117589E+02  0.00000000000E+00 0.  1.
         11    1    4    4    0    0 -0.17112032846E+02  0.16757801963E+02  0.18520923580E+01  0.24022402901E+02  0.51100000000E-03 0. -1.
        -11    1    4    4    0    0 -0.79065989861E+00  0.12033232949E+02 -0.18329807286E+01  0.12197690637E+02  0.51100000000E-03 0.  1.
        -12    1    4    4    0    0 -0.11444438414E+02 -0.19183157801E+01 -0.83717580574E+01  0.14308788873E+02  0.00000000000E+00 0.  1.
</event>
<event>
 8    1  0.7311878E-012  0.9118800E+02  0.7816164E-02  0.1184000E+00
        -11   -1    0    0    0    0  0.00000000000E+00  0.00000000000E+00  0.45593999997E+02  0.45594000000E+02  0.51100000000E-03 0. -1.
         11   -1    0    0    0    0 -0.00000000000E+00 -0.00000000000E+00 -0.45593999997E+02  0.45594000000E+02  0.51100000000E-03 0.  1.
         23    2    1    2    0    0  0.35527136788E-14  0.00000000000E+00  0.00000000000E+00  0.91188000000E+02  0.91188000000E+02 0.  0.
    9900012    2    3    3    0    0 -0.19104277666E+02  0.72934818771E+01 -0.35142533330E+02  0.50528856479E+02  0.29999989752E+02 0.  0.
         12    1    3    3    0    0  0.19104277666E+02 -0.72934818771E+01  0.35142533330E+02  0.40659143521E+02  0.00000000000E+00 0. -1.
         11    1    4    4    0    0  0.15697191620E+01  0.46466108457E-02  0.18829482353E+01  0.24514351218E+01  0.51100000000E-03 0. -1.
        -11    1    4    4    0    0 -0.28593617910E+00  0.93362414738E+01 -0.17162550034E+02  0.19539710547E+02  0.51100000000E-03 0.  1.
        -12    1    4    4    0    0 -0.20388060649E+02 -0.20474062076E+01 -0.19862931532E+02  0.28537710810E+02  0.00000000000E+00 0.  1.
</event>
<event>
 8    1  0.7311878E-012  0.9118800E+02  0.7816164E-02  0.1184000E+00
        -11   -1    0    0    0    0  0.00000000000E+00  0.00000000000E+00  0.45593999997E+02  0.45594000000E+02  0.51100000000E-03 0. -1.
         11   -1    0    0    0    0 -0.00000000000E+00 -0.00000000000E+00 -0.45593999997E+02  0.45594000000E+02  0.51100000000E-03 0.  1.
         23    2    1    2    0    0  0.00000000000E+00  0.44408920985E-15  0.00000000000E+00  0.91188000000E+02  0.91188000000E+02 0.  0.
    9900012    2    3    3    0    0 -0.41622682383E+01 -0.31988937089E+01 -0.40318834993E+02  0.50528857694E+02  0.29999993447E+02 0.  0.
         12    1    3    3    0    0  0.41622682383E+01  0.31988937089E+01  0.40318834993E+02  0.40659142306E+02  0.00000000000E+00 0. -1.
         11    1    4    4    0    0  0.15350230565E+01 -0.12244615775E+02 -0.25438699407E+02  0.28273916231E+02  0.51100000000E-03 0. -1.
        -11    1    4    4    0    0  0.11798422542E+00  0.19617100528E+01  0.21514391579E+01  0.29139178643E+01  0.51100000000E-03 0.  1.
        -12    1    4    4    0    0 -0.58152755202E+01  0.70840120138E+01 -0.17031574744E+02  0.19341023599E+02  0.00000000000E+00 0.  1.
</event>
<event>
 8    1  0.7311878E-012  0.9118800E+02  0.7816164E-02  0.1184000E+00
        -11   -1    0    0    0    0  0.00000000000E+00  0.00000000000E+00  0.45593999997E+02  0.45594000000E+02  0.51100000000E-03 0. -1.
         11   -1    0    0    0    0 -0.00000000000E+00 -0.00000000000E+00 -0.45593999997E+02  0.45594000000E+02  0.51100000000E-03 0.  1.
         23    2    1    2    0    0 -0.35527136788E-14 -0.35527136788E-14 -0.17763568394E-14  0.91188000000E+02  0.91188000000E+02 0.  0.
    9900012    2    3    3    0    0  0.29404144971E+02  0.26135991985E+02  0.10269874702E+02  0.50528878700E+02  0.30000057295E+02 0.  0.
        -12    1    3    3    0    0 -0.29404144971E+02 -0.26135991985E+02 -0.10269874702E+02  0.40659121300E+02  0.00000000000E+00 0.  1.
         11    1    4    4    0    0  0.17373697609E+02  0.66245130518E+01  0.12352863977E+01  0.18634792044E+02  0.51100000000E-03 0. -1.
        -11    1    4    4    0    0  0.10399789675E-01 -0.14270185793E+01 -0.41477208751E+01  0.43863514337E+01  0.51100000000E-03 0.  1.
         12    1    4    4    0    0  0.12020047572E+02  0.20938497513E+02  0.13182309179E+02  0.27507735222E+02  0.00000000000E+00 0. -1.
</event>
<event>
 8    1  0.7311878E-012  0.9118800E+02  0.7816164E-02  0.1184000E+00
        -11   -1    0    0    0    0  0.00000000000E+00  0.00000000000E+00  0.45593999997E+02  0.45594000000E+02  0.51100000000E-03 0. -1.
         11   -1    0    0    0    0 -0.00000000000E+00 -0.00000000000E+00 -0.45593999997E+02  0.45594000000E+02  0.51100000000E-03 0.  1.
         23    2    1    2    0    0  0.35527136788E-14  0.44408920985E-15  0.00000000000E+00  0.91188000000E+02  0.91188000000E+02 0.  0.
    9900012    2    3    3    0    0  0.27063959171E+02 -0.19826812070E+01  0.30278301986E+02  0.50528874555E+02  0.30000044697E+02 0.  0.
        -12    1    3    3    0    0 -0.27063959171E+02  0.19826812070E+01 -0.30278301986E+02  0.40659125445E+02  0.00000000000E+00 0.  1.
         11    1    4    4    0    0  0.12457425549E+01 -0.53010006671E+00 -0.30299091217E+01  0.33186187098E+01  0.51100000000E-03 0. -1.
        -11    1    4    4    0    0  0.24270420706E+01  0.77591371157E+01  0.10383300436E+02  0.13187405741E+02  0.51100000000E-03 0.  1.
         12    1    4    4    0    0  0.23391174546E+02 -0.92117182560E+01  0.22924910672E+02  0.34022850104E+02  0.00000000000E+00 0. -1.
</event>
<event>
 8    1  0.7311878E-012  0.9118800E+02  0.7816164E-02  0.1184000E+00
        -11   -1    0    0    0    0  0.00000000000E+00  0.00000000000E+00  0.45593999997E+02  0.45594000000E+02  0.51100000000E-03 0. -1.
         11   -1    0    0    0    0 -0.00000000000E+00 -0.00000000000E+00 -0.45593999997E+02  0.45594000000E+02  0.51100000000E-03 0.  1.
         23    2    1    2    0    0  0.00000000000E+00  0.11102230246E-15  0.00000000000E+00  0.91188000000E+02  0.91188000000E+02 0.  0.
    9900012    2    3    3    0    0  0.30353594784E+02  0.42818644226E+00  0.27048915166E+02  0.50528832872E+02  0.29999917996E+02 0.  0.
        -12    1    3    3    0    0 -0.30353594784E+02 -0.42818644226E+00 -0.27048915166E+02  0.40659167128E+02  0.00000000000E+00 0.  1.
         11    1    4    4    0    0  0.14538535209E+02  0.39065991729E+01  0.21429823872E+01  0.15206015155E+02  0.51100000000E-03 0. -1.
        -11    1    4    4    0    0 -0.24888406698E+01 -0.21611966772E+01 -0.11167562999E+01  0.34802649111E+01  0.51100000000E-03 0.  1.
         12    1    4    4    0    0  0.18303900245E+02 -0.13172160535E+01  0.26022689078E+02  0.31842552805E+02  0.00000000000E+00 0. -1.
</event>
<event>
 8    1  0.7311878E-012  0.9118800E+02  0.7816164E-02  0.1184000E+00
        -11   -1    0    0    0    0  0.00000000000E+00  0.00000000000E+00  0.45593999997E+02  0.45594000000E+02  0.51100000000E-03 0. -1.
         11   -1    0    0    0    0 -0.00000000000E+00 -0.00000000000E+00 -0.45593999997E+02  0.45594000000E+02  0.51100000000E-03 0.  1.
         23    2    1    2    0    0 -0.35527136788E-14  0.00000000000E+00  0.17763568394E-14  0.91188000000E+02  0.91188000000E+02 0.  0.
    9900012    2    3    3    0    0  0.20798359570E+02  0.33231421683E+02 -0.10782713713E+02  0.50528855113E+02  0.29999985603E+02 0.  0.
         12    1    3    3    0    0 -0.20798359570E+02 -0.33231421683E+02  0.10782713713E+02  0.40659144887E+02  0.00000000000E+00 0. -1.
         11    1    4    4    0    0 -0.21717187780E+01  0.46557914924E+01  0.47521384883E+01  0.69982553072E+01  0.51100000000E-03 0. -1.
        -11    1    4    4    0    0  0.12973143487E+02  0.25947215646E+02 -0.63361181098E+01  0.29693548873E+02  0.51100000000E-03 0.  1.
        -12    1    4    4    0    0  0.99969348607E+01  0.26284145448E+01 -0.91987340919E+01  0.13837050933E+02  0.00000000000E+00 0.  1.
</event>
<event>
 8    1  0.7311878E-012  0.9118800E+02  0.7816164E-02  0.1184000E+00
        -11   -1    0    0    0    0  0.00000000000E+00  0.00000000000E+00  0.45593999997E+02  0.45594000000E+02  0.51100000000E-03 0. -1.
         11   -1    0    0    0    0 -0.00000000000E+00 -0.00000000000E+00 -0.45593999997E+02  0.45594000000E+02  0.51100000000E-03 0.  1.
         23    2    1    2    0    0  0.17763568394E-14  0.00000000000E+00  0.00000000000E+00  0.91188000000E+02  0.91188000000E+02 0.  0.
    9900012    2    3    3    0    0 -0.15175427909E+02  0.34680182058E+02 -0.14837673227E+02  0.50528865890E+02  0.30000018360E+02 0.  0.
         12    1    3    3    0    0  0.15175427909E+02 -0.34680182058E+02  0.14837673227E+02  0.40659134110E+02  0.00000000000E+00 0. -1.
         11    1    4    4    0    0 -0.98883040945E+01  0.21732802938E+01 -0.90841935547E+01  0.13602362953E+02  0.51100000000E-03 0. -1.
        -11    1    4    4    0    0 -0.10894748895E+02  0.20395941705E+02 -0.39695738733E+01  0.23461617773E+02  0.51100000000E-03 0.  1.
         12    1    4    4    0    0  0.56076250806E+01  0.12110960059E+02 -0.17839057987E+01  0.13464885164E+02  0.00000000000E+00 0. -1.
</event>
<event>
 8    1  0.7311878E-012  0.9118800E+02  0.7816164E-02  0.1184000E+00
        -11   -1    0    0    0    0  0.00000000000E+00  0.00000000000E+00  0.45593999997E+02  0.45594000000E+02  0.51100000000E-03 0. -1.
         11   -1    0    0    0    0 -0.00000000000E+00 -0.00000000000E+00 -0.45593999997E+02  0.45594000000E+02  0.51100000000E-03 0.  1.
         23    2    1    2    0    0  0.00000000000E+00  0.00000000000E+00  0.00000000000E+00  0.91188000000E+02  0.91188000000E+02 0.  0.
    9900012    2    3    3    0    0  0.16197292004E+02 -0.61884898322E+01  0.36776572087E+02  0.50528856759E+02  0.29999990604E+02 0.  0.
        -12    1    3    3    0    0 -0.16197292004E+02  0.61884898322E+01 -0.36776572087E+02  0.40659143241E+02  0.00000000000E+00 0.  1.
         11    1    4    4    0    0  0.10916726143E+02  0.41940924363E+01  0.65235461281E+01  0.13391115539E+02  0.51100000000E-03 0. -1.
        -11    1    4    4    0    0  0.89293061193E+01 -0.63884001648E+00  0.22337250184E+02  0.24064358923E+02  0.51100000000E-03 0.  1.
        -12    1    4    4    0    0 -0.36487402584E+01 -0.97437422520E+01  0.79157757750E+01  0.13073382296E+02  0.00000000000E+00 0.  1.
</event>
<event>
 8    1  0.7311878E-012  0.9118800E+02  0.7816164E-02  0.1184000E+00
        -11   -1    0    0    0    0  0.00000000000E+00  0.00000000000E+00  0.45593999997E+02  0.45594000000E+02  0.51100000000E-03 0. -1.
         11   -1    0    0    0    0 -0.00000000000E+00 -0.00000000000E+00 -0.45593999997E+02  0.45594000000E+02  0.51100000000E-03 0.  1.
         23    2    1    2    0    0 -0.17763568394E-14  0.00000000000E+00  0.00000000000E+00  0.91188000000E+02  0.91188000000E+02 0.  0.
    9900012    2    3    3    0    0  0.81617426237E+01 -0.29684347532E+02 -0.26559200638E+02  0.50528859950E+02  0.30000000303E+02 0.  0.
         12    1    3    3    0    0 -0.81617426237E+01  0.29684347532E+02  0.26559200638E+02  0.40659140050E+02  0.00000000000E+00 0. -1.
         11    1    4    4    0    0  0.12787257094E+02 -0.84546041123E+01 -0.14392145830E+02  0.21026843237E+02  0.51100000000E-03 0. -1.
        -11    1    4    4    0    0 -0.44223834461E+01  0.63493930282E+00 -0.44733808217E+01  0.63223223185E+01  0.51100000000E-03 0.  1.
        -12    1    4    4    0    0 -0.20313102403E+00 -0.21864682723E+02 -0.76936739872E+01  0.23179694394E+02  0.00000000000E+00 0.  1.
</event>
<event>
 8    1  0.7311878E-012  0.9118800E+02  0.7816164E-02  0.1184000E+00
        -11   -1    0    0    0    0  0.00000000000E+00  0.00000000000E+00  0.45593999997E+02  0.45594000000E+02  0.51100000000E-03 0.  1.
         11   -1    0    0    0    0 -0.00000000000E+00 -0.00000000000E+00 -0.45593999997E+02  0.45594000000E+02  0.51100000000E-03 0. -1.
         23    2    1    2    0    0  0.71054273576E-14  0.35527136788E-14 -0.44408920985E-15  0.91188000000E+02  0.91188000000E+02 0.  0.
    9900012    2    3    3    0    0 -0.34503283837E+02 -0.21369428326E+02 -0.24568667004E+01  0.50528865030E+02  0.30000015744E+02 0.  0.
         12    1    3    3    0    0  0.34503283837E+02  0.21369428326E+02  0.24568667004E+01  0.40659134970E+02  0.00000000000E+00 0. -1.
         11    1    4    4    0    0 -0.12485821088E+02  0.72402030148E+00 -0.18405883550E+01  0.12641507006E+02  0.51100000000E-03 0. -1.
        -11    1    4    4    0    0 -0.11758225375E+02 -0.59282535754E+01  0.94960546943E+01  0.16234996441E+02  0.51100000000E-03 0.  1.
         12    1    4    4    0    0 -0.10259237374E+02 -0.16165195053E+02 -0.10112333040E+02  0.21652361582E+02  0.00000000000E+00 0. -1.
</event>
<event>
 8    1  0.7311878E-012  0.9118800E+02  0.7816164E-02  0.1184000E+00
        -11   -1    0    0    0    0  0.00000000000E+00  0.00000000000E+00  0.45593999997E+02  0.45594000000E+02  0.51100000000E-03 0. -1.
         11   -1    0    0    0    0 -0.00000000000E+00 -0.00000000000E+00 -0.45593999997E+02  0.45594000000E+02  0.51100000000E-03 0.  1.
         23    2    1    2    0    0  0.55511151231E-15  0.00000000000E+00 -0.17763568394E-14  0.91188000000E+02  0.91188000000E+02 0.  0.
    9900012    2    3    3    0    0  0.17660222650E+00  0.38723600311E+02 -0.12394227623E+02  0.50528864646E+02  0.30000014577E+02 0.  0.
         12    1    3    3    0    0 -0.17660222650E+00 -0.38723600311E+02  0.12394227623E+02  0.40659135354E+02  0.00000000000E+00 0. -1.
         11    1    4    4    0    0  0.47751391196E+01  0.15092578123E+02  0.13210017135E+01  0.15884990204E+02  0.51100000000E-03 0. -1.
        -11    1    4    4    0    0 -0.93672392613E+00 -0.37538265596E+01 -0.34060308968E+01  0.51545816789E+01  0.51100000000E-03 0.  1.
        -12    1    4    4    0    0 -0.36618129670E+01  0.27384848748E+02 -0.10309198440E+02  0.29489292762E+02  0.00000000000E+00 0.  1.
</event>
<event>
 8    1  0.7311878E-012  0.9118800E+02  0.7816164E-02  0.1184000E+00
        -11   -1    0    0    0    0  0.00000000000E+00  0.00000000000E+00  0.45593999997E+02  0.45594000000E+02  0.51100000000E-03 0. -1.
         11   -1    0    0    0    0 -0.00000000000E+00 -0.00000000000E+00 -0.45593999997E+02  0.45594000000E+02  0.51100000000E-03 0.  1.
         23    2    1    2    0    0  0.00000000000E+00  0.17763568394E-14 -0.71054273576E-14  0.91188000000E+02  0.91188000000E+02 0.  0.
    9900012    2    3    3    0    0  0.10871486402E+02  0.11945932381E+02 -0.37313144359E+02  0.50528864999E+02  0.30000015651E+02 0.  0.
         12    1    3    3    0    0 -0.10871486402E+02 -0.11945932381E+02  0.37313144359E+02  0.40659135001E+02  0.00000000000E+00 0. -1.
         11    1    4    4    0    0  0.41481266463E+01  0.32918713180E+01 -0.18463395126E+01  0.56082386990E+01  0.51100000000E-03 0. -1.
        -11    1    4    4    0    0  0.16084498782E+02  0.52559166665E+01 -0.17278380246E+02  0.24184254904E+02  0.51100000000E-03 0.  1.
        -12    1    4    4    0    0 -0.93611390265E+01  0.33981443969E+01 -0.18188424600E+02  0.20736371396E+02  0.00000000000E+00 0.  1.
</event>
<event>
 8    1  0.7311878E-012  0.9118800E+02  0.7816164E-02  0.1184000E+00
        -11   -1    0    0    0    0  0.00000000000E+00  0.00000000000E+00  0.45593999997E+02  0.45594000000E+02  0.51100000000E-03 0.  1.
         11   -1    0    0    0    0 -0.00000000000E+00 -0.00000000000E+00 -0.45593999997E+02  0.45594000000E+02  0.51100000000E-03 0. -1.
         23    2    1    2    0    0  0.00000000000E+00  0.88817841970E-15  0.00000000000E+00  0.91188000000E+02  0.91188000000E+02 0.  0.
    9900012    2    3    3    0    0 -0.35696453831E+02  0.90197945133E+00  0.19445106911E+02  0.50528898118E+02  0.30000116319E+02 0.  0.
        -12    1    3    3    0    0  0.35696453831E+02 -0.90197945133E+00 -0.19445106911E+02  0.40659101882E+02  0.00000000000E+00 0.  1.
         11    1    4    4    0    0 -0.16203653619E+02  0.89217098392E+01  0.33345720572E+01  0.18795602361E+02  0.51100000000E-03 0. -1.
        -11    1    4    4    0    0  0.15420438471E+01  0.30959031766E+01  0.12257718425E+01  0.36694730652E+01  0.51100000000E-03 0.  1.
        -12    1    4    4    0    0 -0.21034844060E+02 -0.11115633565E+02  0.14884763012E+02  0.28063822692E+02  0.00000000000E+00 0.  1.
</event>
<event>
 8    1  0.7311878E-012  0.9118800E+02  0.7816164E-02  0.1184000E+00
        -11   -1    0    0    0    0  0.00000000000E+00  0.00000000000E+00  0.45593999997E+02  0.45594000000E+02  0.51100000000E-03 0. -1.
         11   -1    0    0    0    0 -0.00000000000E+00 -0.00000000000E+00 -0.45593999997E+02  0.45594000000E+02  0.51100000000E-03 0.  1.
         23    2    1    2    0    0 -0.66613381478E-15 -0.35527136788E-14  0.00000000000E+00  0.91188000000E+02  0.91188000000E+02 0.  0.
    9900012    2    3    3    0    0 -0.15289289808E+01 -0.19682194489E+02  0.35544890336E+02  0.50528860403E+02  0.30000001681E+02 0.  0.
        -12    1    3    3    0    0  0.15289289808E+01  0.19682194489E+02 -0.35544890336E+02  0.40659139597E+02  0.00000000000E+00 0.  1.
         11    1    4    4    0    0 -0.29380801404E+01 -0.10675942072E+02  0.15894403817E+02  0.19371115791E+02  0.51100000000E-03 0. -1.
        -11    1    4    4    0    0  0.78661114808E+01 -0.10316384967E+02  0.20756274729E+02  0.24477059658E+02  0.51100000000E-03 0.  1.
        -12    1    4    4    0    0 -0.64569603212E+01  0.13101325499E+01 -0.11057882097E+01  0.66806849539E+01  0.00000000000E+00 0.  1.
</event>
<event>
 8    1  0.7311878E-012  0.9118800E+02  0.7816164E-02  0.1184000E+00
        -11   -1    0    0    0    0  0.00000000000E+00  0.00000000000E+00  0.45593999997E+02  0.45594000000E+02  0.51100000000E-03 0. -1.
         11   -1    0    0    0    0 -0.00000000000E+00 -0.00000000000E+00 -0.45593999997E+02  0.45594000000E+02  0.51100000000E-03 0.  1.
         23    2    1    2    0    0  0.17763568394E-14 -0.71054273576E-14  0.00000000000E+00  0.91188000000E+02  0.91188000000E+02 0.  0.
    9900012    2    3    3    0    0 -0.13114237235E+02  0.38030261644E+02  0.59060455110E+01  0.50528863357E+02  0.30000010660E+02 0.  0.
         12    1    3    3    0    0  0.13114237235E+02 -0.38030261644E+02 -0.59060455110E+01  0.40659136643E+02  0.00000000000E+00 0. -1.
         11    1    4    4    0    0 -0.85160285136E+01  0.17284267867E+02  0.17517085539E+01  0.19347794201E+02  0.51100000000E-03 0. -1.
        -11    1    4    4    0    0 -0.29667589083E+01  0.12144450112E+02 -0.89826678678E+01  0.15394078382E+02  0.51100000000E-03 0.  1.
         12    1    4    4    0    0 -0.16314498129E+01  0.86015436652E+01  0.13137004825E+02  0.15786990774E+02  0.00000000000E+00 0. -1.
</event>
<event>
 8    1  0.7311878E-012  0.9118800E+02  0.7816164E-02  0.1184000E+00
        -11   -1    0    0    0    0  0.00000000000E+00  0.00000000000E+00  0.45593999997E+02  0.45594000000E+02  0.51100000000E-03 0.  1.
         11   -1    0    0    0    0 -0.00000000000E+00 -0.00000000000E+00 -0.45593999997E+02  0.45594000000E+02  0.51100000000E-03 0. -1.
         23    2    1    2    0    0  0.00000000000E+00  0.88817841970E-15 -0.35527136788E-14  0.91188000000E+02  0.91188000000E+02 0.  0.
    9900012    2    3    3    0    0  0.33428314650E+02 -0.17529612869E+01 -0.23079013917E+02  0.50528856170E+02  0.29999988814E+02 0.  0.
        -12    1    3    3    0    0 -0.33428314650E+02  0.17529612869E+01  0.23079013917E+02  0.40659143830E+02  0.00000000000E+00 0.  1.
         11    1    4    4    0    0  0.57146655891E+01 -0.44364783827E+00 -0.14952107258E+02  0.16013111438E+02  0.51100000000E-03 0. -1.
        -11    1    4    4    0    0  0.22030896162E+02 -0.68876070134E+01 -0.11593987092E+02  0.25830603032E+02  0.51100000000E-03 0.  1.
        -12    1    4    4    0    0  0.56827528994E+01  0.55782935648E+01  0.34670804333E+01  0.86851416996E+01  0.00000000000E+00 0.  1.
</event>
<event>
 8    1  0.7311878E-012  0.9118800E+02  0.7816164E-02  0.1184000E+00
        -11   -1    0    0    0    0  0.00000000000E+00  0.00000000000E+00  0.45593999997E+02  0.45594000000E+02  0.51100000000E-03 0. -1.
         11   -1    0    0    0    0 -0.00000000000E+00 -0.00000000000E+00 -0.45593999997E+02  0.45594000000E+02  0.51100000000E-03 0.  1.
         23    2    1    2    0    0  0.00000000000E+00 -0.88817841970E-15  0.00000000000E+00  0.91188000000E+02  0.91188000000E+02 0.  0.
    9900012    2    3    3    0    0  0.15299334996E+02 -0.58817222311E+01 -0.37208809868E+02  0.50528931645E+02  0.30000218228E+02 0.  0.
         12    1    3    3    0    0 -0.15299334996E+02  0.58817222311E+01  0.37208809868E+02  0.40659068355E+02  0.00000000000E+00 0. -1.
         11    1    4    4    0    0  0.83948512882E+01  0.16748423747E+01 -0.24884028243E+01  0.89146381872E+01  0.51100000000E-03 0. -1.
        -11    1    4    4    0    0  0.14099115461E+02 -0.64479458453E+01 -0.21273732273E+02  0.26323615775E+02  0.51100000000E-03 0.  1.
         12    1    4    4    0    0 -0.71946317531E+01 -0.11086187605E+01 -0.13446674770E+02  0.15290677683E+02  0.00000000000E+00 0. -1.
</event>
<event>
 8    1  0.7311878E-012  0.9118800E+02  0.7816164E-02  0.1184000E+00
        -11   -1    0    0    0    0  0.00000000000E+00  0.00000000000E+00  0.45593999997E+02  0.45594000000E+02  0.51100000000E-03 0. -1.
         11   -1    0    0    0    0 -0.00000000000E+00 -0.00000000000E+00 -0.45593999997E+02  0.45594000000E+02  0.51100000000E-03 0.  1.
         23    2    1    2    0    0  0.00000000000E+00  0.00000000000E+00  0.00000000000E+00  0.91188000000E+02  0.91188000000E+02 0.  0.
    9900012    2    3    3    0    0  0.26710393363E+02 -0.19725557941E+02 -0.23465352050E+02  0.50528862078E+02  0.30000006774E+02 0.  0.
         12    1    3    3    0    0 -0.26710393363E+02  0.19725557941E+02  0.23465352050E+02  0.40659137922E+02  0.00000000000E+00 0. -1.
         11    1    4    4    0    0  0.16362722102E+02 -0.15362038026E+02  0.72121132935E+00  0.22455534572E+02  0.51100000000E-03 0. -1.
        -11    1    4    4    0    0  0.53965739687E+00 -0.42043707630E+01 -0.52564939055E+01  0.67526803610E+01  0.51100000000E-03 0.  1.
        -12    1    4    4    0    0  0.98080138647E+01 -0.15914915249E+00 -0.18930069473E+02  0.21320647145E+02  0.00000000000E+00 0.  1.
</event>
<event>
 8    1  0.7311878E-012  0.9118800E+02  0.7816164E-02  0.1184000E+00
        -11   -1    0    0    0    0  0.00000000000E+00  0.00000000000E+00  0.45593999997E+02  0.45594000000E+02  0.51100000000E-03 0.  1.
         11   -1    0    0    0    0 -0.00000000000E+00 -0.00000000000E+00 -0.45593999997E+02  0.45594000000E+02  0.51100000000E-03 0. -1.
         23    2    1    2    0    0 -0.17763568394E-14 -0.35527136788E-14  0.00000000000E+00  0.91188000000E+02  0.91188000000E+02 0.  0.
    9900012    2    3    3    0    0 -0.14201924035E+02 -0.28706321149E+02  0.25048299439E+02  0.50528870337E+02  0.30000031877E+02 0.  0.
        -12    1    3    3    0    0  0.14201924035E+02  0.28706321149E+02 -0.25048299439E+02  0.40659129663E+02  0.00000000000E+00 0.  1.
         11    1    4    4    0    0 -0.65747975673E+01 -0.11398165780E+02  0.15515534925E+02  0.20343991016E+02  0.51100000000E-03 0. -1.
        -11    1    4    4    0    0 -0.14722929201E+02 -0.78715102466E+01  0.41168921419E+01  0.17195177202E+02  0.51100000000E-03 0.  1.
         12    1    4    4    0    0  0.70958027338E+01 -0.94366451221E+01  0.54158723714E+01  0.12989702119E+02  0.00000000000E+00 0. -1.
</event>
<event>
 8    1  0.7311878E-012  0.9118800E+02  0.7816164E-02  0.1184000E+00
        -11   -1    0    0    0    0  0.00000000000E+00  0.00000000000E+00  0.45593999997E+02  0.45594000000E+02  0.51100000000E-03 0. -1.
         11   -1    0    0    0    0 -0.00000000000E+00 -0.00000000000E+00 -0.45593999997E+02  0.45594000000E+02  0.51100000000E-03 0.  1.
         23    2    1    2    0    0  0.53290705182E-14 -0.71054273576E-14  0.00000000000E+00  0.91188000000E+02  0.91188000000E+02 0.  0.
    9900012    2    3    3    0    0 -0.14798227160E+02  0.35953928845E+02 -0.11895101456E+02  0.50528856316E+02  0.29999989258E+02 0.  0.
         12    1    3    3    0    0  0.14798227160E+02 -0.35953928845E+02  0.11895101456E+02  0.40659143684E+02  0.00000000000E+00 0. -1.
         11    1    4    4    0    0 -0.28142754599E+01  0.39939167476E+01  0.23932271982E+01  0.54405012668E+01  0.51100000000E-03 0. -1.
        -11    1    4    4    0    0 -0.19224522734E+02  0.28645950339E+02 -0.13645457837E+02  0.37099477962E+02  0.51100000000E-03 0.  1.
        -12    1    4    4    0    0  0.72405710338E+01  0.33140617581E+01 -0.64287081721E+00  0.79888770875E+01  0.00000000000E+00 0.  1.
</event>
<event>
 8    1  0.7311878E-012  0.9118800E+02  0.7816164E-02  0.1184000E+00
        -11   -1    0    0    0    0  0.00000000000E+00  0.00000000000E+00  0.45593999997E+02  0.45594000000E+02  0.51100000000E-03 0. -1.
         11   -1    0    0    0    0 -0.00000000000E+00 -0.00000000000E+00 -0.45593999997E+02  0.45594000000E+02  0.51100000000E-03 0.  1.
         23    2    1    2    0    0  0.00000000000E+00  0.00000000000E+00  0.00000000000E+00  0.91188000000E+02  0.91188000000E+02 0.  0.
    9900012    2    3    3    0    0  0.61429297815E+01 -0.65949657977E+01 -0.39647650936E+02  0.50528863451E+02  0.30000010946E+02 0.  0.
         12    1    3    3    0    0 -0.61429297815E+01  0.65949657977E+01  0.39647650936E+02  0.40659136549E+02  0.00000000000E+00 0. -1.
         11    1    4    4    0    0  0.40771405248E+01  0.15200423271E+01 -0.25329006836E+02  0.25700042628E+02  0.51100000000E-03 0. -1.
        -11    1    4    4    0    0  0.72531246490E+01 -0.77677414872E+01 -0.16135997386E+02  0.19321388068E+02  0.51100000000E-03 0.  1.
         12    1    4    4    0    0 -0.51873353923E+01 -0.34726663753E+00  0.18173532856E+01  0.55074327553E+01  0.00000000000E+00 0. -1.
</event>
<event>
 8    1  0.7311878E-012  0.9118800E+02  0.7816164E-02  0.1184000E+00
        -11   -1    0    0    0    0  0.00000000000E+00  0.00000000000E+00  0.45593999997E+02  0.45594000000E+02  0.51100000000E-03 0.  1.
         11   -1    0    0    0    0 -0.00000000000E+00 -0.00000000000E+00 -0.45593999997E+02  0.45594000000E+02  0.51100000000E-03 0. -1.
         23    2    1    2    0    0  0.00000000000E+00 -0.71054273576E-14 -0.88817841970E-15  0.91188000000E+02  0.91188000000E+02 0.  0.
    9900012    2    3    3    0    0  0.23289111229E+02 -0.32722239479E+02 -0.63275717306E+01  0.50528858071E+02  0.29999994594E+02 0.  0.
         12    1    3    3    0    0 -0.23289111229E+02  0.32722239479E+02  0.63275717306E+01  0.40659141929E+02  0.00000000000E+00 0. -1.
         11    1    4    4    0    0  0.12392166806E+02 -0.10061526438E+02 -0.36088838545E+01  0.16365333951E+02  0.51100000000E-03 0. -1.
        -11    1    4    4    0    0  0.11580599016E+02 -0.10571783632E+02  0.83443000171E+01  0.17762326024E+02  0.51100000000E-03 0.  1.
        -12    1    4    4    0    0 -0.68365459299E+00 -0.12088929409E+02 -0.11062987893E+02  0.16401198096E+02  0.00000000000E+00 0.  1.
</event>
<event>
 8    1  0.7311878E-012  0.9118800E+02  0.7816164E-02  0.1184000E+00
        -11   -1    0    0    0    0  0.00000000000E+00  0.00000000000E+00  0.45593999997E+02  0.45594000000E+02  0.51100000000E-03 0. -1.
         11   -1    0    0    0    0 -0.00000000000E+00 -0.00000000000E+00 -0.45593999997E+02  0.45594000000E+02  0.51100000000E-03 0.  1.
         23    2    1    2    0    0  0.35527136788E-14 -0.17763568394E-14  0.00000000000E+00  0.91188000000E+02  0.91188000000E+02 0.  0.
    9900012    2    3    3    0    0 -0.20939585003E+02  0.11999102115E+02  0.32721865629E+02  0.50528866193E+02  0.30000019281E+02 0.  0.
        -12    1    3    3    0    0  0.20939585003E+02 -0.11999102115E+02 -0.32721865629E+02  0.40659133807E+02  0.00000000000E+00 0.  1.
         11    1    4    4    0    0 -0.22341658358E+01 -0.77180500206E+00  0.53538691144E+01  0.58524434810E+01  0.51100000000E-03 0. -1.
        -11    1    4    4    0    0 -0.46245839519E+01  0.26915939350E+01 -0.54076430317E+01  0.76075001189E+01  0.51100000000E-03 0.  1.
        -12    1    4    4    0    0 -0.14080835215E+02  0.10079313182E+02  0.32775639546E+02  0.37068922593E+02  0.00000000000E+00 0.  1.
</event>
<event>
 8    1  0.7311878E-012  0.9118800E+02  0.7816164E-02  0.1184000E+00
        -11   -1    0    0    0    0  0.00000000000E+00  0.00000000000E+00  0.45593999997E+02  0.45594000000E+02  0.51100000000E-03 0. -1.
         11   -1    0    0    0    0 -0.00000000000E+00 -0.00000000000E+00 -0.45593999997E+02  0.45594000000E+02  0.51100000000E-03 0.  1.
         23    2    1    2    0    0 -0.17763568394E-14  0.00000000000E+00 -0.35527136788E-14  0.91188000000E+02  0.91188000000E+02 0.  0.
    9900012    2    3    3    0    0 -0.14746070215E+02 -0.25246335474E+02 -0.28254935932E+02  0.50528862697E+02  0.30000008654E+02 0.  0.
         12    1    3    3    0    0  0.14746070215E+02  0.25246335474E+02  0.28254935932E+02  0.40659137303E+02  0.00000000000E+00 0. -1.
         11    1    4    4    0    0  0.95787750314E+00 -0.20385344032E+02 -0.91551172737E+01  0.22367296510E+02  0.51100000000E-03 0.  1.
        -11    1    4    4    0    0 -0.55681801088E+00  0.27423130823E+01 -0.24488565258E+00  0.28089671737E+01  0.51100000000E-03 0. -1.
        -12    1    4    4    0    0 -0.15147129707E+02 -0.76033045243E+01 -0.18854933006E+02  0.25352599013E+02  0.00000000000E+00 0.  1.
</event>
<event>
 8    1  0.7311878E-012  0.9118800E+02  0.7816164E-02  0.1184000E+00
        -11   -1    0    0    0    0  0.00000000000E+00  0.00000000000E+00  0.45593999997E+02  0.45594000000E+02  0.51100000000E-03 0. -1.
         11   -1    0    0    0    0 -0.00000000000E+00 -0.00000000000E+00 -0.45593999997E+02  0.45594000000E+02  0.51100000000E-03 0.  1.
         23    2    1    2    0    0  0.00000000000E+00 -0.17763568394E-14  0.00000000000E+00  0.91188000000E+02  0.91188000000E+02 0.  0.
    9900012    2    3    3    0    0  0.15612993085E+02  0.95263074192E+01  0.36313289901E+02  0.50528793053E+02  0.29999796962E+02 0.  0.
        -12    1    3    3    0    0 -0.15612993085E+02 -0.95263074192E+01 -0.36313289901E+02  0.40659206947E+02  0.00000000000E+00 0.  1.
         11    1    4    4    0    0 -0.38013128343E+01  0.14730941191E+01  0.14221116528E+01  0.43176831012E+01  0.51100000000E-03 0. -1.
        -11    1    4    4    0    0  0.48857725437E+01  0.13676763525E+02  0.14209179187E+02  0.20318105406E+02  0.51100000000E-03 0.  1.
         12    1    4    4    0    0  0.14528533376E+02 -0.56235502252E+01  0.20681999062E+02  0.25893004545E+02  0.00000000000E+00 0. -1.
</event>
<event>
 8    1  0.7311878E-012  0.9118800E+02  0.7816164E-02  0.1184000E+00
        -11   -1    0    0    0    0  0.00000000000E+00  0.00000000000E+00  0.45593999997E+02  0.45594000000E+02  0.51100000000E-03 0.  1.
         11   -1    0    0    0    0 -0.00000000000E+00 -0.00000000000E+00 -0.45593999997E+02  0.45594000000E+02  0.51100000000E-03 0. -1.
         23    2    1    2    0    0  0.00000000000E+00  0.00000000000E+00 -0.35527136788E-14  0.91188000000E+02  0.91188000000E+02 0.  0.
    9900012    2    3    3    0    0 -0.31688926672E+02 -0.12317424261E+02  0.22299343635E+02  0.50528834483E+02  0.29999922893E+02 0.  0.
         12    1    3    3    0    0  0.31688926672E+02  0.12317424261E+02 -0.22299343635E+02  0.40659165517E+02  0.00000000000E+00 0. -1.
         11    1    4    4    0    0 -0.11715910392E+02 -0.27568952250E+01  0.11025049308E+02  0.16322216152E+02  0.51100000000E-03 0. -1.
        -11    1    4    4    0    0 -0.24157120750E+02 -0.62574730934E+01  0.41318099016E+01  0.25294155565E+02  0.51100000000E-03 0.  1.
         12    1    4    4    0    0  0.41841044706E+01 -0.33030559429E+01  0.71424844250E+01  0.89124627654E+01  0.00000000000E+00 0. -1.
</event>
<event>
 8    1  0.7311878E-012  0.9118800E+02  0.7816164E-02  0.1184000E+00
        -11   -1    0    0    0    0  0.00000000000E+00  0.00000000000E+00  0.45593999997E+02  0.45594000000E+02  0.51100000000E-03 0. -1.
         11   -1    0    0    0    0 -0.00000000000E+00 -0.00000000000E+00 -0.45593999997E+02  0.45594000000E+02  0.51100000000E-03 0.  1.
         23    2    1    2    0    0 -0.17763568394E-14  0.35527136788E-14  0.00000000000E+00  0.91188000000E+02  0.91188000000E+02 0.  0.
    9900012    2    3    3    0    0  0.79862070173E+01 -0.21804007364E+02  0.33376190297E+02  0.50528876567E+02  0.30000050812E+02 0.  0.
        -12    1    3    3    0    0 -0.79862070173E+01  0.21804007364E+02 -0.33376190297E+02  0.40659123433E+02  0.00000000000E+00 0.  1.
         11    1    4    4    0    0  0.13151226895E+02 -0.14748529800E+02  0.85475836284E+01  0.21529864985E+02  0.51100000000E-03 0.  1.
        -11    1    4    4    0    0  0.16842983951E+01 -0.32794436141E+01  0.18707393817E+02  0.19067202081E+02  0.51100000000E-03 0. -1.
        -12    1    4    4    0    0 -0.68493182730E+01 -0.37760339494E+01  0.61212128512E+01  0.99318095009E+01  0.00000000000E+00 0.  1.
</event>
<event>
 8    1  0.7311878E-012  0.9118800E+02  0.7816164E-02  0.1184000E+00
        -11   -1    0    0    0    0  0.00000000000E+00  0.00000000000E+00  0.45593999997E+02  0.45594000000E+02  0.51100000000E-03 0. -1.
         11   -1    0    0    0    0 -0.00000000000E+00 -0.00000000000E+00 -0.45593999997E+02  0.45594000000E+02  0.51100000000E-03 0.  1.
         23    2    1    2    0    0  0.17763568394E-14 -0.35527136788E-14  0.00000000000E+00  0.91188000000E+02  0.91188000000E+02 0.  0.
    9900012    2    3    3    0    0  0.90429494380E+01  0.27236079185E+02  0.28802543887E+02  0.50528862303E+02  0.30000007457E+02 0.  0.
        -12    1    3    3    0    0 -0.90429494380E+01 -0.27236079185E+02 -0.28802543887E+02  0.40659137697E+02  0.00000000000E+00 0.  1.
         11    1    4    4    0    0 -0.67537288844E+01 -0.58104438622E+00  0.51066994053E+01  0.84869809414E+01  0.51100000000E-03 0. -1.
        -11    1    4    4    0    0 -0.24507247267E+01  0.44469525924E+01  0.34164881410E+01  0.61199534740E+01  0.51100000000E-03 0.  1.
        -12    1    4    4    0    0  0.18247403049E+02  0.23370170979E+02  0.20279356340E+02  0.35921927888E+02  0.00000000000E+00 0.  1.
</event>
<event>
 8    1  0.7311878E-012  0.9118800E+02  0.7816164E-02  0.1184000E+00
        -11   -1    0    0    0    0  0.00000000000E+00  0.00000000000E+00  0.45593999997E+02  0.45594000000E+02  0.51100000000E-03 0. -1.
         11   -1    0    0    0    0 -0.00000000000E+00 -0.00000000000E+00 -0.45593999997E+02  0.45594000000E+02  0.51100000000E-03 0.  1.
         23    2    1    2    0    0  0.17763568394E-14  0.00000000000E+00 -0.35527136788E-14  0.91188000000E+02  0.91188000000E+02 0.  0.
    9900012    2    3    3    0    0 -0.12815966947E+02  0.24265092569E+02  0.30002048199E+02  0.50528848234E+02  0.29999964693E+02 0.  0.
        -12    1    3    3    0    0  0.12815966947E+02 -0.24265092569E+02 -0.30002048199E+02  0.40659151766E+02  0.00000000000E+00 0.  1.
         11    1    4    4    0    0 -0.73172605420E+01  0.21454963319E+02  0.26518822219E+02  0.34887041793E+02  0.51100000000E-03 0. -1.
        -11    1    4    4    0    0 -0.31587775510E+01 -0.37926568944E+01  0.63757071880E+01  0.80629873089E+01  0.51100000000E-03 0.  1.
         12    1    4    4    0    0 -0.23399288537E+01  0.66027861442E+01 -0.28924812083E+01  0.75788191328E+01  0.00000000000E+00 0. -1.
</event>
<event>
 8    1  0.7311878E-012  0.9118800E+02  0.7816164E-02  0.1184000E+00
        -11   -1    0    0    0    0  0.00000000000E+00  0.00000000000E+00  0.45593999997E+02  0.45594000000E+02  0.51100000000E-03 0. -1.
         11   -1    0    0    0    0 -0.00000000000E+00 -0.00000000000E+00 -0.45593999997E+02  0.45594000000E+02  0.51100000000E-03 0.  1.
         23    2    1    2    0    0  0.00000000000E+00  0.71054273576E-14  0.35527136788E-14  0.91188000000E+02  0.91188000000E+02 0.  0.
    9900012    2    3    3    0    0  0.15327379767E+02 -0.34179353818E+02 -0.15811676681E+02  0.50528856902E+02  0.29999991040E+02 0.  0.
         12    1    3    3    0    0 -0.15327379767E+02  0.34179353818E+02  0.15811676681E+02  0.40659143098E+02  0.00000000000E+00 0. -1.
         11    1    4    4    0    0 -0.38818523901E+01 -0.16525072738E+02 -0.52704661496E+01  0.17774268499E+02  0.51100000000E-03 0. -1.
        -11    1    4    4    0    0  0.81686727742E+01 -0.16293268719E+02 -0.11561234204E+02  0.21583789218E+02  0.51100000000E-03 0.  1.
        -12    1    4    4    0    0  0.11040559383E+02 -0.13610123615E+01  0.10200236725E+01  0.11170799185E+02  0.00000000000E+00 0.  1.
</event>
<event>
 8    1  0.7311878E-012  0.9118800E+02  0.7816164E-02  0.1184000E+00
        -11   -1    0    0    0    0  0.00000000000E+00  0.00000000000E+00  0.45593999997E+02  0.45594000000E+02  0.51100000000E-03 0. -1.
         11   -1    0    0    0    0 -0.00000000000E+00 -0.00000000000E+00 -0.45593999997E+02  0.45594000000E+02  0.51100000000E-03 0.  1.
         23    2    1    2    0    0 -0.17763568394E-14  0.88817841970E-15  0.00000000000E+00  0.91188000000E+02  0.91188000000E+02 0.  0.
    9900012    2    3    3    0    0  0.14502951070E+02 -0.63558485278E+01 -0.37449073297E+02  0.50528862146E+02  0.30000006980E+02 0.  0.
         12    1    3    3    0    0 -0.14502951070E+02  0.63558485278E+01  0.37449073297E+02  0.40659137854E+02  0.00000000000E+00 0. -1.
         11    1    4    4    0    0  0.69898699269E+00 -0.11680221061E+01  0.52352268971E+00  0.14584014276E+01  0.51100000000E-03 0. -1.
        -11    1    4    4    0    0  0.12339914344E+02 -0.10534955187E+02 -0.71114173837E+01  0.17715276580E+02  0.51100000000E-03 0.  1.
         12    1    4    4    0    0  0.14640497327E+01  0.53471287657E+01 -0.30861178603E+02  0.31355184139E+02  0.00000000000E+00 0. -1.
</event>
<event>
 8    1  0.7311878E-012  0.9118800E+02  0.7816164E-02  0.1184000E+00
        -11   -1    0    0    0    0  0.00000000000E+00  0.00000000000E+00  0.45593999997E+02  0.45594000000E+02  0.51100000000E-03 0. -1.
         11   -1    0    0    0    0 -0.00000000000E+00 -0.00000000000E+00 -0.45593999997E+02  0.45594000000E+02  0.51100000000E-03 0.  1.
         23    2    1    2    0    0 -0.71054273576E-14 -0.88817841970E-15  0.00000000000E+00  0.91188000000E+02  0.91188000000E+02 0.  0.
    9900012    2    3    3    0    0  0.36956679243E+02  0.52098640601E+01 -0.16131524995E+02  0.50528869133E+02  0.30000028216E+02 0.  0.
         12    1    3    3    0    0 -0.36956679243E+02 -0.52098640601E+01  0.16131524995E+02  0.40659130867E+02  0.00000000000E+00 0. -1.
         11    1    4    4    0    0  0.17265676494E+02  0.71397390359E+01 -0.86067048886E+01  0.20570727445E+02  0.51100000000E-03 0. -1.
        -11    1    4    4    0    0  0.15611267183E+02  0.83671309653E+01 -0.28664257831E+01  0.17942601279E+02  0.51100000000E-03 0.  1.
         12    1    4    4    0    0  0.40797355661E+01 -0.10297005941E+02 -0.46583943232E+01  0.12015540409E+02  0.00000000000E+00 0. -1.
</event>
<event>
 8    1  0.7311878E-012  0.9118800E+02  0.7816164E-02  0.1184000E+00
        -11   -1    0    0    0    0  0.00000000000E+00  0.00000000000E+00  0.45593999997E+02  0.45594000000E+02  0.51100000000E-03 0.  1.
         11   -1    0    0    0    0 -0.00000000000E+00 -0.00000000000E+00 -0.45593999997E+02  0.45594000000E+02  0.51100000000E-03 0. -1.
         23    2    1    2    0    0 -0.71054273576E-14 -0.17763568394E-14  0.00000000000E+00  0.91188000000E+02  0.91188000000E+02 0.  0.
    9900012    2    3    3    0    0 -0.40093539768E+02 -0.35317040716E+01  0.57620393275E+01  0.50528856354E+02  0.29999989374E+02 0.  0.
        -12    1    3    3    0    0  0.40093539768E+02  0.35317040716E+01 -0.57620393275E+01  0.40659143646E+02  0.00000000000E+00 0.  1.
         11    1    4    4    0    0 -0.13776917739E+01 -0.36513015195E+01 -0.38292677934E+01  0.54674792643E+01  0.51100000000E-03 0.  1.
        -11    1    4    4    0    0 -0.10780046784E+02 -0.90358265634E+01 -0.22519927018E+00  0.14067916879E+02  0.51100000000E-03 0. -1.
         12    1    4    4    0    0 -0.27935801210E+02  0.91554240113E+01  0.98165063911E+01  0.30993460210E+02  0.00000000000E+00 0. -1.
</event>
<event>
 8    1  0.7311878E-012  0.9118800E+02  0.7816164E-02  0.1184000E+00
        -11   -1    0    0    0    0  0.00000000000E+00  0.00000000000E+00  0.45593999997E+02  0.45594000000E+02  0.51100000000E-03 0. -1.
         11   -1    0    0    0    0 -0.00000000000E+00 -0.00000000000E+00 -0.45593999997E+02  0.45594000000E+02  0.51100000000E-03 0.  1.
         23    2    1    2    0    0  0.00000000000E+00  0.00000000000E+00  0.00000000000E+00  0.91188000000E+02  0.91188000000E+02 0.  0.
    9900012    2    3    3    0    0 -0.17194635015E+02  0.32894185383E+02  0.16597644095E+02  0.50528871937E+02  0.30000036740E+02 0.  0.
        -12    1    3    3    0    0  0.17194635015E+02 -0.32894185383E+02 -0.16597644095E+02  0.40659128063E+02  0.00000000000E+00 0.  1.
         11    1    4    4    0    0 -0.14072078167E+01 -0.17339044041E+01 -0.38422997844E+00  0.22658974512E+01  0.51100000000E-03 0. -1.
        -11    1    4    4    0    0 -0.11705998092E+02  0.35095067658E+02  0.72499827803E+01  0.37699554584E+02  0.51100000000E-03 0.  1.
         12    1    4    4    0    0 -0.40814291068E+01 -0.46697787095E+00  0.97318912934E+01  0.10563419902E+02  0.00000000000E+00 0. -1.
</event>
<event>
 8    1  0.7311878E-012  0.9118800E+02  0.7816164E-02  0.1184000E+00
        -11   -1    0    0    0    0  0.00000000000E+00  0.00000000000E+00  0.45593999997E+02  0.45594000000E+02  0.51100000000E-03 0.  1.
         11   -1    0    0    0    0 -0.00000000000E+00 -0.00000000000E+00 -0.45593999997E+02  0.45594000000E+02  0.51100000000E-03 0. -1.
         23    2    1    2    0    0  0.17763568394E-14  0.00000000000E+00  0.00000000000E+00  0.91188000000E+02  0.91188000000E+02 0.  0.
    9900012    2    3    3    0    0  0.14101034222E+02  0.33876758625E+02  0.17512685325E+02  0.50528830206E+02  0.29999909894E+02 0.  0.
        -12    1    3    3    0    0 -0.14101034222E+02 -0.33876758625E+02 -0.17512685325E+02  0.40659169794E+02  0.00000000000E+00 0.  1.
         11    1    4    4    0    0  0.60618122332E+01 -0.10042527192E+01 -0.12737537684E+00  0.61457559195E+01  0.51100000000E-03 0. -1.
        -11    1    4    4    0    0  0.61301659266E+01  0.22233453668E+02  0.20964221383E+02  0.31167354311E+02  0.51100000000E-03 0.  1.
         12    1    4    4    0    0  0.19090560627E+01  0.12647557676E+02 -0.33241606819E+01  0.13215719975E+02  0.00000000000E+00 0. -1.
</event>
<event>
 8    1  0.7311878E-012  0.9118800E+02  0.7816164E-02  0.1184000E+00
        -11   -1    0    0    0    0  0.00000000000E+00  0.00000000000E+00  0.45593999997E+02  0.45594000000E+02  0.51100000000E-03 0. -1.
         11   -1    0    0    0    0 -0.00000000000E+00 -0.00000000000E+00 -0.45593999997E+02  0.45594000000E+02  0.51100000000E-03 0.  1.
         23    2    1    2    0    0  0.88817841970E-15  0.00000000000E+00  0.00000000000E+00  0.91188000000E+02  0.91188000000E+02 0.  0.
    9900012    2    3    3    0    0  0.75947363275E+01  0.31617994388E+02 -0.24408779592E+02  0.50528854532E+02  0.29999983837E+02 0.  0.
         12    1    3    3    0    0 -0.75947363275E+01 -0.31617994388E+02  0.24408779592E+02  0.40659145468E+02  0.00000000000E+00 0. -1.
         11    1    4    4    0    0  0.95677453566E+01  0.78468262700E+01  0.24078355027E+01  0.12606034499E+02  0.51100000000E-03 0. -1.
        -11    1    4    4    0    0 -0.34563599348E+01  0.17514712285E+01 -0.10862858720E+01  0.40241884548E+01  0.51100000000E-03 0.  1.
         12    1    4    4    0    0  0.14833509056E+01  0.22019696889E+02 -0.25730329222E+02  0.33898631579E+02  0.00000000000E+00 0. -1.
</event>
<event>
 8    1  0.7311878E-012  0.9118800E+02  0.7816164E-02  0.1184000E+00
        -11   -1    0    0    0    0  0.00000000000E+00  0.00000000000E+00  0.45593999997E+02  0.45594000000E+02  0.51100000000E-03 0.  1.
         11   -1    0    0    0    0 -0.00000000000E+00 -0.00000000000E+00 -0.45593999997E+02  0.45594000000E+02  0.51100000000E-03 0. -1.
         23    2    1    2    0    0 -0.35527136788E-14  0.00000000000E+00 -0.17763568394E-14  0.91188000000E+02  0.91188000000E+02 0.  0.
    9900012    2    3    3    0    0  0.31953423902E+02  0.20556989620E+02  0.14475896823E+02  0.50528896344E+02  0.30000110927E+02 0.  0.
        -12    1    3    3    0    0 -0.31953423902E+02 -0.20556989620E+02 -0.14475896823E+02  0.40659103656E+02  0.00000000000E+00 0.  1.
         11    1    4    4    0    0  0.24832362111E+02  0.10195690088E+02  0.80422008653E+01  0.28022763950E+02  0.51100000000E-03 0. -1.
        -11    1    4    4    0    0  0.10768931460E+02  0.35295635556E+00  0.19556562060E+01  0.10950755884E+02  0.51100000000E-03 0.  1.
         12    1    4    4    0    0 -0.36478696695E+01  0.10008343176E+02  0.44780397521E+01  0.11555376509E+02  0.00000000000E+00 0. -1.
</event>
<event>
 8    1  0.7311878E-012  0.9118800E+02  0.7816164E-02  0.1184000E+00
        -11   -1    0    0    0    0  0.00000000000E+00  0.00000000000E+00  0.45593999997E+02  0.45594000000E+02  0.51100000000E-03 0. -1.
         11   -1    0    0    0    0 -0.00000000000E+00 -0.00000000000E+00 -0.45593999997E+02  0.45594000000E+02  0.51100000000E-03 0.  1.
         23    2    1    2    0    0  0.71054273576E-14  0.44408920985E-15  0.00000000000E+00  0.91188000000E+02  0.91188000000E+02 0.  0.
    9900012    2    3    3    0    0 -0.40078663117E+02  0.31626842964E+01 -0.60721524926E+01  0.50528771711E+02  0.29999732090E+02 0.  0.
         12    1    3    3    0    0  0.40078663117E+02 -0.31626842964E+01  0.60721524926E+01  0.40659228289E+02  0.00000000000E+00 0. -1.
         11    1    4    4    0    0 -0.12588845070E+02  0.16297644005E+00 -0.70651201800E+01  0.14436810760E+02  0.51100000000E-03 0.  1.
        -11    1    4    4    0    0 -0.28407702649E+02  0.89204254085E+01 -0.95833946109E+00  0.29790769947E+02  0.51100000000E-03 0. -1.
         12    1    4    4    0    0  0.91788460129E+00 -0.59207175522E+01  0.19513071485E+01  0.63011910035E+01  0.00000000000E+00 0. -1.
</event>
<event>
 8    1  0.7311878E-012  0.9118800E+02  0.7816164E-02  0.1184000E+00
        -11   -1    0    0    0    0  0.00000000000E+00  0.00000000000E+00  0.45593999997E+02  0.45594000000E+02  0.51100000000E-03 0. -1.
         11   -1    0    0    0    0 -0.00000000000E+00 -0.00000000000E+00 -0.45593999997E+02  0.45594000000E+02  0.51100000000E-03 0.  1.
         23    2    1    2    0    0  0.00000000000E+00  0.00000000000E+00 -0.35527136788E-14  0.91188000000E+02  0.91188000000E+02 0.  0.
    9900012    2    3    3    0    0 -0.20815817669E+02  0.17081651021E+02  0.30464482957E+02  0.50528858485E+02  0.29999995852E+02 0.  0.
        -12    1    3    3    0    0  0.20815817669E+02 -0.17081651021E+02 -0.30464482957E+02  0.40659141515E+02  0.00000000000E+00 0.  1.
         11    1    4    4    0    0 -0.14880996427E+02  0.63944128777E+01  0.26686605467E+02  0.31217102402E+02  0.51100000000E-03 0. -1.
        -11    1    4    4    0    0 -0.42166279010E+01 -0.26443702560E+01 -0.94149622163E+00  0.50654773026E+01  0.51100000000E-03 0.  1.
         12    1    4    4    0    0 -0.17181933409E+01  0.13331608400E+02  0.47193737116E+01  0.14246278781E+02  0.00000000000E+00 0. -1.
</event>
<event>
 8    1  0.7311878E-012  0.9118800E+02  0.7816164E-02  0.1184000E+00
        -11   -1    0    0    0    0  0.00000000000E+00  0.00000000000E+00  0.45593999997E+02  0.45594000000E+02  0.51100000000E-03 0. -1.
         11   -1    0    0    0    0 -0.00000000000E+00 -0.00000000000E+00 -0.45593999997E+02  0.45594000000E+02  0.51100000000E-03 0.  1.
         23    2    1    2    0    0 -0.17763568394E-14  0.00000000000E+00  0.35527136788E-14  0.91188000000E+02  0.91188000000E+02 0.  0.
    9900012    2    3    3    0    0 -0.12682885684E+02 -0.35581266908E+02  0.15042717779E+02  0.50528862008E+02  0.30000006559E+02 0.  0.
        -12    1    3    3    0    0  0.12682885684E+02  0.35581266908E+02 -0.15042717779E+02  0.40659137992E+02  0.00000000000E+00 0.  1.
         11    1    4    4    0    0  0.13672347224E+00 -0.74751885492E+01  0.10986950565E+02  0.13289477798E+02  0.51100000000E-03 0. -1.
        -11    1    4    4    0    0  0.42224219372E+01 -0.12301062151E+02 -0.21506185539E+01  0.13182190162E+02  0.51100000000E-03 0.  1.
         12    1    4    4    0    0 -0.17042031093E+02 -0.15805016209E+02  0.62063857679E+01  0.24057194048E+02  0.00000000000E+00 0. -1.
</event>
<event>
 8    1  0.7311878E-012  0.9118800E+02  0.7816164E-02  0.1184000E+00
        -11   -1    0    0    0    0  0.00000000000E+00  0.00000000000E+00  0.45593999997E+02  0.45594000000E+02  0.51100000000E-03 0. -1.
         11   -1    0    0    0    0 -0.00000000000E+00 -0.00000000000E+00 -0.45593999997E+02  0.45594000000E+02  0.51100000000E-03 0.  1.
         23    2    1    2    0    0  0.17763568394E-14 -0.26645352591E-14 -0.71054273576E-14  0.91188000000E+02  0.91188000000E+02 0.  0.
    9900012    2    3    3    0    0 -0.73516940228E+01 -0.76240856365E+01 -0.39255468254E+02  0.50528857429E+02  0.29999992640E+02 0.  0.
         12    1    3    3    0    0  0.73516940228E+01  0.76240856365E+01  0.39255468254E+02  0.40659142571E+02  0.00000000000E+00 0. -1.
         11    1    4    4    0    0  0.85600160874E+01 -0.34033348273E+01 -0.82890324817E+01  0.12392119395E+02  0.51100000000E-03 0. -1.
        -11    1    4    4    0    0 -0.30654948013E+01 -0.70603137228E+01 -0.18392122556E+02  0.19937789763E+02  0.51100000000E-03 0.  1.
         12    1    4    4    0    0 -0.12846215309E+02  0.28395629135E+01 -0.12574313216E+02  0.18198948270E+02  0.00000000000E+00 0. -1.
</event>
<event>
 8    1  0.7311878E-012  0.9118800E+02  0.7816164E-02  0.1184000E+00
        -11   -1    0    0    0    0  0.00000000000E+00  0.00000000000E+00  0.45593999997E+02  0.45594000000E+02  0.51100000000E-03 0. -1.
         11   -1    0    0    0    0 -0.00000000000E+00 -0.00000000000E+00 -0.45593999997E+02  0.45594000000E+02  0.51100000000E-03 0.  1.
         23    2    1    2    0    0  0.88817841970E-15  0.35527136788E-14 -0.71054273576E-14  0.91188000000E+02  0.91188000000E+02 0.  0.
    9900012    2    3    3    0    0 -0.54662095287E+01  0.20255659606E+02  0.34828064080E+02  0.50528865230E+02  0.30000016354E+02 0.  0.
        -12    1    3    3    0    0  0.54662095287E+01 -0.20255659606E+02 -0.34828064080E+02  0.40659134770E+02  0.00000000000E+00 0.  1.
         11    1    4    4    0    0 -0.11201207348E+02  0.17701550403E+02  0.21215989044E+02  0.29814931227E+02  0.51100000000E-03 0. -1.
        -11    1    4    4    0    0 -0.35969614726E+01 -0.30261846180E+01  0.47996585675E+01  0.67180836407E+01  0.51100000000E-03 0.  1.
         12    1    4    4    0    0  0.93319592916E+01  0.55802938208E+01  0.88124164683E+01  0.13995850362E+02  0.00000000000E+00 0. -1.
</event>
<event>
 8    1  0.7311878E-012  0.9118800E+02  0.7816164E-02  0.1184000E+00
        -11   -1    0    0    0    0  0.00000000000E+00  0.00000000000E+00  0.45593999997E+02  0.45594000000E+02  0.51100000000E-03 0.  1.
         11   -1    0    0    0    0 -0.00000000000E+00 -0.00000000000E+00 -0.45593999997E+02  0.45594000000E+02  0.51100000000E-03 0. -1.
         23    2    1    2    0    0  0.44408920985E-15  0.71054273576E-14 -0.35527136788E-14  0.91188000000E+02  0.91188000000E+02 0.  0.
    9900012    2    3    3    0    0 -0.33793019965E+01  0.35624990239E+02 -0.19303021164E+02  0.50528852965E+02  0.29999979074E+02 0.  0.
         12    1    3    3    0    0  0.33793019965E+01 -0.35624990239E+02  0.19303021164E+02  0.40659147035E+02  0.00000000000E+00 0. -1.
         11    1    4    4    0    0  0.72965540543E+01  0.80206533426E+01  0.21113404675E+01  0.11046643832E+02  0.51100000000E-03 0. -1.
        -11    1    4    4    0    0 -0.46083036740E+01  0.21409086601E+01  0.80795014365E+00  0.51451663081E+01  0.51100000000E-03 0.  1.
        -12    1    4    4    0    0 -0.60675523768E+01  0.25463428237E+02 -0.22222311775E+02  0.34337042826E+02  0.00000000000E+00 0.  1.
</event>
<event>
 8    1  0.7311878E-012  0.9118800E+02  0.7816164E-02  0.1184000E+00
        -11   -1    0    0    0    0  0.00000000000E+00  0.00000000000E+00  0.45593999997E+02  0.45594000000E+02  0.51100000000E-03 0. -1.
         11   -1    0    0    0    0 -0.00000000000E+00 -0.00000000000E+00 -0.45593999997E+02  0.45594000000E+02  0.51100000000E-03 0.  1.
         23    2    1    2    0    0  0.00000000000E+00  0.00000000000E+00 -0.35527136788E-14  0.91188000000E+02  0.91188000000E+02 0.  0.
    9900012    2    3    3    0    0  0.29767486467E+02  0.23586568206E+02 -0.14516840806E+02  0.50528829850E+02  0.29999908812E+02 0.  0.
         12    1    3    3    0    0 -0.29767486467E+02 -0.23586568206E+02  0.14516840806E+02  0.40659170150E+02  0.00000000000E+00 0. -1.
         11    1    4    4    0    0 -0.18130924525E+01  0.34927473235E+01 -0.54659470098E+00  0.39730786722E+01  0.51100000000E-03 0. -1.
        -11    1    4    4    0    0  0.99266872215E+01  0.20461513356E+02 -0.76719465619E+01  0.24001487710E+02  0.51100000000E-03 0.  1.
        -12    1    4    4    0    0  0.21653891698E+02 -0.36769247309E+00 -0.62982995428E+01  0.22554263468E+02  0.00000000000E+00 0.  1.
</event>
<event>
 8    1  0.7311878E-012  0.9118800E+02  0.7816164E-02  0.1184000E+00
        -11   -1    0    0    0    0  0.00000000000E+00  0.00000000000E+00  0.45593999997E+02  0.45594000000E+02  0.51100000000E-03 0.  1.
         11   -1    0    0    0    0 -0.00000000000E+00 -0.00000000000E+00 -0.45593999997E+02  0.45594000000E+02  0.51100000000E-03 0. -1.
         23    2    1    2    0    0  0.00000000000E+00  0.35527136788E-14  0.00000000000E+00  0.91188000000E+02  0.91188000000E+02 0.  0.
    9900012    2    3    3    0    0 -0.21309997975E+02 -0.31433008351E+02 -0.14526367414E+02  0.50528863537E+02  0.30000011206E+02 0.  0.
         12    1    3    3    0    0  0.21309997975E+02  0.31433008351E+02  0.14526367414E+02  0.40659136463E+02  0.00000000000E+00 0. -1.
         11    1    4    4    0    0  0.43426162128E-01 -0.59049360253E+01 -0.46853140558E+01  0.75380583281E+01  0.51100000000E-03 0. -1.
        -11    1    4    4    0    0  0.15382357924E+01 -0.17520468225E+02 -0.45922728466E+01  0.18177512105E+02  0.51100000000E-03 0.  1.
        -12    1    4    4    0    0 -0.22891659930E+02 -0.80076041005E+01 -0.52487805117E+01  0.24813293103E+02  0.00000000000E+00 0.  1.
</event>
<event>
 8    1  0.7311878E-012  0.9118800E+02  0.7816164E-02  0.1184000E+00
        -11   -1    0    0    0    0  0.00000000000E+00  0.00000000000E+00  0.45593999997E+02  0.45594000000E+02  0.51100000000E-03 0. -1.
         11   -1    0    0    0    0 -0.00000000000E+00 -0.00000000000E+00 -0.45593999997E+02  0.45594000000E+02  0.51100000000E-03 0.  1.
         23    2    1    2    0    0  0.00000000000E+00  0.35527136788E-14  0.00000000000E+00  0.91188000000E+02  0.91188000000E+02 0.  0.
    9900012    2    3    3    0    0  0.28928745158E+02  0.23579882377E+02  0.16133271983E+02  0.50528860631E+02  0.30000002374E+02 0.  0.
        -12    1    3    3    0    0 -0.28928745158E+02 -0.23579882377E+02 -0.16133271983E+02  0.40659139369E+02  0.00000000000E+00 0.  1.
         11    1    4    4    0    0  0.10746815653E+02  0.95150063180E+01  0.14818035957E+02  0.20630161943E+02  0.51100000000E-03 0. -1.
        -11    1    4    4    0    0 -0.94263134694E-01  0.11073790145E+02 -0.14691412476E+01  0.11171217032E+02  0.51100000000E-03 0.  1.
        -12    1    4    4    0    0  0.18276192640E+02  0.29910859145E+01  0.27843772734E+01  0.18727481656E+02  0.00000000000E+00 0.  1.
</event>
<event>
 8    1  0.1032606E-011  0.9118800E+02  0.7816164E-02  0.1184000E+00
        -11   -1    0    0    0    0  0.00000000000E+00  0.00000000000E+00  0.45593999997E+02  0.45594000000E+02  0.51100000000E-03 0. -1.
         11   -1    0    0    0    0 -0.00000000000E+00 -0.00000000000E+00 -0.45593999997E+02  0.45594000000E+02  0.51100000000E-03 0.  1.
         23    2    1    2    0    0  0.00000000000E+00 -0.44408920985E-15  0.71054273576E-14  0.91188000000E+02  0.91188000000E+02 0.  0.
    9900012    2    3    3    0    0 -0.56498907114E+01  0.16786744857E+01 -0.40229671333E+02  0.50528859962E+02  0.30000000341E+02 0.  0.
         12    1    3    3    0    0  0.56498907114E+01 -0.16786744857E+01  0.40229671333E+02  0.40659140038E+02  0.00000000000E+00 0. -1.
         11    1    4    4    0    0 -0.26335059304E+01 -0.62563211824E+01 -0.27454325027E+02  0.28281033771E+02  0.51100000000E-03 0. -1.
        -11    1    4    4    0    0 -0.45249515829E+01  0.60046048831E+01 -0.16302803385E+02  0.17953046123E+02  0.51100000000E-03 0.  1.
         12    1    4    4    0    0  0.15085668019E+01  0.19303907849E+01  0.35274570796E+01  0.42947800673E+01  0.00000000000E+00 0. -1.
</event>
<event>
 8    1  0.7674353E-012  0.9118800E+02  0.7816164E-02  0.1184000E+00
        -11   -1    0    0    0    0  0.00000000000E+00  0.00000000000E+00  0.45593999997E+02  0.45594000000E+02  0.51100000000E-03 0. -1.
         11   -1    0    0    0    0 -0.00000000000E+00 -0.00000000000E+00 -0.45593999997E+02  0.45594000000E+02  0.51100000000E-03 0.  1.
         23    2    1    2    0    0  0.00000000000E+00  0.00000000000E+00  0.00000000000E+00  0.91188000000E+02  0.91188000000E+02 0.  0.
    9900012    2    3    3    0    0  0.98333256795E+01 -0.19802115866E+02 -0.34122506398E+02  0.50528886267E+02  0.30000080296E+02 0.  0.
         12    1    3    3    0    0 -0.98333256795E+01  0.19802115866E+02  0.34122506398E+02  0.40659113733E+02  0.00000000000E+00 0. -1.
         11    1    4    4    0    0  0.65131503182E+01  0.41968884768E+01 -0.59577545984E+01  0.97739367744E+01  0.51100000000E-03 0. -1.
        -11    1    4    4    0    0 -0.30333391857E+01 -0.15381417222E+01 -0.11715347355E+02  0.12199032358E+02  0.51100000000E-03 0.  1.
         12    1    4    4    0    0  0.63535145470E+01 -0.22460862621E+02 -0.16449404445E+02  0.28555917134E+02  0.00000000000E+00 0. -1.
</event>
<event>
 8    1  0.7311878E-012  0.9118800E+02  0.7816164E-02  0.1184000E+00
        -11   -1    0    0    0    0  0.00000000000E+00  0.00000000000E+00  0.45593999997E+02  0.45594000000E+02  0.51100000000E-03 0. -1.
         11   -1    0    0    0    0 -0.00000000000E+00 -0.00000000000E+00 -0.45593999997E+02  0.45594000000E+02  0.51100000000E-03 0.  1.
         23    2    1    2    0    0  0.00000000000E+00 -0.35527136788E-14  0.17763568394E-14  0.91188000000E+02  0.91188000000E+02 0.  0.
    9900012    2    3    3    0    0 -0.27234922262E+02 -0.28380804014E+02  0.10293413308E+02  0.50528863454E+02  0.30000010956E+02 0.  0.
        -12    1    3    3    0    0  0.27234922262E+02  0.28380804014E+02 -0.10293413308E+02  0.40659136546E+02  0.00000000000E+00 0.  1.
         11    1    4    4    0    0  0.25000640906E+01 -0.15469341488E+02  0.63505580251E+01  0.16907999114E+02  0.51100000000E-03 0. -1.
        -11    1    4    4    0    0 -0.13520831395E+02 -0.84531720129E+01  0.51627414054E+01  0.16760754690E+02  0.51100000000E-03 0.  1.
        -12    1    4    4    0    0 -0.16214154957E+02 -0.44582905134E+01 -0.12198861230E+01  0.16860109651E+02  0.00000000000E+00 0.  1.
</event>
<event>
 8    1  0.7311878E-012  0.9118800E+02  0.7816164E-02  0.1184000E+00
        -11   -1    0    0    0    0  0.00000000000E+00  0.00000000000E+00  0.45593999997E+02  0.45594000000E+02  0.51100000000E-03 0. -1.
         11   -1    0    0    0    0 -0.00000000000E+00 -0.00000000000E+00 -0.45593999997E+02  0.45594000000E+02  0.51100000000E-03 0.  1.
         23    2    1    2    0    0  0.00000000000E+00 -0.35527136788E-14 -0.35527136788E-14  0.91188000000E+02  0.91188000000E+02 0.  0.
    9900012    2    3    3    0    0 -0.15305934103E+02 -0.25784971606E+02  0.27459588604E+02  0.50528863440E+02  0.30000010913E+02 0.  0.
        -12    1    3    3    0    0  0.15305934103E+02  0.25784971606E+02 -0.27459588604E+02  0.40659136560E+02  0.00000000000E+00 0.  1.
         11    1    4    4    0    0 -0.29721420738E+01 -0.16469533958E+02  0.45178925831E+01  0.17334662701E+02  0.51100000000E-03 0. -1.
        -11    1    4    4    0    0 -0.70988364837E+00 -0.53060235310E+00 -0.31705337463E+01  0.32920750522E+01  0.51100000000E-03 0.  1.
         12    1    4    4    0    0 -0.11623908380E+02 -0.87848352952E+01  0.26112229767E+02  0.29902125687E+02  0.00000000000E+00 0. -1.
</event>
<event>
 8    1  0.7364643E-012  0.9118800E+02  0.7816164E-02  0.1184000E+00
        -11   -1    0    0    0    0  0.00000000000E+00  0.00000000000E+00  0.45593999997E+02  0.45594000000E+02  0.51100000000E-03 0. -1.
         11   -1    0    0    0    0 -0.00000000000E+00 -0.00000000000E+00 -0.45593999997E+02  0.45594000000E+02  0.51100000000E-03 0.  1.
         23    2    1    2    0    0  0.00000000000E+00  0.35527136788E-14  0.00000000000E+00  0.91188000000E+02  0.91188000000E+02 0.  0.
    9900012    2    3    3    0    0 -0.27642448697E+02 -0.21161712305E+02 -0.21005725773E+02  0.50528885980E+02  0.30000079424E+02 0.  0.
         12    1    3    3    0    0  0.27642448697E+02  0.21161712305E+02  0.21005725773E+02  0.40659114020E+02  0.00000000000E+00 0. -1.
         11    1    4    4    0    0 -0.14457627188E+02 -0.13732906901E+02 -0.77519479028E+01  0.21394120978E+02  0.51100000000E-03 0. -1.
        -11    1    4    4    0    0 -0.13312410743E+02 -0.31159005997E+01 -0.18075777143E+02  0.22664131042E+02  0.51100000000E-03 0.  1.
         12    1    4    4    0    0  0.12758923365E+00 -0.43129048046E+01  0.48219992721E+01  0.64706339602E+01  0.00000000000E+00 0. -1.
</event>
<event>
 8    1  0.7311878E-012  0.9118800E+02  0.7816164E-02  0.1184000E+00
        -11   -1    0    0    0    0  0.00000000000E+00  0.00000000000E+00  0.45593999997E+02  0.45594000000E+02  0.51100000000E-03 0. -1.
         11   -1    0    0    0    0 -0.00000000000E+00 -0.00000000000E+00 -0.45593999997E+02  0.45594000000E+02  0.51100000000E-03 0.  1.
         23    2    1    2    0    0  0.00000000000E+00 -0.35527136788E-14 -0.71054273576E-14  0.91188000000E+02  0.91188000000E+02 0.  0.
    9900012    2    3    3    0    0 -0.20735266833E+02  0.16756027350E+02  0.30699343135E+02  0.50528863117E+02  0.30000009929E+02 0.  0.
        -12    1    3    3    0    0  0.20735266833E+02 -0.16756027350E+02 -0.30699343135E+02  0.40659136883E+02  0.00000000000E+00 0.  1.
         11    1    4    4    0    0 -0.57826138494E+00  0.94838796839E+01  0.11607031485E+02  0.15000051342E+02  0.51100000000E-03 0. -1.
        -11    1    4    4    0    0 -0.32105470125E+01 -0.68357249650E+00  0.16268121760E+02  0.16595983530E+02  0.51100000000E-03 0.  1.
         12    1    4    4    0    0 -0.16946458436E+02  0.79557201627E+01  0.28241898896E+01  0.18932828245E+02  0.00000000000E+00 0. -1.
</event>
<event>
 8    1  0.7311878E-012  0.9118800E+02  0.7816164E-02  0.1184000E+00
        -11   -1    0    0    0    0  0.00000000000E+00  0.00000000000E+00  0.45593999997E+02  0.45594000000E+02  0.51100000000E-03 0. -1.
         11   -1    0    0    0    0 -0.00000000000E+00 -0.00000000000E+00 -0.45593999997E+02  0.45594000000E+02  0.51100000000E-03 0.  1.
         23    2    1    2    0    0 -0.35527136788E-14 -0.17763568394E-14  0.00000000000E+00  0.91188000000E+02  0.91188000000E+02 0.  0.
    9900012    2    3    3    0    0  0.16856717580E+02 -0.74134856143E+01 -0.36249871911E+02  0.50528906182E+02  0.30000140831E+02 0.  0.
         12    1    3    3    0    0 -0.16856717580E+02  0.74134856143E+01  0.36249871911E+02  0.40659093818E+02  0.00000000000E+00 0. -1.
         11    1    4    4    0    0  0.47766456579E+01  0.69000084310E+01 -0.46422465508E+01  0.95904594983E+01  0.51100000000E-03 0. -1.
        -11    1    4    4    0    0 -0.15117098657E+00 -0.12599751892E+01 -0.19026514436E+02  0.19068787114E+02  0.51100000000E-03 0.  1.
        -12    1    4    4    0    0  0.12231242909E+02 -0.13053518856E+02 -0.12581110924E+02  0.21869659570E+02  0.00000000000E+00 0.  1.
</event>
<event>
 8    1  0.7311878E-012  0.9118800E+02  0.7816164E-02  0.1184000E+00
        -11   -1    0    0    0    0  0.00000000000E+00  0.00000000000E+00  0.45593999997E+02  0.45594000000E+02  0.51100000000E-03 0. -1.
         11   -1    0    0    0    0 -0.00000000000E+00 -0.00000000000E+00 -0.45593999997E+02  0.45594000000E+02  0.51100000000E-03 0.  1.
         23    2    1    2    0    0  0.00000000000E+00  0.00000000000E+00  0.00000000000E+00  0.91188000000E+02  0.91188000000E+02 0.  0.
    9900012    2    3    3    0    0  0.90645514615E+01 -0.24064169254E+02 -0.31494707824E+02  0.50528844131E+02  0.29999952220E+02 0.  0.
         12    1    3    3    0    0 -0.90645514615E+01  0.24064169254E+02  0.31494707824E+02  0.40659155869E+02  0.00000000000E+00 0. -1.
         11    1    4    4    0    0  0.37438607113E+01 -0.10432186316E+01  0.30048106385E+01  0.49126047443E+01  0.51100000000E-03 0. -1.
        -11    1    4    4    0    0 -0.50141318972E+01 -0.28215961618E+01 -0.13604397139E+02  0.14771003533E+02  0.51100000000E-03 0.  1.
        -12    1    4    4    0    0  0.10334822647E+02 -0.20199354461E+02 -0.20895121323E+02  0.30845235854E+02  0.00000000000E+00 0.  1.
</event>
<event>
 8    1  0.7311878E-012  0.9118800E+02  0.7816164E-02  0.1184000E+00
        -11   -1    0    0    0    0  0.00000000000E+00  0.00000000000E+00  0.45593999997E+02  0.45594000000E+02  0.51100000000E-03 0. -1.
         11   -1    0    0    0    0 -0.00000000000E+00 -0.00000000000E+00 -0.45593999997E+02  0.45594000000E+02  0.51100000000E-03 0.  1.
         23    2    1    2    0    0  0.17763568394E-14 -0.11102230246E-14  0.00000000000E+00  0.91188000000E+02  0.91188000000E+02 0.  0.
    9900012    2    3    3    0    0 -0.75690942525E+01 -0.69662668168E+00 -0.39942437290E+02  0.50528748000E+02  0.29999660020E+02 0.  0.
         12    1    3    3    0    0  0.75690942525E+01  0.69662668168E+00  0.39942437290E+02  0.40659252000E+02  0.00000000000E+00 0. -1.
         11    1    4    4    0    0 -0.38879295538E+01 -0.67835880385E-01  0.12143574746E+00  0.38904170501E+01  0.51100000000E-03 0. -1.
        -11    1    4    4    0    0 -0.81317139794E+01 -0.10267561281E+02 -0.24786961720E+02  0.28034640331E+02  0.51100000000E-03 0.  1.
         12    1    4    4    0    0  0.44505492807E+01  0.96387704800E+01 -0.15276911317E+02  0.18603690619E+02  0.00000000000E+00 0. -1.
</event>
<event>
 8    1  0.7311878E-012  0.9118800E+02  0.7816164E-02  0.1184000E+00
        -11   -1    0    0    0    0  0.00000000000E+00  0.00000000000E+00  0.45593999997E+02  0.45594000000E+02  0.51100000000E-03 0. -1.
         11   -1    0    0    0    0 -0.00000000000E+00 -0.00000000000E+00 -0.45593999997E+02  0.45594000000E+02  0.51100000000E-03 0.  1.
         23    2    1    2    0    0  0.00000000000E+00  0.17763568394E-14  0.00000000000E+00  0.91188000000E+02  0.91188000000E+02 0.  0.
    9900012    2    3    3    0    0  0.27875722580E+02 -0.10449003383E+02  0.27693481769E+02  0.50528849572E+02  0.29999968758E+02 0.  0.
        -12    1    3    3    0    0 -0.27875722580E+02  0.10449003383E+02 -0.27693481769E+02  0.40659150428E+02  0.00000000000E+00 0.  1.
         11    1    4    4    0    0  0.17440752807E+02 -0.11841530361E+02  0.21677716445E+02  0.30237808954E+02  0.51100000000E-03 0. -1.
        -11    1    4    4    0    0  0.43885720311E+01 -0.72976916742E+01  0.43887074759E+01  0.95800115769E+01  0.51100000000E-03 0.  1.
        -12    1    4    4    0    0  0.60463977415E+01  0.86902186524E+01  0.16270578481E+01  0.10711029041E+02  0.00000000000E+00 0.  1.
</event>
<event>
 8    1  0.7311878E-012  0.9118800E+02  0.7816164E-02  0.1184000E+00
        -11   -1    0    0    0    0  0.00000000000E+00  0.00000000000E+00  0.45593999997E+02  0.45594000000E+02  0.51100000000E-03 0. -1.
         11   -1    0    0    0    0 -0.00000000000E+00 -0.00000000000E+00 -0.45593999997E+02  0.45594000000E+02  0.51100000000E-03 0.  1.
         23    2    1    2    0    0  0.35527136788E-14 -0.88817841970E-15  0.71054273576E-14  0.91188000000E+02  0.91188000000E+02 0.  0.
    9900012    2    3    3    0    0  0.22482817646E+02 -0.43947441572E+01  0.33591290237E+02  0.50528860249E+02  0.30000001213E+02 0.  0.
        -12    1    3    3    0    0 -0.22482817646E+02  0.43947441572E+01 -0.33591290237E+02  0.40659139751E+02  0.00000000000E+00 0.  1.
         11    1    4    4    0    0  0.11091498161E+02 -0.84464252108E+01  0.21245325536E+02  0.25411164627E+02  0.51100000000E-03 0. -1.
        -11    1    4    4    0    0  0.54275526062E+01  0.94099132574E+01  0.13154114480E+02  0.17059763270E+02  0.51100000000E-03 0.  1.
         12    1    4    4    0    0  0.59637668787E+01 -0.53582322037E+01 -0.80814977892E+00  0.80579323525E+01  0.00000000000E+00 0. -1.
</event>
<event>
 8    1  0.7311878E-012  0.9118800E+02  0.7816164E-02  0.1184000E+00
        -11   -1    0    0    0    0  0.00000000000E+00  0.00000000000E+00  0.45593999997E+02  0.45594000000E+02  0.51100000000E-03 0. -1.
         11   -1    0    0    0    0 -0.00000000000E+00 -0.00000000000E+00 -0.45593999997E+02  0.45594000000E+02  0.51100000000E-03 0.  1.
         23    2    1    2    0    0 -0.35527136788E-14 -0.17763568394E-14 -0.71054273576E-14  0.91188000000E+02  0.91188000000E+02 0.  0.
    9900012    2    3    3    0    0 -0.82258902224E+01 -0.12840938002E+02 -0.37690987071E+02  0.50528862464E+02  0.30000007947E+02 0.  0.
         12    1    3    3    0    0  0.82258902224E+01  0.12840938002E+02  0.37690987071E+02  0.40659137536E+02  0.00000000000E+00 0. -1.
         11    1    4    4    0    0 -0.94241471590E+01 -0.47911752619E+01 -0.25713733406E+01  0.10880343339E+02  0.51100000000E-03 0. -1.
        -11    1    4    4    0    0 -0.35837739643E+01 -0.43213086958E+01 -0.32603748118E+02  0.33083553864E+02  0.51100000000E-03 0.  1.
         12    1    4    4    0    0  0.47820309008E+01 -0.37284540444E+01 -0.25158656132E+01  0.65649652612E+01  0.00000000000E+00 0. -1.
</event>
<event>
 8    1  0.7311878E-012  0.9118800E+02  0.7816164E-02  0.1184000E+00
        -11   -1    0    0    0    0  0.00000000000E+00  0.00000000000E+00  0.45593999997E+02  0.45594000000E+02  0.51100000000E-03 0. -1.
         11   -1    0    0    0    0 -0.00000000000E+00 -0.00000000000E+00 -0.45593999997E+02  0.45594000000E+02  0.51100000000E-03 0.  1.
         23    2    1    2    0    0  0.00000000000E+00 -0.88817841970E-15 -0.71054273576E-14  0.91188000000E+02  0.91188000000E+02 0.  0.
    9900012    2    3    3    0    0  0.25062282889E+02 -0.70546102427E+01 -0.31229471848E+02  0.50528862513E+02  0.30000008095E+02 0.  0.
         12    1    3    3    0    0 -0.25062282889E+02  0.70546102427E+01  0.31229471848E+02  0.40659137487E+02  0.00000000000E+00 0. -1.
         11    1    4    4    0    0  0.19051661483E+02 -0.10615184412E+02 -0.17500555774E+02  0.27962785949E+02  0.51100000000E-03 0. -1.
        -11    1    4    4    0    0  0.45652341724E+01 -0.21318389093E+01 -0.15606927676E+02  0.16400069876E+02  0.51100000000E-03 0.  1.
         12    1    4    4    0    0  0.14453872331E+01  0.56924130782E+01  0.18780116018E+01  0.61660066885E+01  0.00000000000E+00 0. -1.
</event>
<event>
 8    1  0.7311878E-012  0.9118800E+02  0.7816164E-02  0.1184000E+00
        -11   -1    0    0    0    0  0.00000000000E+00  0.00000000000E+00  0.45593999997E+02  0.45594000000E+02  0.51100000000E-03 0. -1.
         11   -1    0    0    0    0 -0.00000000000E+00 -0.00000000000E+00 -0.45593999997E+02  0.45594000000E+02  0.51100000000E-03 0.  1.
         23    2    1    2    0    0  0.00000000000E+00  0.00000000000E+00  0.00000000000E+00  0.91188000000E+02  0.91188000000E+02 0.  0.
    9900012    2    3    3    0    0  0.29139644173E+02 -0.11289074585E+02  0.26011600408E+02  0.50528862979E+02  0.30000009512E+02 0.  0.
        -12    1    3    3    0    0 -0.29139644173E+02  0.11289074585E+02 -0.26011600408E+02  0.40659137021E+02  0.00000000000E+00 0.  1.
         11    1    4    4    0    0  0.53144864322E+00 -0.32846678375E+01  0.68166161549E+01  0.75853633089E+01  0.51100000000E-03 0. -1.
        -11    1    4    4    0    0 -0.99653981175E+00  0.43772381387E+01 -0.15303413872E+01  0.47429158059E+01  0.51100000000E-03 0.  1.
         12    1    4    4    0    0  0.29604735341E+02 -0.12381644886E+02  0.20725325640E+02  0.38200583865E+02  0.00000000000E+00 0. -1.
</event>
<event>
 8    1  0.7311878E-012  0.9118800E+02  0.7816164E-02  0.1184000E+00
        -11   -1    0    0    0    0  0.00000000000E+00  0.00000000000E+00  0.45593999997E+02  0.45594000000E+02  0.51100000000E-03 0.  1.
         11   -1    0    0    0    0 -0.00000000000E+00 -0.00000000000E+00 -0.45593999997E+02  0.45594000000E+02  0.51100000000E-03 0. -1.
         23    2    1    2    0    0  0.00000000000E+00 -0.17763568394E-14  0.00000000000E+00  0.91188000000E+02  0.91188000000E+02 0.  0.
    9900012    2    3    3    0    0  0.35443131461E+02 -0.14364609986E+02  0.13806094421E+02  0.50528857965E+02  0.29999994272E+02 0.  0.
        -12    1    3    3    0    0 -0.35443131461E+02  0.14364609986E+02 -0.13806094421E+02  0.40659142035E+02  0.00000000000E+00 0.  1.
         11    1    4    4    0    0  0.15809107028E+02 -0.13719929151E+02 -0.44017982461E+01  0.21390188147E+02  0.51100000000E-03 0. -1.
        -11    1    4    4    0    0  0.11958215404E+01  0.79256049962E+00 -0.15251006424E+01  0.20938179321E+01  0.51100000000E-03 0.  1.
         12    1    4    4    0    0  0.18438202894E+02 -0.14372413343E+01  0.19732993309E+02  0.27044851886E+02  0.00000000000E+00 0. -1.
</event>
<event>
 8    1  0.7487108E-012  0.9118800E+02  0.7816164E-02  0.1184000E+00
        -11   -1    0    0    0    0  0.00000000000E+00  0.00000000000E+00  0.45593999997E+02  0.45594000000E+02  0.51100000000E-03 0. -1.
         11   -1    0    0    0    0 -0.00000000000E+00 -0.00000000000E+00 -0.45593999997E+02  0.45594000000E+02  0.51100000000E-03 0.  1.
         23    2    1    2    0    0  0.00000000000E+00  0.00000000000E+00  0.71054273576E-14  0.91188000000E+02  0.91188000000E+02 0.  0.
    9900012    2    3    3    0    0  0.67698402578E+01  0.32715148198E+02  0.23174426285E+02  0.50528859670E+02  0.29999999452E+02 0.  0.
        -12    1    3    3    0    0 -0.67698402578E+01 -0.32715148198E+02 -0.23174426285E+02  0.40659140330E+02  0.00000000000E+00 0.  1.
         11    1    4    4    0    0  0.60037544298E+01  0.13248226968E+02  0.68692704895E+01  0.16085629063E+02  0.51100000000E-03 0. -1.
        -11    1    4    4    0    0  0.39361138659E+01  0.14405880600E+02  0.21735561902E+02  0.26371519480E+02  0.51100000000E-03 0.  1.
        -12    1    4    4    0    0 -0.31700280379E+01  0.50610406299E+01 -0.54304061065E+01  0.80717111259E+01  0.00000000000E+00 0.  1.
</event>
<event>
 8    1  0.7311878E-012  0.9118800E+02  0.7816164E-02  0.1184000E+00
        -11   -1    0    0    0    0  0.00000000000E+00  0.00000000000E+00  0.45593999997E+02  0.45594000000E+02  0.51100000000E-03 0. -1.
         11   -1    0    0    0    0 -0.00000000000E+00 -0.00000000000E+00 -0.45593999997E+02  0.45594000000E+02  0.51100000000E-03 0.  1.
         23    2    1    2    0    0 -0.71054273576E-14 -0.71054273576E-14  0.00000000000E+00  0.91188000000E+02  0.91188000000E+02 0.  0.
    9900012    2    3    3    0    0 -0.21217847465E+02 -0.34361989222E+02 -0.47140286894E+01  0.50528863010E+02  0.30000009605E+02 0.  0.
         12    1    3    3    0    0  0.21217847465E+02  0.34361989222E+02  0.47140286894E+01  0.40659136990E+02  0.00000000000E+00 0. -1.
         11    1    4    4    0    0 -0.20831422340E+02 -0.13823396094E+02  0.10837354175E+01  0.25024166699E+02  0.51100000000E-03 0. -1.
        -11    1    4    4    0    0 -0.50138538541E+01 -0.12201539563E+02 -0.83773109065E+01  0.15626760267E+02  0.51100000000E-03 0.  1.
         12    1    4    4    0    0  0.46274287290E+01 -0.83370535652E+01  0.25795467997E+01  0.98779360437E+01  0.00000000000E+00 0. -1.
</event>
<event>
 8    1  0.7915633E-012  0.9118800E+02  0.7816164E-02  0.1184000E+00
        -11   -1    0    0    0    0  0.00000000000E+00  0.00000000000E+00  0.45593999997E+02  0.45594000000E+02  0.51100000000E-03 0. -1.
         11   -1    0    0    0    0 -0.00000000000E+00 -0.00000000000E+00 -0.45593999997E+02  0.45594000000E+02  0.51100000000E-03 0.  1.
         23    2    1    2    0    0  0.00000000000E+00  0.00000000000E+00  0.71054273576E-14  0.91188000000E+02  0.91188000000E+02 0.  0.
    9900012    2    3    3    0    0 -0.13974997865E+02  0.19438236905E+02 -0.32863643959E+02  0.50528871707E+02  0.30000036041E+02 0.  0.
         12    1    3    3    0    0  0.13974997865E+02 -0.19438236905E+02  0.32863643959E+02  0.40659128293E+02  0.00000000000E+00 0. -1.
         11    1    4    4    0    0 -0.71950653224E+01  0.91013847666E+01 -0.12757173177E+02  0.17243828966E+02  0.51100000000E-03 0. -1.
        -11    1    4    4    0    0  0.34712700077E+01  0.11744346383E+02 -0.19363236078E+02  0.22911008252E+02  0.51100000000E-03 0.  1.
         12    1    4    4    0    0 -0.10251202550E+02 -0.14074942451E+01 -0.74323470396E+00  0.10374034490E+02  0.00000000000E+00 0. -1.
</event>
<event>
 8    1  0.7311878E-012  0.9118800E+02  0.7816164E-02  0.1184000E+00
        -11   -1    0    0    0    0  0.00000000000E+00  0.00000000000E+00  0.45593999997E+02  0.45594000000E+02  0.51100000000E-03 0. -1.
         11   -1    0    0    0    0 -0.00000000000E+00 -0.00000000000E+00 -0.45593999997E+02  0.45594000000E+02  0.51100000000E-03 0.  1.
         23    2    1    2    0    0  0.00000000000E+00  0.22204460493E-15  0.00000000000E+00  0.91188000000E+02  0.91188000000E+02 0.  0.
    9900012    2    3    3    0    0  0.24643588363E+02 -0.18216466096E+01  0.32288395735E+02  0.50528863967E+02  0.30000012514E+02 0.  0.
        -12    1    3    3    0    0 -0.24643588363E+02  0.18216466096E+01 -0.32288395735E+02  0.40659136033E+02  0.00000000000E+00 0.  1.
         11    1    4    4    0    0  0.13266617417E+01 -0.24293310512E+01  0.11526066808E+02  0.11853771428E+02  0.51100000000E-03 0. -1.
        -11    1    4    4    0    0  0.27171490744E+01  0.75366602805E+01 -0.81052319641E+00  0.80523968723E+01  0.51100000000E-03 0.  1.
        -12    1    4    4    0    0  0.20599777547E+02 -0.69289758388E+01  0.21572852124E+02  0.30622695667E+02  0.00000000000E+00 0.  1.
</event>
<event>
 8    1  0.7311878E-012  0.9118800E+02  0.7816164E-02  0.1184000E+00
        -11   -1    0    0    0    0  0.00000000000E+00  0.00000000000E+00  0.45593999997E+02  0.45594000000E+02  0.51100000000E-03 0. -1.
         11   -1    0    0    0    0 -0.00000000000E+00 -0.00000000000E+00 -0.45593999997E+02  0.45594000000E+02  0.51100000000E-03 0.  1.
         23    2    1    2    0    0  0.17763568394E-14  0.17763568394E-14  0.71054273576E-14  0.91188000000E+02  0.91188000000E+02 0.  0.
    9900012    2    3    3    0    0 -0.81344708750E+01  0.15927493182E+02  0.36514528401E+02  0.50528862775E+02  0.30000008892E+02 0.  0.
        -12    1    3    3    0    0  0.81344708750E+01 -0.15927493182E+02 -0.36514528401E+02  0.40659137225E+02  0.00000000000E+00 0.  1.
         11    1    4    4    0    0 -0.58764874643E+01  0.12007803615E+02  0.31786867228E+02  0.34483697322E+02  0.51100000000E-03 0. -1.
        -11    1    4    4    0    0 -0.74862763699E+01 -0.14094952014E+01  0.38280663318E+01  0.85255558594E+01  0.51100000000E-03 0.  1.
        -12    1    4    4    0    0  0.52282929593E+01  0.53291847684E+01  0.89959484140E+00  0.75196095938E+01  0.00000000000E+00 0.  1.
</event>
<event>
 8    1  0.7311878E-012  0.9118800E+02  0.7816164E-02  0.1184000E+00
        -11   -1    0    0    0    0  0.00000000000E+00  0.00000000000E+00  0.45593999997E+02  0.45594000000E+02  0.51100000000E-03 0. -1.
         11   -1    0    0    0    0 -0.00000000000E+00 -0.00000000000E+00 -0.45593999997E+02  0.45594000000E+02  0.51100000000E-03 0.  1.
         23    2    1    2    0    0  0.35527136788E-14 -0.35527136788E-14 -0.35527136788E-14  0.91188000000E+02  0.91188000000E+02 0.  0.
    9900012    2    3    3    0    0 -0.26378900598E+02  0.22136329963E+02  0.21617167060E+02  0.50528863109E+02  0.30000009906E+02 0.  0.
        -12    1    3    3    0    0  0.26378900598E+02 -0.22136329963E+02 -0.21617167060E+02  0.40659136891E+02  0.00000000000E+00 0.  1.
         11    1    4    4    0    0  0.19928719434E+01  0.78865028961E+00 -0.30699186925E+01  0.37440497995E+01  0.51100000000E-03 0.  1.
        -11    1    4    4    0    0 -0.29293797759E+02  0.17012410089E+02  0.16976923745E+02  0.37891484852E+02  0.51100000000E-03 0. -1.
         12    1    4    4    0    0  0.92202521707E+00  0.43352695846E+01  0.77101620078E+01  0.88933284578E+01  0.00000000000E+00 0. -1.
</event>
<event>
 8    1  0.7311878E-012  0.9118800E+02  0.7816164E-02  0.1184000E+00
        -11   -1    0    0    0    0  0.00000000000E+00  0.00000000000E+00  0.45593999997E+02  0.45594000000E+02  0.51100000000E-03 0. -1.
         11   -1    0    0    0    0 -0.00000000000E+00 -0.00000000000E+00 -0.45593999997E+02  0.45594000000E+02  0.51100000000E-03 0.  1.
         23    2    1    2    0    0  0.00000000000E+00  0.00000000000E+00  0.35527136788E-14  0.91188000000E+02  0.91188000000E+02 0.  0.
    9900012    2    3    3    0    0  0.33745259751E+02  0.15943072693E+02 -0.16132013740E+02  0.50528856012E+02  0.29999988333E+02 0.  0.
         12    1    3    3    0    0 -0.33745259751E+02 -0.15943072693E+02  0.16132013740E+02  0.40659143988E+02  0.00000000000E+00 0. -1.
         11    1    4    4    0    0 -0.37409809542E+01  0.23189992939E+01 -0.32497906866E+00  0.44134236009E+01  0.51100000000E-03 0. -1.
        -11    1    4    4    0    0  0.16386955125E+02  0.12686341612E+02 -0.13804492815E+02  0.24900594048E+02  0.51100000000E-03 0.  1.
        -12    1    4    4    0    0  0.21099285580E+02  0.93773178737E+00 -0.20025418561E+01  0.21214838363E+02  0.00000000000E+00 0.  1.
</event>
<event>
 8    1  0.7311878E-012  0.9118800E+02  0.7816164E-02  0.1184000E+00
        -11   -1    0    0    0    0  0.00000000000E+00  0.00000000000E+00  0.45593999997E+02  0.45594000000E+02  0.51100000000E-03 0. -1.
         11   -1    0    0    0    0 -0.00000000000E+00 -0.00000000000E+00 -0.45593999997E+02  0.45594000000E+02  0.51100000000E-03 0.  1.
         23    2    1    2    0    0 -0.71054273576E-14 -0.17763568394E-14  0.00000000000E+00  0.91188000000E+02  0.91188000000E+02 0.  0.
    9900012    2    3    3    0    0  0.33085575197E+02  0.15975383933E+02  0.17415445102E+02  0.50528857043E+02  0.29999991467E+02 0.  0.
        -12    1    3    3    0    0 -0.33085575197E+02 -0.15975383933E+02 -0.17415445102E+02  0.40659142957E+02  0.00000000000E+00 0.  1.
         11    1    4    4    0    0  0.12497482426E+01 -0.57665800195E-01 -0.17826376951E+01  0.21778414606E+01  0.51100000000E-03 0.  1.
        -11    1    4    4    0    0  0.61377460920E+01 -0.17286918353E+01  0.15664801177E+02  0.16912903321E+02  0.51100000000E-03 0. -1.
         12    1    4    4    0    0  0.25698080862E+02  0.17761741568E+02  0.35332816194E+01  0.31438112261E+02  0.00000000000E+00 0. -1.
</event>
<event>
 8    1  0.7311878E-012  0.9118800E+02  0.7816164E-02  0.1184000E+00
        -11   -1    0    0    0    0  0.00000000000E+00  0.00000000000E+00  0.45593999997E+02  0.45594000000E+02  0.51100000000E-03 0. -1.
         11   -1    0    0    0    0 -0.00000000000E+00 -0.00000000000E+00 -0.45593999997E+02  0.45594000000E+02  0.51100000000E-03 0.  1.
         23    2    1    2    0    0  0.17763568394E-14  0.11102230246E-15 -0.71054273576E-14  0.91188000000E+02  0.91188000000E+02 0.  0.
    9900012    2    3    3    0    0 -0.44927570630E+01 -0.75545450453E+00  0.40403097414E+02  0.50528857631E+02  0.29999993255E+02 0.  0.
        -12    1    3    3    0    0  0.44927570630E+01  0.75545450453E+00 -0.40403097414E+02  0.40659142369E+02  0.00000000000E+00 0.  1.
         11    1    4    4    0    0  0.42830773548E+01 -0.13232533196E+01  0.44788033593E+01  0.63368312876E+01  0.51100000000E-03 0. -1.
        -11    1    4    4    0    0  0.64554102607E+01  0.32244074401E+00  0.16286793839E+01  0.66654997160E+01  0.51100000000E-03 0.  1.
         12    1    4    4    0    0 -0.15231244678E+02  0.24535807101E+00  0.34295614671E+02  0.37526526627E+02  0.00000000000E+00 0. -1.
</event>
<event>
 8    1  0.7311878E-012  0.9118800E+02  0.7816164E-02  0.1184000E+00
        -11   -1    0    0    0    0  0.00000000000E+00  0.00000000000E+00  0.45593999997E+02  0.45594000000E+02  0.51100000000E-03 0. -1.
         11   -1    0    0    0    0 -0.00000000000E+00 -0.00000000000E+00 -0.45593999997E+02  0.45594000000E+02  0.51100000000E-03 0.  1.
         23    2    1    2    0    0  0.00000000000E+00  0.00000000000E+00 -0.17763568394E-14  0.91188000000E+02  0.91188000000E+02 0.  0.
    9900012    2    3    3    0    0 -0.26868365307E+02  0.27366642378E+02  0.13502734266E+02  0.50528855863E+02  0.29999987881E+02 0.  0.
        -12    1    3    3    0    0  0.26868365307E+02 -0.27366642378E+02 -0.13502734266E+02  0.40659144137E+02  0.00000000000E+00 0.  1.
         11    1    4    4    0    0 -0.16930899404E+02  0.10608267839E+02  0.13907382971E+01  0.20028101618E+02  0.51100000000E-03 0.  1.
        -11    1    4    4    0    0 -0.10470552018E+02  0.21117716253E+02  0.96866760177E+01  0.25483761336E+02  0.51100000000E-03 0. -1.
        -12    1    4    4    0    0  0.53308611505E+00 -0.43593417134E+01  0.24253199512E+01  0.50169929087E+01  0.00000000000E+00 0.  1.
</event>
<event>
 8    1  0.7311878E-012  0.9118800E+02  0.7816164E-02  0.1184000E+00
        -11   -1    0    0    0    0  0.00000000000E+00  0.00000000000E+00  0.45593999997E+02  0.45594000000E+02  0.51100000000E-03 0. -1.
         11   -1    0    0    0    0 -0.00000000000E+00 -0.00000000000E+00 -0.45593999997E+02  0.45594000000E+02  0.51100000000E-03 0.  1.
         23    2    1    2    0    0  0.00000000000E+00 -0.35527136788E-14  0.13322676296E-14  0.91188000000E+02  0.91188000000E+02 0.  0.
    9900012    2    3    3    0    0  0.33907779540E+02  0.22406041059E+02  0.11821787691E+01  0.50528859135E+02  0.29999997826E+02 0.  0.
         12    1    3    3    0    0 -0.33907779540E+02 -0.22406041059E+02 -0.11821787691E+01  0.40659140865E+02  0.00000000000E+00 0. -1.
         11    1    4    4    0    0 -0.20705132678E+01  0.61797205562E+01  0.33975710537E+01  0.73497932400E+01  0.51100000000E-03 0. -1.
        -11    1    4    4    0    0  0.80371701241E+00 -0.59376586003E+00  0.36200991867E+01  0.37554809699E+01  0.51100000000E-03 0.  1.
        -12    1    4    4    0    0  0.35174575795E+02  0.16820086362E+02 -0.58354914713E+01  0.39423584925E+02  0.00000000000E+00 0.  1.
</event>
<event>
 8    1  0.7414228E-012  0.9118800E+02  0.7816164E-02  0.1184000E+00
        -11   -1    0    0    0    0  0.00000000000E+00  0.00000000000E+00  0.45593999997E+02  0.45594000000E+02  0.51100000000E-03 0. -1.
         11   -1    0    0    0    0 -0.00000000000E+00 -0.00000000000E+00 -0.45593999997E+02  0.45594000000E+02  0.51100000000E-03 0.  1.
         23    2    1    2    0    0  0.44408920985E-15  0.35527136788E-14  0.00000000000E+00  0.91188000000E+02  0.91188000000E+02 0.  0.
    9900012    2    3    3    0    0  0.25533027445E+01  0.27252033042E+02  0.30066149743E+02  0.50528855639E+02  0.29999987199E+02 0.  0.
        -12    1    3    3    0    0 -0.25533027445E+01 -0.27252033042E+02 -0.30066149743E+02  0.40659144361E+02  0.00000000000E+00 0.  1.
         11    1    4    4    0    0  0.37196239069E+01  0.23752489595E+02  0.28895716733E+02  0.37589610396E+02  0.51100000000E-03 0. -1.
        -11    1    4    4    0    0  0.18280106301E+01  0.75484772382E+01 -0.10917183882E-01  0.77666756676E+01  0.51100000000E-03 0.  1.
        -12    1    4    4    0    0 -0.29943317925E+01 -0.40489337910E+01  0.11813501940E+01  0.51725695750E+01  0.00000000000E+00 0.  1.
</event>
<event>
 8    1  0.7311878E-012  0.9118800E+02  0.7816164E-02  0.1184000E+00
        -11   -1    0    0    0    0  0.00000000000E+00  0.00000000000E+00  0.45593999997E+02  0.45594000000E+02  0.51100000000E-03 0.  1.
         11   -1    0    0    0    0 -0.00000000000E+00 -0.00000000000E+00 -0.45593999997E+02  0.45594000000E+02  0.51100000000E-03 0. -1.
         23    2    1    2    0    0  0.00000000000E+00 -0.71054273576E-14 -0.17763568394E-14  0.91188000000E+02  0.91188000000E+02 0.  0.
    9900012    2    3    3    0    0 -0.24494641249E+02  0.29977263185E+02  0.12431503904E+02  0.50528855305E+02  0.29999986186E+02 0.  0.
        -12    1    3    3    0    0  0.24494641249E+02 -0.29977263185E+02 -0.12431503904E+02  0.40659144695E+02  0.00000000000E+00 0.  1.
         11    1    4    4    0    0 -0.14241227417E+02  0.24540545364E+02  0.62545378981E+01  0.29054606686E+02  0.51100000000E-03 0.  1.
        -11    1    4    4    0    0 -0.61445122968E+01  0.31747013738E+01 -0.55347831088E+01  0.88581930720E+01  0.51100000000E-03 0. -1.
        -12    1    4    4    0    0 -0.41089015357E+01  0.22620164466E+01  0.11711749115E+02  0.12616055547E+02  0.00000000000E+00 0.  1.
</event>
<event>
 8    1  0.7635926E-012  0.9118800E+02  0.7816164E-02  0.1184000E+00
        -11   -1    0    0    0    0  0.00000000000E+00  0.00000000000E+00  0.45593999997E+02  0.45594000000E+02  0.51100000000E-03 0. -1.
         11   -1    0    0    0    0 -0.00000000000E+00 -0.00000000000E+00 -0.45593999997E+02  0.45594000000E+02  0.51100000000E-03 0.  1.
         23    2    1    2    0    0 -0.17763568394E-14  0.88817841970E-15  0.00000000000E+00  0.91188000000E+02  0.91188000000E+02 0.  0.
    9900012    2    3    3    0    0 -0.12596569978E+02  0.32410999685E+01 -0.38522561537E+02  0.50528855253E+02  0.29999986026E+02 0.  0.
         12    1    3    3    0    0  0.12596569978E+02 -0.32410999685E+01  0.38522561537E+02  0.40659144747E+02  0.00000000000E+00 0. -1.
         11    1    4    4    0    0  0.32519430579E+01  0.25300919818E+01 -0.81006130328E+00  0.41991307034E+01  0.51100000000E-03 0. -1.
        -11    1    4    4    0    0 -0.95146749169E+01  0.55536558381E+01 -0.40529357958E+01  0.11738757207E+02  0.51100000000E-03 0.  1.
        -12    1    4    4    0    0 -0.63338381191E+01 -0.48426478514E+01 -0.33659564438E+02  0.34590967342E+02  0.00000000000E+00 0.  1.
</event>
<event>
 8    1  0.7311878E-012  0.9118800E+02  0.7816164E-02  0.1184000E+00
        -11   -1    0    0    0    0  0.00000000000E+00  0.00000000000E+00  0.45593999997E+02  0.45594000000E+02  0.51100000000E-03 0. -1.
         11   -1    0    0    0    0 -0.00000000000E+00 -0.00000000000E+00 -0.45593999997E+02  0.45594000000E+02  0.51100000000E-03 0.  1.
         23    2    1    2    0    0 -0.17763568394E-14  0.00000000000E+00  0.00000000000E+00  0.91188000000E+02  0.91188000000E+02 0.  0.
    9900012    2    3    3    0    0  0.91529955340E+01 -0.21899892590E+02  0.33011862819E+02  0.50528859460E+02  0.29999998814E+02 0.  0.
        -12    1    3    3    0    0 -0.91529955340E+01  0.21899892590E+02 -0.33011862819E+02  0.40659140540E+02  0.00000000000E+00 0.  1.
         11    1    4    4    0    0  0.58409288040E+01 -0.80754031760E+01  0.43600892516E+01  0.10878371399E+02  0.51100000000E-03 0. -1.
        -11    1    4    4    0    0 -0.49946234130E+01 -0.17568584753E+02  0.18195370462E+02  0.25781251710E+02  0.51100000000E-03 0.  1.
         12    1    4    4    0    0  0.83066901430E+01  0.37440953388E+01  0.10456403106E+02  0.13869236350E+02  0.00000000000E+00 0. -1.
</event>
<event>
 8    1  0.7311878E-012  0.9118800E+02  0.7816164E-02  0.1184000E+00
        -11   -1    0    0    0    0  0.00000000000E+00  0.00000000000E+00  0.45593999997E+02  0.45594000000E+02  0.51100000000E-03 0. -1.
         11   -1    0    0    0    0 -0.00000000000E+00 -0.00000000000E+00 -0.45593999997E+02  0.45594000000E+02  0.51100000000E-03 0.  1.
         23    2    1    2    0    0  0.88817841970E-15  0.44408920985E-15  0.00000000000E+00  0.91188000000E+02  0.91188000000E+02 0.  0.
    9900012    2    3    3    0    0 -0.50562162472E+01  0.34704548079E+01  0.40193984491E+02  0.50528858733E+02  0.29999996604E+02 0.  0.
        -12    1    3    3    0    0  0.50562162472E+01 -0.34704548079E+01 -0.40193984491E+02  0.40659141267E+02  0.00000000000E+00 0.  1.
         11    1    4    4    0    0 -0.84069502739E+01 -0.90778102403E+01  0.16597792470E+02  0.20701936306E+02  0.51100000000E-03 0. -1.
        -11    1    4    4    0    0  0.45142256352E+01 -0.98075641251E+00  0.69418936823E+01  0.83384653494E+01  0.51100000000E-03 0.  1.
         12    1    4    4    0    0 -0.11634916085E+01  0.13529021461E+02  0.16654298339E+02  0.21488457077E+02  0.00000000000E+00 0. -1.
</event>
<event>
 8    1  0.7311878E-012  0.9118800E+02  0.7816164E-02  0.1184000E+00
        -11   -1    0    0    0    0  0.00000000000E+00  0.00000000000E+00  0.45593999997E+02  0.45594000000E+02  0.51100000000E-03 0. -1.
         11   -1    0    0    0    0 -0.00000000000E+00 -0.00000000000E+00 -0.45593999997E+02  0.45594000000E+02  0.51100000000E-03 0.  1.
         23    2    1    2    0    0  0.44408920985E-15  0.00000000000E+00  0.35527136788E-14  0.91188000000E+02  0.91188000000E+02 0.  0.
    9900012    2    3    3    0    0  0.24389360390E+01  0.27641466421E+02  0.29718120564E+02  0.50528858779E+02  0.29999996746E+02 0.  0.
        -12    1    3    3    0    0 -0.24389360390E+01 -0.27641466421E+02 -0.29718120564E+02  0.40659141221E+02  0.00000000000E+00 0.  1.
         11    1    4    4    0    0  0.32993873978E+01 -0.23217783597E+01 -0.22329884168E+01  0.46111657401E+01  0.51100000000E-03 0.  1.
        -11    1    4    4    0    0  0.54409193618E+00  0.60663432435E+01  0.16083403838E+02  0.17198035808E+02  0.51100000000E-03 0. -1.
         12    1    4    4    0    0 -0.14045432950E+01  0.23896901538E+02  0.15867705143E+02  0.28719657231E+02  0.00000000000E+00 0. -1.
</event>
<event>
 8    1  0.7311878E-012  0.9118800E+02  0.7816164E-02  0.1184000E+00
        -11   -1    0    0    0    0  0.00000000000E+00  0.00000000000E+00  0.45593999997E+02  0.45594000000E+02  0.51100000000E-03 0. -1.
         11   -1    0    0    0    0 -0.00000000000E+00 -0.00000000000E+00 -0.45593999997E+02  0.45594000000E+02  0.51100000000E-03 0.  1.
         23    2    1    2    0    0  0.17763568394E-14  0.00000000000E+00  0.00000000000E+00  0.91188000000E+02  0.91188000000E+02 0.  0.
    9900012    2    3    3    0    0  0.59898059675E+01  0.38725959065E+02 -0.10843686565E+02  0.50528890081E+02  0.30000091891E+02 0.  0.
         12    1    3    3    0    0 -0.59898059675E+01 -0.38725959065E+02  0.10843686565E+02  0.40659109919E+02  0.00000000000E+00 0. -1.
         11    1    4    4    0    0  0.28902526146E+01  0.78172726486E+00 -0.72894053583E+01  0.78803609328E+01  0.51100000000E-03 0. -1.
        -11    1    4    4    0    0  0.95167390855E+01  0.21025612433E+02 -0.72282851889E+01  0.24184557223E+02  0.51100000000E-03 0.  1.
        -12    1    4    4    0    0 -0.64171857326E+01  0.16918619367E+02  0.36740039825E+01  0.18463971926E+02  0.00000000000E+00 0.  1.
</event>
<event>
 8    1  0.7311878E-012  0.9118800E+02  0.7816164E-02  0.1184000E+00
        -11   -1    0    0    0    0  0.00000000000E+00  0.00000000000E+00  0.45593999997E+02  0.45594000000E+02  0.51100000000E-03 0.  1.
         11   -1    0    0    0    0 -0.00000000000E+00 -0.00000000000E+00 -0.45593999997E+02  0.45594000000E+02  0.51100000000E-03 0. -1.
         23    2    1    2    0    0  0.35527136788E-14  0.00000000000E+00  0.00000000000E+00  0.91188000000E+02  0.91188000000E+02 0.  0.
    9900012    2    3    3    0    0  0.26028790522E+02  0.22454863326E+02  0.21712860207E+02  0.50528842097E+02  0.29999946038E+02 0.  0.
        -12    1    3    3    0    0 -0.26028790522E+02 -0.22454863326E+02 -0.21712860207E+02  0.40659157903E+02  0.00000000000E+00 0.  1.
         11    1    4    4    0    0  0.59310808137E+01 -0.19427596389E+01 -0.44542324203E+01  0.76676085808E+01  0.51100000000E-03 0. -1.
        -11    1    4    4    0    0  0.64661942514E+00 -0.14501406624E+01  0.10125665309E+01  0.18831664457E+01  0.51100000000E-03 0.  1.
         12    1    4    4    0    0  0.19451090283E+02  0.25847763627E+02  0.25154526096E+02  0.40978067071E+02  0.00000000000E+00 0. -1.
</event>
<event>
 8    1  0.7311878E-012  0.9118800E+02  0.7816164E-02  0.1184000E+00
        -11   -1    0    0    0    0  0.00000000000E+00  0.00000000000E+00  0.45593999997E+02  0.45594000000E+02  0.51100000000E-03 0. -1.
         11   -1    0    0    0    0 -0.00000000000E+00 -0.00000000000E+00 -0.45593999997E+02  0.45594000000E+02  0.51100000000E-03 0.  1.
         23    2    1    2    0    0 -0.35527136788E-14 -0.24980018054E-15  0.00000000000E+00  0.91188000000E+02  0.91188000000E+02 0.  0.
    9900012    2    3    3    0    0  0.19867862801E+02 -0.23659114745E+00 -0.35473618618E+02  0.50528861230E+02  0.30000004195E+02 0.  0.
         12    1    3    3    0    0 -0.19867862801E+02  0.23659114745E+00  0.35473618618E+02  0.40659138770E+02  0.00000000000E+00 0. -1.
         11    1    4    4    0    0  0.67138027632E+01 -0.90858157135E+00 -0.44209470773E+01  0.80898356804E+01  0.51100000000E-03 0. -1.
        -11    1    4    4    0    0  0.12896849134E+02 -0.34606559246E+01 -0.34536320356E+02  0.37027858175E+02  0.51100000000E-03 0.  1.
         12    1    4    4    0    0  0.25721090397E+00  0.41326463485E+01  0.34836488152E+01  0.54111673748E+01  0.00000000000E+00 0. -1.
</event>
<event>
 8    1  0.7311878E-012  0.9118800E+02  0.7816164E-02  0.1184000E+00
        -11   -1    0    0    0    0  0.00000000000E+00  0.00000000000E+00  0.45593999997E+02  0.45594000000E+02  0.51100000000E-03 0. -1.
         11   -1    0    0    0    0 -0.00000000000E+00 -0.00000000000E+00 -0.45593999997E+02  0.45594000000E+02  0.51100000000E-03 0.  1.
         23    2    1    2    0    0 -0.35527136788E-14  0.53290705182E-14  0.35527136788E-14  0.91188000000E+02  0.91188000000E+02 0.  0.
    9900012    2    3    3    0    0  0.24154162616E+02 -0.11139189205E+02 -0.30751598111E+02  0.50528857188E+02  0.29999991908E+02 0.  0.
         12    1    3    3    0    0 -0.24154162616E+02  0.11139189205E+02  0.30751598111E+02  0.40659142812E+02  0.00000000000E+00 0. -1.
         11    1    4    4    0    0  0.70979629949E+01 -0.21132724158E+01  0.32643680742E+00  0.74130668573E+01  0.51100000000E-03 0. -1.
        -11    1    4    4    0    0  0.96496833116E+01 -0.16057661046E+02 -0.14693382988E+02  0.23808829668E+02  0.51100000000E-03 0.  1.
         12    1    4    4    0    0  0.74065163099E+01  0.70317442567E+01 -0.16384651931E+02  0.19306960663E+02  0.00000000000E+00 0. -1.
</event>
<event>
 8    1  0.7311878E-012  0.9118800E+02  0.7816164E-02  0.1184000E+00
        -11   -1    0    0    0    0  0.00000000000E+00  0.00000000000E+00  0.45593999997E+02  0.45594000000E+02  0.51100000000E-03 0.  1.
         11   -1    0    0    0    0 -0.00000000000E+00 -0.00000000000E+00 -0.45593999997E+02  0.45594000000E+02  0.51100000000E-03 0. -1.
         23    2    1    2    0    0  0.00000000000E+00  0.35527136788E-14  0.00000000000E+00  0.91188000000E+02  0.91188000000E+02 0.  0.
    9900012    2    3    3    0    0 -0.19825323384E+02  0.30297370371E+02  0.18498356622E+02  0.50528889134E+02  0.30000089012E+02 0.  0.
        -12    1    3    3    0    0  0.19825323384E+02 -0.30297370371E+02 -0.18498356622E+02  0.40659110866E+02  0.00000000000E+00 0.  1.
         11    1    4    4    0    0 -0.58049779257E-01  0.17747856535E+02  0.11729895552E+02  0.21273933141E+02  0.51100000000E-03 0. -1.
        -11    1    4    4    0    0 -0.38616063959E+01  0.39287943739E+01  0.94769051988E+01  0.10961713443E+02  0.51100000000E-03 0.  1.
         12    1    4    4    0    0 -0.15905667209E+02  0.86207194620E+01 -0.27084441286E+01  0.18293242550E+02  0.00000000000E+00 0. -1.
</event>
<event>
 8    1  0.7311878E-012  0.9118800E+02  0.7816164E-02  0.1184000E+00
        -11   -1    0    0    0    0  0.00000000000E+00  0.00000000000E+00  0.45593999997E+02  0.45594000000E+02  0.51100000000E-03 0. -1.
         11   -1    0    0    0    0 -0.00000000000E+00 -0.00000000000E+00 -0.45593999997E+02  0.45594000000E+02  0.51100000000E-03 0.  1.
         23    2    1    2    0    0 -0.35527136788E-14  0.00000000000E+00  0.35527136788E-14  0.91188000000E+02  0.91188000000E+02 0.  0.
    9900012    2    3    3    0    0  0.19408068617E+02 -0.26709017920E+02 -0.23730173183E+02  0.50528857302E+02  0.29999992254E+02 0.  0.
         12    1    3    3    0    0 -0.19408068617E+02  0.26709017920E+02  0.23730173183E+02  0.40659142698E+02  0.00000000000E+00 0. -1.
         11    1    4    4    0    0  0.96439748939E+01  0.94634889828E+00 -0.40393003919E+01  0.10498465407E+02  0.51100000000E-03 0. -1.
        -11    1    4    4    0    0  0.79374396557E+01 -0.69342889210E+01 -0.15605881017E+02  0.18831644477E+02  0.51100000000E-03 0.  1.
         12    1    4    4    0    0  0.18266540678E+01 -0.20721077897E+02 -0.40849917741E+01  0.21198747418E+02  0.00000000000E+00 0. -1.
</event>
<event>
 8    1  0.7311878E-012  0.9118800E+02  0.7816164E-02  0.1184000E+00
        -11   -1    0    0    0    0  0.00000000000E+00  0.00000000000E+00  0.45593999997E+02  0.45594000000E+02  0.51100000000E-03 0. -1.
         11   -1    0    0    0    0 -0.00000000000E+00 -0.00000000000E+00 -0.45593999997E+02  0.45594000000E+02  0.51100000000E-03 0.  1.
         23    2    1    2    0    0 -0.71054273576E-14  0.17763568394E-14 -0.35527136788E-14  0.91188000000E+02  0.91188000000E+02 0.  0.
    9900012    2    3    3    0    0 -0.27474894735E+02  0.11012849534E+02 -0.27874918112E+02  0.50528883491E+02  0.30000071858E+02 0.  0.
         12    1    3    3    0    0  0.27474894735E+02 -0.11012849534E+02  0.27874918112E+02  0.40659116509E+02  0.00000000000E+00 0. -1.
         11    1    4    4    0    0  0.14263659713E+01  0.48659198365E+01 -0.91089559660E+00  0.51518372246E+01  0.51100000000E-03 0. -1.
        -11    1    4    4    0    0 -0.10796907723E+02  0.23082454549E+01  0.17870162981E+01  0.11184571560E+02  0.51100000000E-03 0.  1.
         12    1    4    4    0    0 -0.18104352983E+02  0.38386842421E+01 -0.28751038814E+02  0.34192474706E+02  0.00000000000E+00 0. -1.
</event>
<event>
 8    1  0.7311878E-012  0.9118800E+02  0.7816164E-02  0.1184000E+00
        -11   -1    0    0    0    0  0.00000000000E+00  0.00000000000E+00  0.45593999997E+02  0.45594000000E+02  0.51100000000E-03 0.  1.
         11   -1    0    0    0    0 -0.00000000000E+00 -0.00000000000E+00 -0.45593999997E+02  0.45594000000E+02  0.51100000000E-03 0. -1.
         23    2    1    2    0    0  0.00000000000E+00  0.00000000000E+00  0.00000000000E+00  0.91188000000E+02  0.91188000000E+02 0.  0.
    9900012    2    3    3    0    0 -0.78784670487E+01  0.28043725913E+02 -0.28366211422E+02  0.50528895772E+02  0.30000109189E+02 0.  0.
         12    1    3    3    0    0  0.78784670487E+01 -0.28043725913E+02  0.28366211422E+02  0.40659104228E+02  0.00000000000E+00 0. -1.
         11    1    4    4    0    0  0.70958846836E+01  0.31015602220E+01 -0.15104991962E+00  0.77455840059E+01  0.51100000000E-03 0.  1.
        -11    1    4    4    0    0 -0.10133157673E+02  0.59597685003E+01 -0.61171882135E+01  0.13252158952E+02  0.51100000000E-03 0. -1.
        -12    1    4    4    0    0 -0.48411940598E+01  0.18982397191E+02 -0.22097973289E+02  0.29531152814E+02  0.00000000000E+00 0.  1.
</event>
<event>
 8    1  0.7311878E-012  0.9118800E+02  0.7816164E-02  0.1184000E+00
        -11   -1    0    0    0    0  0.00000000000E+00  0.00000000000E+00  0.45593999997E+02  0.45594000000E+02  0.51100000000E-03 0. -1.
         11   -1    0    0    0    0 -0.00000000000E+00 -0.00000000000E+00 -0.45593999997E+02  0.45594000000E+02  0.51100000000E-03 0.  1.
         23    2    1    2    0    0 -0.88817841970E-15  0.00000000000E+00  0.71054273576E-14  0.91188000000E+02  0.91188000000E+02 0.  0.
    9900012    2    3    3    0    0  0.47577635270E+01  0.17548609465E+02 -0.36367249185E+02  0.50528845788E+02  0.29999957256E+02 0.  0.
         12    1    3    3    0    0 -0.47577635270E+01 -0.17548609465E+02  0.36367249185E+02  0.40659154212E+02  0.00000000000E+00 0. -1.
         11    1    4    4    0    0 -0.11074505577E+02  0.58096768387E+01 -0.20133890537E+02  0.23701699668E+02  0.51100000000E-03 0.  1.
        -11    1    4    4    0    0  0.50469741655E+01  0.43587786778E-02 -0.19026194394E+01  0.53936933745E+01  0.51100000000E-03 0. -1.
        -12    1    4    4    0    0  0.10785294938E+02  0.11734573848E+02 -0.14330739209E+02  0.21433452745E+02  0.00000000000E+00 0.  1.
</event>
<event>
 8    1  0.7311878E-012  0.9118800E+02  0.7816164E-02  0.1184000E+00
        -11   -1    0    0    0    0  0.00000000000E+00  0.00000000000E+00  0.45593999997E+02  0.45594000000E+02  0.51100000000E-03 0. -1.
         11   -1    0    0    0    0 -0.00000000000E+00 -0.00000000000E+00 -0.45593999997E+02  0.45594000000E+02  0.51100000000E-03 0.  1.
         23    2    1    2    0    0 -0.35527136788E-14  0.88817841970E-15  0.35527136788E-14  0.91188000000E+02  0.91188000000E+02 0.  0.
    9900012    2    3    3    0    0  0.26149581619E+02  0.64193178672E+01 -0.30465696519E+02  0.50528844511E+02  0.29999953374E+02 0.  0.
         12    1    3    3    0    0 -0.26149581619E+02 -0.64193178672E+01  0.30465696519E+02  0.40659155489E+02  0.00000000000E+00 0. -1.
         11    1    4    4    0    0  0.28522161355E+01 -0.34803710593E+01  0.23131647525E+01  0.50595307122E+01  0.51100000000E-03 0. -1.
        -11    1    4    4    0    0  0.92541850184E+01 -0.44018306988E+01 -0.17447919810E+02  0.20234771059E+02  0.51100000000E-03 0.  1.
        -12    1    4    4    0    0  0.14043180465E+02  0.14301519625E+02 -0.15330941461E+02  0.25234542739E+02  0.00000000000E+00 0.  1.
</event>
<event>
 8    1  0.7311878E-012  0.9118800E+02  0.7816164E-02  0.1184000E+00
        -11   -1    0    0    0    0  0.00000000000E+00  0.00000000000E+00  0.45593999997E+02  0.45594000000E+02  0.51100000000E-03 0.  1.
         11   -1    0    0    0    0 -0.00000000000E+00 -0.00000000000E+00 -0.45593999997E+02  0.45594000000E+02  0.51100000000E-03 0. -1.
         23    2    1    2    0    0  0.35527136788E-14  0.00000000000E+00  0.00000000000E+00  0.91188000000E+02  0.91188000000E+02 0.  0.
    9900012    2    3    3    0    0  0.26254069122E+02 -0.30390297847E+02 -0.63497620359E+01  0.50528858019E+02  0.29999994436E+02 0.  0.
         12    1    3    3    0    0 -0.26254069122E+02  0.30390297847E+02  0.63497620359E+01  0.40659141981E+02  0.00000000000E+00 0. -1.
         11    1    4    4    0    0  0.10860133321E+01  0.41741461001E+00  0.54582128192E+01  0.55808375138E+01  0.51100000000E-03 0. -1.
        -11    1    4    4    0    0  0.18201225285E+02 -0.22761440665E+02 -0.12542366406E+00  0.29144184915E+02  0.51100000000E-03 0.  1.
        -12    1    4    4    0    0  0.69668305056E+01 -0.80462717918E+01 -0.11682551191E+02  0.15803835591E+02  0.00000000000E+00 0.  1.
</event>
<event>
 8    1  0.7311878E-012  0.9118800E+02  0.7816164E-02  0.1184000E+00
        -11   -1    0    0    0    0  0.00000000000E+00  0.00000000000E+00  0.45593999997E+02  0.45594000000E+02  0.51100000000E-03 0. -1.
         11   -1    0    0    0    0 -0.00000000000E+00 -0.00000000000E+00 -0.45593999997E+02  0.45594000000E+02  0.51100000000E-03 0.  1.
         23    2    1    2    0    0  0.17763568394E-14 -0.35527136788E-14  0.00000000000E+00  0.91188000000E+02  0.91188000000E+02 0.  0.
    9900012    2    3    3    0    0 -0.10556484558E+02  0.25639410274E+02  0.29737969952E+02  0.50528861024E+02  0.30000003569E+02 0.  0.
        -12    1    3    3    0    0  0.10556484558E+02 -0.25639410274E+02 -0.29737969952E+02  0.40659138976E+02  0.00000000000E+00 0.  1.
         11    1    4    4    0    0 -0.98104845671E-01  0.87370790835E+01  0.22525448798E+02  0.24160753698E+02  0.51100000000E-03 0. -1.
        -11    1    4    4    0    0 -0.43433794590E+01 -0.46428591825E+00 -0.30138667724E+01  0.53069670926E+01  0.51100000000E-03 0.  1.
        -12    1    4    4    0    0 -0.61150002529E+01  0.17366617109E+02  0.10226387926E+02  0.21061140233E+02  0.00000000000E+00 0.  1.
</event>
<event>
 8    1  0.7311878E-012  0.9118800E+02  0.7816164E-02  0.1184000E+00
        -11   -1    0    0    0    0  0.00000000000E+00  0.00000000000E+00  0.45593999997E+02  0.45594000000E+02  0.51100000000E-03 0. -1.
         11   -1    0    0    0    0 -0.00000000000E+00 -0.00000000000E+00 -0.45593999997E+02  0.45594000000E+02  0.51100000000E-03 0.  1.
         23    2    1    2    0    0 -0.17763568394E-14  0.00000000000E+00  0.35527136788E-14  0.91188000000E+02  0.91188000000E+02 0.  0.
    9900012    2    3    3    0    0 -0.22758751854E+01 -0.25010690473E+02 -0.31975840751E+02  0.50528823453E+02  0.29999889366E+02 0.  0.
         12    1    3    3    0    0  0.22758751854E+01  0.25010690473E+02  0.31975840751E+02  0.40659176547E+02  0.00000000000E+00 0. -1.
         11    1    4    4    0    0 -0.17289117083E+01 -0.66718401784E+01  0.24189809819E+01  0.73043861010E+01  0.51100000000E-03 0. -1.
        -11    1    4    4    0    0 -0.59971340507E+01  0.92913991786E+00 -0.95454504246E+01  0.11311257308E+02  0.51100000000E-03 0.  1.
         12    1    4    4    0    0  0.54501705737E+01 -0.19267990212E+02 -0.24849371308E+02  0.31913180044E+02  0.00000000000E+00 0. -1.
</event>
