<event>
 7    1  0.1202531E-011  0.5930194E+02  0.7816164E-02  0.1266605E+00
        -11   -1    0    0    0    0  0.00000000000E+00  0.00000000000E+00  0.45593999997E+02  0.45594000000E+02  0.51100000000E-03 0. -1.
         11   -1    0    0    0    0 -0.00000000000E+00 -0.00000000000E+00 -0.45593999997E+02  0.45594000000E+02  0.51100000000E-03 0.  1.
    9900012    2    1    2    0    0 -0.20670263834E+02 -0.23768509582E+02 -0.49516401798E+01  0.59301943562E+02  0.49999999150E+02 0.  0.
        -12    1    1    2    0    0  0.20670263834E+02  0.23768509582E+02  0.49516401798E+01  0.31886056438E+02  0.00000000000E+00 0.  1.
         11    1    3    3    0    0 -0.11183618072E+02 -0.32014215799E+01 -0.33306404119E+01  0.12100230540E+02  0.51100000000E-03 0. -1.
        -11    1    3    3    0    0 -0.30127927963E+01 -0.85014983771E+01 -0.21355524716E+02  0.23182123097E+02  0.51100000000E-03 0.  1.
         12    1    3    3    0    0 -0.64738529660E+01 -0.12065589625E+02  0.19734524948E+02  0.24019589925E+02  0.00000000000E+00 0. -1.
</event>
<event>
 7    1  0.1202531E-011  0.5930194E+02  0.7816164E-02  0.1266605E+00
        -11   -1    0    0    0    0  0.00000000000E+00  0.00000000000E+00  0.45593999997E+02  0.45594000000E+02  0.51100000000E-03 0. -1.
         11   -1    0    0    0    0 -0.00000000000E+00 -0.00000000000E+00 -0.45593999997E+02  0.45594000000E+02  0.51100000000E-03 0.  1.
    9900012    2    1    2    0    0 -0.20983768794E+02  0.14512795702E+02  0.19125397433E+02  0.59301943191E+02  0.49999998473E+02 0.  0.
        -12    1    1    2    0    0  0.20983768794E+02 -0.14512795702E+02 -0.19125397433E+02  0.31886056809E+02  0.00000000000E+00 0.  1.
         11    1    3    3    0    0 -0.94979835200E+01 -0.40555427292E+01  0.11040202367E+02  0.15117711015E+02  0.51100000000E-03 0. -1.
        -11    1    3    3    0    0 -0.94062770669E+01 -0.23197433163E+01 -0.11801361276E+02  0.15268640592E+02  0.51100000000E-03 0.  1.
         12    1    3    3    0    0 -0.20795082067E+01  0.20888081748E+02  0.19886556342E+02  0.28915591583E+02  0.00000000000E+00 0. -1.
</event>
<event>
 7    1  0.1202531E-011  0.5930193E+02  0.7816164E-02  0.1266605E+00
        -11   -1    0    0    0    0  0.00000000000E+00  0.00000000000E+00  0.45593999997E+02  0.45594000000E+02  0.51100000000E-03 0. -1.
         11   -1    0    0    0    0 -0.00000000000E+00 -0.00000000000E+00 -0.45593999997E+02  0.45594000000E+02  0.51100000000E-03 0.  1.
    9900012    2    1    2    0    0 -0.30283957393E+02 -0.17708161923E+01  0.98217882024E+01  0.59301931116E+02  0.49999976453E+02 0.  0.
        -12    1    1    2    0    0  0.30283957393E+02  0.17708161923E+01 -0.98217882024E+01  0.31886068884E+02  0.00000000000E+00 0.  1.
         11    1    3    3    0    0 -0.11201480941E+02  0.13173312052E+02  0.35556359869E+01  0.17653664583E+02  0.51100000000E-03 0. -1.
        -11    1    3    3    0    0  0.70523307141E+01  0.43936887476E+01  0.35114907696E+01  0.90205563575E+01  0.51100000000E-03 0.  1.
        -12    1    3    3    0    0 -0.26134807166E+02 -0.19337816992E+02  0.27546614459E+01  0.32627710176E+02  0.00000000000E+00 0.  1.
</event>
<event>
 7    1  0.1202531E-011  0.5930195E+02  0.7816164E-02  0.1266605E+00
        -11   -1    0    0    0    0  0.00000000000E+00  0.00000000000E+00  0.45593999997E+02  0.45594000000E+02  0.51100000000E-03 0.  1.
         11   -1    0    0    0    0 -0.00000000000E+00 -0.00000000000E+00 -0.45593999997E+02  0.45594000000E+02  0.51100000000E-03 0. -1.
    9900012    2    1    2    0    0  0.67184514227E+01 -0.31169943263E+02  0.13048846328E+00  0.59301953211E+02  0.50000016749E+02 0.  0.
        -12    1    1    2    0    0 -0.67184514227E+01  0.31169943263E+02 -0.13048846328E+00  0.31886046789E+02  0.00000000000E+00 0.  1.
         11    1    3    3    0    0  0.35920852316E+01 -0.26218949289E+02 -0.31663460713E+01  0.26652619492E+02  0.51100000000E-03 0. -1.
        -11    1    3    3    0    0 -0.10152116717E+02 -0.98014335058E+01  0.97065011613E+01  0.17127455668E+02  0.51100000000E-03 0.  1.
         12    1    3    3    0    0  0.13278482908E+02  0.48504395309E+01 -0.64096666268E+01  0.15521878051E+02  0.00000000000E+00 0. -1.
</event>
<event>
 7    1  0.1202531E-011  0.5930181E+02  0.7816164E-02  0.1266605E+00
        -11   -1    0    0    0    0  0.00000000000E+00  0.00000000000E+00  0.45593999997E+02  0.45594000000E+02  0.51100000000E-03 0. -1.
         11   -1    0    0    0    0 -0.00000000000E+00 -0.00000000000E+00 -0.45593999997E+02  0.45594000000E+02  0.51100000000E-03 0.  1.
    9900012    2    1    2    0    0  0.13067529803E+02 -0.50568975243E+01  0.28642563110E+02  0.59301812250E+02  0.49999759669E+02 0.  0.
        -12    1    1    2    0    0 -0.13067529803E+02  0.50568975243E+01 -0.28642563110E+02  0.31886187750E+02  0.00000000000E+00 0.  1.
         11    1    3    3    0    0  0.27242688542E+02 -0.30102469407E+01  0.17835923961E+02  0.32700853956E+02  0.51100000000E-03 0. -1.
        -11    1    3    3    0    0 -0.87979916399E+01  0.56829882673E+01  0.13233911255E+02  0.16877127122E+02  0.51100000000E-03 0.  1.
        -12    1    3    3    0    0 -0.53771670993E+01 -0.77296388509E+01 -0.24272721063E+01  0.97238311718E+01  0.00000000000E+00 0.  1.
</event>
<event>
 7    1  0.1202531E-011  0.5930194E+02  0.7816164E-02  0.1266605E+00
        -11   -1    0    0    0    0  0.00000000000E+00  0.00000000000E+00  0.45593999997E+02  0.45594000000E+02  0.51100000000E-03 0.  1.
         11   -1    0    0    0    0 -0.00000000000E+00 -0.00000000000E+00 -0.45593999997E+02  0.45594000000E+02  0.51100000000E-03 0. -1.
    9900012    2    1    2    0    0  0.12279465838E+02  0.69241305042E+01 -0.28600563100E+02  0.59301936051E+02  0.49999985453E+02 0.  0.
        -12    1    1    2    0    0 -0.12279465838E+02 -0.69241305042E+01  0.28600563100E+02  0.31886063949E+02  0.00000000000E+00 0.  1.
         11    1    3    3    0    0 -0.16227543714E+00 -0.34638565509E+01 -0.21202137797E+00  0.34741313804E+01  0.51100000000E-03 0. -1.
        -11    1    3    3    0    0 -0.77510987892E+01  0.55509694414E+01  0.89677004921E+01  0.13088638071E+02  0.51100000000E-03 0.  1.
         12    1    3    3    0    0  0.20192840064E+02  0.48370176137E+01 -0.37356242214E+02  0.42739166600E+02  0.00000000000E+00 0. -1.
</event>
<event>
 7    1  0.1202531E-011  0.5930200E+02  0.7816164E-02  0.1266605E+00
        -11   -1    0    0    0    0  0.00000000000E+00  0.00000000000E+00  0.45593999997E+02  0.45594000000E+02  0.51100000000E-03 0.  1.
         11   -1    0    0    0    0 -0.00000000000E+00 -0.00000000000E+00 -0.45593999997E+02  0.45594000000E+02  0.51100000000E-03 0. -1.
    9900012    2    1    2    0    0 -0.74235736525E+01  0.31901457440E+01 -0.30845268541E+02  0.59301998887E+02  0.50000100049E+02 0.  0.
        -12    1    1    2    0    0  0.74235736525E+01 -0.31901457440E+01  0.30845268541E+02  0.31886001113E+02  0.00000000000E+00 0.  1.
         11    1    3    3    0    0  0.10526291953E+02  0.44594154233E+01  0.28442939684E+01  0.11780459101E+02  0.51100000000E-03 0. -1.
        -11    1    3    3    0    0 -0.46155823334E+01 -0.46919418081E+01  0.37891614105E+01  0.75944494641E+01  0.51100000000E-03 0.  1.
        -12    1    3    3    0    0 -0.13334283272E+02  0.34226721288E+01 -0.37478723920E+02  0.39927090321E+02  0.00000000000E+00 0.  1.
</event>
<event>
 7    1  0.1202531E-011  0.5930202E+02  0.7816164E-02  0.1266605E+00
        -11   -1    0    0    0    0  0.00000000000E+00  0.00000000000E+00  0.45593999997E+02  0.45594000000E+02  0.51100000000E-03 0. -1.
         11   -1    0    0    0    0 -0.00000000000E+00 -0.00000000000E+00 -0.45593999997E+02  0.45594000000E+02  0.51100000000E-03 0.  1.
    9900012    2    1    2    0    0 -0.18049817663E+02  0.18168551678E+02  0.18995361767E+02  0.59302016302E+02  0.50000131810E+02 0.  0.
        -12    1    1    2    0    0  0.18049817663E+02 -0.18168551678E+02 -0.18995361767E+02  0.31885983698E+02  0.00000000000E+00 0.  1.
         11    1    3    3    0    0  0.15968524123E+01 -0.27179410645E+01  0.24562370629E+01  0.39962785223E+01  0.51100000000E-03 0. -1.
        -11    1    3    3    0    0 -0.18538131274E+02 -0.79763739077E+01 -0.30429795151E+01  0.20409423716E+02  0.51100000000E-03 0.  1.
         12    1    3    3    0    0 -0.11085388020E+01  0.28862866650E+02  0.19582104219E+02  0.34896314063E+02  0.00000000000E+00 0. -1.
</event>
<event>
 7    1  0.1202531E-011  0.5930194E+02  0.7816164E-02  0.1266605E+00
        -11   -1    0    0    0    0  0.00000000000E+00  0.00000000000E+00  0.45593999997E+02  0.45594000000E+02  0.51100000000E-03 0.  1.
         11   -1    0    0    0    0 -0.00000000000E+00 -0.00000000000E+00 -0.45593999997E+02  0.45594000000E+02  0.51100000000E-03 0. -1.
    9900012    2    1    2    0    0 -0.21225913230E+02  0.22553396267E+02 -0.75845618666E+01  0.59301942634E+02  0.49999997458E+02 0.  0.
        -12    1    1    2    0    0  0.21225913230E+02 -0.22553396267E+02  0.75845618666E+01  0.31886057366E+02  0.00000000000E+00 0.  1.
         11    1    3    3    0    0 -0.13294274736E+02  0.15286509621E+02 -0.12294849508E+02  0.23697646335E+02  0.51100000000E-03 0. -1.
        -11    1    3    3    0    0 -0.14036411029E+02 -0.77447804477E+01 -0.49000780459E+01  0.16763449044E+02  0.51100000000E-03 0.  1.
        -12    1    3    3    0    0  0.61047725345E+01  0.15011667093E+02  0.96103656870E+01  0.18840847254E+02  0.00000000000E+00 0.  1.
</event>
<event>
 7    1  0.1202531E-011  0.5930195E+02  0.7816164E-02  0.1266605E+00
        -11   -1    0    0    0    0  0.00000000000E+00  0.00000000000E+00  0.45593999997E+02  0.45594000000E+02  0.51100000000E-03 0.  1.
         11   -1    0    0    0    0 -0.00000000000E+00 -0.00000000000E+00 -0.45593999997E+02  0.45594000000E+02  0.51100000000E-03 0. -1.
    9900012    2    1    2    0    0  0.92056097734E+01 -0.24664224005E+02 -0.17990358778E+02  0.59301949664E+02  0.50000010279E+02 0.  0.
        -12    1    1    2    0    0 -0.92056097734E+01  0.24664224005E+02  0.17990358778E+02  0.31886050336E+02  0.00000000000E+00 0.  1.
         11    1    3    3    0    0  0.14553373706E+02 -0.30116625627E+02  0.12043670190E+01  0.33470320069E+02  0.51100000000E-03 0. -1.
        -11    1    3    3    0    0  0.18497727583E+01  0.55855006885E-01 -0.16266003448E+02  0.16370939114E+02  0.51100000000E-03 0.  1.
        -12    1    3    3    0    0 -0.71975366906E+01  0.53965466147E+01 -0.29287223489E+01  0.94606904808E+01  0.00000000000E+00 0.  1.
</event>
<event>
 7    1  0.1202531E-011  0.5930196E+02  0.7816164E-02  0.1266605E+00
        -11   -1    0    0    0    0  0.00000000000E+00  0.00000000000E+00  0.45593999997E+02  0.45594000000E+02  0.51100000000E-03 0. -1.
         11   -1    0    0    0    0 -0.00000000000E+00 -0.00000000000E+00 -0.45593999997E+02  0.45594000000E+02  0.51100000000E-03 0.  1.
    9900012    2    1    2    0    0  0.67212593424E+01  0.22394086394E+02  0.21680608976E+02  0.59301964841E+02  0.50000037958E+02 0.  0.
        -12    1    1    2    0    0 -0.67212593424E+01 -0.22394086394E+02 -0.21680608976E+02  0.31886035159E+02  0.00000000000E+00 0.  1.
         11    1    3    3    0    0 -0.69577553783E+01  0.67629518540E+00  0.10765228329E+02  0.12835804467E+02  0.51100000000E-03 0. -1.
        -11    1    3    3    0    0  0.42808209284E+01  0.37790390669E+01  0.22446775259E+02  0.23161698640E+02  0.51100000000E-03 0.  1.
        -12    1    3    3    0    0  0.93981937923E+01  0.17938752142E+02 -0.11531394612E+02  0.23304461733E+02  0.00000000000E+00 0.  1.
</event>
<event>
 7    1  0.1202531E-011  0.5930193E+02  0.7816164E-02  0.1266605E+00
        -11   -1    0    0    0    0  0.00000000000E+00  0.00000000000E+00  0.45593999997E+02  0.45594000000E+02  0.51100000000E-03 0. -1.
         11   -1    0    0    0    0 -0.00000000000E+00 -0.00000000000E+00 -0.45593999997E+02  0.45594000000E+02  0.51100000000E-03 0.  1.
    9900012    2    1    2    0    0  0.26843020070E+02 -0.82214919939E+01  0.15118890394E+02  0.59301929314E+02  0.49999973165E+02 0.  0.
        -12    1    1    2    0    0 -0.26843020070E+02  0.82214919939E+01 -0.15118890394E+02  0.31886070686E+02  0.00000000000E+00 0.  1.
         11    1    3    3    0    0 -0.22230757216E+01  0.96691705114E+01 -0.68864537895E+01  0.12077175584E+02  0.51100000000E-03 0. -1.
        -11    1    3    3    0    0  0.19658846049E+02  0.20205625182E+01  0.10303565444E+02  0.22287134450E+02  0.51100000000E-03 0.  1.
         12    1    3    3    0    0  0.94072497425E+01 -0.19911225023E+02  0.11701778740E+02  0.24937619279E+02  0.00000000000E+00 0. -1.
</event>
<event>
 7    1  0.1202531E-011  0.5930194E+02  0.7816164E-02  0.1266605E+00
        -11   -1    0    0    0    0  0.00000000000E+00  0.00000000000E+00  0.45593999997E+02  0.45594000000E+02  0.51100000000E-03 0.  1.
         11   -1    0    0    0    0 -0.00000000000E+00 -0.00000000000E+00 -0.45593999997E+02  0.45594000000E+02  0.51100000000E-03 0. -1.
    9900012    2    1    2    0    0  0.95318183605E+01  0.28983737460E+02  0.92632800762E+01  0.59301937901E+02  0.49999988827E+02 0.  0.
        -12    1    1    2    0    0 -0.95318183605E+01 -0.28983737460E+02 -0.92632800762E+01  0.31886062099E+02  0.00000000000E+00 0.  1.
         11    1    3    3    0    0  0.78467155815E+01  0.97976297285E+01  0.24266913377E+01  0.12784886578E+02  0.51100000000E-03 0. -1.
        -11    1    3    3    0    0  0.16494863003E+02 -0.50314033149E+01  0.54910614392E+01  0.18098267343E+02  0.51100000000E-03 0.  1.
        -12    1    3    3    0    0 -0.14809760224E+02  0.24217511046E+02  0.13455272993E+01  0.28418783980E+02  0.00000000000E+00 0.  1.
</event>
<event>
 7    1  0.1202531E-011  0.5930196E+02  0.7816164E-02  0.1266605E+00
        -11   -1    0    0    0    0  0.00000000000E+00  0.00000000000E+00  0.45593999997E+02  0.45594000000E+02  0.51100000000E-03 0.  1.
         11   -1    0    0    0    0 -0.00000000000E+00 -0.00000000000E+00 -0.45593999997E+02  0.45594000000E+02  0.51100000000E-03 0. -1.
    9900012    2    1    2    0    0 -0.19970514101E+02  0.12628223500E+02 -0.21410892974E+02  0.59301956028E+02  0.50000021885E+02 0.  0.
        -12    1    1    2    0    0  0.19970514101E+02 -0.12628223500E+02  0.21410892974E+02  0.31886043972E+02  0.00000000000E+00 0.  1.
         11    1    3    3    0    0  0.10474634842E+02  0.86301427881E+01 -0.11390861609E+02  0.17718607961E+02  0.51100000000E-03 0. -1.
        -11    1    3    3    0    0  0.25118310501E+01 -0.54992948818E+01 -0.18970028939E+01  0.63364153637E+01  0.51100000000E-03 0.  1.
        -12    1    3    3    0    0 -0.32956979993E+02  0.94973755939E+01 -0.81230284711E+01  0.35246932703E+02  0.00000000000E+00 0.  1.
</event>
<event>
 7    1  0.1202531E-011  0.5930198E+02  0.7816164E-02  0.1266605E+00
        -11   -1    0    0    0    0  0.00000000000E+00  0.00000000000E+00  0.45593999997E+02  0.45594000000E+02  0.51100000000E-03 0. -1.
         11   -1    0    0    0    0 -0.00000000000E+00 -0.00000000000E+00 -0.45593999997E+02  0.45594000000E+02  0.51100000000E-03 0.  1.
    9900012    2    1    2    0    0 -0.15916584158E+02  0.24717656868E+02  0.12345774382E+02  0.59301978652E+02  0.50000063147E+02 0.  0.
        -12    1    1    2    0    0  0.15916584158E+02 -0.24717656868E+02 -0.12345774382E+02  0.31886021348E+02  0.00000000000E+00 0.  1.
         11    1    3    3    0    0  0.96441807547E+01 -0.29509429469E+00  0.18473133259E+00  0.96504626313E+01  0.51100000000E-03 0. -1.
        -11    1    3    3    0    0 -0.25296723721E+02  0.28449652685E+02  0.11214457209E+01  0.38086278496E+02  0.51100000000E-03 0.  1.
         12    1    3    3    0    0 -0.26404119187E+00 -0.34369015228E+01  0.11039597329E+02  0.11565237525E+02  0.00000000000E+00 0. -1.
</event>
<event>
 7    1  0.1202531E-011  0.5930192E+02  0.7816164E-02  0.1266605E+00
        -11   -1    0    0    0    0  0.00000000000E+00  0.00000000000E+00  0.45593999997E+02  0.45594000000E+02  0.51100000000E-03 0. -1.
         11   -1    0    0    0    0 -0.00000000000E+00 -0.00000000000E+00 -0.45593999997E+02  0.45594000000E+02  0.51100000000E-03 0.  1.
    9900012    2    1    2    0    0  0.67397437107E+01 -0.18712033239E+02  0.24923039295E+02  0.59301918068E+02  0.49999952656E+02 0.  0.
        -12    1    1    2    0    0 -0.67397437107E+01  0.18712033239E+02 -0.24923039295E+02  0.31886081932E+02  0.00000000000E+00 0.  1.
         11    1    3    3    0    0  0.87161390488E+01 -0.18138489902E+01  0.15327324683E+02  0.17725349370E+02  0.51100000000E-03 0. -1.
        -11    1    3    3    0    0  0.16991396283E+02 -0.11596653015E+02  0.69014175060E+01  0.21698374885E+02  0.51100000000E-03 0.  1.
         12    1    3    3    0    0 -0.18967791621E+02 -0.53015312340E+01  0.26942971063E+01  0.19878193814E+02  0.00000000000E+00 0. -1.
</event>
<event>
 7    1  0.1202531E-011  0.5930193E+02  0.7816164E-02  0.1266605E+00
        -11   -1    0    0    0    0  0.00000000000E+00  0.00000000000E+00  0.45593999997E+02  0.45594000000E+02  0.51100000000E-03 0. -1.
         11   -1    0    0    0    0 -0.00000000000E+00 -0.00000000000E+00 -0.45593999997E+02  0.45594000000E+02  0.51100000000E-03 0.  1.
    9900012    2    1    2    0    0  0.26543802576E+01  0.20192639103E+02  0.24534322839E+02  0.59301930853E+02  0.49999975972E+02 0.  0.
        -12    1    1    2    0    0 -0.26543802576E+01 -0.20192639103E+02 -0.24534322839E+02  0.31886069147E+02  0.00000000000E+00 0.  1.
         11    1    3    3    0    0 -0.50900126741E+01 -0.38524004118E+00  0.19479170111E+02  0.20136899150E+02  0.51100000000E-03 0. -1.
        -11    1    3    3    0    0 -0.16417559371E+01  0.95066541172E+01  0.17541070021E+02  0.20019015280E+02  0.51100000000E-03 0.  1.
        -12    1    3    3    0    0  0.93861488688E+01  0.11071225027E+02 -0.12485917293E+02  0.19146016422E+02  0.00000000000E+00 0.  1.
</event>
<event>
 7    1  0.1202531E-011  0.5930192E+02  0.7816164E-02  0.1266605E+00
        -11   -1    0    0    0    0  0.00000000000E+00  0.00000000000E+00  0.45593999997E+02  0.45594000000E+02  0.51100000000E-03 0.  1.
         11   -1    0    0    0    0 -0.00000000000E+00 -0.00000000000E+00 -0.45593999997E+02  0.45594000000E+02  0.51100000000E-03 0. -1.
    9900012    2    1    2    0    0  0.26799016219E+02  0.80425147644E+01 -0.15292250019E+02  0.59301918010E+02  0.49999952550E+02 0.  0.
        -12    1    1    2    0    0 -0.26799016219E+02 -0.80425147644E+01  0.15292250019E+02  0.31886081990E+02  0.00000000000E+00 0.  1.
         11    1    3    3    0    0  0.13670292296E+02  0.15271991494E+01  0.20848018868E+01  0.13912427102E+02  0.51100000000E-03 0. -1.
        -11    1    3    3    0    0  0.44537362737E+00  0.13334022656E+02  0.84691256317E+01  0.15802550651E+02  0.51100000000E-03 0.  1.
         12    1    3    3    0    0  0.12683350295E+02 -0.68187070411E+01 -0.25846177538E+02  0.29586940256E+02  0.00000000000E+00 0. -1.
</event>
<event>
 7    1  0.1202531E-011  0.5930191E+02  0.7816164E-02  0.1266605E+00
        -11   -1    0    0    0    0  0.00000000000E+00  0.00000000000E+00  0.45593999997E+02  0.45594000000E+02  0.51100000000E-03 0.  1.
         11   -1    0    0    0    0 -0.00000000000E+00 -0.00000000000E+00 -0.45593999997E+02  0.45594000000E+02  0.51100000000E-03 0. -1.
    9900012    2    1    2    0    0 -0.18094443706E+02  0.97295032732E+01 -0.24385460036E+02  0.59301909174E+02  0.49999936436E+02 0.  0.
        -12    1    1    2    0    0  0.18094443706E+02 -0.97295032732E+01  0.24385460036E+02  0.31886090826E+02  0.00000000000E+00 0.  1.
         11    1    3    3    0    0 -0.99420116861E+01  0.22039066490E+02 -0.27180440713E+01  0.24330059843E+02  0.51100000000E-03 0. -1.
        -11    1    3    3    0    0  0.47648810853E+01  0.34045946038E+01 -0.94177812681E+00  0.59314671435E+01  0.51100000000E-03 0.  1.
         12    1    3    3    0    0 -0.12917313105E+02 -0.15714157820E+02 -0.20725637838E+02  0.29040382188E+02  0.00000000000E+00 0. -1.
</event>
<event>
 7    1  0.1202531E-011  0.5930193E+02  0.7816164E-02  0.1266605E+00
        -11   -1    0    0    0    0  0.00000000000E+00  0.00000000000E+00  0.45593999997E+02  0.45594000000E+02  0.51100000000E-03 0.  1.
         11   -1    0    0    0    0 -0.00000000000E+00 -0.00000000000E+00 -0.45593999997E+02  0.45594000000E+02  0.51100000000E-03 0. -1.
    9900012    2    1    2    0    0  0.13096890344E+02  0.18190370148E+02 -0.22678260552E+02  0.59301927735E+02  0.49999970286E+02 0.  0.
        -12    1    1    2    0    0 -0.13096890344E+02 -0.18190370148E+02  0.22678260552E+02  0.31886072265E+02  0.00000000000E+00 0.  1.
         11    1    3    3    0    0  0.74235430390E+01 -0.60800834199E+01 -0.12265215440E+02  0.15572794087E+02  0.51100000000E-03 0. -1.
        -11    1    3    3    0    0  0.18212676255E+02  0.17107542228E+02  0.14656336588E+01  0.25030334790E+02  0.51100000000E-03 0.  1.
         12    1    3    3    0    0 -0.12539328949E+02  0.71629113405E+01 -0.11878678771E+02  0.18698798857E+02  0.00000000000E+00 0. -1.
</event>
<event>
 7    1  0.1202531E-011  0.5930194E+02  0.7816164E-02  0.1266605E+00
        -11   -1    0    0    0    0  0.00000000000E+00  0.00000000000E+00  0.45593999997E+02  0.45594000000E+02  0.51100000000E-03 0.  1.
         11   -1    0    0    0    0 -0.00000000000E+00 -0.00000000000E+00 -0.45593999997E+02  0.45594000000E+02  0.51100000000E-03 0. -1.
    9900012    2    1    2    0    0  0.31770561998E+02 -0.51656064785E+00  0.26618441369E+01  0.59301939429E+02  0.49999991612E+02 0.  0.
        -12    1    1    2    0    0 -0.31770561998E+02  0.51656064785E+00 -0.26618441369E+01  0.31886060571E+02  0.00000000000E+00 0.  1.
         11    1    3    3    0    0  0.89936978114E+01  0.10487571249E+02 -0.69899098862E+01  0.15483364993E+02  0.51100000000E-03 0. -1.
        -11    1    3    3    0    0 -0.91468644007E+01 -0.22123428570E+01  0.40090908273E+01  0.10228997937E+02  0.51100000000E-03 0.  1.
        -12    1    3    3    0    0  0.31923728587E+02 -0.87917890395E+01  0.56426631958E+01  0.33589576498E+02  0.00000000000E+00 0.  1.
</event>
<event>
 7    1  0.1202531E-011  0.5930195E+02  0.7816164E-02  0.1266605E+00
        -11   -1    0    0    0    0  0.00000000000E+00  0.00000000000E+00  0.45593999997E+02  0.45594000000E+02  0.51100000000E-03 0.  1.
         11   -1    0    0    0    0 -0.00000000000E+00 -0.00000000000E+00 -0.45593999997E+02  0.45594000000E+02  0.51100000000E-03 0. -1.
    9900012    2    1    2    0    0 -0.18266967285E+02  0.25714113451E+02  0.46714842329E+01  0.59301945222E+02  0.50000002179E+02 0.  0.
        -12    1    1    2    0    0  0.18266967285E+02 -0.25714113451E+02 -0.46714842329E+01  0.31886054778E+02  0.00000000000E+00 0.  1.
         11    1    3    3    0    0 -0.14403942267E+00 -0.51276127338E+01 -0.16521785240E+01  0.53891422174E+01  0.51100000000E-03 0. -1.
        -11    1    3    3    0    0 -0.64669291187E+01 -0.63231511008E+01  0.11489033272E+02  0.14621945762E+02  0.51100000000E-03 0.  1.
         12    1    3    3    0    0 -0.11655998743E+02  0.37164877285E+02 -0.51653705152E+01  0.39290857243E+02  0.00000000000E+00 0. -1.
</event>
<event>
 7    1  0.1202531E-011  0.5930195E+02  0.7816164E-02  0.1266605E+00
        -11   -1    0    0    0    0  0.00000000000E+00  0.00000000000E+00  0.45593999997E+02  0.45594000000E+02  0.51100000000E-03 0.  1.
         11   -1    0    0    0    0 -0.00000000000E+00 -0.00000000000E+00 -0.45593999997E+02  0.45594000000E+02  0.51100000000E-03 0. -1.
    9900012    2    1    2    0    0 -0.14985162181E+02 -0.20020978712E+02 -0.19781947201E+02  0.59301951182E+02  0.50000013047E+02 0.  0.
        -12    1    1    2    0    0  0.14985162181E+02  0.20020978712E+02  0.19781947201E+02  0.31886048818E+02  0.00000000000E+00 0.  1.
         11    1    3    3    0    0  0.29325969738E+01  0.79553700602E+01 -0.26034166472E+01  0.88693751925E+01  0.51100000000E-03 0.  1.
        -11    1    3    3    0    0 -0.17646282511E+01 -0.23825781765E+02  0.31945080903E+01  0.24103665111E+02  0.51100000000E-03 0. -1.
         12    1    3    3    0    0 -0.16153130903E+02 -0.41505670078E+01 -0.20373038644E+02  0.26328910879E+02  0.00000000000E+00 0. -1.
</event>
<event>
 7    1  0.1202531E-011  0.5930194E+02  0.7816164E-02  0.1266605E+00
        -11   -1    0    0    0    0  0.00000000000E+00  0.00000000000E+00  0.45593999997E+02  0.45594000000E+02  0.51100000000E-03 0.  1.
         11   -1    0    0    0    0 -0.00000000000E+00 -0.00000000000E+00 -0.45593999997E+02  0.45594000000E+02  0.51100000000E-03 0. -1.
    9900012    2    1    2    0    0 -0.11218221893E+02 -0.10317883462E+02 -0.28007380752E+02  0.59301943514E+02  0.49999999064E+02 0.  0.
        -12    1    1    2    0    0  0.11218221893E+02  0.10317883462E+02  0.28007380752E+02  0.31886056486E+02  0.00000000000E+00 0.  1.
         11    1    3    3    0    0  0.36772465324E+01 -0.10725452915E+02  0.81734443753E+01  0.13977219878E+02  0.51100000000E-03 0.  1.
        -11    1    3    3    0    0 -0.11700920797E+02  0.92263436290E+00 -0.31728551273E+01  0.12158528348E+02  0.51100000000E-03 0. -1.
         12    1    3    3    0    0 -0.31945476292E+01 -0.51506490990E+00 -0.33007970000E+02  0.33166195289E+02  0.00000000000E+00 0. -1.
</event>
<event>
 7    1  0.1202531E-011  0.5930197E+02  0.7816164E-02  0.1266605E+00
        -11   -1    0    0    0    0  0.00000000000E+00  0.00000000000E+00  0.45593999997E+02  0.45594000000E+02  0.51100000000E-03 0. -1.
         11   -1    0    0    0    0 -0.00000000000E+00 -0.00000000000E+00 -0.45593999997E+02  0.45594000000E+02  0.51100000000E-03 0.  1.
    9900012    2    1    2    0    0 -0.23094854092E+02  0.32786485631E+01  0.21739296766E+02  0.59301970993E+02  0.50000049179E+02 0.  0.
        -12    1    1    2    0    0  0.23094854092E+02 -0.32786485631E+01 -0.21739296766E+02  0.31886029007E+02  0.00000000000E+00 0.  1.
         11    1    3    3    0    0 -0.14208671011E+02 -0.10102747864E+02  0.23746155064E+02  0.29458983806E+02  0.51100000000E-03 0. -1.
        -11    1    3    3    0    0 -0.68045440146E+01 -0.82898208630E+00  0.93076648330E+01  0.11559483356E+02  0.51100000000E-03 0.  1.
        -12    1    3    3    0    0 -0.20816390669E+01  0.14210378513E+02 -0.11314523131E+02  0.18283503832E+02  0.00000000000E+00 0.  1.
</event>
<event>
 7    1  0.1202531E-011  0.5930195E+02  0.7816164E-02  0.1266605E+00
        -11   -1    0    0    0    0  0.00000000000E+00  0.00000000000E+00  0.45593999997E+02  0.45594000000E+02  0.51100000000E-03 0.  1.
         11   -1    0    0    0    0 -0.00000000000E+00 -0.00000000000E+00 -0.45593999997E+02  0.45594000000E+02  0.51100000000E-03 0. -1.
    9900012    2    1    2    0    0  0.30125352979E+02 -0.28329574923E+01 -0.10057730870E+02  0.59301945203E+02  0.50000002144E+02 0.  0.
        -12    1    1    2    0    0 -0.30125352979E+02  0.28329574923E+01  0.10057730870E+02  0.31886054797E+02  0.00000000000E+00 0.  1.
         11    1    3    3    0    0  0.67584954919E+01  0.10009625552E+02 -0.47460642772E-01  0.12077753011E+02  0.51100000000E-03 0. -1.
        -11    1    3    3    0    0 -0.58232952380E+01 -0.12724459093E+02  0.44020447608E+01  0.14669717959E+02  0.51100000000E-03 0.  1.
         12    1    3    3    0    0  0.29190152725E+02 -0.11812395117E+00 -0.14412314988E+02  0.32554474234E+02  0.00000000000E+00 0. -1.
</event>
<event>
 7    1  0.1202531E-011  0.5930194E+02  0.7816164E-02  0.1266605E+00
        -11   -1    0    0    0    0  0.00000000000E+00  0.00000000000E+00  0.45593999997E+02  0.45594000000E+02  0.51100000000E-03 0.  1.
         11   -1    0    0    0    0 -0.00000000000E+00 -0.00000000000E+00 -0.45593999997E+02  0.45594000000E+02  0.51100000000E-03 0. -1.
    9900012    2    1    2    0    0 -0.74130841848E+01 -0.24577281496E+02 -0.18913600000E+02  0.59301939600E+02  0.49999991925E+02 0.  0.
        -12    1    1    2    0    0  0.74130841848E+01  0.24577281496E+02  0.18913600000E+02  0.31886060400E+02  0.00000000000E+00 0.  1.
         11    1    3    3    0    0 -0.13757315485E+02 -0.15291164628E+02 -0.16232613333E+02  0.26202694154E+02  0.51100000000E-03 0. -1.
        -11    1    3    3    0    0 -0.86596229375E+01  0.67871988888E+01 -0.85626104170E+00  0.11035774617E+02  0.51100000000E-03 0.  1.
        -12    1    3    3    0    0  0.15003854237E+02 -0.16073315757E+02 -0.18247256246E+01  0.22063470829E+02  0.00000000000E+00 0.  1.
</event>
<event>
 7    1  0.1202531E-011  0.5930202E+02  0.7816164E-02  0.1266605E+00
        -11   -1    0    0    0    0  0.00000000000E+00  0.00000000000E+00  0.45593999997E+02  0.45594000000E+02  0.51100000000E-03 0.  1.
         11   -1    0    0    0    0 -0.00000000000E+00 -0.00000000000E+00 -0.45593999997E+02  0.45594000000E+02  0.51100000000E-03 0. -1.
    9900012    2    1    2    0    0 -0.12707356206E+02 -0.29130739669E+02  0.25766370740E+01  0.59302016339E+02  0.50000131878E+02 0.  0.
        -12    1    1    2    0    0  0.12707356206E+02  0.29130739669E+02 -0.25766370740E+01  0.31885983661E+02  0.00000000000E+00 0.  1.
         11    1    3    3    0    0 -0.16411093318E+02 -0.23206403741E+02 -0.40657435545E-02  0.28422898784E+02  0.51100000000E-03 0. -1.
        -11    1    3    3    0    0 -0.97915252845E+01 -0.57985563669E+01 -0.78479835310E+01  0.13823460822E+02  0.51100000000E-03 0.  1.
        -12    1    3    3    0    0  0.13495262396E+02 -0.12577956137E+00  0.10428686349E+02  0.17055656733E+02  0.00000000000E+00 0.  1.
</event>
<event>
 7    1  0.1202531E-011  0.5930194E+02  0.7816164E-02  0.1266605E+00
        -11   -1    0    0    0    0  0.00000000000E+00  0.00000000000E+00  0.45593999997E+02  0.45594000000E+02  0.51100000000E-03 0.  1.
         11   -1    0    0    0    0 -0.00000000000E+00 -0.00000000000E+00 -0.45593999997E+02  0.45594000000E+02  0.51100000000E-03 0. -1.
    9900012    2    1    2    0    0 -0.13777365518E+02 -0.16695922477E+02 -0.23412626999E+02  0.59301941432E+02  0.49999995266E+02 0.  0.
        -12    1    1    2    0    0  0.13777365518E+02  0.16695922477E+02  0.23412626999E+02  0.31886058568E+02  0.00000000000E+00 0.  1.
         11    1    3    3    0    0 -0.82930866929E+01 -0.60274541188E-01  0.12604542529E+02  0.15088187848E+02  0.51100000000E-03 0.  1.
        -11    1    3    3    0    0  0.45398638245E+01  0.13396055331E+01 -0.42458021581E+01  0.63585959736E+01  0.51100000000E-03 0. -1.
        -12    1    3    3    0    0 -0.10024142649E+02 -0.17975253469E+02 -0.31771367370E+02  0.37855157610E+02  0.00000000000E+00 0.  1.
</event>
<event>
 7    1  0.1202531E-011  0.5930208E+02  0.7816164E-02  0.1266604E+00
        -11   -1    0    0    0    0  0.00000000000E+00  0.00000000000E+00  0.45593999997E+02  0.45594000000E+02  0.51100000000E-03 0. -1.
         11   -1    0    0    0    0 -0.00000000000E+00 -0.00000000000E+00 -0.45593999997E+02  0.45594000000E+02  0.51100000000E-03 0.  1.
    9900012    2    1    2    0    0  0.24353410609E+02  0.20216172527E+02 -0.38639288131E+01  0.59302075428E+02  0.50000239643E+02 0.  0.
        -12    1    1    2    0    0 -0.24353410609E+02 -0.20216172527E+02  0.38639288131E+01  0.31885924572E+02  0.00000000000E+00 0.  1.
         11    1    3    3    0    0  0.15672788001E+02  0.31626929185E+02 -0.36614531876E+01  0.35486690084E+02  0.51100000000E-03 0. -1.
        -11    1    3    3    0    0  0.25642498078E+00  0.32118997751E+01 -0.52860182604E+01  0.61906415860E+01  0.51100000000E-03 0.  1.
        -12    1    3    3    0    0  0.84241976268E+01 -0.14622656433E+02  0.50835426348E+01  0.17624743758E+02  0.00000000000E+00 0.  1.
</event>
<event>
 7    1  0.1202531E-011  0.5930194E+02  0.7816164E-02  0.1266605E+00
        -11   -1    0    0    0    0  0.00000000000E+00  0.00000000000E+00  0.45593999997E+02  0.45594000000E+02  0.51100000000E-03 0.  1.
         11   -1    0    0    0    0 -0.00000000000E+00 -0.00000000000E+00 -0.45593999997E+02  0.45594000000E+02  0.51100000000E-03 0. -1.
    9900012    2    1    2    0    0  0.18799059012E+01  0.10241195277E+02 -0.30138095576E+02  0.59301938283E+02  0.49999989522E+02 0.  0.
        -12    1    1    2    0    0 -0.18799059012E+01 -0.10241195277E+02  0.30138095576E+02  0.31886061717E+02  0.00000000000E+00 0.  1.
         11    1    3    3    0    0  0.42440783154E+01  0.11834783657E+02 -0.23251058056E+02  0.26432669293E+02  0.51100000000E-03 0.  1.
        -11    1    3    3    0    0  0.24093363979E+01 -0.14537243122E+02 -0.11095560517E+02  0.18445807190E+02  0.51100000000E-03 0. -1.
        -12    1    3    3    0    0 -0.47735088122E+01  0.12943654742E+02  0.42085229969E+01  0.14423461800E+02  0.00000000000E+00 0.  1.
</event>
<event>
 7    1  0.1202531E-011  0.5930193E+02  0.7816164E-02  0.1266605E+00
        -11   -1    0    0    0    0  0.00000000000E+00  0.00000000000E+00  0.45593999997E+02  0.45594000000E+02  0.51100000000E-03 0.  1.
         11   -1    0    0    0    0 -0.00000000000E+00 -0.00000000000E+00 -0.45593999997E+02  0.45594000000E+02  0.51100000000E-03 0. -1.
    9900012    2    1    2    0    0 -0.13356548012E+02 -0.17965901614E+02 -0.22705733370E+02  0.59301932141E+02  0.49999978322E+02 0.  0.
        -12    1    1    2    0    0  0.13356548012E+02  0.17965901614E+02  0.22705733370E+02  0.31886067859E+02  0.00000000000E+00 0.  1.
         11    1    3    3    0    0 -0.34620989024E+01 -0.38755501905E+01  0.29407361293E+00  0.52050454022E+01  0.51100000000E-03 0. -1.
        -11    1    3    3    0    0 -0.10014381667E+02  0.15097653923E+02 -0.21877413162E+01  0.18248649442E+02  0.51100000000E-03 0.  1.
         12    1    3    3    0    0  0.11993255709E+00 -0.29188005347E+02 -0.20812065667E+02  0.35848237297E+02  0.00000000000E+00 0. -1.
</event>
<event>
 7    1  0.1202531E-011  0.5930190E+02  0.7816164E-02  0.1266605E+00
        -11   -1    0    0    0    0  0.00000000000E+00  0.00000000000E+00  0.45593999997E+02  0.45594000000E+02  0.51100000000E-03 0.  1.
         11   -1    0    0    0    0 -0.00000000000E+00 -0.00000000000E+00 -0.45593999997E+02  0.45594000000E+02  0.51100000000E-03 0. -1.
    9900012    2    1    2    0    0  0.12931483592E+02  0.22145859212E+02 -0.18948906841E+02  0.59301899288E+02  0.49999918406E+02 0.  0.
        -12    1    1    2    0    0 -0.12931483592E+02 -0.22145859212E+02  0.18948906841E+02  0.31886100712E+02  0.00000000000E+00 0.  1.
         11    1    3    3    0    0 -0.12051849021E+02  0.18297591042E+02 -0.70030195557E+01  0.23001982217E+02  0.51100000000E-03 0. -1.
        -11    1    3    3    0    0  0.15166868557E+01 -0.74755009850E+01 -0.56547964387E+01  0.94952712979E+01  0.51100000000E-03 0.  1.
         12    1    3    3    0    0  0.23466645757E+02  0.11323769155E+02 -0.62910908465E+01  0.26804645773E+02  0.00000000000E+00 0. -1.
</event>
<event>
 7    1  0.1202531E-011  0.5930197E+02  0.7816164E-02  0.1266605E+00
        -11   -1    0    0    0    0  0.00000000000E+00  0.00000000000E+00  0.45593999997E+02  0.45594000000E+02  0.51100000000E-03 0. -1.
         11   -1    0    0    0    0 -0.00000000000E+00 -0.00000000000E+00 -0.45593999997E+02  0.45594000000E+02  0.51100000000E-03 0.  1.
    9900012    2    1    2    0    0 -0.29139110555E+02  0.55054684942E+01  0.11718415928E+02  0.59301965139E+02  0.50000038503E+02 0.  0.
        -12    1    1    2    0    0  0.29139110555E+02 -0.55054684942E+01 -0.11718415928E+02  0.31886034861E+02  0.00000000000E+00 0.  1.
         11    1    3    3    0    0 -0.74790728398E+01 -0.36951952524E+01  0.23710354515E+01  0.86725318027E+01  0.51100000000E-03 0. -1.
        -11    1    3    3    0    0 -0.34383822362E+02  0.50136915789E+01  0.83295657766E+00  0.34757418782E+02  0.51100000000E-03 0.  1.
        -12    1    3    3    0    0  0.12723784647E+02  0.41869721677E+01  0.85144238990E+01  0.15872014554E+02  0.00000000000E+00 0.  1.
</event>
<event>
 7    1  0.1202531E-011  0.5930194E+02  0.7816164E-02  0.1266605E+00
        -11   -1    0    0    0    0  0.00000000000E+00  0.00000000000E+00  0.45593999997E+02  0.45594000000E+02  0.51100000000E-03 0.  1.
         11   -1    0    0    0    0 -0.00000000000E+00 -0.00000000000E+00 -0.45593999997E+02  0.45594000000E+02  0.51100000000E-03 0. -1.
    9900012    2    1    2    0    0  0.18180446696E+02  0.19399917656E+02 -0.17602140690E+02  0.59301940288E+02  0.49999993179E+02 0.  0.
        -12    1    1    2    0    0 -0.18180446696E+02 -0.19399917656E+02  0.17602140690E+02  0.31886059712E+02  0.00000000000E+00 0.  1.
         11    1    3    3    0    0  0.59396348372E+01  0.87210431199E+00 -0.19051031583E+02  0.19974524589E+02  0.51100000000E-03 0. -1.
        -11    1    3    3    0    0 -0.89558905042E+00 -0.88557372565E+01 -0.29680881497E+00  0.89058552558E+01  0.51100000000E-03 0.  1.
        -12    1    3    3    0    0  0.13136400909E+02  0.27383550600E+02  0.17456997075E+01  0.30421560443E+02  0.00000000000E+00 0.  1.
</event>
<event>
 7    1  0.1202531E-011  0.5930177E+02  0.7816164E-02  0.1266605E+00
        -11   -1    0    0    0    0  0.00000000000E+00  0.00000000000E+00  0.45593999997E+02  0.45594000000E+02  0.51100000000E-03 0. -1.
         11   -1    0    0    0    0 -0.00000000000E+00 -0.00000000000E+00 -0.45593999997E+02  0.45594000000E+02  0.51100000000E-03 0.  1.
    9900012    2    1    2    0    0 -0.17867568937E+02  0.51309562311E+01  0.25906659109E+02  0.59301769151E+02  0.49999681066E+02 0.  0.
        -12    1    1    2    0    0  0.17867568937E+02 -0.51309562311E+01 -0.25906659109E+02  0.31886230849E+02  0.00000000000E+00 0.  1.
         11    1    3    3    0    0 -0.28953391429E+02  0.64420277372E+01  0.14421050899E+02  0.32981287208E+02  0.51100000000E-03 0. -1.
        -11    1    3    3    0    0 -0.48730911497E+01 -0.17443320366E+01 -0.18726184774E+01  0.55042176401E+01  0.51100000000E-03 0.  1.
        -12    1    3    3    0    0  0.15958913641E+02  0.43326053045E+00  0.13358226687E+02  0.20816264303E+02  0.00000000000E+00 0.  1.
</event>
<event>
 7    1  0.1202531E-011  0.5930192E+02  0.7816164E-02  0.1266605E+00
        -11   -1    0    0    0    0  0.00000000000E+00  0.00000000000E+00  0.45593999997E+02  0.45594000000E+02  0.51100000000E-03 0.  1.
         11   -1    0    0    0    0 -0.00000000000E+00 -0.00000000000E+00 -0.45593999997E+02  0.45594000000E+02  0.51100000000E-03 0. -1.
    9900012    2    1    2    0    0 -0.62040912753E+01  0.11135946132E+01 -0.31256856405E+02  0.59301922884E+02  0.49999961439E+02 0.  0.
        -12    1    1    2    0    0  0.62040912753E+01 -0.11135946132E+01  0.31256856405E+02  0.31886077116E+02  0.00000000000E+00 0.  1.
         11    1    3    3    0    0 -0.11849930460E+02  0.10181867695E+02  0.37913208269E+00  0.15628020446E+02  0.51100000000E-03 0. -1.
        -11    1    3    3    0    0  0.43279051628E+01 -0.35871457117E+00  0.46332459497E+01  0.63503076723E+01  0.51100000000E-03 0.  1.
         12    1    3    3    0    0  0.13179340221E+01 -0.87095585103E+01 -0.36269234438E+02  0.37323594766E+02  0.00000000000E+00 0. -1.
</event>
<event>
 7    1  0.1202531E-011  0.5930195E+02  0.7816164E-02  0.1266605E+00
        -11   -1    0    0    0    0  0.00000000000E+00  0.00000000000E+00  0.45593999997E+02  0.45594000000E+02  0.51100000000E-03 0. -1.
         11   -1    0    0    0    0 -0.00000000000E+00 -0.00000000000E+00 -0.45593999997E+02  0.45594000000E+02  0.51100000000E-03 0.  1.
    9900012    2    1    2    0    0 -0.38655663933E+01 -0.18748262654E+02  0.25500587370E+02  0.59301954270E+02  0.50000018680E+02 0.  0.
        -12    1    1    2    0    0  0.38655663933E+01  0.18748262654E+02 -0.25500587370E+02  0.31886045730E+02  0.00000000000E+00 0.  1.
         11    1    3    3    0    0 -0.66334835179E+01 -0.78513899658E+00  0.24535987268E+01  0.71161572355E+01  0.51100000000E-03 0. -1.
        -11    1    3    3    0    0 -0.27665738450E+01 -0.64074131191E+01  0.34379354883E+02  0.35080605983E+02  0.51100000000E-03 0.  1.
        -12    1    3    3    0    0  0.55344909696E+01 -0.11555710538E+02 -0.11332366239E+02  0.17105191052E+02  0.00000000000E+00 0.  1.
</event>
<event>
 7    1  0.1202531E-011  0.5930197E+02  0.7816164E-02  0.1266605E+00
        -11   -1    0    0    0    0  0.00000000000E+00  0.00000000000E+00  0.45593999997E+02  0.45594000000E+02  0.51100000000E-03 0. -1.
         11   -1    0    0    0    0 -0.00000000000E+00 -0.00000000000E+00 -0.45593999997E+02  0.45594000000E+02  0.51100000000E-03 0.  1.
    9900012    2    1    2    0    0  0.20150880015E+02  0.21469774038E+02  0.12235582447E+02  0.59301974213E+02  0.50000055051E+02 0.  0.
        -12    1    1    2    0    0 -0.20150880015E+02 -0.21469774038E+02 -0.12235582447E+02  0.31886025787E+02  0.00000000000E+00 0.  1.
         11    1    3    3    0    0  0.24413750568E+01 -0.43915295502E+01 -0.34645848455E+01  0.61032116440E+01  0.51100000000E-03 0. -1.
        -11    1    3    3    0    0 -0.12395055158E+02  0.32436902950E+01  0.12740342677E+01  0.12875639117E+02  0.51100000000E-03 0.  1.
         12    1    3    3    0    0  0.30104560116E+02  0.22617613294E+02  0.14426133025E+02  0.40323123452E+02  0.00000000000E+00 0. -1.
</event>
<event>
 7    1  0.1202531E-011  0.5930192E+02  0.7816164E-02  0.1266605E+00
        -11   -1    0    0    0    0  0.00000000000E+00  0.00000000000E+00  0.45593999997E+02  0.45594000000E+02  0.51100000000E-03 0.  1.
         11   -1    0    0    0    0 -0.00000000000E+00 -0.00000000000E+00 -0.45593999997E+02  0.45594000000E+02  0.51100000000E-03 0. -1.
    9900012    2    1    2    0    0 -0.17962836482E+02  0.12201640654E+02 -0.23349062816E+02  0.59301917401E+02  0.49999951439E+02 0.  0.
        -12    1    1    2    0    0  0.17962836482E+02 -0.12201640654E+02  0.23349062816E+02  0.31886082599E+02  0.00000000000E+00 0.  1.
         11    1    3    3    0    0 -0.20657262001E+02  0.36053283947E+01 -0.10652813604E+02  0.23520274322E+02  0.51100000000E-03 0. -1.
        -11    1    3    3    0    0 -0.68207145699E+01  0.16090478478E+02  0.99142571014E+00  0.17504529987E+02  0.51100000000E-03 0.  1.
         12    1    3    3    0    0  0.95151400888E+01 -0.74941662178E+01 -0.13687674922E+02  0.18277113092E+02  0.00000000000E+00 0. -1.
</event>
<event>
 7    1  0.1202531E-011  0.5930195E+02  0.7816164E-02  0.1266605E+00
        -11   -1    0    0    0    0  0.00000000000E+00  0.00000000000E+00  0.45593999997E+02  0.45594000000E+02  0.51100000000E-03 0. -1.
         11   -1    0    0    0    0 -0.00000000000E+00 -0.00000000000E+00 -0.45593999997E+02  0.45594000000E+02  0.51100000000E-03 0.  1.
    9900012    2    1    2    0    0 -0.16866267147E+02 -0.26868893053E+02 -0.32112166333E+01  0.59301948290E+02  0.50000007774E+02 0.  0.
        -12    1    1    2    0    0  0.16866267147E+02  0.26868893053E+02  0.32112166333E+01  0.31886051710E+02  0.00000000000E+00 0.  1.
         11    1    3    3    0    0 -0.35250391993E+01 -0.22950273113E+02  0.12372118154E+02  0.26309888733E+02  0.51100000000E-03 0. -1.
        -11    1    3    3    0    0 -0.11598112040E+02  0.29463343967E+01  0.36380059467E+01  0.12507284949E+02  0.51100000000E-03 0.  1.
        -12    1    3    3    0    0 -0.17431159078E+01 -0.68649543373E+01 -0.19221340734E+02  0.20484774607E+02  0.00000000000E+00 0.  1.
</event>
<event>
 7    1  0.1202531E-011  0.5930197E+02  0.7816164E-02  0.1266605E+00
        -11   -1    0    0    0    0  0.00000000000E+00  0.00000000000E+00  0.45593999997E+02  0.45594000000E+02  0.51100000000E-03 0. -1.
         11   -1    0    0    0    0 -0.00000000000E+00 -0.00000000000E+00 -0.45593999997E+02  0.45594000000E+02  0.51100000000E-03 0.  1.
    9900012    2    1    2    0    0 -0.19026724080E+02  0.12248938986E+02 -0.22464778195E+02  0.59301968656E+02  0.50000044916E+02 0.  0.
        -12    1    1    2    0    0  0.19026724080E+02 -0.12248938986E+02  0.22464778195E+02  0.31886031344E+02  0.00000000000E+00 0.  1.
         11    1    3    3    0    0 -0.25618406555E+01 -0.52252178222E+01  0.98275069025E+00  0.59018410699E+01  0.51100000000E-03 0. -1.
        -11    1    3    3    0    0 -0.25056941643E+02 -0.26990710061E+01 -0.75229002331E+01  0.26300747841E+02  0.51100000000E-03 0.  1.
        -12    1    3    3    0    0  0.85920582186E+01  0.20173227814E+02 -0.15924628652E+02  0.27099379745E+02  0.00000000000E+00 0.  1.
</event>
<event>
 7    1  0.1202531E-011  0.5930198E+02  0.7816164E-02  0.1266605E+00
        -11   -1    0    0    0    0  0.00000000000E+00  0.00000000000E+00  0.45593999997E+02  0.45594000000E+02  0.51100000000E-03 0. -1.
         11   -1    0    0    0    0 -0.00000000000E+00 -0.00000000000E+00 -0.45593999997E+02  0.45594000000E+02  0.51100000000E-03 0.  1.
    9900012    2    1    2    0    0  0.10998211819E+02  0.60349268793E+01  0.29314456346E+02  0.59301978666E+02  0.50000063172E+02 0.  0.
        -12    1    1    2    0    0 -0.10998211819E+02 -0.60349268793E+01 -0.29314456346E+02  0.31886021334E+02  0.00000000000E+00 0.  1.
         11    1    3    3    0    0  0.79403821965E+01  0.11949886028E+01  0.55146838475E+01  0.97411193087E+01  0.51100000000E-03 0. -1.
        -11    1    3    3    0    0 -0.15121190501E+01 -0.17916625148E+02  0.26789815887E+01  0.18178803682E+02  0.51100000000E-03 0.  1.
        -12    1    3    3    0    0  0.45699486726E+01  0.22756563424E+02  0.21120790910E+02  0.31382055675E+02  0.00000000000E+00 0.  1.
</event>
<event>
 7    1  0.1202531E-011  0.5930194E+02  0.7816164E-02  0.1266605E+00
        -11   -1    0    0    0    0  0.00000000000E+00  0.00000000000E+00  0.45593999997E+02  0.45594000000E+02  0.51100000000E-03 0.  1.
         11   -1    0    0    0    0 -0.00000000000E+00 -0.00000000000E+00 -0.45593999997E+02  0.45594000000E+02  0.51100000000E-03 0. -1.
    9900012    2    1    2    0    0 -0.79609132991E+01  0.11982663016E+02 -0.28456286837E+02  0.59301943266E+02  0.49999998611E+02 0.  0.
        -12    1    1    2    0    0  0.79609132991E+01 -0.11982663016E+02  0.28456286837E+02  0.31886056734E+02  0.00000000000E+00 0.  1.
         11    1    3    3    0    0 -0.89193142419E+01 -0.88258555759E+01 -0.24836718188E+02  0.27826470559E+02  0.51100000000E-03 0. -1.
        -11    1    3    3    0    0 -0.94760716988E+01  0.17266701961E+02 -0.51301581967E+01  0.20353217309E+02  0.51100000000E-03 0.  1.
        -12    1    3    3    0    0  0.10434472642E+02  0.35418166311E+01  0.15105895475E+01  0.11122255398E+02  0.00000000000E+00 0.  1.
</event>
<event>
 7    1  0.1202531E-011  0.5930203E+02  0.7816164E-02  0.1266604E+00
        -11   -1    0    0    0    0  0.00000000000E+00  0.00000000000E+00  0.45593999997E+02  0.45594000000E+02  0.51100000000E-03 0. -1.
         11   -1    0    0    0    0 -0.00000000000E+00 -0.00000000000E+00 -0.45593999997E+02  0.45594000000E+02  0.51100000000E-03 0.  1.
    9900012    2    1    2    0    0 -0.23944797349E+02 -0.21053846104E+02  0.31245697651E+00  0.59302025258E+02  0.50000148145E+02 0.  0.
        -12    1    1    2    0    0  0.23944797349E+02  0.21053846104E+02 -0.31245697651E+00  0.31885974742E+02  0.00000000000E+00 0.  1.
         11    1    3    3    0    0 -0.14281331100E+02 -0.68897273188E+01  0.90753798165E+01  0.18269846184E+02  0.51100000000E-03 0. -1.
        -11    1    3    3    0    0 -0.15931532452E+02  0.72430912410E+01 -0.62579909860E+01  0.18585977199E+02  0.51100000000E-03 0.  1.
         12    1    3    3    0    0  0.62680662026E+01 -0.21407210026E+02 -0.25049318541E+01  0.22446201875E+02  0.00000000000E+00 0. -1.
</event>
<event>
 7    1  0.1202531E-011  0.5930195E+02  0.7816164E-02  0.1266605E+00
        -11   -1    0    0    0    0  0.00000000000E+00  0.00000000000E+00  0.45593999997E+02  0.45594000000E+02  0.51100000000E-03 0.  1.
         11   -1    0    0    0    0 -0.00000000000E+00 -0.00000000000E+00 -0.45593999997E+02  0.45594000000E+02  0.51100000000E-03 0. -1.
    9900012    2    1    2    0    0  0.16819918872E+02 -0.25408881844E+02 -0.93914569434E+01  0.59301946450E+02  0.50000004419E+02 0.  0.
        -12    1    1    2    0    0 -0.16819918872E+02  0.25408881844E+02  0.93914569434E+01  0.31886053550E+02  0.00000000000E+00 0.  1.
         11    1    3    3    0    0  0.14318153692E+01 -0.13061444766E+02 -0.10437495501E+02  0.16780725468E+02  0.51100000000E-03 0. -1.
        -11    1    3    3    0    0  0.23438237695E+02 -0.18557604272E+02 -0.55440197464E+01  0.30405128149E+02  0.51100000000E-03 0.  1.
        -12    1    3    3    0    0 -0.80501341922E+01  0.62101671937E+01  0.65900583045E+01  0.12116092833E+02  0.00000000000E+00 0.  1.
</event>
<event>
 7    1  0.1202531E-011  0.5930195E+02  0.7816164E-02  0.1266605E+00
        -11   -1    0    0    0    0  0.00000000000E+00  0.00000000000E+00  0.45593999997E+02  0.45594000000E+02  0.51100000000E-03 0. -1.
         11   -1    0    0    0    0 -0.00000000000E+00 -0.00000000000E+00 -0.45593999997E+02  0.45594000000E+02  0.51100000000E-03 0.  1.
    9900012    2    1    2    0    0 -0.19017111895E+02 -0.69831073155E+01  0.24623282877E+02  0.59301946743E+02  0.50000004953E+02 0.  0.
        -12    1    1    2    0    0  0.19017111895E+02  0.69831073155E+01 -0.24623282877E+02  0.31886053257E+02  0.00000000000E+00 0.  1.
         11    1    3    3    0    0  0.62236451886E+01 -0.95276762671E+00  0.43334081873E+01  0.76432946014E+01  0.51100000000E-03 0.  1.
        -11    1    3    3    0    0  0.87061266109E+01 -0.40705065452E+01  0.14150234686E+02  0.17105402831E+02  0.51100000000E-03 0. -1.
        -12    1    3    3    0    0 -0.33946883695E+02 -0.19598331437E+01  0.61396400044E+01  0.34553249311E+02  0.00000000000E+00 0.  1.
</event>
<event>
 7    1  0.1202531E-011  0.5930194E+02  0.7816164E-02  0.1266605E+00
        -11   -1    0    0    0    0  0.00000000000E+00  0.00000000000E+00  0.45593999997E+02  0.45594000000E+02  0.51100000000E-03 0. -1.
         11   -1    0    0    0    0 -0.00000000000E+00 -0.00000000000E+00 -0.45593999997E+02  0.45594000000E+02  0.51100000000E-03 0.  1.
    9900012    2    1    2    0    0 -0.23223285822E+02 -0.14444580271E+02  0.16393707713E+02  0.59301944174E+02  0.50000000267E+02 0.  0.
        -12    1    1    2    0    0  0.23223285822E+02  0.14444580271E+02 -0.16393707713E+02  0.31886055826E+02  0.00000000000E+00 0.  1.
         11    1    3    3    0    0  0.34913566764E+01 -0.58199074813E+01  0.30458932217E+01  0.74389757569E+01  0.51100000000E-03 0. -1.
        -11    1    3    3    0    0 -0.26378286643E+02 -0.22924176291E+02  0.50047079417E+01  0.35304092775E+02  0.51100000000E-03 0.  1.
        -12    1    3    3    0    0 -0.33635585508E+00  0.14299503501E+02  0.83431065492E+01  0.16558875642E+02  0.00000000000E+00 0.  1.
</event>
<event>
 7    1  0.1202531E-011  0.5930190E+02  0.7816164E-02  0.1266605E+00
        -11   -1    0    0    0    0  0.00000000000E+00  0.00000000000E+00  0.45593999997E+02  0.45594000000E+02  0.51100000000E-03 0.  1.
         11   -1    0    0    0    0 -0.00000000000E+00 -0.00000000000E+00 -0.45593999997E+02  0.45594000000E+02  0.51100000000E-03 0. -1.
    9900012    2    1    2    0    0  0.23140832445E+02 -0.21549756374E+02  0.41028306605E+01  0.59301900435E+02  0.49999920497E+02 0.  0.
        -12    1    1    2    0    0 -0.23140832445E+02  0.21549756374E+02 -0.41028306605E+01  0.31886099565E+02  0.00000000000E+00 0.  1.
         11    1    3    3    0    0  0.13479011383E+02  0.10729995889E+01 -0.43051184766E+00  0.13528503860E+02  0.51100000000E-03 0. -1.
        -11    1    3    3    0    0  0.23991152470E+02 -0.16794919247E+02 -0.11111688043E+01  0.29306644396E+02  0.51100000000E-03 0.  1.
        -12    1    3    3    0    0 -0.14329331408E+02 -0.58278367158E+01  0.56445113124E+01  0.16466752179E+02  0.00000000000E+00 0.  1.
</event>
<event>
 7    1  0.1202531E-011  0.5930192E+02  0.7816164E-02  0.1266605E+00
        -11   -1    0    0    0    0  0.00000000000E+00  0.00000000000E+00  0.45593999997E+02  0.45594000000E+02  0.51100000000E-03 0.  1.
         11   -1    0    0    0    0 -0.00000000000E+00 -0.00000000000E+00 -0.45593999997E+02  0.45594000000E+02  0.51100000000E-03 0. -1.
    9900012    2    1    2    0    0  0.41094087989E+01  0.27783650021E+02 -0.15096484344E+02  0.59301917005E+02  0.49999950718E+02 0.  0.
        -12    1    1    2    0    0 -0.41094087989E+01 -0.27783650021E+02  0.15096484344E+02  0.31886082995E+02  0.00000000000E+00 0.  1.
         11    1    3    3    0    0  0.14972515937E+02  0.35568330729E+01 -0.13921279073E+01  0.15452032726E+02  0.51100000000E-03 0. -1.
        -11    1    3    3    0    0 -0.38448084981E+01 -0.37158749857E+01  0.66805696402E+01  0.85568855476E+01  0.51100000000E-03 0.  1.
        -12    1    3    3    0    0 -0.70182986400E+01  0.27942691934E+02 -0.20384926077E+02  0.35292998732E+02  0.00000000000E+00 0.  1.
</event>
<event>
 7    1  0.1202531E-011  0.5930193E+02  0.7816164E-02  0.1266605E+00
        -11   -1    0    0    0    0  0.00000000000E+00  0.00000000000E+00  0.45593999997E+02  0.45594000000E+02  0.51100000000E-03 0. -1.
         11   -1    0    0    0    0 -0.00000000000E+00 -0.00000000000E+00 -0.45593999997E+02  0.45594000000E+02  0.51100000000E-03 0.  1.
    9900012    2    1    2    0    0  0.71061913290E+01  0.29586200875E+02 -0.95330995276E+01  0.59301933701E+02  0.49999981166E+02 0.  0.
        -12    1    1    2    0    0 -0.71061913290E+01 -0.29586200875E+02  0.95330995276E+01  0.31886066299E+02  0.00000000000E+00 0.  1.
         11    1    3    3    0    0  0.72109456620E+01 -0.17357480333E+01 -0.47299877223E+01  0.87967802456E+01  0.51100000000E-03 0. -1.
        -11    1    3    3    0    0 -0.41522923499E+01 -0.67349801628E+01  0.68853046594E+01  0.10488513244E+02  0.51100000000E-03 0.  1.
         12    1    3    3    0    0  0.40475380168E+01  0.38056929071E+02 -0.11688416465E+02  0.40016640211E+02  0.00000000000E+00 0. -1.
</event>
<event>
 7    1  0.1202531E-011  0.5930196E+02  0.7816164E-02  0.1266605E+00
        -11   -1    0    0    0    0  0.00000000000E+00  0.00000000000E+00  0.45593999997E+02  0.45594000000E+02  0.51100000000E-03 0. -1.
         11   -1    0    0    0    0 -0.00000000000E+00 -0.00000000000E+00 -0.45593999997E+02  0.45594000000E+02  0.51100000000E-03 0.  1.
    9900012    2    1    2    0    0  0.21070661292E+02  0.12622452648E+02  0.20332748310E+02  0.59301957097E+02  0.50000023836E+02 0.  0.
        -12    1    1    2    0    0 -0.21070661292E+02 -0.12622452648E+02 -0.20332748310E+02  0.31886042903E+02  0.00000000000E+00 0.  1.
         11    1    3    3    0    0 -0.68043177934E+00  0.24448364418E+01  0.11203590166E+02  0.11487412481E+02  0.51100000000E-03 0. -1.
        -11    1    3    3    0    0 -0.31578085272E+00 -0.11107640178E+02 -0.70380937149E+01  0.13153484378E+02  0.51100000000E-03 0.  1.
         12    1    3    3    0    0  0.22066873924E+02  0.21285256385E+02  0.16167251859E+02  0.34661060238E+02  0.00000000000E+00 0. -1.
</event>
<event>
 7    1  0.1202531E-011  0.5930191E+02  0.7816164E-02  0.1266605E+00
        -11   -1    0    0    0    0  0.00000000000E+00  0.00000000000E+00  0.45593999997E+02  0.45594000000E+02  0.51100000000E-03 0.  1.
         11   -1    0    0    0    0 -0.00000000000E+00 -0.00000000000E+00 -0.45593999997E+02  0.45594000000E+02  0.51100000000E-03 0. -1.
    9900012    2    1    2    0    0 -0.17584484196E+02 -0.26582790032E+02  0.92941486990E+00  0.59301911774E+02  0.49999941177E+02 0.  0.
        -12    1    1    2    0    0  0.17584484196E+02  0.26582790032E+02 -0.92941486990E+00  0.31886088226E+02  0.00000000000E+00 0.  1.
         11    1    3    3    0    0  0.55167194774E+01 -0.61421917924E+01 -0.14126165290E+02  0.16361823244E+02  0.51100000000E-03 0. -1.
        -11    1    3    3    0    0 -0.11479800575E+01 -0.97682603079E+01  0.15694633543E+02  0.18521832792E+02  0.51100000000E-03 0.  1.
        -12    1    3    3    0    0 -0.21953223616E+02 -0.10672337932E+02 -0.63905338333E+00  0.24418255738E+02  0.00000000000E+00 0.  1.
</event>
<event>
 7    1  0.1202531E-011  0.5930199E+02  0.7816164E-02  0.1266605E+00
        -11   -1    0    0    0    0  0.00000000000E+00  0.00000000000E+00  0.45593999997E+02  0.45594000000E+02  0.51100000000E-03 0. -1.
         11   -1    0    0    0    0 -0.00000000000E+00 -0.00000000000E+00 -0.45593999997E+02  0.45594000000E+02  0.51100000000E-03 0.  1.
    9900012    2    1    2    0    0 -0.12680219630E+02  0.22485841404E+02  0.18716747814E+02  0.59301989239E+02  0.50000082454E+02 0.  0.
        -12    1    1    2    0    0  0.12680219630E+02 -0.22485841404E+02 -0.18716747814E+02  0.31886010761E+02  0.00000000000E+00 0.  1.
         11    1    3    3    0    0 -0.91888277231E+01  0.22252631363E+02  0.14780050656E+02  0.28250027525E+02  0.51100000000E-03 0. -1.
        -11    1    3    3    0    0 -0.17011006969E+01  0.75385341579E+01  0.15464169696E+02  0.17287677273E+02  0.51100000000E-03 0.  1.
        -12    1    3    3    0    0 -0.17902912102E+01 -0.73053241166E+01 -0.11527472538E+02  0.13764284441E+02  0.00000000000E+00 0.  1.
</event>
<event>
 7    1  0.1202531E-011  0.5930191E+02  0.7816164E-02  0.1266605E+00
        -11   -1    0    0    0    0  0.00000000000E+00  0.00000000000E+00  0.45593999997E+02  0.45594000000E+02  0.51100000000E-03 0.  1.
         11   -1    0    0    0    0 -0.00000000000E+00 -0.00000000000E+00 -0.45593999997E+02  0.45594000000E+02  0.51100000000E-03 0. -1.
    9900012    2    1    2    0    0  0.24478017349E+02  0.53865264744E+01 -0.19711281222E+02  0.59301911996E+02  0.49999941582E+02 0.  0.
        -12    1    1    2    0    0 -0.24478017349E+02 -0.53865264744E+01  0.19711281222E+02  0.31886088004E+02  0.00000000000E+00 0.  1.
         11    1    3    3    0    0 -0.50532235143E+00  0.14007276569E+02 -0.11124982638E+02  0.17894814515E+02  0.51100000000E-03 0. -1.
        -11    1    3    3    0    0  0.26873890877E+01 -0.14195872564E+01  0.10660571092E+02  0.11085353596E+02  0.51100000000E-03 0.  1.
         12    1    3    3    0    0  0.22295950613E+02 -0.72011628380E+01 -0.19246869676E+02  0.30321743885E+02  0.00000000000E+00 0. -1.
</event>
<event>
 7    1  0.1202531E-011  0.5930186E+02  0.7816164E-02  0.1266605E+00
        -11   -1    0    0    0    0  0.00000000000E+00  0.00000000000E+00  0.45593999997E+02  0.45594000000E+02  0.51100000000E-03 0. -1.
         11   -1    0    0    0    0 -0.00000000000E+00 -0.00000000000E+00 -0.45593999997E+02  0.45594000000E+02  0.51100000000E-03 0.  1.
    9900012    2    1    2    0    0 -0.20395609718E+02 -0.21351088686E+02  0.12036445359E+02  0.59301860367E+02  0.49999847422E+02 0.  0.
        -12    1    1    2    0    0  0.20395609718E+02  0.21351088686E+02 -0.12036445359E+02  0.31886139633E+02  0.00000000000E+00 0.  1.
         11    1    3    3    0    0 -0.10110228467E+02 -0.21816750189E+02  0.11181397777E+00  0.24045785725E+02  0.51100000000E-03 0. -1.
        -11    1    3    3    0    0 -0.14327399190E+02 -0.12860393814E+02  0.69157997489E+01  0.20457086377E+02  0.51100000000E-03 0.  1.
        -12    1    3    3    0    0  0.40420179393E+01  0.13326055317E+02  0.50088316320E+01  0.14798988265E+02  0.00000000000E+00 0.  1.
</event>
<event>
 7    1  0.1202531E-011  0.5930193E+02  0.7816164E-02  0.1266605E+00
        -11   -1    0    0    0    0  0.00000000000E+00  0.00000000000E+00  0.45593999997E+02  0.45594000000E+02  0.51100000000E-03 0. -1.
         11   -1    0    0    0    0 -0.00000000000E+00 -0.00000000000E+00 -0.45593999997E+02  0.45594000000E+02  0.51100000000E-03 0.  1.
    9900012    2    1    2    0    0 -0.21645589399E+02  0.22218589068E+02  0.73840680922E+01  0.59301926203E+02  0.49999967492E+02 0.  0.
        -12    1    1    2    0    0  0.21645589399E+02 -0.22218589068E+02 -0.73840680922E+01  0.31886073797E+02  0.00000000000E+00 0.  1.
         11    1    3    3    0    0 -0.17746964984E+01 -0.57676802035E+01  0.15043051457E+02  0.16208302810E+02  0.51100000000E-03 0. -1.
        -11    1    3    3    0    0  0.47922836203E+01  0.11000740739E+02 -0.51002777751E+01  0.13038217392E+02  0.51100000000E-03 0.  1.
         12    1    3    3    0    0 -0.24663176521E+02  0.16985528532E+02 -0.25587055896E+01  0.30055406001E+02  0.00000000000E+00 0. -1.
</event>
<event>
 7    1  0.1202531E-011  0.5930192E+02  0.7816164E-02  0.1266605E+00
        -11   -1    0    0    0    0  0.00000000000E+00  0.00000000000E+00  0.45593999997E+02  0.45594000000E+02  0.51100000000E-03 0. -1.
         11   -1    0    0    0    0 -0.00000000000E+00 -0.00000000000E+00 -0.45593999997E+02  0.45594000000E+02  0.51100000000E-03 0.  1.
    9900012    2    1    2    0    0  0.30189058180E+02 -0.72552421032E+01 -0.72597929012E+01  0.59301915814E+02  0.49999948545E+02 0.  0.
        -12    1    1    2    0    0 -0.30189058180E+02  0.72552421032E+01  0.72597929012E+01  0.31886084186E+02  0.00000000000E+00 0.  1.
         11    1    3    3    0    0  0.27893632607E+02  0.11302835064E+01  0.12014893137E+02  0.30392267737E+02  0.51100000000E-03 0. -1.
        -11    1    3    3    0    0 -0.80921354119E+01 -0.13873767370E+01 -0.39303651881E+01  0.91024854028E+01  0.51100000000E-03 0.  1.
        -12    1    3    3    0    0  0.10387560985E+02 -0.69981488727E+01 -0.15344320850E+02  0.19807162674E+02  0.00000000000E+00 0.  1.
</event>
<event>
 7    1  0.1202531E-011  0.5930194E+02  0.7816164E-02  0.1266605E+00
        -11   -1    0    0    0    0  0.00000000000E+00  0.00000000000E+00  0.45593999997E+02  0.45594000000E+02  0.51100000000E-03 0.  1.
         11   -1    0    0    0    0 -0.00000000000E+00 -0.00000000000E+00 -0.45593999997E+02  0.45594000000E+02  0.51100000000E-03 0. -1.
    9900012    2    1    2    0    0 -0.19947036460E+02 -0.89331597927E+01 -0.23217131555E+02  0.59301940271E+02  0.49999993148E+02 0.  0.
        -12    1    1    2    0    0  0.19947036460E+02  0.89331597927E+01  0.23217131555E+02  0.31886059729E+02  0.00000000000E+00 0.  1.
         11    1    3    3    0    0  0.45601305332E+01  0.41795358797E+01 -0.67295564288E+01  0.91405820734E+01  0.51100000000E-03 0. -1.
        -11    1    3    3    0    0 -0.77458790249E+01  0.68797448159E+01  0.89744278654E+01  0.13706563624E+02  0.51100000000E-03 0.  1.
         12    1    3    3    0    0 -0.16761287968E+02 -0.19992440488E+02 -0.25462002992E+02  0.36454794573E+02  0.00000000000E+00 0. -1.
</event>
<event>
 7    1  0.1202531E-011  0.5930192E+02  0.7816164E-02  0.1266605E+00
        -11   -1    0    0    0    0  0.00000000000E+00  0.00000000000E+00  0.45593999997E+02  0.45594000000E+02  0.51100000000E-03 0.  1.
         11   -1    0    0    0    0 -0.00000000000E+00 -0.00000000000E+00 -0.45593999997E+02  0.45594000000E+02  0.51100000000E-03 0. -1.
    9900012    2    1    2    0    0 -0.31085234988E+02 -0.61430083554E+01 -0.35628433493E+01  0.59301917791E+02  0.49999952151E+02 0.  0.
        -12    1    1    2    0    0  0.31085234988E+02  0.61430083554E+01  0.35628433493E+01  0.31886082209E+02  0.00000000000E+00 0.  1.
         11    1    3    3    0    0 -0.10154674353E+02 -0.15724252898E+02  0.11005405165E+02  0.21713785564E+02  0.51100000000E-03 0. -1.
        -11    1    3    3    0    0 -0.96197730281E+01  0.92545723079E+00  0.68648452719E+01  0.11854223090E+02  0.51100000000E-03 0.  1.
         12    1    3    3    0    0 -0.11310787606E+02  0.86557873117E+01 -0.21433093786E+02  0.25733909137E+02  0.00000000000E+00 0. -1.
</event>
<event>
 7    1  0.1202531E-011  0.5930196E+02  0.7816164E-02  0.1266605E+00
        -11   -1    0    0    0    0  0.00000000000E+00  0.00000000000E+00  0.45593999997E+02  0.45594000000E+02  0.51100000000E-03 0.  1.
         11   -1    0    0    0    0 -0.00000000000E+00 -0.00000000000E+00 -0.45593999997E+02  0.45594000000E+02  0.51100000000E-03 0. -1.
    9900012    2    1    2    0    0  0.18270199390E+02  0.26414437974E+01 -0.25998884432E+02  0.59301962260E+02  0.50000033251E+02 0.  0.
        -12    1    1    2    0    0 -0.18270199390E+02 -0.26414437974E+01  0.25998884432E+02  0.31886037740E+02  0.00000000000E+00 0.  1.
         11    1    3    3    0    0 -0.27808411658E+01  0.12936151022E+02 -0.16713394372E+02  0.21317003367E+02  0.51100000000E-03 0. -1.
        -11    1    3    3    0    0  0.13467439388E+02  0.89271047021E+01 -0.36074658209E+01  0.16555329412E+02  0.51100000000E-03 0.  1.
        -12    1    3    3    0    0  0.75836011674E+01 -0.19221811927E+02 -0.56780242386E+01  0.21429629481E+02  0.00000000000E+00 0.  1.
</event>
<event>
 7    1  0.1202531E-011  0.5930196E+02  0.7816164E-02  0.1266605E+00
        -11   -1    0    0    0    0  0.00000000000E+00  0.00000000000E+00  0.45593999997E+02  0.45594000000E+02  0.51100000000E-03 0. -1.
         11   -1    0    0    0    0 -0.00000000000E+00 -0.00000000000E+00 -0.45593999997E+02  0.45594000000E+02  0.51100000000E-03 0.  1.
    9900012    2    1    2    0    0  0.28069602092E+02 -0.55974113694E+01  0.14052971497E+02  0.59301959425E+02  0.50000028081E+02 0.  0.
        -12    1    1    2    0    0 -0.28069602092E+02  0.55974113694E+01 -0.14052971497E+02  0.31886040575E+02  0.00000000000E+00 0.  1.
         11    1    3    3    0    0  0.67189294365E+01  0.56068210500E+01 -0.71727236739E+01  0.11314964438E+02  0.51100000000E-03 0. -1.
        -11    1    3    3    0    0 -0.48117660551E+01 -0.99972274290E+01 -0.38342725478E+01  0.11738794447E+02  0.51100000000E-03 0.  1.
         12    1    3    3    0    0  0.26162438711E+02 -0.12070049905E+01  0.25059967719E+02  0.36248200540E+02  0.00000000000E+00 0. -1.
</event>
<event>
 7    1  0.1202531E-011  0.5930196E+02  0.7816164E-02  0.1266605E+00
        -11   -1    0    0    0    0  0.00000000000E+00  0.00000000000E+00  0.45593999997E+02  0.45594000000E+02  0.51100000000E-03 0.  1.
         11   -1    0    0    0    0 -0.00000000000E+00 -0.00000000000E+00 -0.45593999997E+02  0.45594000000E+02  0.51100000000E-03 0. -1.
    9900012    2    1    2    0    0  0.16394261348E+02 -0.25165186577E+02 -0.10707998969E+02  0.59301958186E+02  0.50000025822E+02 0.  0.
        -12    1    1    2    0    0 -0.16394261348E+02  0.25165186577E+02  0.10707998969E+02  0.31886041814E+02  0.00000000000E+00 0.  1.
         11    1    3    3    0    0  0.48660932593E+01  0.92464791494E+00 -0.49599390697E+01  0.70096243274E+01  0.51100000000E-03 0. -1.
        -11    1    3    3    0    0  0.19636198255E+02  0.35987354362E+01  0.32545640690E+01  0.20226798219E+02  0.51100000000E-03 0.  1.
         12    1    3    3    0    0 -0.81080301663E+01 -0.29688569929E+02 -0.90026239687E+01  0.32065535640E+02  0.00000000000E+00 0. -1.
</event>
<event>
 7    1  0.1202531E-011  0.5930196E+02  0.7816164E-02  0.1266605E+00
        -11   -1    0    0    0    0  0.00000000000E+00  0.00000000000E+00  0.45593999997E+02  0.45594000000E+02  0.51100000000E-03 0. -1.
         11   -1    0    0    0    0 -0.00000000000E+00 -0.00000000000E+00 -0.45593999997E+02  0.45594000000E+02  0.51100000000E-03 0.  1.
    9900012    2    1    2    0    0 -0.83255891177E+01 -0.29507903516E+02  0.87571432879E+01  0.59301962889E+02  0.50000034399E+02 0.  0.
        -12    1    1    2    0    0  0.83255891177E+01  0.29507903516E+02 -0.87571432879E+01  0.31886037111E+02  0.00000000000E+00 0.  1.
         11    1    3    3    0    0 -0.62570330529E+01 -0.27123869201E+02  0.18135936563E+02  0.33222988100E+02  0.51100000000E-03 0. -1.
        -11    1    3    3    0    0  0.10641588542E+02 -0.30805042251E+01 -0.70696111104E+01  0.13142005726E+02  0.51100000000E-03 0.  1.
        -12    1    3    3    0    0 -0.12710144607E+02  0.69646990988E+00 -0.23091821648E+01  0.12936969063E+02  0.00000000000E+00 0.  1.
</event>
<event>
 7    1  0.1202531E-011  0.5930195E+02  0.7816164E-02  0.1266605E+00
        -11   -1    0    0    0    0  0.00000000000E+00  0.00000000000E+00  0.45593999997E+02  0.45594000000E+02  0.51100000000E-03 0.  1.
         11   -1    0    0    0    0 -0.00000000000E+00 -0.00000000000E+00 -0.45593999997E+02  0.45594000000E+02  0.51100000000E-03 0. -1.
    9900012    2    1    2    0    0 -0.25914937623E+00  0.94885824664E+01 -0.30440435563E+02  0.59301945480E+02  0.50000002648E+02 0.  0.
        -12    1    1    2    0    0  0.25914937623E+00 -0.94885824664E+01  0.30440435563E+02  0.31886054520E+02  0.00000000000E+00 0.  1.
         11    1    3    3    0    0 -0.51517673722E+01 -0.66978662726E+01  0.46148384973E+01  0.96280244225E+01  0.51100000000E-03 0.  1.
        -11    1    3    3    0    0 -0.11796032423E+02  0.23837090981E+01 -0.60336290782E+01  0.13462285471E+02  0.51100000000E-03 0. -1.
         12    1    3    3    0    0  0.16688650419E+02  0.13802739641E+02 -0.29021644982E+02  0.36211635586E+02  0.00000000000E+00 0. -1.
</event>
<event>
 7    1  0.1202531E-011  0.5930196E+02  0.7816164E-02  0.1266605E+00
        -11   -1    0    0    0    0  0.00000000000E+00  0.00000000000E+00  0.45593999997E+02  0.45594000000E+02  0.51100000000E-03 0.  1.
         11   -1    0    0    0    0 -0.00000000000E+00 -0.00000000000E+00 -0.45593999997E+02  0.45594000000E+02  0.51100000000E-03 0. -1.
    9900012    2    1    2    0    0  0.67056830554E+01 -0.16228054824E+02 -0.26615852182E+02  0.59301960171E+02  0.50000029442E+02 0.  0.
        -12    1    1    2    0    0 -0.67056830554E+01  0.16228054824E+02  0.26615852182E+02  0.31886039829E+02  0.00000000000E+00 0.  1.
         11    1    3    3    0    0 -0.11350891330E+02  0.62607734187E-01 -0.22176755839E+02  0.24912951521E+02  0.51100000000E-03 0. -1.
        -11    1    3    3    0    0  0.43303565168E+00  0.57795249612E+01 -0.15432353137E+01  0.59976665585E+01  0.51100000000E-03 0.  1.
         12    1    3    3    0    0  0.17623538733E+02 -0.22070187520E+02 -0.28958610290E+01  0.28391342091E+02  0.00000000000E+00 0. -1.
</event>
<event>
 7    1  0.1202531E-011  0.5930193E+02  0.7816164E-02  0.1266605E+00
        -11   -1    0    0    0    0  0.00000000000E+00  0.00000000000E+00  0.45593999997E+02  0.45594000000E+02  0.51100000000E-03 0. -1.
         11   -1    0    0    0    0 -0.00000000000E+00 -0.00000000000E+00 -0.45593999997E+02  0.45594000000E+02  0.51100000000E-03 0.  1.
    9900012    2    1    2    0    0  0.22559261545E+02  0.21271613256E+02  0.74377355575E+01  0.59301925889E+02  0.49999966920E+02 0.  0.
        -12    1    1    2    0    0 -0.22559261545E+02 -0.21271613256E+02 -0.74377355575E+01  0.31886074111E+02  0.00000000000E+00 0.  1.
         11    1    3    3    0    0  0.32127538046E+01  0.74999887409E+01 -0.71713671159E+01  0.10862786231E+02  0.51100000000E-03 0. -1.
        -11    1    3    3    0    0  0.10122300851E+02 -0.75436806000E+01 -0.88581279263E+01  0.15421884519E+02  0.51100000000E-03 0.  1.
         12    1    3    3    0    0  0.92242068896E+01  0.21315305115E+02  0.23467230600E+02  0.33017255139E+02  0.00000000000E+00 0. -1.
</event>
<event>
 7    1  0.1202531E-011  0.5930194E+02  0.7816164E-02  0.1266605E+00
        -11   -1    0    0    0    0  0.00000000000E+00  0.00000000000E+00  0.45593999997E+02  0.45594000000E+02  0.51100000000E-03 0.  1.
         11   -1    0    0    0    0 -0.00000000000E+00 -0.00000000000E+00 -0.45593999997E+02  0.45594000000E+02  0.51100000000E-03 0. -1.
    9900012    2    1    2    0    0  0.20240288188E+02  0.10948292531E+02 -0.22072300442E+02  0.59301940004E+02  0.49999992662E+02 0.  0.
        -12    1    1    2    0    0 -0.20240288188E+02 -0.10948292531E+02  0.22072300442E+02  0.31886059996E+02  0.00000000000E+00 0.  1.
         11    1    3    3    0    0  0.41267815604E+01  0.94104877359E+01 -0.10538926867E+02  0.14719258991E+02  0.51100000000E-03 0. -1.
        -11    1    3    3    0    0  0.24210185498E+02  0.14117422399E+02 -0.62239981997E+01  0.28708410804E+02  0.51100000000E-03 0.  1.
         12    1    3    3    0    0 -0.80966788710E+01 -0.12579617604E+02 -0.53093753746E+01  0.15874270209E+02  0.00000000000E+00 0. -1.
</event>
<event>
 7    1  0.1202531E-011  0.5930198E+02  0.7816164E-02  0.1266605E+00
        -11   -1    0    0    0    0  0.00000000000E+00  0.00000000000E+00  0.45593999997E+02  0.45594000000E+02  0.51100000000E-03 0.  1.
         11   -1    0    0    0    0 -0.00000000000E+00 -0.00000000000E+00 -0.45593999997E+02  0.45594000000E+02  0.51100000000E-03 0. -1.
    9900012    2    1    2    0    0  0.19250486508E+02  0.83688731097E+01 -0.24002058375E+02  0.59301983094E+02  0.50000071247E+02 0.  0.
        -12    1    1    2    0    0 -0.19250486508E+02 -0.83688731097E+01  0.24002058375E+02  0.31886016906E+02  0.00000000000E+00 0.  1.
         11    1    3    3    0    0  0.13152680474E+02 -0.78266004493E+01  0.83068309951E+01  0.17414135628E+02  0.51100000000E-03 0. -1.
        -11    1    3    3    0    0 -0.29795717373E+01 -0.11962554670E+01  0.88459979788E+00  0.33303741447E+01  0.51100000000E-03 0.  1.
         12    1    3    3    0    0  0.90773777717E+01  0.17391729026E+02 -0.33193489168E+02  0.38557473320E+02  0.00000000000E+00 0. -1.
</event>
<event>
 7    1  0.1202531E-011  0.5930193E+02  0.7816164E-02  0.1266605E+00
        -11   -1    0    0    0    0  0.00000000000E+00  0.00000000000E+00  0.45593999997E+02  0.45594000000E+02  0.51100000000E-03 0. -1.
         11   -1    0    0    0    0 -0.00000000000E+00 -0.00000000000E+00 -0.45593999997E+02  0.45594000000E+02  0.51100000000E-03 0.  1.
    9900012    2    1    2    0    0 -0.18448589075E+02 -0.22560870218E+02  0.12937477321E+02  0.59301927441E+02  0.49999969749E+02 0.  0.
        -12    1    1    2    0    0  0.18448589075E+02  0.22560870218E+02 -0.12937477321E+02  0.31886072559E+02  0.00000000000E+00 0.  1.
         11    1    3    3    0    0 -0.29750339454E+02 -0.13122191007E+02  0.93964539079E+01  0.33846239684E+02  0.51100000000E-03 0. -1.
        -11    1    3    3    0    0  0.44253841487E+01 -0.79250798623E+01  0.11616166783E+02  0.14741989238E+02  0.51100000000E-03 0.  1.
        -12    1    3    3    0    0  0.68763662298E+01 -0.15135993479E+01 -0.80751433700E+01  0.10713698519E+02  0.00000000000E+00 0.  1.
</event>
<event>
 7    1  0.1202531E-011  0.5930194E+02  0.7816164E-02  0.1266605E+00
        -11   -1    0    0    0    0  0.00000000000E+00  0.00000000000E+00  0.45593999997E+02  0.45594000000E+02  0.51100000000E-03 0. -1.
         11   -1    0    0    0    0 -0.00000000000E+00 -0.00000000000E+00 -0.45593999997E+02  0.45594000000E+02  0.51100000000E-03 0.  1.
    9900012    2    1    2    0    0  0.15912032502E+02 -0.19901904292E+02  0.19168775576E+02  0.59301944586E+02  0.50000001018E+02 0.  0.
        -12    1    1    2    0    0 -0.15912032502E+02  0.19901904292E+02 -0.19168775576E+02  0.31886055414E+02  0.00000000000E+00 0.  1.
         11    1    3    3    0    0 -0.12868276290E+01 -0.25683346576E+02  0.18525545529E+02  0.31693627973E+02  0.51100000000E-03 0. -1.
        -11    1    3    3    0    0 -0.47067896813E+01  0.26162707976E+01  0.97546855917E+00  0.54726850048E+01  0.51100000000E-03 0.  1.
        -12    1    3    3    0    0  0.21905649812E+02  0.31651714865E+01 -0.33223851218E+00  0.22135631608E+02  0.00000000000E+00 0.  1.
</event>
<event>
 7    1  0.1202531E-011  0.5930194E+02  0.7816164E-02  0.1266605E+00
        -11   -1    0    0    0    0  0.00000000000E+00  0.00000000000E+00  0.45593999997E+02  0.45594000000E+02  0.51100000000E-03 0. -1.
         11   -1    0    0    0    0 -0.00000000000E+00 -0.00000000000E+00 -0.45593999997E+02  0.45594000000E+02  0.51100000000E-03 0.  1.
    9900012    2    1    2    0    0 -0.10082287427E+02  0.41927446368E+01  0.29958122221E+02  0.59301941693E+02  0.49999995742E+02 0.  0.
        -12    1    1    2    0    0  0.10082287427E+02 -0.41927446368E+01 -0.29958122221E+02  0.31886058307E+02  0.00000000000E+00 0.  1.
         11    1    3    3    0    0 -0.88553922812E+01 -0.19721521456E+02  0.17291250815E+02  0.27682914152E+02  0.51100000000E-03 0. -1.
        -11    1    3    3    0    0 -0.56308570013E+01  0.11059151030E+01  0.23334966352E+01  0.61947401553E+01  0.51100000000E-03 0.  1.
        -12    1    3    3    0    0  0.44039618557E+01  0.22808350989E+02  0.10333374771E+02  0.25424287385E+02  0.00000000000E+00 0.  1.
</event>
<event>
 7    1  0.1202531E-011  0.5930197E+02  0.7816164E-02  0.1266605E+00
        -11   -1    0    0    0    0  0.00000000000E+00  0.00000000000E+00  0.45593999997E+02  0.45594000000E+02  0.51100000000E-03 0.  1.
         11   -1    0    0    0    0 -0.00000000000E+00 -0.00000000000E+00 -0.45593999997E+02  0.45594000000E+02  0.51100000000E-03 0. -1.
    9900012    2    1    2    0    0  0.12602317829E+02 -0.77471885922E+01 -0.28246797716E+02  0.59301969721E+02  0.50000046858E+02 0.  0.
        -12    1    1    2    0    0 -0.12602317829E+02  0.77471885922E+01  0.28246797716E+02  0.31886030279E+02  0.00000000000E+00 0.  1.
         11    1    3    3    0    0  0.68743638909E+01 -0.26921258312E+00 -0.56498431055E+01  0.89022514960E+01  0.51100000000E-03 0. -1.
        -11    1    3    3    0    0  0.75498511494E+01 -0.15119880692E+02 -0.33170213232E+02  0.37227329888E+02  0.51100000000E-03 0.  1.
        -12    1    3    3    0    0 -0.18218972109E+01  0.76419046824E+01  0.10573258621E+02  0.13172388337E+02  0.00000000000E+00 0.  1.
</event>
<event>
 7    1  0.1202531E-011  0.5930193E+02  0.7816164E-02  0.1266605E+00
        -11   -1    0    0    0    0  0.00000000000E+00  0.00000000000E+00  0.45593999997E+02  0.45594000000E+02  0.51100000000E-03 0.  1.
         11   -1    0    0    0    0 -0.00000000000E+00 -0.00000000000E+00 -0.45593999997E+02  0.45594000000E+02  0.51100000000E-03 0. -1.
    9900012    2    1    2    0    0  0.25927055336E+02  0.10760028879E+02  0.15123846835E+02  0.59301934658E+02  0.49999982912E+02 0.  0.
        -12    1    1    2    0    0 -0.25927055336E+02 -0.10760028879E+02 -0.15123846835E+02  0.31886065342E+02  0.00000000000E+00 0.  1.
         11    1    3    3    0    0  0.94847748235E+01 -0.12273819094E+02  0.94766130416E+01  0.18177287576E+02  0.51100000000E-03 0. -1.
        -11    1    3    3    0    0  0.14345348537E+02  0.25434185466E+01  0.12726274002E+02  0.19344664711E+02  0.51100000000E-03 0.  1.
         12    1    3    3    0    0  0.20969319763E+01  0.20490429427E+02 -0.70790402085E+01  0.21779982371E+02  0.00000000000E+00 0. -1.
</event>
<event>
 7    1  0.1445667E-011  0.5930194E+02  0.7816164E-02  0.1266605E+00
        -11   -1    0    0    0    0  0.00000000000E+00  0.00000000000E+00  0.45593999997E+02  0.45594000000E+02  0.51100000000E-03 0. -1.
         11   -1    0    0    0    0 -0.00000000000E+00 -0.00000000000E+00 -0.45593999997E+02  0.45594000000E+02  0.51100000000E-03 0.  1.
    9900012    2    1    2    0    0  0.43500152895E+00  0.13847805731E+02  0.28718811227E+02  0.59301936145E+02  0.49999985623E+02 0.  0.
        -12    1    1    2    0    0 -0.43500152895E+00 -0.13847805731E+02 -0.28718811227E+02  0.31886063855E+02  0.00000000000E+00 0.  1.
         11    1    3    3    0    0  0.58488218034E+01  0.16259784803E+01  0.21852180066E+02  0.22679733164E+02  0.51100000000E-03 0. -1.
        -11    1    3    3    0    0  0.54959515189E+01  0.12796918228E+02  0.16823801962E+02  0.21840487905E+02  0.51100000000E-03 0.  1.
        -12    1    3    3    0    0 -0.10909771793E+02 -0.57509097758E+00 -0.99571708005E+01  0.14781715075E+02  0.00000000000E+00 0.  1.
</event>
<event>
 7    1  0.1202531E-011  0.5930195E+02  0.7816164E-02  0.1266605E+00
        -11   -1    0    0    0    0  0.00000000000E+00  0.00000000000E+00  0.45593999997E+02  0.45594000000E+02  0.51100000000E-03 0.  1.
         11   -1    0    0    0    0 -0.00000000000E+00 -0.00000000000E+00 -0.45593999997E+02  0.45594000000E+02  0.51100000000E-03 0. -1.
    9900012    2    1    2    0    0 -0.18424807596E+02  0.11797427325E+02 -0.23196273150E+02  0.59301954235E+02  0.50000018616E+02 0.  0.
        -12    1    1    2    0    0  0.18424807596E+02 -0.11797427325E+02  0.23196273150E+02  0.31886045765E+02  0.00000000000E+00 0.  1.
         11    1    3    3    0    0  0.22279629571E+01  0.10594097500E+02 -0.21583577715E+02  0.24146418948E+02  0.51100000000E-03 0. -1.
        -11    1    3    3    0    0  0.61147556776E+01  0.46973007648E+01 -0.26157792638E+01  0.81423075900E+01  0.51100000000E-03 0.  1.
        -12    1    3    3    0    0 -0.26767526231E+02 -0.34939709391E+01  0.10030838293E+01  0.27013227697E+02  0.00000000000E+00 0.  1.
</event>
<event>
 7    1  0.1202531E-011  0.5930195E+02  0.7816164E-02  0.1266605E+00
        -11   -1    0    0    0    0  0.00000000000E+00  0.00000000000E+00  0.45593999997E+02  0.45594000000E+02  0.51100000000E-03 0.  1.
         11   -1    0    0    0    0 -0.00000000000E+00 -0.00000000000E+00 -0.45593999997E+02  0.45594000000E+02  0.51100000000E-03 0. -1.
    9900012    2    1    2    0    0  0.16190898567E+02  0.14029797773E+02 -0.23616521212E+02  0.59301945115E+02  0.50000001984E+02 0.  0.
        -12    1    1    2    0    0 -0.16190898567E+02 -0.14029797773E+02  0.23616521212E+02  0.31886054885E+02  0.00000000000E+00 0.  1.
         11    1    3    3    0    0  0.27565992426E+02  0.12423913745E+02 -0.28751686995E+02  0.41724058725E+02  0.51100000000E-03 0. -1.
        -11    1    3    3    0    0 -0.13203924871E+01  0.26709202065E+01 -0.32741755739E+01  0.44269037734E+01  0.51100000000E-03 0.  1.
        -12    1    3    3    0    0 -0.10054701372E+02 -0.10650361787E+01  0.84093413572E+01  0.13150982617E+02  0.00000000000E+00 0.  1.
</event>
<event>
 7    1  0.1202531E-011  0.5930193E+02  0.7816164E-02  0.1266605E+00
        -11   -1    0    0    0    0  0.00000000000E+00  0.00000000000E+00  0.45593999997E+02  0.45594000000E+02  0.51100000000E-03 0. -1.
         11   -1    0    0    0    0 -0.00000000000E+00 -0.00000000000E+00 -0.45593999997E+02  0.45594000000E+02  0.51100000000E-03 0.  1.
    9900012    2    1    2    0    0  0.23404713282E+00  0.29567490270E+02  0.11934410817E+02  0.59301930620E+02  0.49999975548E+02 0.  0.
        -12    1    1    2    0    0 -0.23404713282E+00 -0.29567490270E+02 -0.11934410817E+02  0.31886069380E+02  0.00000000000E+00 0.  1.
         11    1    3    3    0    0 -0.20988170845E+00 -0.72001475080E+00  0.13607735471E+02  0.13628387157E+02  0.51100000000E-03 0. -1.
        -11    1    3    3    0    0  0.11385415319E+02  0.14992476301E+00 -0.67124551594E+01  0.13217685650E+02  0.51100000000E-03 0.  1.
         12    1    3    3    0    0 -0.10941486477E+02  0.30137580258E+02  0.50391305053E+01  0.32455857813E+02  0.00000000000E+00 0. -1.
</event>
<event>
 7    1  0.1202531E-011  0.5930194E+02  0.7816164E-02  0.1266605E+00
        -11   -1    0    0    0    0  0.00000000000E+00  0.00000000000E+00  0.45593999997E+02  0.45594000000E+02  0.51100000000E-03 0. -1.
         11   -1    0    0    0    0 -0.00000000000E+00 -0.00000000000E+00 -0.45593999997E+02  0.45594000000E+02  0.51100000000E-03 0.  1.
    9900012    2    1    2    0    0 -0.12993564192E+02  0.28453084602E+02 -0.61895024573E+01  0.59301942319E+02  0.49999996884E+02 0.  0.
        -12    1    1    2    0    0  0.12993564192E+02 -0.28453084602E+02  0.61895024573E+01  0.31886057681E+02  0.00000000000E+00 0.  1.
         11    1    3    3    0    0  0.64553283054E+01  0.11303517929E+02 -0.76057653197E+01  0.15076088599E+02  0.51100000000E-03 0. -1.
        -11    1    3    3    0    0 -0.56369717531E+00 -0.21490998723E+01 -0.13293178015E+02  0.13477572732E+02  0.51100000000E-03 0.  1.
         12    1    3    3    0    0 -0.18885195322E+02  0.19298666545E+02  0.14709440877E+02  0.30748280987E+02  0.00000000000E+00 0. -1.
</event>
<event>
 7    1  0.1202531E-011  0.5930193E+02  0.7816164E-02  0.1266605E+00
        -11   -1    0    0    0    0  0.00000000000E+00  0.00000000000E+00  0.45593999997E+02  0.45594000000E+02  0.51100000000E-03 0.  1.
         11   -1    0    0    0    0 -0.00000000000E+00 -0.00000000000E+00 -0.45593999997E+02  0.45594000000E+02  0.51100000000E-03 0. -1.
    9900012    2    1    2    0    0 -0.14611159680E+02 -0.43759025703E+01 -0.28001549735E+02  0.59301932540E+02  0.49999979049E+02 0.  0.
        -12    1    1    2    0    0  0.14611159680E+02  0.43759025703E+01  0.28001549735E+02  0.31886067460E+02  0.00000000000E+00 0.  1.
         11    1    3    3    0    0  0.59385260737E+01  0.14518039894E+01 -0.12055213643E+01  0.62311402466E+01  0.51100000000E-03 0. -1.
        -11    1    3    3    0    0  0.73917349243E+01  0.98994063783E+01 -0.19503388005E+01  0.12507590237E+02  0.51100000000E-03 0.  1.
         12    1    3    3    0    0 -0.27941420678E+02 -0.15727112938E+02 -0.24845689570E+02  0.40563202057E+02  0.00000000000E+00 0. -1.
</event>
<event>
 7    1  0.1202531E-011  0.5930197E+02  0.7816164E-02  0.1266605E+00
        -11   -1    0    0    0    0  0.00000000000E+00  0.00000000000E+00  0.45593999997E+02  0.45594000000E+02  0.51100000000E-03 0. -1.
         11   -1    0    0    0    0 -0.00000000000E+00 -0.00000000000E+00 -0.45593999997E+02  0.45594000000E+02  0.51100000000E-03 0.  1.
    9900012    2    1    2    0    0  0.27530207083E+02  0.15931834921E+02 -0.22322963571E+01  0.59301971508E+02  0.50000050117E+02 0.  0.
        -12    1    1    2    0    0 -0.27530207083E+02 -0.15931834921E+02  0.22322963571E+01  0.31886028492E+02  0.00000000000E+00 0.  1.
         11    1    3    3    0    0  0.18046162910E+02  0.28536957015E+02  0.25970300549E+01  0.33863940657E+02  0.51100000000E-03 0. -1.
        -11    1    3    3    0    0 -0.18099039598E+01  0.19847371896E+01 -0.63802016506E+01  0.69225650895E+01  0.51100000000E-03 0.  1.
         12    1    3    3    0    0  0.11293948133E+02 -0.14589859284E+02  0.15508752386E+01  0.18515465761E+02  0.00000000000E+00 0. -1.
</event>
<event>
 7    1  0.1202531E-011  0.5930197E+02  0.7816164E-02  0.1266605E+00
        -11   -1    0    0    0    0  0.00000000000E+00  0.00000000000E+00  0.45593999997E+02  0.45594000000E+02  0.51100000000E-03 0. -1.
         11   -1    0    0    0    0 -0.00000000000E+00 -0.00000000000E+00 -0.45593999997E+02  0.45594000000E+02  0.51100000000E-03 0.  1.
    9900012    2    1    2    0    0  0.10296843660E+02  0.29546382079E+02 -0.61404511898E+01  0.59301971333E+02  0.50000049799E+02 0.  0.
        -12    1    1    2    0    0 -0.10296843660E+02 -0.29546382079E+02  0.61404511898E+01  0.31886028667E+02  0.00000000000E+00 0.  1.
         11    1    3    3    0    0  0.14687504537E+02  0.13149593004E+02  0.57413164020E+01  0.20532834680E+02  0.51100000000E-03 0. -1.
        -11    1    3    3    0    0 -0.11321175517E+02  0.78843116038E+01  0.80801807465E+01  0.15988142660E+02  0.51100000000E-03 0.  1.
        -12    1    3    3    0    0  0.69305146401E+01  0.85124774713E+01 -0.19961948338E+02  0.22780993994E+02  0.00000000000E+00 0.  1.
</event>
<event>
 7    1  0.1202531E-011  0.5930197E+02  0.7816164E-02  0.1266605E+00
        -11   -1    0    0    0    0  0.00000000000E+00  0.00000000000E+00  0.45593999997E+02  0.45594000000E+02  0.51100000000E-03 0.  1.
         11   -1    0    0    0    0 -0.00000000000E+00 -0.00000000000E+00 -0.45593999997E+02  0.45594000000E+02  0.51100000000E-03 0. -1.
    9900012    2    1    2    0    0  0.99628588859E+01  0.14685097075E+01 -0.30253985846E+02  0.59301972692E+02  0.50000052276E+02 0.  0.
        -12    1    1    2    0    0 -0.99628588859E+01 -0.14685097075E+01  0.30253985846E+02  0.31886027308E+02  0.00000000000E+00 0.  1.
         11    1    3    3    0    0  0.17285429356E+01  0.36111381273E+01  0.54911179268E+01  0.67956276827E+01  0.51100000000E-03 0. -1.
        -11    1    3    3    0    0  0.13489769533E+02 -0.17364347713E+02 -0.16998457084E+02  0.27792840752E+02  0.51100000000E-03 0.  1.
         12    1    3    3    0    0 -0.52554535822E+01  0.15221719293E+02 -0.18746646689E+02  0.24713504257E+02  0.00000000000E+00 0. -1.
</event>
<event>
 7    1  0.1202531E-011  0.5930198E+02  0.7816164E-02  0.1266605E+00
        -11   -1    0    0    0    0  0.00000000000E+00  0.00000000000E+00  0.45593999997E+02  0.45594000000E+02  0.51100000000E-03 0.  1.
         11   -1    0    0    0    0 -0.00000000000E+00 -0.00000000000E+00 -0.45593999997E+02  0.45594000000E+02  0.51100000000E-03 0. -1.
    9900012    2    1    2    0    0  0.30996983193E+01  0.21922803371E+02 -0.22945609734E+02  0.59301977304E+02  0.50000060689E+02 0.  0.
        -12    1    1    2    0    0 -0.30996983193E+01 -0.21922803371E+02  0.22945609734E+02  0.31886022696E+02  0.00000000000E+00 0.  1.
         11    1    3    3    0    0 -0.46715887136E+01  0.26895412829E+02 -0.23705323374E+02  0.36154243580E+02  0.51100000000E-03 0. -1.
        -11    1    3    3    0    0 -0.68932146418E+01  0.89222459891E+00  0.21944665684E+01  0.72889064073E+01  0.51100000000E-03 0.  1.
         12    1    3    3    0    0  0.14664501675E+02 -0.58648340576E+01 -0.14347529284E+01  0.15858827317E+02  0.00000000000E+00 0. -1.
</event>
<event>
 7    1  0.1202531E-011  0.5930194E+02  0.7816164E-02  0.1266605E+00
        -11   -1    0    0    0    0  0.00000000000E+00  0.00000000000E+00  0.45593999997E+02  0.45594000000E+02  0.51100000000E-03 0.  1.
         11   -1    0    0    0    0 -0.00000000000E+00 -0.00000000000E+00 -0.45593999997E+02  0.45594000000E+02  0.51100000000E-03 0. -1.
    9900012    2    1    2    0    0 -0.11830062754E+02  0.25807177992E+02 -0.14517586197E+02  0.59301935181E+02  0.49999983865E+02 0.  0.
        -12    1    1    2    0    0  0.11830062754E+02 -0.25807177992E+02  0.14517586197E+02  0.31886064819E+02  0.00000000000E+00 0.  1.
         11    1    3    3    0    0 -0.11804265289E+02  0.25435133181E+02 -0.10804789733E+02  0.30050460236E+02  0.51100000000E-03 0. -1.
        -11    1    3    3    0    0 -0.11163733846E+02 -0.20518871747E+01 -0.10931982497E+02  0.15759042989E+02  0.51100000000E-03 0.  1.
         12    1    3    3    0    0  0.11137936381E+02  0.24239319855E+01  0.72191860328E+01  0.13492431956E+02  0.00000000000E+00 0. -1.
</event>
<event>
 7    1  0.1202531E-011  0.5930196E+02  0.7816164E-02  0.1266605E+00
        -11   -1    0    0    0    0  0.00000000000E+00  0.00000000000E+00  0.45593999997E+02  0.45594000000E+02  0.51100000000E-03 0. -1.
         11   -1    0    0    0    0 -0.00000000000E+00 -0.00000000000E+00 -0.45593999997E+02  0.45594000000E+02  0.51100000000E-03 0.  1.
    9900012    2    1    2    0    0  0.24938566866E+02 -0.12305701962E+02  0.15599908243E+02  0.59301959868E+02  0.50000028888E+02 0.  0.
        -12    1    1    2    0    0 -0.24938566866E+02  0.12305701962E+02 -0.15599908243E+02  0.31886040132E+02  0.00000000000E+00 0.  1.
         11    1    3    3    0    0  0.82932412664E+01 -0.70173961742E+01 -0.41651135377E+01  0.11634855857E+02  0.51100000000E-03 0.  1.
        -11    1    3    3    0    0  0.28220213887E+02  0.33322149122E+01  0.16538060218E+02  0.32878436156E+02  0.51100000000E-03 0. -1.
         12    1    3    3    0    0 -0.11574888287E+02 -0.86205207000E+01  0.32269615626E+01  0.14788667855E+02  0.00000000000E+00 0. -1.
</event>
<event>
 7    1  0.1202531E-011  0.5930195E+02  0.7816164E-02  0.1266605E+00
        -11   -1    0    0    0    0  0.00000000000E+00  0.00000000000E+00  0.45593999997E+02  0.45594000000E+02  0.51100000000E-03 0.  1.
         11   -1    0    0    0    0 -0.00000000000E+00 -0.00000000000E+00 -0.45593999997E+02  0.45594000000E+02  0.51100000000E-03 0. -1.
    9900012    2    1    2    0    0  0.18735952731E+02  0.23432148274E+02 -0.10799017377E+02  0.59301948602E+02  0.50000008342E+02 0.  0.
        -12    1    1    2    0    0 -0.18735952731E+02 -0.23432148274E+02  0.10799017377E+02  0.31886051398E+02  0.00000000000E+00 0.  1.
         11    1    3    3    0    0  0.18693935413E+02  0.17561059497E+02 -0.81855077205E+01  0.26923160453E+02  0.51100000000E-03 0. -1.
        -11    1    3    3    0    0  0.14642413016E+02 -0.27953684320E+01  0.12722035037E+01  0.14961044269E+02  0.51100000000E-03 0.  1.
        -12    1    3    3    0    0 -0.14600395698E+02  0.86664572084E+01 -0.38857131602E+01  0.17417743879E+02  0.00000000000E+00 0.  1.
</event>
<event>
 7    1  0.1202531E-011  0.5930194E+02  0.7816164E-02  0.1266605E+00
        -11   -1    0    0    0    0  0.00000000000E+00  0.00000000000E+00  0.45593999997E+02  0.45594000000E+02  0.51100000000E-03 0. -1.
         11   -1    0    0    0    0 -0.00000000000E+00 -0.00000000000E+00 -0.45593999997E+02  0.45594000000E+02  0.51100000000E-03 0.  1.
    9900012    2    1    2    0    0  0.38971480323E+01 -0.19719104959E+02  0.24752578460E+02  0.59301937157E+02  0.49999987470E+02 0.  0.
        -12    1    1    2    0    0 -0.38971480323E+01  0.19719104959E+02 -0.24752578460E+02  0.31886062843E+02  0.00000000000E+00 0.  1.
         11    1    3    3    0    0  0.93325428430E+01  0.17946190204E+00 -0.44001368738E+00  0.93446334758E+01  0.51100000000E-03 0. -1.
        -11    1    3    3    0    0  0.99565460758E+01 -0.17404779989E+02 -0.32358528044E+00  0.20054024133E+02  0.51100000000E-03 0.  1.
        -12    1    3    3    0    0 -0.15391940887E+02 -0.24937868722E+01  0.25516177428E+02  0.29903279549E+02  0.00000000000E+00 0.  1.
</event>
<event>
 7    1  0.1202531E-011  0.5930193E+02  0.7816164E-02  0.1266605E+00
        -11   -1    0    0    0    0  0.00000000000E+00  0.00000000000E+00  0.45593999997E+02  0.45594000000E+02  0.51100000000E-03 0.  1.
         11   -1    0    0    0    0 -0.00000000000E+00 -0.00000000000E+00 -0.45593999997E+02  0.45594000000E+02  0.51100000000E-03 0. -1.
    9900012    2    1    2    0    0 -0.19611348295E+02  0.81045381965E+01 -0.23799855870E+02  0.59301926853E+02  0.49999968677E+02 0.  0.
        -12    1    1    2    0    0  0.19611348295E+02 -0.81045381965E+01  0.23799855870E+02  0.31886073147E+02  0.00000000000E+00 0.  1.
         11    1    3    3    0    0  0.71656159368E+01 -0.26082960108E+00 -0.18484514685E+02  0.19826531901E+02  0.51100000000E-03 0. -1.
        -11    1    3    3    0    0  0.50222843555E+01 -0.12190390872E+01  0.18677414508E+01  0.54952574855E+01  0.51100000000E-03 0.  1.
         12    1    3    3    0    0 -0.31799248587E+02  0.95844068848E+01 -0.71830826362E+01  0.33980137466E+02  0.00000000000E+00 0. -1.
</event>
<event>
 7    1  0.1202531E-011  0.5930194E+02  0.7816164E-02  0.1266605E+00
        -11   -1    0    0    0    0  0.00000000000E+00  0.00000000000E+00  0.45593999997E+02  0.45594000000E+02  0.51100000000E-03 0.  1.
         11   -1    0    0    0    0 -0.00000000000E+00 -0.00000000000E+00 -0.45593999997E+02  0.45594000000E+02  0.51100000000E-03 0. -1.
    9900012    2    1    2    0    0 -0.31841790204E+02 -0.85123270452E+00  0.14478749929E+01  0.59301944388E+02  0.50000000656E+02 0.  0.
        -12    1    1    2    0    0  0.31841790204E+02  0.85123270452E+00 -0.14478749929E+01  0.31886055612E+02  0.00000000000E+00 0.  1.
         11    1    3    3    0    0 -0.22379837606E+02  0.66371644422E+01  0.25167410406E+01  0.23478566158E+02  0.51100000000E-03 0. -1.
        -11    1    3    3    0    0 -0.20662122087E+02 -0.94952120030E+01 -0.58520084432E+01  0.23480382092E+02  0.51100000000E-03 0.  1.
        -12    1    3    3    0    0  0.11200169489E+02  0.20068148562E+01  0.47831423955E+01  0.12342996137E+02  0.00000000000E+00 0.  1.
</event>
<event>
 7    1  0.1202531E-011  0.5930195E+02  0.7816164E-02  0.1266605E+00
        -11   -1    0    0    0    0  0.00000000000E+00  0.00000000000E+00  0.45593999997E+02  0.45594000000E+02  0.51100000000E-03 0.  1.
         11   -1    0    0    0    0 -0.00000000000E+00 -0.00000000000E+00 -0.45593999997E+02  0.45594000000E+02  0.51100000000E-03 0. -1.
    9900012    2    1    2    0    0 -0.17939822102E+02 -0.26341943962E+02  0.99251717069E+00  0.59301947891E+02  0.50000007046E+02 0.  0.
        -12    1    1    2    0    0  0.17939822102E+02  0.26341943962E+02 -0.99251717069E+00  0.31886052109E+02  0.00000000000E+00 0.  1.
         11    1    3    3    0    0  0.58155720555E+00 -0.11848673229E+02 -0.48987086263E+01  0.12834586574E+02  0.51100000000E-03 0. -1.
        -11    1    3    3    0    0 -0.15747811764E+02 -0.22539918597E+02  0.17110226352E+02  0.32385202668E+02  0.51100000000E-03 0.  1.
        -12    1    3    3    0    0 -0.27735675436E+01  0.80466478640E+01 -0.11219000555E+02  0.14082158650E+02  0.00000000000E+00 0.  1.
</event>
<event>
 7    1  0.1202531E-011  0.5930193E+02  0.7816164E-02  0.1266605E+00
        -11   -1    0    0    0    0  0.00000000000E+00  0.00000000000E+00  0.45593999997E+02  0.45594000000E+02  0.51100000000E-03 0.  1.
         11   -1    0    0    0    0 -0.00000000000E+00 -0.00000000000E+00 -0.45593999997E+02  0.45594000000E+02  0.51100000000E-03 0. -1.
    9900012    2    1    2    0    0 -0.10083942731E+02  0.16653617645E+02 -0.25252573679E+02  0.59301931583E+02  0.49999977305E+02 0.  0.
        -12    1    1    2    0    0  0.10083942731E+02 -0.16653617645E+02  0.25252573679E+02  0.31886068417E+02  0.00000000000E+00 0.  1.
         11    1    3    3    0    0  0.74015678232E+01 -0.62315905506E+01 -0.33771137859E+01  0.10247966863E+02  0.51100000000E-03 0. -1.
        -11    1    3    3    0    0 -0.32440479444E+01  0.55007408288E-01  0.81282387252E+01  0.87518648250E+01  0.51100000000E-03 0.  1.
         12    1    3    3    0    0 -0.14241462610E+02  0.22830200787E+02 -0.30003698618E+02  0.40302099896E+02  0.00000000000E+00 0. -1.
</event>
<event>
 7    1  0.1202531E-011  0.5930196E+02  0.7816164E-02  0.1266605E+00
        -11   -1    0    0    0    0  0.00000000000E+00  0.00000000000E+00  0.45593999997E+02  0.45594000000E+02  0.51100000000E-03 0.  1.
         11   -1    0    0    0    0 -0.00000000000E+00 -0.00000000000E+00 -0.45593999997E+02  0.45594000000E+02  0.51100000000E-03 0. -1.
    9900012    2    1    2    0    0  0.16029515055E+02  0.61307910809E+01 -0.26873550621E+02  0.59301957989E+02  0.50000025461E+02 0.  0.
        -12    1    1    2    0    0 -0.16029515055E+02 -0.61307910809E+01  0.26873550621E+02  0.31886042011E+02  0.00000000000E+00 0.  1.
         11    1    3    3    0    0 -0.28334213224E+01 -0.21771174437E+01 -0.31163919474E+01  0.47413095011E+01  0.51100000000E-03 0. -1.
        -11    1    3    3    0    0  0.10018000890E+02  0.14425259244E+02  0.92471729533E+01  0.19848391722E+02  0.51100000000E-03 0.  1.
         12    1    3    3    0    0  0.88449354882E+01 -0.61173507191E+01 -0.33004331627E+02  0.34712256765E+02  0.00000000000E+00 0. -1.
</event>
<event>
 7    1  0.1202531E-011  0.5930194E+02  0.7816164E-02  0.1266605E+00
        -11   -1    0    0    0    0  0.00000000000E+00  0.00000000000E+00  0.45593999997E+02  0.45594000000E+02  0.51100000000E-03 0.  1.
         11   -1    0    0    0    0 -0.00000000000E+00 -0.00000000000E+00 -0.45593999997E+02  0.45594000000E+02  0.51100000000E-03 0. -1.
    9900012    2    1    2    0    0 -0.29679920521E+02 -0.31009695517E+01 -0.11234189264E+02  0.59301941875E+02  0.49999996074E+02 0.  0.
        -12    1    1    2    0    0  0.29679920521E+02  0.31009695517E+01  0.11234189264E+02  0.31886058125E+02  0.00000000000E+00 0.  1.
         11    1    3    3    0    0 -0.30041142652E+02  0.16271291125E+01  0.37897032846E+01  0.30322922884E+02  0.51100000000E-03 0. -1.
        -11    1    3    3    0    0  0.18771415963E+01 -0.28545216342E+01  0.64880044216E+01  0.73325408944E+01  0.51100000000E-03 0.  1.
         12    1    3    3    0    0 -0.15159194651E+01 -0.18735770300E+01 -0.21511896970E+02  0.21646478096E+02  0.00000000000E+00 0. -1.
</event>
<event>
 7    1  0.1202531E-011  0.5930196E+02  0.7816164E-02  0.1266605E+00
        -11   -1    0    0    0    0  0.00000000000E+00  0.00000000000E+00  0.45593999997E+02  0.45594000000E+02  0.51100000000E-03 0.  1.
         11   -1    0    0    0    0 -0.00000000000E+00 -0.00000000000E+00 -0.45593999997E+02  0.45594000000E+02  0.51100000000E-03 0. -1.
    9900012    2    1    2    0    0 -0.27223973489E+02  0.16571254838E+02  0.98418712465E+00  0.59301955345E+02  0.50000020640E+02 0.  0.
        -12    1    1    2    0    0  0.27223973489E+02 -0.16571254838E+02 -0.98418712465E+00  0.31886044655E+02  0.00000000000E+00 0.  1.
         11    1    3    3    0    0  0.27177527027E+01  0.36197901601E+01  0.42448850461E+01  0.62054903007E+01  0.51100000000E-03 0. -1.
        -11    1    3    3    0    0  0.96262114501E+01  0.59000387146E+01 -0.60485132961E+01  0.12808548593E+02  0.51100000000E-03 0.  1.
         12    1    3    3    0    0 -0.39567937642E+02  0.70514259636E+01  0.27878153747E+01  0.40287916451E+02  0.00000000000E+00 0. -1.
</event>
<event>
 7    1  0.1202531E-011  0.5930196E+02  0.7816164E-02  0.1266605E+00
        -11   -1    0    0    0    0  0.00000000000E+00  0.00000000000E+00  0.45593999997E+02  0.45594000000E+02  0.51100000000E-03 0.  1.
         11   -1    0    0    0    0 -0.00000000000E+00 -0.00000000000E+00 -0.45593999997E+02  0.45594000000E+02  0.51100000000E-03 0. -1.
    9900012    2    1    2    0    0 -0.42008712908E+01 -0.27728732186E+02 -0.15172010743E+02  0.59301955745E+02  0.50000021370E+02 0.  0.
        -12    1    1    2    0    0  0.42008712908E+01  0.27728732186E+02  0.15172010743E+02  0.31886044255E+02  0.00000000000E+00 0.  1.
         11    1    3    3    0    0  0.72616179746E+01  0.18565900962E+00 -0.17513446431E+02  0.18960125818E+02  0.51100000000E-03 0. -1.
        -11    1    3    3    0    0 -0.16202546222E+02 -0.20226305138E+02 -0.75048623911E+01  0.26980527855E+02  0.51100000000E-03 0.  1.
        -12    1    3    3    0    0  0.47400569561E+01 -0.76880860579E+01  0.98462980796E+01  0.13361302072E+02  0.00000000000E+00 0.  1.
</event>
<event>
 7    1  0.1202531E-011  0.5930194E+02  0.7816164E-02  0.1266605E+00
        -11   -1    0    0    0    0  0.00000000000E+00  0.00000000000E+00  0.45593999997E+02  0.45594000000E+02  0.51100000000E-03 0. -1.
         11   -1    0    0    0    0 -0.00000000000E+00 -0.00000000000E+00 -0.45593999997E+02  0.45594000000E+02  0.51100000000E-03 0.  1.
    9900012    2    1    2    0    0 -0.11049669176E+02  0.61683725588E+00  0.29903927491E+02  0.59301944168E+02  0.50000000256E+02 0.  0.
        -12    1    1    2    0    0  0.11049669176E+02 -0.61683725588E+00 -0.29903927491E+02  0.31886055832E+02  0.00000000000E+00 0.  1.
         11    1    3    3    0    0 -0.12443656196E+02  0.16850716507E+02  0.91614151533E+01  0.22863130892E+02  0.51100000000E-03 0. -1.
        -11    1    3    3    0    0 -0.86287748955E+01 -0.12562888422E+02  0.27039336308E+01  0.15478797726E+02  0.51100000000E-03 0.  1.
         12    1    3    3    0    0  0.10022761916E+02 -0.36709908291E+01  0.18038578707E+02  0.20960015550E+02  0.00000000000E+00 0. -1.
</event>
<event>
 7    1  0.1202531E-011  0.5930193E+02  0.7816164E-02  0.1266605E+00
        -11   -1    0    0    0    0  0.00000000000E+00  0.00000000000E+00  0.45593999997E+02  0.45594000000E+02  0.51100000000E-03 0. -1.
         11   -1    0    0    0    0 -0.00000000000E+00 -0.00000000000E+00 -0.45593999997E+02  0.45594000000E+02  0.51100000000E-03 0.  1.
    9900012    2    1    2    0    0 -0.20161227550E+02 -0.23503790727E+02  0.76038078601E+01  0.59301934567E+02  0.49999982746E+02 0.  0.
        -12    1    1    2    0    0  0.20161227550E+02  0.23503790727E+02 -0.76038078601E+01  0.31886065433E+02  0.00000000000E+00 0.  1.
         11    1    3    3    0    0 -0.21316457297E+01 -0.82841615688E+01  0.71984776851E+01  0.11179862596E+02  0.51100000000E-03 0. -1.
        -11    1    3    3    0    0  0.92445484660E+00  0.37682659720E+01  0.16423120079E+02  0.16875227957E+02  0.51100000000E-03 0.  1.
         12    1    3    3    0    0 -0.18954036666E+02 -0.18987895130E+02 -0.16017789904E+02  0.31246844014E+02  0.00000000000E+00 0. -1.
</event>
<event>
 7    1  0.1202531E-011  0.5930191E+02  0.7816164E-02  0.1266605E+00
        -11   -1    0    0    0    0  0.00000000000E+00  0.00000000000E+00  0.45593999997E+02  0.45594000000E+02  0.51100000000E-03 0.  1.
         11   -1    0    0    0    0 -0.00000000000E+00 -0.00000000000E+00 -0.45593999997E+02  0.45594000000E+02  0.51100000000E-03 0. -1.
    9900012    2    1    2    0    0  0.10168690890E+02 -0.25663599815E+02 -0.15959330914E+02  0.59301907842E+02  0.49999934006E+02 0.  0.
        -12    1    1    2    0    0 -0.10168690890E+02  0.25663599815E+02  0.15959330914E+02  0.31886092158E+02  0.00000000000E+00 0.  1.
         11    1    3    3    0    0  0.44675022778E+01 -0.17888061882E+02 -0.17068722205E+02  0.25125338057E+02  0.51100000000E-03 0. -1.
        -11    1    3    3    0    0 -0.11480090535E+02 -0.11757141046E+02  0.17712590268E+01  0.16527558896E+02  0.51100000000E-03 0.  1.
        -12    1    3    3    0    0  0.17181279147E+02  0.39816031130E+01 -0.66186773623E+00  0.17649010889E+02  0.00000000000E+00 0.  1.
</event>
<event>
 7    1  0.1202531E-011  0.5930202E+02  0.7816164E-02  0.1266605E+00
        -11   -1    0    0    0    0  0.00000000000E+00  0.00000000000E+00  0.45593999997E+02  0.45594000000E+02  0.51100000000E-03 0.  1.
         11   -1    0    0    0    0 -0.00000000000E+00 -0.00000000000E+00 -0.45593999997E+02  0.45594000000E+02  0.51100000000E-03 0. -1.
    9900012    2    1    2    0    0 -0.17059058803E+02 -0.19453234676E+02 -0.18635341676E+02  0.59302018974E+02  0.50000136684E+02 0.  0.
        -12    1    1    2    0    0  0.17059058803E+02  0.19453234676E+02  0.18635341676E+02  0.31885981026E+02  0.00000000000E+00 0.  1.
         11    1    3    3    0    0 -0.16194770525E+02 -0.21797700379E+02 -0.24313401471E+02  0.36449304870E+02  0.51100000000E-03 0. -1.
        -11    1    3    3    0    0 -0.52193896488E+00 -0.94034080624E+01 -0.76629134089E+00  0.94490055641E+01  0.51100000000E-03 0.  1.
        -12    1    3    3    0    0 -0.34234931289E+00  0.11747873766E+02  0.64443511358E+01  0.13403708540E+02  0.00000000000E+00 0.  1.
</event>
<event>
 7    1  0.1202531E-011  0.5930198E+02  0.7816164E-02  0.1266605E+00
        -11   -1    0    0    0    0  0.00000000000E+00  0.00000000000E+00  0.45593999997E+02  0.45594000000E+02  0.51100000000E-03 0. -1.
         11   -1    0    0    0    0 -0.00000000000E+00 -0.00000000000E+00 -0.45593999997E+02  0.45594000000E+02  0.51100000000E-03 0.  1.
    9900012    2    1    2    0    0  0.30240824727E+02  0.24563557157E+01 -0.98069957306E+01  0.59301979100E+02  0.50000063963E+02 0.  0.
        -12    1    1    2    0    0 -0.30240824727E+02 -0.24563557157E+01  0.98069957306E+01  0.31886020900E+02  0.00000000000E+00 0.  1.
         11    1    3    3    0    0  0.29667333691E+01  0.30598044125E+01 -0.42115809385E+01  0.59917713732E+01  0.51100000000E-03 0. -1.
        -11    1    3    3    0    0  0.20907896890E+01 -0.19756500120E+02 -0.83522978887E+01  0.21551138689E+02  0.51100000000E-03 0.  1.
         12    1    3    3    0    0  0.25183301669E+02  0.19153051423E+02  0.27568830967E+01  0.31759069038E+02  0.00000000000E+00 0. -1.
</event>
<event>
 7    1  0.1202531E-011  0.5930194E+02  0.7816164E-02  0.1266605E+00
        -11   -1    0    0    0    0  0.00000000000E+00  0.00000000000E+00  0.45593999997E+02  0.45594000000E+02  0.51100000000E-03 0.  1.
         11   -1    0    0    0    0 -0.00000000000E+00 -0.00000000000E+00 -0.45593999997E+02  0.45594000000E+02  0.51100000000E-03 0. -1.
    9900012    2    1    2    0    0 -0.25749869979E+02 -0.14592808513E+02  0.11862324007E+02  0.59301943563E+02  0.49999999152E+02 0.  0.
        -12    1    1    2    0    0  0.25749869979E+02  0.14592808513E+02 -0.11862324007E+02  0.31886056437E+02  0.00000000000E+00 0.  1.
         11    1    3    3    0    0 -0.19808360912E+02  0.58011540727E+00  0.13139229212E+02  0.23777027578E+02  0.51100000000E-03 0. -1.
        -11    1    3    3    0    0  0.91247069228E+01  0.49343238713E+01 -0.16278661002E+00  0.10374696537E+02  0.51100000000E-03 0.  1.
        -12    1    3    3    0    0 -0.15066215990E+02 -0.20107247792E+02 -0.11141185948E+01  0.25150219448E+02  0.00000000000E+00 0.  1.
</event>
<event>
 7    1  0.1202531E-011  0.5930194E+02  0.7816164E-02  0.1266605E+00
        -11   -1    0    0    0    0  0.00000000000E+00  0.00000000000E+00  0.45593999997E+02  0.45594000000E+02  0.51100000000E-03 0. -1.
         11   -1    0    0    0    0 -0.00000000000E+00 -0.00000000000E+00 -0.45593999997E+02  0.45594000000E+02  0.51100000000E-03 0.  1.
    9900012    2    1    2    0    0  0.24063031611E+02 -0.56189807305E+01  0.20152377444E+02  0.59301941111E+02  0.49999994681E+02 0.  0.
        -12    1    1    2    0    0 -0.24063031611E+02  0.56189807305E+01 -0.20152377444E+02  0.31886058889E+02  0.00000000000E+00 0.  1.
         11    1    3    3    0    0  0.23481324270E+02 -0.20762024141E+02  0.23392378452E+02  0.39110581763E+02  0.51100000000E-03 0. -1.
        -11    1    3    3    0    0 -0.29368886140E+01  0.18724589164E+01  0.34644870480E+01  0.49126457120E+01  0.51100000000E-03 0.  1.
        -12    1    3    3    0    0  0.35185959550E+01  0.13270584494E+02 -0.67044880555E+01  0.15278713637E+02  0.00000000000E+00 0.  1.
</event>
<event>
 7    1  0.1202531E-011  0.5930193E+02  0.7816164E-02  0.1266605E+00
        -11   -1    0    0    0    0  0.00000000000E+00  0.00000000000E+00  0.45593999997E+02  0.45594000000E+02  0.51100000000E-03 0. -1.
         11   -1    0    0    0    0 -0.00000000000E+00 -0.00000000000E+00 -0.45593999997E+02  0.45594000000E+02  0.51100000000E-03 0.  1.
    9900012    2    1    2    0    0 -0.24462916811E+02  0.83799785789E+01  0.18656449718E+02  0.59301930064E+02  0.49999974534E+02 0.  0.
        -12    1    1    2    0    0  0.24462916811E+02 -0.83799785789E+01 -0.18656449718E+02  0.31886069936E+02  0.00000000000E+00 0.  1.
         11    1    3    3    0    0 -0.18754648619E+02  0.12099924737E+02  0.90512258673E+01  0.24084636460E+02  0.51100000000E-03 0. -1.
        -11    1    3    3    0    0 -0.57275570412E+01  0.13714745027E+02 -0.85180079427E+00  0.14887065046E+02  0.51100000000E-03 0.  1.
         12    1    3    3    0    0  0.19288849681E-01 -0.17434691185E+02  0.10457024645E+02  0.20330228558E+02  0.00000000000E+00 0. -1.
</event>
<event>
 7    1  0.1202531E-011  0.5930195E+02  0.7816164E-02  0.1266605E+00
        -11   -1    0    0    0    0  0.00000000000E+00  0.00000000000E+00  0.45593999997E+02  0.45594000000E+02  0.51100000000E-03 0. -1.
         11   -1    0    0    0    0 -0.00000000000E+00 -0.00000000000E+00 -0.45593999997E+02  0.45594000000E+02  0.51100000000E-03 0.  1.
    9900012    2    1    2    0    0  0.26531366432E+02 -0.14705808792E+02 -0.98257849758E+01  0.59301948702E+02  0.50000008525E+02 0.  0.
        -12    1    1    2    0    0 -0.26531366432E+02  0.14705808792E+02  0.98257849758E+01  0.31886051298E+02  0.00000000000E+00 0.  1.
         11    1    3    3    0    0  0.20828252436E+01 -0.95860786755E+01  0.49350511531E+01  0.10981156383E+02  0.51100000000E-03 0.  1.
        -11    1    3    3    0    0  0.44203268389E+01 -0.20339891498E+02 -0.77025478119E+01  0.22194137032E+02  0.51100000000E-03 0. -1.
         12    1    3    3    0    0  0.20028214350E+02  0.15220161382E+02 -0.70582883171E+01  0.26126655287E+02  0.00000000000E+00 0. -1.
</event>
<event>
 7    1  0.1202531E-011  0.5930200E+02  0.7816164E-02  0.1266605E+00
        -11   -1    0    0    0    0  0.00000000000E+00  0.00000000000E+00  0.45593999997E+02  0.45594000000E+02  0.51100000000E-03 0. -1.
         11   -1    0    0    0    0 -0.00000000000E+00 -0.00000000000E+00 -0.45593999997E+02  0.45594000000E+02  0.51100000000E-03 0.  1.
    9900012    2    1    2    0    0  0.81184644121E+01 -0.14484406164E+02  0.27221487856E+02  0.59302001703E+02  0.50000105185E+02 0.  0.
        -12    1    1    2    0    0 -0.81184644121E+01  0.14484406164E+02 -0.27221487856E+02  0.31885998297E+02  0.00000000000E+00 0.  1.
         11    1    3    3    0    0 -0.79820005439E+01 -0.20219271311E+02  0.81298739280E+01  0.23208319960E+02  0.51100000000E-03 0. -1.
        -11    1    3    3    0    0  0.14273505434E+01 -0.90607520290E+01  0.93269251424E+01  0.13081517105E+02  0.51100000000E-03 0.  1.
        -12    1    3    3    0    0  0.14673114413E+02  0.14795617176E+02  0.97646887855E+01  0.23012164637E+02  0.00000000000E+00 0.  1.
</event>
<event>
 7    1  0.1202531E-011  0.5930195E+02  0.7816164E-02  0.1266605E+00
        -11   -1    0    0    0    0  0.00000000000E+00  0.00000000000E+00  0.45593999997E+02  0.45594000000E+02  0.51100000000E-03 0.  1.
         11   -1    0    0    0    0 -0.00000000000E+00 -0.00000000000E+00 -0.45593999997E+02  0.45594000000E+02  0.51100000000E-03 0. -1.
    9900012    2    1    2    0    0 -0.26028172366E+02  0.56976407392E+01 -0.17515464858E+02  0.59301947000E+02  0.50000005421E+02 0.  0.
        -12    1    1    2    0    0  0.26028172366E+02 -0.56976407392E+01  0.17515464858E+02  0.31886053000E+02  0.00000000000E+00 0.  1.
         11    1    3    3    0    0 -0.96851808900E+01  0.16410869340E+02 -0.12102837878E+01  0.19094086741E+02  0.51100000000E-03 0. -1.
        -11    1    3    3    0    0 -0.19267792398E+02 -0.55888641283E+01  0.27596261945E+01  0.20250895367E+02  0.51100000000E-03 0.  1.
         12    1    3    3    0    0  0.29248009223E+01 -0.51243644725E+01 -0.19064807265E+02  0.19956964893E+02  0.00000000000E+00 0. -1.
</event>
<event>
 7    1  0.1202531E-011  0.5930192E+02  0.7816164E-02  0.1266605E+00
        -11   -1    0    0    0    0  0.00000000000E+00  0.00000000000E+00  0.45593999997E+02  0.45594000000E+02  0.51100000000E-03 0.  1.
         11   -1    0    0    0    0 -0.00000000000E+00 -0.00000000000E+00 -0.45593999997E+02  0.45594000000E+02  0.51100000000E-03 0. -1.
    9900012    2    1    2    0    0 -0.27717023456E+01 -0.14815942797E+02 -0.28098532128E+02  0.59301921492E+02  0.49999958901E+02 0.  0.
        -12    1    1    2    0    0  0.27717023456E+01  0.14815942797E+02  0.28098532128E+02  0.31886078508E+02  0.00000000000E+00 0.  1.
         11    1    3    3    0    0  0.15874617203E+02 -0.69553512295E+01 -0.26429604207E+02  0.31605448278E+02  0.51100000000E-03 0. -1.
        -11    1    3    3    0    0  0.17198961445E+01  0.32241392328E+01 -0.26091106837E+01  0.44900529352E+01  0.51100000000E-03 0.  1.
        -12    1    3    3    0    0 -0.20366215693E+02 -0.11084730800E+02  0.94018276268E+00  0.23206420279E+02  0.00000000000E+00 0.  1.
</event>
<event>
 7    1  0.1202531E-011  0.5930192E+02  0.7816164E-02  0.1266605E+00
        -11   -1    0    0    0    0  0.00000000000E+00  0.00000000000E+00  0.45593999997E+02  0.45594000000E+02  0.51100000000E-03 0.  1.
         11   -1    0    0    0    0 -0.00000000000E+00 -0.00000000000E+00 -0.45593999997E+02  0.45594000000E+02  0.51100000000E-03 0. -1.
    9900012    2    1    2    0    0 -0.21969633983E+02 -0.21131111805E+01  0.23012864957E+02  0.59301921380E+02  0.49999958696E+02 0.  0.
        -12    1    1    2    0    0  0.21969633983E+02  0.21131111805E+01 -0.23012864957E+02  0.31886078620E+02  0.00000000000E+00 0.  1.
         11    1    3    3    0    0 -0.24691964181E+02 -0.11716254864E+02  0.10830286453E+02  0.29398279338E+02  0.51100000000E-03 0. -1.
        -11    1    3    3    0    0 -0.11451275798E+00 -0.14694218418E+01  0.17312450560E+02  0.17375075780E+02  0.51100000000E-03 0.  1.
         12    1    3    3    0    0  0.28368429554E+01  0.11072565525E+02 -0.51298720554E+01  0.12528566262E+02  0.00000000000E+00 0. -1.
</event>
<event>
 7    1  0.1202531E-011  0.5930196E+02  0.7816164E-02  0.1266605E+00
        -11   -1    0    0    0    0  0.00000000000E+00  0.00000000000E+00  0.45593999997E+02  0.45594000000E+02  0.51100000000E-03 0.  1.
         11   -1    0    0    0    0 -0.00000000000E+00 -0.00000000000E+00 -0.45593999997E+02  0.45594000000E+02  0.51100000000E-03 0. -1.
    9900012    2    1    2    0    0  0.21366934518E+00 -0.35208432359E+01 -0.31690341563E+02  0.59301956971E+02  0.50000023605E+02 0.  0.
        -12    1    1    2    0    0 -0.21366934518E+00  0.35208432359E+01  0.31690341563E+02  0.31886043029E+02  0.00000000000E+00 0.  1.
         11    1    3    3    0    0  0.20730640872E+01  0.42453522303E+01 -0.16058915441E+02  0.16739455656E+02  0.51100000000E-03 0. -1.
        -11    1    3    3    0    0  0.81416400206E+01 -0.18788821561E+02 -0.18275070533E+02  0.27446025598E+02  0.51100000000E-03 0.  1.
         12    1    3    3    0    0 -0.10001034763E+02  0.11022626094E+02  0.26436444104E+01  0.15116475717E+02  0.00000000000E+00 0. -1.
</event>
<event>
 7    1  0.1202531E-011  0.5930195E+02  0.7816164E-02  0.1266605E+00
        -11   -1    0    0    0    0  0.00000000000E+00  0.00000000000E+00  0.45593999997E+02  0.45594000000E+02  0.51100000000E-03 0.  1.
         11   -1    0    0    0    0 -0.00000000000E+00 -0.00000000000E+00 -0.45593999997E+02  0.45594000000E+02  0.51100000000E-03 0. -1.
    9900012    2    1    2    0    0  0.10758357612E+02 -0.11564857738E+02 -0.27698957251E+02  0.59301946218E+02  0.50000003995E+02 0.  0.
        -12    1    1    2    0    0 -0.10758357612E+02  0.11564857738E+02  0.27698957251E+02  0.31886053782E+02  0.00000000000E+00 0.  1.
         11    1    3    3    0    0 -0.98958087632E+01 -0.13967352194E+02 -0.78930842746E+01  0.18849794110E+02  0.51100000000E-03 0. -1.
        -11    1    3    3    0    0  0.45968106416E+01 -0.71373316036E+01  0.46501687020E+01  0.96796817981E+01  0.51100000000E-03 0.  1.
         12    1    3    3    0    0  0.16057355733E+02  0.95398260592E+01 -0.24456041678E+02  0.30772470310E+02  0.00000000000E+00 0. -1.
</event>
<event>
 7    1  0.1202531E-011  0.5930195E+02  0.7816164E-02  0.1266605E+00
        -11   -1    0    0    0    0  0.00000000000E+00  0.00000000000E+00  0.45593999997E+02  0.45594000000E+02  0.51100000000E-03 0. -1.
         11   -1    0    0    0    0 -0.00000000000E+00 -0.00000000000E+00 -0.45593999997E+02  0.45594000000E+02  0.51100000000E-03 0.  1.
    9900012    2    1    2    0    0  0.21249402950E+02 -0.16883391802E+02 -0.16737201621E+02  0.59301953481E+02  0.50000017241E+02 0.  0.
        -12    1    1    2    0    0 -0.21249402950E+02  0.16883391802E+02  0.16737201621E+02  0.31886046519E+02  0.00000000000E+00 0.  1.
         11    1    3    3    0    0  0.34954717080E+01 -0.38321477906E+01  0.12938899622E+02  0.13939827934E+02  0.51100000000E-03 0. -1.
        -11    1    3    3    0    0  0.12801787300E+02  0.19876056671E+01 -0.26087678127E+02  0.29127363161E+02  0.51100000000E-03 0.  1.
         12    1    3    3    0    0  0.49521439419E+01 -0.15038849678E+02 -0.35884231166E+01  0.16234762386E+02  0.00000000000E+00 0. -1.
</event>
<event>
 7    1  0.1202531E-011  0.5930193E+02  0.7816164E-02  0.1266605E+00
        -11   -1    0    0    0    0  0.00000000000E+00  0.00000000000E+00  0.45593999997E+02  0.45594000000E+02  0.51100000000E-03 0.  1.
         11   -1    0    0    0    0 -0.00000000000E+00 -0.00000000000E+00 -0.45593999997E+02  0.45594000000E+02  0.51100000000E-03 0. -1.
    9900012    2    1    2    0    0 -0.21458732752E+02 -0.22638936876E+02  0.66123228469E+01  0.59301929567E+02  0.49999973627E+02 0.  0.
        -12    1    1    2    0    0  0.21458732752E+02  0.22638936876E+02 -0.66123228469E+01  0.31886070433E+02  0.00000000000E+00 0.  1.
         11    1    3    3    0    0  0.75817129924E+00  0.63637954291E+01  0.16511346025E+02  0.17711500891E+02  0.51100000000E-03 0. -1.
        -11    1    3    3    0    0  0.15259225141E+01 -0.40618733591E+00  0.20143597677E+01  0.25595064380E+01  0.51100000000E-03 0.  1.
         12    1    3    3    0    0 -0.23742826566E+02 -0.28596544970E+02 -0.11913382946E+02  0.39030922238E+02  0.00000000000E+00 0. -1.
</event>
<event>
 7    1  0.1202531E-011  0.5930193E+02  0.7816164E-02  0.1266605E+00
        -11   -1    0    0    0    0  0.00000000000E+00  0.00000000000E+00  0.45593999997E+02  0.45594000000E+02  0.51100000000E-03 0.  1.
         11   -1    0    0    0    0 -0.00000000000E+00 -0.00000000000E+00 -0.45593999997E+02  0.45594000000E+02  0.51100000000E-03 0. -1.
    9900012    2    1    2    0    0  0.18298564133E+02  0.15543881962E+02  0.20982651685E+02  0.59301931137E+02  0.49999976490E+02 0.  0.
        -12    1    1    2    0    0 -0.18298564133E+02 -0.15543881962E+02 -0.20982651685E+02  0.31886068863E+02  0.00000000000E+00 0.  1.
         11    1    3    3    0    0 -0.11130179523E+02  0.67631529101E+01  0.51884559555E+01  0.14019315567E+02  0.51100000000E-03 0. -1.
        -11    1    3    3    0    0  0.11105926230E+02  0.10428115381E+02  0.21201845690E+02  0.26107574547E+02  0.51100000000E-03 0.  1.
         12    1    3    3    0    0  0.18322817426E+02 -0.16473863284E+01 -0.54076499605E+01  0.19175041023E+02  0.00000000000E+00 0. -1.
</event>
<event>
 7    1  0.1202531E-011  0.5930203E+02  0.7816164E-02  0.1266604E+00
        -11   -1    0    0    0    0  0.00000000000E+00  0.00000000000E+00  0.45593999997E+02  0.45594000000E+02  0.51100000000E-03 0.  1.
         11   -1    0    0    0    0 -0.00000000000E+00 -0.00000000000E+00 -0.45593999997E+02  0.45594000000E+02  0.51100000000E-03 0. -1.
    9900012    2    1    2    0    0  0.84394789248E+01  0.29072164140E+02 -0.10014952636E+02  0.59302034300E+02  0.50000164635E+02 0.  0.
        -12    1    1    2    0    0 -0.84394789248E+01 -0.29072164140E+02  0.10014952636E+02  0.31885965700E+02  0.00000000000E+00 0.  1.
         11    1    3    3    0    0 -0.32490635362E+01 -0.98618808959E+01 -0.10241672433E+01  0.10433696731E+02  0.51100000000E-03 0. -1.
        -11    1    3    3    0    0  0.10304693189E+02  0.57825517843E+01  0.50362908498E+01  0.12844797882E+02  0.51100000000E-03 0.  1.
        -12    1    3    3    0    0  0.13838492721E+01  0.33151493252E+02 -0.14027076242E+02  0.36023539687E+02  0.00000000000E+00 0.  1.
</event>
<event>
 7    1  0.1202531E-011  0.5930192E+02  0.7816164E-02  0.1266605E+00
        -11   -1    0    0    0    0  0.00000000000E+00  0.00000000000E+00  0.45593999997E+02  0.45594000000E+02  0.51100000000E-03 0.  1.
         11   -1    0    0    0    0 -0.00000000000E+00 -0.00000000000E+00 -0.45593999997E+02  0.45594000000E+02  0.51100000000E-03 0. -1.
    9900012    2    1    2    0    0  0.65072480481E+01  0.25899185726E+02 -0.17424401779E+02  0.59301923480E+02  0.49999962526E+02 0.  0.
        -12    1    1    2    0    0 -0.65072480481E+01 -0.25899185726E+02  0.17424401779E+02  0.31886076520E+02  0.00000000000E+00 0.  1.
         11    1    3    3    0    0 -0.70037591736E+01  0.24967261938E+01  0.14825586439E+01  0.75818378143E+01  0.51100000000E-03 0. -1.
        -11    1    3    3    0    0  0.18066224012E+00  0.42275595118E+01  0.12148155682E+02  0.12864003459E+02  0.51100000000E-03 0.  1.
         12    1    3    3    0    0  0.13330344982E+02  0.19174900021E+02 -0.31055116105E+02  0.38856082207E+02  0.00000000000E+00 0. -1.
</event>
<event>
 7    1  0.1202531E-011  0.5930192E+02  0.7816164E-02  0.1266605E+00
        -11   -1    0    0    0    0  0.00000000000E+00  0.00000000000E+00  0.45593999997E+02  0.45594000000E+02  0.51100000000E-03 0.  1.
         11   -1    0    0    0    0 -0.00000000000E+00 -0.00000000000E+00 -0.45593999997E+02  0.45594000000E+02  0.51100000000E-03 0. -1.
    9900012    2    1    2    0    0 -0.68082269049E+00  0.21828030103E+02 -0.23233502446E+02  0.59301920692E+02  0.49999957442E+02 0.  0.
        -12    1    1    2    0    0  0.68082269049E+00 -0.21828030103E+02  0.23233502446E+02  0.31886079308E+02  0.00000000000E+00 0.  1.
         11    1    3    3    0    0 -0.86713488255E-01 -0.58017294791E+01  0.10217438975E+02  0.11750048666E+02  0.51100000000E-03 0.  1.
        -11    1    3    3    0    0  0.18655046479E+01  0.10989572124E+02 -0.12428642822E+01  0.11215859974E+02  0.51100000000E-03 0. -1.
        -12    1    3    3    0    0 -0.24596138501E+01  0.16640187458E+02 -0.32208077139E+02  0.36336012053E+02  0.00000000000E+00 0.  1.
</event>
<event>
 7    1  0.1202531E-011  0.5930196E+02  0.7816164E-02  0.1266605E+00
        -11   -1    0    0    0    0  0.00000000000E+00  0.00000000000E+00  0.45593999997E+02  0.45594000000E+02  0.51100000000E-03 0.  1.
         11   -1    0    0    0    0 -0.00000000000E+00 -0.00000000000E+00 -0.45593999997E+02  0.45594000000E+02  0.51100000000E-03 0. -1.
    9900012    2    1    2    0    0  0.23065602546E+02 -0.27724319944E+01 -0.21840580406E+02  0.59301963049E+02  0.50000034690E+02 0.  0.
        -12    1    1    2    0    0 -0.23065602546E+02  0.27724319944E+01  0.21840580406E+02  0.31886036951E+02  0.00000000000E+00 0.  1.
         11    1    3    3    0    0  0.80627031597E+01  0.55346675483E+01  0.15393632213E+02  0.18237424163E+02  0.51100000000E-03 0.  1.
        -11    1    3    3    0    0  0.59068547005E+01 -0.45609003699E+01 -0.15143430664E+02  0.16882423913E+02  0.51100000000E-03 0. -1.
        -12    1    3    3    0    0  0.90960446861E+01 -0.37461991728E+01 -0.22090781955E+02  0.24182114973E+02  0.00000000000E+00 0.  1.
</event>
<event>
 7    1  0.1202531E-011  0.5930198E+02  0.7816164E-02  0.1266605E+00
        -11   -1    0    0    0    0  0.00000000000E+00  0.00000000000E+00  0.45593999997E+02  0.45594000000E+02  0.51100000000E-03 0. -1.
         11   -1    0    0    0    0 -0.00000000000E+00 -0.00000000000E+00 -0.45593999997E+02  0.45594000000E+02  0.51100000000E-03 0.  1.
    9900012    2    1    2    0    0  0.13505233841E+02 -0.17562898552E+02  0.22931895591E+02  0.59301975129E+02  0.50000056722E+02 0.  0.
        -12    1    1    2    0    0 -0.13505233841E+02  0.17562898552E+02 -0.22931895591E+02  0.31886024871E+02  0.00000000000E+00 0.  1.
         11    1    3    3    0    0  0.12655594489E+02 -0.19659120892E+02  0.27103287349E+02  0.35794319263E+02  0.51100000000E-03 0. -1.
        -11    1    3    3    0    0 -0.12450080539E+01 -0.95115733066E+01 -0.63620489064E+01  0.11510679318E+02  0.51100000000E-03 0.  1.
         12    1    3    3    0    0  0.20946474059E+01  0.11607795647E+02  0.21906571490E+01  0.11996976548E+02  0.00000000000E+00 0. -1.
</event>
<event>
 7    1  0.1202531E-011  0.5930192E+02  0.7816164E-02  0.1266605E+00
        -11   -1    0    0    0    0  0.00000000000E+00  0.00000000000E+00  0.45593999997E+02  0.45594000000E+02  0.51100000000E-03 0.  1.
         11   -1    0    0    0    0 -0.00000000000E+00 -0.00000000000E+00 -0.45593999997E+02  0.45594000000E+02  0.51100000000E-03 0. -1.
    9900012    2    1    2    0    0 -0.21169025388E+02  0.18342648895E+01 -0.23774566270E+02  0.59301918948E+02  0.49999954260E+02 0.  0.
        -12    1    1    2    0    0  0.21169025388E+02 -0.18342648895E+01  0.23774566270E+02  0.31886081052E+02  0.00000000000E+00 0.  1.
         11    1    3    3    0    0  0.35301136711E+01 -0.27635001088E+01  0.21504022324E+01  0.49722093082E+01  0.51100000000E-03 0.  1.
        -11    1    3    3    0    0 -0.13579497375E+02  0.15093177542E+02 -0.31982888281E+02  0.37882870803E+02  0.51100000000E-03 0. -1.
         12    1    3    3    0    0 -0.11119641685E+02 -0.10495412543E+02  0.60579197788E+01  0.16446838836E+02  0.00000000000E+00 0. -1.
</event>
<event>
 7    1  0.1202531E-011  0.5930201E+02  0.7816164E-02  0.1266605E+00
        -11   -1    0    0    0    0  0.00000000000E+00  0.00000000000E+00  0.45593999997E+02  0.45594000000E+02  0.51100000000E-03 0.  1.
         11   -1    0    0    0    0 -0.00000000000E+00 -0.00000000000E+00 -0.45593999997E+02  0.45594000000E+02  0.51100000000E-03 0. -1.
    9900012    2    1    2    0    0  0.15605561350E+02 -0.13416733445E+02 -0.24355165941E+02  0.59302009512E+02  0.50000119427E+02 0.  0.
        -12    1    1    2    0    0 -0.15605561350E+02  0.13416733445E+02  0.24355165941E+02  0.31885990488E+02  0.00000000000E+00 0.  1.
         11    1    3    3    0    0  0.62582329646E+01 -0.16768657633E+02 -0.68288512570E+01  0.19156893496E+02  0.51100000000E-03 0. -1.
        -11    1    3    3    0    0 -0.18200676248E+01  0.50433454596E+01 -0.25667862012E+02  0.26221882467E+02  0.51100000000E-03 0.  1.
         12    1    3    3    0    0  0.11167396011E+02 -0.16914212710E+01  0.81415473279E+01  0.13923233549E+02  0.00000000000E+00 0. -1.
</event>
<event>
 7    1  0.1202531E-011  0.5930196E+02  0.7816164E-02  0.1266605E+00
        -11   -1    0    0    0    0  0.00000000000E+00  0.00000000000E+00  0.45593999997E+02  0.45594000000E+02  0.51100000000E-03 0.  1.
         11   -1    0    0    0    0 -0.00000000000E+00 -0.00000000000E+00 -0.45593999997E+02  0.45594000000E+02  0.51100000000E-03 0. -1.
    9900012    2    1    2    0    0 -0.98681337649E+01  0.49468625513E+01 -0.29914343333E+02  0.59301961517E+02  0.50000031895E+02 0.  0.
        -12    1    1    2    0    0  0.98681337649E+01 -0.49468625513E+01  0.29914343333E+02  0.31886038483E+02  0.00000000000E+00 0.  1.
         11    1    3    3    0    0 -0.25361446305E+02  0.10235279476E+02 -0.22565549284E+02  0.35456563841E+02  0.51100000000E-03 0. -1.
        -11    1    3    3    0    0 -0.13648653668E+01  0.20796156145E+01  0.20153329237E+01  0.32014411799E+01  0.51100000000E-03 0.  1.
        -12    1    3    3    0    0  0.16858177907E+02 -0.73680325389E+01 -0.93641269726E+01  0.20643956496E+02  0.00000000000E+00 0.  1.
</event>
<event>
 7    1  0.1202531E-011  0.5930197E+02  0.7816164E-02  0.1266605E+00
        -11   -1    0    0    0    0  0.00000000000E+00  0.00000000000E+00  0.45593999997E+02  0.45594000000E+02  0.51100000000E-03 0. -1.
         11   -1    0    0    0    0 -0.00000000000E+00 -0.00000000000E+00 -0.45593999997E+02  0.45594000000E+02  0.51100000000E-03 0.  1.
    9900012    2    1    2    0    0 -0.30135718843E+02  0.23969665121E+01  0.10139613461E+02  0.59301972342E+02  0.50000051639E+02 0.  0.
        -12    1    1    2    0    0  0.30135718843E+02 -0.23969665121E+01 -0.10139613461E+02  0.31886027658E+02  0.00000000000E+00 0.  1.
         11    1    3    3    0    0  0.13334302421E+01 -0.54008057829E+00  0.12999261146E+02  0.13078628133E+02  0.51100000000E-03 0. -1.
        -11    1    3    3    0    0 -0.56629537909E+00  0.75660386962E+01 -0.11523398789E+02  0.13796896460E+02  0.51100000000E-03 0.  1.
         12    1    3    3    0    0 -0.30902853706E+02 -0.46289916058E+01  0.86637511047E+01  0.32426447750E+02  0.00000000000E+00 0. -1.
</event>
<event>
 7    1  0.1202531E-011  0.5930194E+02  0.7816164E-02  0.1266605E+00
        -11   -1    0    0    0    0  0.00000000000E+00  0.00000000000E+00  0.45593999997E+02  0.45594000000E+02  0.51100000000E-03 0. -1.
         11   -1    0    0    0    0 -0.00000000000E+00 -0.00000000000E+00 -0.45593999997E+02  0.45594000000E+02  0.51100000000E-03 0.  1.
    9900012    2    1    2    0    0  0.61303205437E+01  0.15039524603E+02  0.27439979781E+02  0.59301943162E+02  0.49999998422E+02 0.  0.
        -12    1    1    2    0    0 -0.61303205437E+01 -0.15039524603E+02 -0.27439979781E+02  0.31886056838E+02  0.00000000000E+00 0.  1.
         11    1    3    3    0    0  0.12813504616E+02  0.22632734449E+01  0.40536413049E+01  0.13628657870E+02  0.51100000000E-03 0. -1.
        -11    1    3    3    0    0  0.14745273145E+02  0.20134787847E+01  0.12051433777E+02  0.19149784158E+02  0.51100000000E-03 0.  1.
        -12    1    3    3    0    0 -0.21428457218E+02  0.10762772374E+02  0.11334904699E+02  0.26523501135E+02  0.00000000000E+00 0.  1.
</event>
<event>
 7    1  0.1202531E-011  0.5930197E+02  0.7816164E-02  0.1266605E+00
        -11   -1    0    0    0    0  0.00000000000E+00  0.00000000000E+00  0.45593999997E+02  0.45594000000E+02  0.51100000000E-03 0.  1.
         11   -1    0    0    0    0 -0.00000000000E+00 -0.00000000000E+00 -0.45593999997E+02  0.45594000000E+02  0.51100000000E-03 0. -1.
    9900012    2    1    2    0    0  0.21834303847E+02 -0.21086986858E+02 -0.97632636850E+01  0.59301966113E+02  0.50000040278E+02 0.  0.
        -12    1    1    2    0    0 -0.21834303847E+02  0.21086986858E+02  0.97632636850E+01  0.31886033887E+02  0.00000000000E+00 0.  1.
         11    1    3    3    0    0 -0.23148020654E+01  0.17424494362E+01 -0.22047406247E+00  0.29056922950E+01  0.51100000000E-03 0. -1.
        -11    1    3    3    0    0  0.15222664031E+02 -0.22364254426E+02  0.14536433344E+02  0.30711516909E+02  0.51100000000E-03 0.  1.
         12    1    3    3    0    0  0.89264418814E+01 -0.46518186860E+00 -0.24079222966E+02  0.25684756909E+02  0.00000000000E+00 0. -1.
</event>
<event>
 7    1  0.1202531E-011  0.5930196E+02  0.7816164E-02  0.1266605E+00
        -11   -1    0    0    0    0  0.00000000000E+00  0.00000000000E+00  0.45593999997E+02  0.45594000000E+02  0.51100000000E-03 0. -1.
         11   -1    0    0    0    0 -0.00000000000E+00 -0.00000000000E+00 -0.45593999997E+02  0.45594000000E+02  0.51100000000E-03 0.  1.
    9900012    2    1    2    0    0  0.27601722540E+02 -0.19161304149E+01  0.15849075050E+02  0.59301955672E+02  0.50000021236E+02 0.  0.
        -12    1    1    2    0    0 -0.27601722540E+02  0.19161304149E+01 -0.15849075050E+02  0.31886044328E+02  0.00000000000E+00 0.  1.
         11    1    3    3    0    0  0.30516904210E+02 -0.30354796744E+01  0.53235252705E+00  0.30672120547E+02  0.51100000000E-03 0. -1.
        -11    1    3    3    0    0  0.12489800346E+01 -0.10263528204E+02  0.18352781684E+01  0.10500867037E+02  0.51100000000E-03 0.  1.
         12    1    3    3    0    0 -0.41641617043E+01  0.11382877463E+02  0.13481444354E+02  0.18128968088E+02  0.00000000000E+00 0. -1.
</event>
<event>
 7    1  0.1202531E-011  0.5930188E+02  0.7816164E-02  0.1266605E+00
        -11   -1    0    0    0    0  0.00000000000E+00  0.00000000000E+00  0.45593999997E+02  0.45594000000E+02  0.51100000000E-03 0.  1.
         11   -1    0    0    0    0 -0.00000000000E+00 -0.00000000000E+00 -0.45593999997E+02  0.45594000000E+02  0.51100000000E-03 0. -1.
    9900012    2    1    2    0    0  0.71735311468E+01  0.68711877135E+01 -0.30299373630E+02  0.59301877437E+02  0.49999878554E+02 0.  0.
        -12    1    1    2    0    0 -0.71735311468E+01 -0.68711877135E+01  0.30299373630E+02  0.31886122563E+02  0.00000000000E+00 0.  1.
         11    1    3    3    0    0  0.11404839083E+02  0.66152320196E+01 -0.45695629955E+01  0.13953944081E+02  0.51100000000E-03 0. -1.
        -11    1    3    3    0    0 -0.22197652980E+01  0.14498935102E+02 -0.27185546910E+02  0.30890134965E+02  0.51100000000E-03 0.  1.
         12    1    3    3    0    0 -0.20115426385E+01 -0.14242979408E+02  0.14557362755E+01  0.14457798391E+02  0.00000000000E+00 0. -1.
</event>
<event>
 7    1  0.1202531E-011  0.5930211E+02  0.7816164E-02  0.1266604E+00
        -11   -1    0    0    0    0  0.00000000000E+00  0.00000000000E+00  0.45593999997E+02  0.45594000000E+02  0.51100000000E-03 0. -1.
         11   -1    0    0    0    0 -0.00000000000E+00 -0.00000000000E+00 -0.45593999997E+02  0.45594000000E+02  0.51100000000E-03 0.  1.
    9900012    2    1    2    0    0 -0.17258823707E+01 -0.26448562855E+02  0.17725827621E+02  0.59302107949E+02  0.50000298952E+02 0.  0.
        -12    1    1    2    0    0  0.17258823707E+01  0.26448562855E+02 -0.17725827621E+02  0.31885892051E+02  0.00000000000E+00 0.  1.
         11    1    3    3    0    0 -0.11119228880E+02 -0.22185513800E+02  0.15290139803E+01  0.24863068143E+02  0.51100000000E-03 0. -1.
        -11    1    3    3    0    0  0.11045151849E+02  0.32467975835E+01 -0.44994507052E+01  0.12360506900E+02  0.51100000000E-03 0.  1.
         12    1    3    3    0    0 -0.16518053398E+01 -0.75098466380E+01  0.20696264346E+02  0.22078532906E+02  0.00000000000E+00 0. -1.
</event>
<event>
 7    1  0.1202531E-011  0.5930196E+02  0.7816164E-02  0.1266605E+00
        -11   -1    0    0    0    0  0.00000000000E+00  0.00000000000E+00  0.45593999997E+02  0.45594000000E+02  0.51100000000E-03 0.  1.
         11   -1    0    0    0    0 -0.00000000000E+00 -0.00000000000E+00 -0.45593999997E+02  0.45594000000E+02  0.51100000000E-03 0. -1.
    9900012    2    1    2    0    0  0.12237790467E+02 -0.69841271229E+01  0.28603808418E+02  0.59301962253E+02  0.50000033238E+02 0.  0.
        -12    1    1    2    0    0 -0.12237790467E+02  0.69841271229E+01 -0.28603808418E+02  0.31886037747E+02  0.00000000000E+00 0.  1.
         11    1    3    3    0    0 -0.82799158142E+01  0.14072526075E+02  0.16982207881E+02  0.23558191374E+02  0.51100000000E-03 0.  1.
        -11    1    3    3    0    0  0.65706914432E+00 -0.43860390090E+01 -0.35683858261E+01  0.56923154967E+01  0.51100000000E-03 0. -1.
        -12    1    3    3    0    0  0.19860637137E+02 -0.16670614188E+02  0.15189986363E+02  0.30051455382E+02  0.00000000000E+00 0.  1.
</event>
<event>
 7    1  0.1202531E-011  0.5930201E+02  0.7816164E-02  0.1266605E+00
        -11   -1    0    0    0    0  0.00000000000E+00  0.00000000000E+00  0.45593999997E+02  0.45594000000E+02  0.51100000000E-03 0.  1.
         11   -1    0    0    0    0 -0.00000000000E+00 -0.00000000000E+00 -0.45593999997E+02  0.45594000000E+02  0.51100000000E-03 0. -1.
    9900012    2    1    2    0    0 -0.60198534922E+01  0.31180125511E+02  0.28770863056E+01  0.59302007957E+02  0.50000116592E+02 0.  0.
        -12    1    1    2    0    0  0.60198534922E+01 -0.31180125511E+02 -0.28770863056E+01  0.31885992043E+02  0.00000000000E+00 0.  1.
         11    1    3    3    0    0  0.22388915543E+01  0.18311635913E+02 -0.13136967937E+01  0.18494713968E+02  0.51100000000E-03 0. -1.
        -11    1    3    3    0    0  0.64823817441E+01  0.22208784437E+02  0.27027943363E+01  0.23292841749E+02  0.51100000000E-03 0.  1.
        -12    1    3    3    0    0 -0.14741126791E+02 -0.93402948398E+01  0.14879887630E+01  0.17514452241E+02  0.00000000000E+00 0.  1.
</event>
<event>
 7    1  0.1202531E-011  0.5930195E+02  0.7816164E-02  0.1266605E+00
        -11   -1    0    0    0    0  0.00000000000E+00  0.00000000000E+00  0.45593999997E+02  0.45594000000E+02  0.51100000000E-03 0.  1.
         11   -1    0    0    0    0 -0.00000000000E+00 -0.00000000000E+00 -0.45593999997E+02  0.45594000000E+02  0.51100000000E-03 0. -1.
    9900012    2    1    2    0    0 -0.15110166918E+02 -0.19182555282E+01 -0.28012918187E+02  0.59301946091E+02  0.50000003763E+02 0.  0.
        -12    1    1    2    0    0  0.15110166918E+02  0.19182555282E+01  0.28012918187E+02  0.31886053909E+02  0.00000000000E+00 0.  1.
         11    1    3    3    0    0 -0.11471239731E+02  0.90281571005E+01 -0.19695570381E+02  0.24515555357E+02  0.51100000000E-03 0. -1.
        -11    1    3    3    0    0  0.42376713577E+01 -0.45407027900E+01 -0.19035517939E+02  0.20023156191E+02  0.51100000000E-03 0.  1.
        -12    1    3    3    0    0 -0.78765985441E+01 -0.64057098386E+01  0.10718170133E+02  0.14763234543E+02  0.00000000000E+00 0.  1.
</event>
<event>
 7    1  0.1202531E-011  0.5930193E+02  0.7816164E-02  0.1266605E+00
        -11   -1    0    0    0    0  0.00000000000E+00  0.00000000000E+00  0.45593999997E+02  0.45594000000E+02  0.51100000000E-03 0.  1.
         11   -1    0    0    0    0 -0.00000000000E+00 -0.00000000000E+00 -0.45593999997E+02  0.45594000000E+02  0.51100000000E-03 0. -1.
    9900012    2    1    2    0    0 -0.21521877278E+02  0.11672907791E+02 -0.20427268758E+02  0.59301932717E+02  0.49999979372E+02 0.  0.
        -12    1    1    2    0    0  0.21521877278E+02 -0.11672907791E+02  0.20427268758E+02  0.31886067283E+02  0.00000000000E+00 0.  1.
         11    1    3    3    0    0 -0.14148515598E+02  0.16872455234E+02  0.80466886415E+00  0.22034239980E+02  0.51100000000E-03 0. -1.
        -11    1    3    3    0    0 -0.36958450850E+01  0.23531461467E+01  0.67526203097E+01  0.80494999216E+01  0.51100000000E-03 0.  1.
        -12    1    3    3    0    0 -0.36775165952E+01 -0.75526935902E+01 -0.27984557932E+02  0.29218192815E+02  0.00000000000E+00 0.  1.
</event>
<event>
 7    1  0.1202531E-011  0.5930182E+02  0.7816164E-02  0.1266605E+00
        -11   -1    0    0    0    0  0.00000000000E+00  0.00000000000E+00  0.45593999997E+02  0.45594000000E+02  0.51100000000E-03 0.  1.
         11   -1    0    0    0    0 -0.00000000000E+00 -0.00000000000E+00 -0.45593999997E+02  0.45594000000E+02  0.51100000000E-03 0. -1.
    9900012    2    1    2    0    0 -0.10776300332E+02 -0.28172635693E+02 -0.10339371667E+02  0.59301817143E+02  0.49999768592E+02 0.  0.
        -12    1    1    2    0    0  0.10776300332E+02  0.28172635693E+02  0.10339371667E+02  0.31886182857E+02  0.00000000000E+00 0.  1.
         11    1    3    3    0    0 -0.95463875428E+01 -0.30580668963E+01 -0.19169760214E+02  0.21632498589E+02  0.51100000000E-03 0. -1.
        -11    1    3    3    0    0 -0.13673823495E+02 -0.94966791696E+01  0.42271331112E+01  0.17176408787E+02  0.51100000000E-03 0.  1.
         12    1    3    3    0    0  0.12443910707E+02 -0.15617889628E+02  0.46032554363E+01  0.20492909767E+02  0.00000000000E+00 0. -1.
</event>
<event>
 7    1  0.1202531E-011  0.5930194E+02  0.7816164E-02  0.1266605E+00
        -11   -1    0    0    0    0  0.00000000000E+00  0.00000000000E+00  0.45593999997E+02  0.45594000000E+02  0.51100000000E-03 0.  1.
         11   -1    0    0    0    0 -0.00000000000E+00 -0.00000000000E+00 -0.45593999997E+02  0.45594000000E+02  0.51100000000E-03 0. -1.
    9900012    2    1    2    0    0  0.22324109697E+02 -0.21156048647E+02  0.84128835884E+01  0.59301939121E+02  0.49999991052E+02 0.  0.
        -12    1    1    2    0    0 -0.22324109697E+02  0.21156048647E+02 -0.84128835884E+01  0.31886060879E+02  0.00000000000E+00 0.  1.
         11    1    3    3    0    0  0.13045216624E+01 -0.10076549661E+01  0.18771849435E+02  0.18844083336E+02  0.51100000000E-03 0. -1.
        -11    1    3    3    0    0  0.14640356039E+01  0.50815426282E+01 -0.63843261945E+01  0.82900601295E+01  0.51100000000E-03 0.  1.
         12    1    3    3    0    0  0.19555552431E+02 -0.25229936309E+02 -0.39746396518E+01  0.32167795656E+02  0.00000000000E+00 0. -1.
</event>
<event>
 7    1  0.1202531E-011  0.5930195E+02  0.7816164E-02  0.1266605E+00
        -11   -1    0    0    0    0  0.00000000000E+00  0.00000000000E+00  0.45593999997E+02  0.45594000000E+02  0.51100000000E-03 0.  1.
         11   -1    0    0    0    0 -0.00000000000E+00 -0.00000000000E+00 -0.45593999997E+02  0.45594000000E+02  0.51100000000E-03 0. -1.
    9900012    2    1    2    0    0  0.95815466424E+01 -0.12209051647E+02 -0.27854138008E+02  0.59301953171E+02  0.50000016675E+02 0.  0.
        -12    1    1    2    0    0 -0.95815466424E+01  0.12209051647E+02  0.27854138008E+02  0.31886046829E+02  0.00000000000E+00 0.  1.
         11    1    3    3    0    0  0.16749859856E+02 -0.88205305124E+01 -0.32411097096E+02  0.37534501181E+02  0.51100000000E-03 0. -1.
        -11    1    3    3    0    0  0.29652014725E+00  0.27481472938E+01 -0.65116553970E+01  0.70740295460E+01  0.51100000000E-03 0.  1.
        -12    1    3    3    0    0 -0.74648333611E+01 -0.61366684288E+01  0.11068614484E+02  0.14693422444E+02  0.00000000000E+00 0.  1.
</event>
<event>
 7    1  0.1239777E-011  0.5930193E+02  0.7816164E-02  0.1266605E+00
        -11   -1    0    0    0    0  0.00000000000E+00  0.00000000000E+00  0.45593999997E+02  0.45594000000E+02  0.51100000000E-03 0. -1.
         11   -1    0    0    0    0 -0.00000000000E+00 -0.00000000000E+00 -0.45593999997E+02  0.45594000000E+02  0.51100000000E-03 0.  1.
    9900012    2    1    2    0    0  0.22880688986E+02  0.70158425508E+01  0.21070675329E+02  0.59301931977E+02  0.49999978022E+02 0.  0.
        -12    1    1    2    0    0 -0.22880688986E+02 -0.70158425508E+01 -0.21070675329E+02  0.31886068023E+02  0.00000000000E+00 0.  1.
         11    1    3    3    0    0  0.18101725901E+02 -0.29074125098E+01  0.14770875283E+02  0.23543667619E+02  0.51100000000E-03 0. -1.
        -11    1    3    3    0    0  0.10705526997E+02 -0.83070396326E+01 -0.38240203431E+01  0.14079714045E+02  0.51100000000E-03 0.  1.
        -12    1    3    3    0    0 -0.59265639118E+01  0.18230294693E+02  0.10123820390E+02  0.21678550313E+02  0.00000000000E+00 0.  1.
</event>
<event>
 7    1  0.1202531E-011  0.5930194E+02  0.7816164E-02  0.1266605E+00
        -11   -1    0    0    0    0  0.00000000000E+00  0.00000000000E+00  0.45593999997E+02  0.45594000000E+02  0.51100000000E-03 0.  1.
         11   -1    0    0    0    0 -0.00000000000E+00 -0.00000000000E+00 -0.45593999997E+02  0.45594000000E+02  0.51100000000E-03 0. -1.
    9900012    2    1    2    0    0  0.67982427454E+01  0.18777782752E+02 -0.24857584242E+02  0.59301941544E+02  0.49999995471E+02 0.  0.
        -12    1    1    2    0    0 -0.67982427454E+01 -0.18777782752E+02  0.24857584242E+02  0.31886058456E+02  0.00000000000E+00 0.  1.
         11    1    3    3    0    0 -0.39824654685E+01 -0.37966115913E+01  0.14169433354E+01  0.56817268027E+01  0.51100000000E-03 0. -1.
        -11    1    3    3    0    0  0.11037127339E+02 -0.93784692093E+01 -0.54268777614E+01  0.15466895845E+02  0.51100000000E-03 0.  1.
         12    1    3    3    0    0 -0.25641912462E+00  0.31952863552E+02 -0.20847649816E+02  0.38153318896E+02  0.00000000000E+00 0. -1.
</event>
<event>
 7    1  0.1202531E-011  0.5930192E+02  0.7816164E-02  0.1266605E+00
        -11   -1    0    0    0    0  0.00000000000E+00  0.00000000000E+00  0.45593999997E+02  0.45594000000E+02  0.51100000000E-03 0. -1.
         11   -1    0    0    0    0 -0.00000000000E+00 -0.00000000000E+00 -0.45593999997E+02  0.45594000000E+02  0.51100000000E-03 0.  1.
    9900012    2    1    2    0    0 -0.27926488925E+02  0.10283371732E+02 -0.11449256716E+02  0.59301921577E+02  0.49999959056E+02 0.  0.
        -12    1    1    2    0    0  0.27926488925E+02 -0.10283371732E+02  0.11449256716E+02  0.31886078423E+02  0.00000000000E+00 0.  1.
         11    1    3    3    0    0  0.20530305601E+01  0.13008417979E+02  0.92596478575E+01  0.16098911501E+02  0.51100000000E-03 0. -1.
        -11    1    3    3    0    0 -0.54426435805E+01 -0.10003975497E+02 -0.21532122225E+01  0.11590436490E+02  0.51100000000E-03 0.  1.
        -12    1    3    3    0    0 -0.24536875904E+02  0.72789292492E+01 -0.18555692351E+02  0.31612573587E+02  0.00000000000E+00 0.  1.
</event>
<event>
 7    1  0.1202531E-011  0.5930194E+02  0.7816164E-02  0.1266605E+00
        -11   -1    0    0    0    0  0.00000000000E+00  0.00000000000E+00  0.45593999997E+02  0.45594000000E+02  0.51100000000E-03 0. -1.
         11   -1    0    0    0    0 -0.00000000000E+00 -0.00000000000E+00 -0.45593999997E+02  0.45594000000E+02  0.51100000000E-03 0.  1.
    9900012    2    1    2    0    0  0.19769255826E+02 -0.24680844274E+02 -0.40930415930E+01  0.59301944435E+02  0.50000000743E+02 0.  0.
        -12    1    1    2    0    0 -0.19769255826E+02  0.24680844274E+02  0.40930415930E+01  0.31886055565E+02  0.00000000000E+00 0.  1.
         11    1    3    3    0    0  0.23606024935E+02  0.21151396009E+01  0.68134055385E-01  0.23700693477E+02  0.51100000000E-03 0. -1.
        -11    1    3    3    0    0  0.91275712517E+01 -0.91971591570E+01 -0.45672796557E+01  0.13739007869E+02  0.51100000000E-03 0.  1.
        -12    1    3    3    0    0 -0.12964340361E+02 -0.17598824718E+02  0.40610400733E+00  0.21862243089E+02  0.00000000000E+00 0.  1.
</event>
<event>
 7    1  0.1202531E-011  0.5930194E+02  0.7816164E-02  0.1266605E+00
        -11   -1    0    0    0    0  0.00000000000E+00  0.00000000000E+00  0.45593999997E+02  0.45594000000E+02  0.51100000000E-03 0.  1.
         11   -1    0    0    0    0 -0.00000000000E+00 -0.00000000000E+00 -0.45593999997E+02  0.45594000000E+02  0.51100000000E-03 0. -1.
    9900012    2    1    2    0    0 -0.12684131761E+02 -0.27654704625E+02 -0.95420506536E+01  0.59301943218E+02  0.49999998523E+02 0.  0.
        -12    1    1    2    0    0  0.12684131761E+02  0.27654704625E+02  0.95420506536E+01  0.31886056782E+02  0.00000000000E+00 0.  1.
         11    1    3    3    0    0 -0.98021124736E+01  0.14958317933E+01 -0.13103588660E+01  0.10001797954E+02  0.51100000000E-03 0. -1.
        -11    1    3    3    0    0  0.14532767469E+02 -0.25814768264E+01  0.39454797978E+01  0.15278486967E+02  0.51100000000E-03 0.  1.
         12    1    3    3    0    0 -0.17414786757E+02 -0.26569059592E+02 -0.12177171585E+02  0.34021658296E+02  0.00000000000E+00 0. -1.
</event>
<event>
 7    1  0.1202531E-011  0.5930193E+02  0.7816164E-02  0.1266605E+00
        -11   -1    0    0    0    0  0.00000000000E+00  0.00000000000E+00  0.45593999997E+02  0.45594000000E+02  0.51100000000E-03 0. -1.
         11   -1    0    0    0    0 -0.00000000000E+00 -0.00000000000E+00 -0.45593999997E+02  0.45594000000E+02  0.51100000000E-03 0.  1.
    9900012    2    1    2    0    0 -0.17720293989E+02  0.25171073047E+02 -0.83144122806E+01  0.59301934251E+02  0.49999982170E+02 0.  0.
        -12    1    1    2    0    0  0.17720293989E+02 -0.25171073047E+02  0.83144122806E+01  0.31886065749E+02  0.00000000000E+00 0.  1.
         11    1    3    3    0    0 -0.94392029992E+01  0.28309254272E+01  0.16955681710E+01  0.99993821669E+01  0.51100000000E-03 0. -1.
        -11    1    3    3    0    0 -0.14519394220E+01  0.25823590098E+02  0.10111100190E+02  0.27770492991E+02  0.51100000000E-03 0.  1.
        -12    1    3    3    0    0 -0.68291515679E+01 -0.34834424786E+01 -0.20121080641E+02  0.21532059094E+02  0.00000000000E+00 0.  1.
</event>
<event>
 7    1  0.1202531E-011  0.5930194E+02  0.7816164E-02  0.1266605E+00
        -11   -1    0    0    0    0  0.00000000000E+00  0.00000000000E+00  0.45593999997E+02  0.45594000000E+02  0.51100000000E-03 0.  1.
         11   -1    0    0    0    0 -0.00000000000E+00 -0.00000000000E+00 -0.45593999997E+02  0.45594000000E+02  0.51100000000E-03 0. -1.
    9900012    2    1    2    0    0  0.12225259432E+02  0.29222762852E+02 -0.36460775579E+01  0.59301941629E+02  0.49999995626E+02 0.  0.
        -12    1    1    2    0    0 -0.12225259432E+02 -0.29222762852E+02  0.36460775579E+01  0.31886058371E+02  0.00000000000E+00 0.  1.
         11    1    3    3    0    0  0.31694580750E+01  0.13559442214E+02 -0.14926527794E+02  0.20413357634E+02  0.51100000000E-03 0. -1.
        -11    1    3    3    0    0  0.12319252501E+02  0.44112871989E+01  0.20266345389E+02  0.24123602397E+02  0.51100000000E-03 0.  1.
         12    1    3    3    0    0 -0.32634511442E+01  0.11252033439E+02 -0.89858951536E+01  0.14764981598E+02  0.00000000000E+00 0. -1.
</event>
<event>
 7    1  0.1202531E-011  0.5930196E+02  0.7816164E-02  0.1266605E+00
        -11   -1    0    0    0    0  0.00000000000E+00  0.00000000000E+00  0.45593999997E+02  0.45594000000E+02  0.51100000000E-03 0. -1.
         11   -1    0    0    0    0 -0.00000000000E+00 -0.00000000000E+00 -0.45593999997E+02  0.45594000000E+02  0.51100000000E-03 0.  1.
    9900012    2    1    2    0    0 -0.16956378718E+02  0.25042134483E+02  0.10104059290E+02  0.59301963984E+02  0.50000036395E+02 0.  0.
        -12    1    1    2    0    0  0.16956378718E+02 -0.25042134483E+02 -0.10104059290E+02  0.31886036016E+02  0.00000000000E+00 0.  1.
         11    1    3    3    0    0  0.47062860352E+01  0.75525911952E+01  0.15550245559E+02  0.17916497961E+02  0.51100000000E-03 0. -1.
        -11    1    3    3    0    0 -0.42196769848E+01  0.20498343338E+02  0.40228198454E+01  0.21311284176E+02  0.51100000000E-03 0.  1.
         12    1    3    3    0    0 -0.17442987768E+02 -0.30088000497E+01 -0.94690061143E+01  0.20074181847E+02  0.00000000000E+00 0. -1.
</event>
<event>
 7    1  0.1202531E-011  0.5930192E+02  0.7816164E-02  0.1266605E+00
        -11   -1    0    0    0    0  0.00000000000E+00  0.00000000000E+00  0.45593999997E+02  0.45594000000E+02  0.51100000000E-03 0.  1.
         11   -1    0    0    0    0 -0.00000000000E+00 -0.00000000000E+00 -0.45593999997E+02  0.45594000000E+02  0.51100000000E-03 0. -1.
    9900012    2    1    2    0    0  0.28321102252E+02 -0.12457572424E+02  0.77101326176E+01  0.59301920146E+02  0.49999956445E+02 0.  0.
        -12    1    1    2    0    0 -0.28321102252E+02  0.12457572424E+02 -0.77101326176E+01  0.31886079854E+02  0.00000000000E+00 0.  1.
         11    1    3    3    0    0 -0.39390366222E+01  0.18540504510E+01 -0.69638712493E+01  0.82127349661E+01  0.51100000000E-03 0. -1.
        -11    1    3    3    0    0 -0.12405410186E+01 -0.89709033405E+01 -0.64570196648E+01  0.11122461597E+02  0.51100000000E-03 0.  1.
         12    1    3    3    0    0  0.33500679893E+02 -0.53407195347E+01  0.21131023532E+02  0.39966723583E+02  0.00000000000E+00 0. -1.
</event>
<event>
 7    1  0.1202531E-011  0.5930183E+02  0.7816164E-02  0.1266605E+00
        -11   -1    0    0    0    0  0.00000000000E+00  0.00000000000E+00  0.45593999997E+02  0.45594000000E+02  0.51100000000E-03 0.  1.
         11   -1    0    0    0    0 -0.00000000000E+00 -0.00000000000E+00 -0.45593999997E+02  0.45594000000E+02  0.51100000000E-03 0. -1.
    9900012    2    1    2    0    0  0.29486327346E+01 -0.21691601773E+02 -0.23184218184E+02  0.59301827522E+02  0.49999787521E+02 0.  0.
        -12    1    1    2    0    0 -0.29486327346E+01  0.21691601773E+02  0.23184218184E+02  0.31886172478E+02  0.00000000000E+00 0.  1.
         11    1    3    3    0    0  0.57301562736E+01  0.12041526394E+02  0.82251679811E-01  0.13335659504E+02  0.51100000000E-03 0. -1.
        -11    1    3    3    0    0  0.79432774883E+01 -0.15484598059E+02 -0.15845933716E+02  0.23536398405E+02  0.51100000000E-03 0.  1.
        -12    1    3    3    0    0 -0.10724801027E+02 -0.18248530107E+02 -0.74205361483E+01  0.22429769613E+02  0.00000000000E+00 0.  1.
</event>
<event>
 7    1  0.1202531E-011  0.5930183E+02  0.7816164E-02  0.1266605E+00
        -11   -1    0    0    0    0  0.00000000000E+00  0.00000000000E+00  0.45593999997E+02  0.45594000000E+02  0.51100000000E-03 0.  1.
         11   -1    0    0    0    0 -0.00000000000E+00 -0.00000000000E+00 -0.45593999997E+02  0.45594000000E+02  0.51100000000E-03 0. -1.
    9900012    2    1    2    0    0  0.33008371154E+01  0.27057715847E+01 -0.31599223386E+02  0.59301833029E+02  0.49999797564E+02 0.  0.
        -12    1    1    2    0    0 -0.33008371154E+01 -0.27057715847E+01  0.31599223386E+02  0.31886166971E+02  0.00000000000E+00 0.  1.
         11    1    3    3    0    0  0.11503902281E+02  0.32749036755E+01 -0.25398511075E+02  0.28073993782E+02  0.51100000000E-03 0. -1.
        -11    1    3    3    0    0  0.28591230099E+01 -0.12830513895E+02  0.10604918205E+01  0.13187923049E+02  0.51100000000E-03 0.  1.
        -12    1    3    3    0    0 -0.11062188175E+02  0.12261381804E+02 -0.72612041310E+01  0.18039916197E+02  0.00000000000E+00 0.  1.
</event>
<event>
 7    1  0.1202531E-011  0.5930180E+02  0.7816164E-02  0.1266605E+00
        -11   -1    0    0    0    0  0.00000000000E+00  0.00000000000E+00  0.45593999997E+02  0.45594000000E+02  0.51100000000E-03 0. -1.
         11   -1    0    0    0    0 -0.00000000000E+00 -0.00000000000E+00 -0.45593999997E+02  0.45594000000E+02  0.51100000000E-03 0.  1.
    9900012    2    1    2    0    0 -0.21141054775E+02  0.54406117370E+01  0.23241892608E+02  0.59301795693E+02  0.49999729473E+02 0.  0.
        -12    1    1    2    0    0  0.21141054775E+02 -0.54406117370E+01 -0.23241892608E+02  0.31886204307E+02  0.00000000000E+00 0.  1.
         11    1    3    3    0    0 -0.18484897369E+02  0.17660113594E+02  0.11873931831E+02  0.28187963748E+02  0.51100000000E-03 0. -1.
        -11    1    3    3    0    0 -0.13427190840E+02 -0.65776855353E+01  0.11644934458E+02  0.18951514442E+02  0.51100000000E-03 0.  1.
        -12    1    3    3    0    0  0.10771033433E+02 -0.56418163213E+01 -0.27697368163E+00  0.12162317503E+02  0.00000000000E+00 0.  1.
</event>
<event>
 7    1  0.1202531E-011  0.5930196E+02  0.7816164E-02  0.1266605E+00
        -11   -1    0    0    0    0  0.00000000000E+00  0.00000000000E+00  0.45593999997E+02  0.45594000000E+02  0.51100000000E-03 0.  1.
         11   -1    0    0    0    0 -0.00000000000E+00 -0.00000000000E+00 -0.45593999997E+02  0.45594000000E+02  0.51100000000E-03 0. -1.
    9900012    2    1    2    0    0 -0.86089919355E+01 -0.29052782570E+02  0.99267571907E+01  0.59301961903E+02  0.50000032601E+02 0.  0.
        -12    1    1    2    0    0  0.86089919355E+01  0.29052782570E+02 -0.99267571907E+01  0.31886038097E+02  0.00000000000E+00 0.  1.
         11    1    3    3    0    0  0.22076800354E+01 -0.23544403844E+02  0.71524234485E+01  0.24705666657E+02  0.51100000000E-03 0. -1.
        -11    1    3    3    0    0  0.97371256065E+01  0.44870965280E+01 -0.27797144184E+01  0.11075760147E+02  0.51100000000E-03 0.  1.
        -12    1    3    3    0    0 -0.20553797577E+02 -0.99954752535E+01  0.55540481606E+01  0.23520535099E+02  0.00000000000E+00 0.  1.
</event>
<event>
 7    1  0.1202531E-011  0.5930193E+02  0.7816164E-02  0.1266605E+00
        -11   -1    0    0    0    0  0.00000000000E+00  0.00000000000E+00  0.45593999997E+02  0.45594000000E+02  0.51100000000E-03 0. -1.
         11   -1    0    0    0    0 -0.00000000000E+00 -0.00000000000E+00 -0.45593999997E+02  0.45594000000E+02  0.51100000000E-03 0.  1.
    9900012    2    1    2    0    0  0.72248931212E+01 -0.30895148783E+02 -0.31642231826E+01  0.59301927691E+02  0.49999970205E+02 0.  0.
        -12    1    1    2    0    0 -0.72248931212E+01  0.30895148783E+02  0.31642231826E+01  0.31886072309E+02  0.00000000000E+00 0.  1.
         11    1    3    3    0    0  0.66142573534E+01 -0.58119334070E+01 -0.13259167938E+02  0.15916422491E+02  0.51100000000E-03 0. -1.
        -11    1    3    3    0    0  0.14464671034E+02 -0.13211966007E+02 -0.44065318657E+01  0.20079847540E+02  0.51100000000E-03 0.  1.
         12    1    3    3    0    0 -0.13854035266E+02 -0.11871249370E+02  0.14501476621E+02  0.23305657659E+02  0.00000000000E+00 0. -1.
</event>
<event>
 7    1  0.1202531E-011  0.5930192E+02  0.7816164E-02  0.1266605E+00
        -11   -1    0    0    0    0  0.00000000000E+00  0.00000000000E+00  0.45593999997E+02  0.45594000000E+02  0.51100000000E-03 0.  1.
         11   -1    0    0    0    0 -0.00000000000E+00 -0.00000000000E+00 -0.45593999997E+02  0.45594000000E+02  0.51100000000E-03 0. -1.
    9900012    2    1    2    0    0  0.18732506005E+01 -0.30197250747E+02  0.10066731777E+02  0.59301919821E+02  0.49999955854E+02 0.  0.
        -12    1    1    2    0    0 -0.18732506005E+01  0.30197250747E+02 -0.10066731777E+02  0.31886080179E+02  0.00000000000E+00 0.  1.
         11    1    3    3    0    0  0.14250076169E+02 -0.33954723765E+02  0.21247330907E+01  0.36884989192E+02  0.51100000000E-03 0. -1.
        -11    1    3    3    0    0  0.20716785530E+01  0.29203921486E+01  0.70615393256E+01  0.79174415208E+01  0.51100000000E-03 0.  1.
        -12    1    3    3    0    0 -0.14448504121E+02  0.83708086896E+00  0.88045936044E+00  0.14499489108E+02  0.00000000000E+00 0.  1.
</event>
<event>
 7    1  0.1202531E-011  0.5930194E+02  0.7816164E-02  0.1266605E+00
        -11   -1    0    0    0    0  0.00000000000E+00  0.00000000000E+00  0.45593999997E+02  0.45594000000E+02  0.51100000000E-03 0. -1.
         11   -1    0    0    0    0 -0.00000000000E+00 -0.00000000000E+00 -0.45593999997E+02  0.45594000000E+02  0.51100000000E-03 0.  1.
    9900012    2    1    2    0    0 -0.16107531904E+02 -0.25642421124E+02  0.99867056783E+01  0.59301942930E+02  0.49999997998E+02 0.  0.
        -12    1    1    2    0    0  0.16107531904E+02  0.25642421124E+02 -0.99867056783E+01  0.31886057070E+02  0.00000000000E+00 0.  1.
         11    1    3    3    0    0 -0.15754187960E+02 -0.65538986308E+01  0.87727411644E+01  0.19186167239E+02  0.51100000000E-03 0. -1.
        -11    1    3    3    0    0 -0.12190671658E+02 -0.91336621435E+01  0.13507060295E+02  0.20358706681E+02  0.51100000000E-03 0.  1.
        -12    1    3    3    0    0  0.11837327713E+02 -0.99548603499E+01 -0.12293095781E+02  0.19757069010E+02  0.00000000000E+00 0.  1.
</event>
<event>
 7    1  0.1202531E-011  0.5930194E+02  0.7816164E-02  0.1266605E+00
        -11   -1    0    0    0    0  0.00000000000E+00  0.00000000000E+00  0.45593999997E+02  0.45594000000E+02  0.51100000000E-03 0.  1.
         11   -1    0    0    0    0 -0.00000000000E+00 -0.00000000000E+00 -0.45593999997E+02  0.45594000000E+02  0.51100000000E-03 0. -1.
    9900012    2    1    2    0    0  0.76991134769E+01 -0.30051998706E+02  0.73703160171E+01  0.59301944541E+02  0.50000000936E+02 0.  0.
        -12    1    1    2    0    0 -0.76991134769E+01  0.30051998706E+02 -0.73703160171E+01  0.31886055459E+02  0.00000000000E+00 0.  1.
         11    1    3    3    0    0  0.14812342543E+02 -0.23507797926E+02  0.74623782063E+01  0.28769934718E+02  0.51100000000E-03 0. -1.
        -11    1    3    3    0    0  0.10928492762E+02 -0.25071045583E+01 -0.34721283499E+01  0.11737683028E+02  0.51100000000E-03 0.  1.
        -12    1    3    3    0    0 -0.18041721828E+02 -0.40370962216E+01  0.33800661607E+01  0.18794326795E+02  0.00000000000E+00 0.  1.
</event>
<event>
 7    1  0.1202531E-011  0.5930194E+02  0.7816164E-02  0.1266605E+00
        -11   -1    0    0    0    0  0.00000000000E+00  0.00000000000E+00  0.45593999997E+02  0.45594000000E+02  0.51100000000E-03 0. -1.
         11   -1    0    0    0    0 -0.00000000000E+00 -0.00000000000E+00 -0.45593999997E+02  0.45594000000E+02  0.51100000000E-03 0.  1.
    9900012    2    1    2    0    0 -0.17120762872E+02 -0.26895771351E+02  0.46656297577E+00  0.59301941622E+02  0.49999995612E+02 0.  0.
        -12    1    1    2    0    0  0.17120762872E+02  0.26895771351E+02 -0.46656297577E+00  0.31886058378E+02  0.00000000000E+00 0.  1.
         11    1    3    3    0    0  0.29604004094E+00 -0.12015205092E+02 -0.81847265721E+01  0.14541064006E+02  0.51100000000E-03 0. -1.
        -11    1    3    3    0    0  0.34560082991E+01 -0.42077589710E+00 -0.11707949404E+02  0.12214627511E+02  0.51100000000E-03 0.  1.
         12    1    3    3    0    0 -0.20872811212E+02 -0.14459790362E+02  0.20359238952E+02  0.32546250105E+02  0.00000000000E+00 0. -1.
</event>
<event>
 7    1  0.1202531E-011  0.5930197E+02  0.7816164E-02  0.1266605E+00
        -11   -1    0    0    0    0  0.00000000000E+00  0.00000000000E+00  0.45593999997E+02  0.45594000000E+02  0.51100000000E-03 0. -1.
         11   -1    0    0    0    0 -0.00000000000E+00 -0.00000000000E+00 -0.45593999997E+02  0.45594000000E+02  0.51100000000E-03 0.  1.
    9900012    2    1    2    0    0  0.43096825485E+01  0.11756161836E+02  0.29324707944E+02  0.59301965428E+02  0.50000039028E+02 0.  0.
        -12    1    1    2    0    0 -0.43096825485E+01 -0.11756161836E+02 -0.29324707944E+02  0.31886034572E+02  0.00000000000E+00 0.  1.
         11    1    3    3    0    0 -0.44797891505E+01 -0.60226312569E+01  0.15311034698E+02  0.17051931911E+02  0.51100000000E-03 0.  1.
        -11    1    3    3    0    0  0.84547634407E+01  0.13641212183E+02  0.25447739467E+02  0.30085763060E+02  0.51100000000E-03 0. -1.
        -12    1    3    3    0    0  0.33470825831E+00  0.41375809092E+01 -0.11434066221E+02  0.12164270457E+02  0.00000000000E+00 0.  1.
</event>
<event>
 7    1  0.1202531E-011  0.5930195E+02  0.7816164E-02  0.1266605E+00
        -11   -1    0    0    0    0  0.00000000000E+00  0.00000000000E+00  0.45593999997E+02  0.45594000000E+02  0.51100000000E-03 0.  1.
         11   -1    0    0    0    0 -0.00000000000E+00 -0.00000000000E+00 -0.45593999997E+02  0.45594000000E+02  0.51100000000E-03 0. -1.
    9900012    2    1    2    0    0 -0.95001144567E+01  0.28979274347E+02  0.93096511320E+01  0.59301951004E+02  0.50000012723E+02 0.  0.
        -12    1    1    2    0    0  0.95001144567E+01 -0.28979274347E+02 -0.93096511320E+01  0.31886048996E+02  0.00000000000E+00 0.  1.
         11    1    3    3    0    0  0.64149176156E+01  0.24038772315E+02  0.39446428544E+01  0.25190751278E+02  0.51100000000E-03 0. -1.
        -11    1    3    3    0    0  0.80510663380E+01  0.19315921993E+01 -0.25990370523E+01  0.86778863477E+01  0.51100000000E-03 0.  1.
        -12    1    3    3    0    0 -0.23966098410E+02  0.30089098325E+01  0.79640453300E+01  0.25433313379E+02  0.00000000000E+00 0.  1.
</event>
<event>
 7    1  0.1202531E-011  0.5930197E+02  0.7816164E-02  0.1266605E+00
        -11   -1    0    0    0    0  0.00000000000E+00  0.00000000000E+00  0.45593999997E+02  0.45594000000E+02  0.51100000000E-03 0.  1.
         11   -1    0    0    0    0 -0.00000000000E+00 -0.00000000000E+00 -0.45593999997E+02  0.45594000000E+02  0.51100000000E-03 0. -1.
    9900012    2    1    2    0    0  0.14776994523E+02  0.26075053131E+00 -0.28254054618E+02  0.59301966061E+02  0.50000040184E+02 0.  0.
        -12    1    1    2    0    0 -0.14776994523E+02 -0.26075053131E+00  0.28254054618E+02  0.31886033939E+02  0.00000000000E+00 0.  1.
         11    1    3    3    0    0  0.30943820168E+01 -0.35684642360E+01  0.96596166502E+00  0.48210184887E+01  0.51100000000E-03 0. -1.
        -11    1    3    3    0    0  0.79663089926E+01 -0.19993063538E+02 -0.17143433515E+02  0.27515122779E+02  0.51100000000E-03 0.  1.
         12    1    3    3    0    0  0.37163035138E+01  0.23822278305E+02 -0.12076582768E+02  0.26965824794E+02  0.00000000000E+00 0. -1.
</event>
<event>
 7    1  0.1202531E-011  0.5930195E+02  0.7816164E-02  0.1266605E+00
        -11   -1    0    0    0    0  0.00000000000E+00  0.00000000000E+00  0.45593999997E+02  0.45594000000E+02  0.51100000000E-03 0. -1.
         11   -1    0    0    0    0 -0.00000000000E+00 -0.00000000000E+00 -0.45593999997E+02  0.45594000000E+02  0.51100000000E-03 0.  1.
    9900012    2    1    2    0    0 -0.70408114120E+01  0.85405954206E+01  0.29903270828E+02  0.59301946596E+02  0.50000004684E+02 0.  0.
        -12    1    1    2    0    0  0.70408114120E+01 -0.85405954206E+01 -0.29903270828E+02  0.31886053404E+02  0.00000000000E+00 0.  1.
         11    1    3    3    0    0 -0.11284507172E+02 -0.13341341439E+02  0.24521081836E+02  0.30110047296E+02  0.51100000000E-03 0. -1.
        -11    1    3    3    0    0 -0.32426899551E+01 -0.10959640360E+01 -0.19474549046E+01  0.39381158159E+01  0.51100000000E-03 0.  1.
         12    1    3    3    0    0  0.74863857151E+01  0.22977900895E+02  0.73296438967E+01  0.25253783485E+02  0.00000000000E+00 0. -1.
</event>
<event>
 7    1  0.1202531E-011  0.5930196E+02  0.7816164E-02  0.1266605E+00
        -11   -1    0    0    0    0  0.00000000000E+00  0.00000000000E+00  0.45593999997E+02  0.45594000000E+02  0.51100000000E-03 0.  1.
         11   -1    0    0    0    0 -0.00000000000E+00 -0.00000000000E+00 -0.45593999997E+02  0.45594000000E+02  0.51100000000E-03 0. -1.
    9900012    2    1    2    0    0  0.20014119849E+02 -0.12191144261E+02 -0.21622449871E+02  0.59301963398E+02  0.50000035327E+02 0.  0.
        -12    1    1    2    0    0 -0.20014119849E+02  0.12191144261E+02  0.21622449871E+02  0.31886036602E+02  0.00000000000E+00 0.  1.
         11    1    3    3    0    0  0.14259489594E+02  0.86224865640E+01 -0.13155291374E+02  0.21230685562E+02  0.51100000000E-03 0. -1.
        -11    1    3    3    0    0  0.48355575801E+01 -0.24596140822E+00  0.95535032141E+01  0.10710393926E+02  0.51100000000E-03 0.  1.
         12    1    3    3    0    0  0.91907267427E+00 -0.20567669417E+02 -0.18020661712E+02  0.27360883910E+02  0.00000000000E+00 0. -1.
</event>
<event>
 7    1  0.1202531E-011  0.5930195E+02  0.7816164E-02  0.1266605E+00
        -11   -1    0    0    0    0  0.00000000000E+00  0.00000000000E+00  0.45593999997E+02  0.45594000000E+02  0.51100000000E-03 0. -1.
         11   -1    0    0    0    0 -0.00000000000E+00 -0.00000000000E+00 -0.45593999997E+02  0.45594000000E+02  0.51100000000E-03 0.  1.
    9900012    2    1    2    0    0  0.26344947364E+02  0.42789729581E+01  0.17445746173E+02  0.59301954138E+02  0.50000018438E+02 0.  0.
        -12    1    1    2    0    0 -0.26344947364E+02 -0.42789729581E+01 -0.17445746173E+02  0.31886045862E+02  0.00000000000E+00 0.  1.
         11    1    3    3    0    0 -0.49501885330E+01 -0.73640428723E+01 -0.45245819131E+01  0.99601875327E+01  0.51100000000E-03 0. -1.
        -11    1    3    3    0    0  0.25294992164E+02 -0.51617005171E+01  0.16657730077E+02  0.30723928010E+02  0.51100000000E-03 0.  1.
        -12    1    3    3    0    0  0.60001437339E+01  0.16804716348E+02  0.53125980086E+01  0.18617838595E+02  0.00000000000E+00 0.  1.
</event>
<event>
 7    1  0.1202531E-011  0.5930195E+02  0.7816164E-02  0.1266605E+00
        -11   -1    0    0    0    0  0.00000000000E+00  0.00000000000E+00  0.45593999997E+02  0.45594000000E+02  0.51100000000E-03 0. -1.
         11   -1    0    0    0    0 -0.00000000000E+00 -0.00000000000E+00 -0.45593999997E+02  0.45594000000E+02  0.51100000000E-03 0.  1.
    9900012    2    1    2    0    0 -0.23609991129E+02 -0.20801300463E+02  0.51570011097E+01  0.59301945956E+02  0.50000003517E+02 0.  0.
        -12    1    1    2    0    0  0.23609991129E+02  0.20801300463E+02 -0.51570011097E+01  0.31886054044E+02  0.00000000000E+00 0.  1.
         11    1    3    3    0    0  0.73754159449E+01  0.34491593803E+01  0.57214465378E+01  0.99513020022E+01  0.51100000000E-03 0. -1.
        -11    1    3    3    0    0  0.34496318931E+01 -0.66126730004E+00 -0.63054452042E+01  0.72177471641E+01  0.51100000000E-03 0.  1.
         12    1    3    3    0    0 -0.34435038967E+02 -0.23589192543E+02  0.57409997760E+01  0.42132896790E+02  0.00000000000E+00 0. -1.
</event>
<event>
 7    1  0.1202531E-011  0.5930195E+02  0.7816164E-02  0.1266605E+00
        -11   -1    0    0    0    0  0.00000000000E+00  0.00000000000E+00  0.45593999997E+02  0.45594000000E+02  0.51100000000E-03 0.  1.
         11   -1    0    0    0    0 -0.00000000000E+00 -0.00000000000E+00 -0.45593999997E+02  0.45594000000E+02  0.51100000000E-03 0. -1.
    9900012    2    1    2    0    0 -0.91864116322E+01 -0.21305047853E+02 -0.21872925985E+02  0.59301951110E+02  0.50000012915E+02 0.  0.
        -12    1    1    2    0    0  0.91864116322E+01  0.21305047853E+02  0.21872925985E+02  0.31886048890E+02  0.00000000000E+00 0.  1.
         11    1    3    3    0    0 -0.75543669033E+01 -0.26171036472E+02 -0.11199204879E+02  0.29451889575E+02  0.51100000000E-03 0. -1.
        -11    1    3    3    0    0  0.71518734280E+01 -0.70536039818E+01  0.21380960421E+01  0.10270057332E+02  0.51100000000E-03 0.  1.
         12    1    3    3    0    0 -0.87839181568E+01  0.11919592601E+02 -0.12811817148E+02  0.19580004203E+02  0.00000000000E+00 0. -1.
</event>
<event>
 7    1  0.1202531E-011  0.5930194E+02  0.7816164E-02  0.1266605E+00
        -11   -1    0    0    0    0  0.00000000000E+00  0.00000000000E+00  0.45593999997E+02  0.45594000000E+02  0.51100000000E-03 0. -1.
         11   -1    0    0    0    0 -0.00000000000E+00 -0.00000000000E+00 -0.45593999997E+02  0.45594000000E+02  0.51100000000E-03 0.  1.
    9900012    2    1    2    0    0  0.27392958530E+02  0.93587583864E+01  0.13370122418E+02  0.59301941776E+02  0.49999995894E+02 0.  0.
        -12    1    1    2    0    0 -0.27392958530E+02 -0.93587583864E+01 -0.13370122418E+02  0.31886058224E+02  0.00000000000E+00 0.  1.
         11    1    3    3    0    0  0.21110596896E+02  0.25398839827E+01  0.15663200176E+02  0.26409167953E+02  0.51100000000E-03 0. -1.
        -11    1    3    3    0    0 -0.57823769873E+00 -0.70520630975E+01  0.10604130316E+02  0.12748079572E+02  0.51100000000E-03 0.  1.
        -12    1    3    3    0    0  0.68605993330E+01  0.13870937501E+02 -0.12897208074E+02  0.20144694251E+02  0.00000000000E+00 0.  1.
</event>
<event>
 7    1  0.1202531E-011  0.5930199E+02  0.7816164E-02  0.1266605E+00
        -11   -1    0    0    0    0  0.00000000000E+00  0.00000000000E+00  0.45593999997E+02  0.45594000000E+02  0.51100000000E-03 0.  1.
         11   -1    0    0    0    0 -0.00000000000E+00 -0.00000000000E+00 -0.45593999997E+02  0.45594000000E+02  0.51100000000E-03 0. -1.
    9900012    2    1    2    0    0  0.21467747467E+02  0.20011406482E+02 -0.12465825948E+02  0.59301993865E+02  0.50000090891E+02 0.  0.
        -12    1    1    2    0    0 -0.21467747467E+02 -0.20011406482E+02  0.12465825948E+02  0.31886006135E+02  0.00000000000E+00 0.  1.
         11    1    3    3    0    0  0.64135923154E+01 -0.93226676189E+01 -0.48777935082E+01  0.12322303668E+02  0.51100000000E-03 0. -1.
        -11    1    3    3    0    0 -0.77968504753E+01  0.10550962113E+02 -0.11109155672E+02  0.17190899303E+02  0.51100000000E-03 0.  1.
        -12    1    3    3    0    0  0.22851005627E+02  0.18783111987E+02  0.35211232320E+01  0.29788790894E+02  0.00000000000E+00 0.  1.
</event>
<event>
 7    1  0.1202531E-011  0.5930197E+02  0.7816164E-02  0.1266605E+00
        -11   -1    0    0    0    0  0.00000000000E+00  0.00000000000E+00  0.45593999997E+02  0.45594000000E+02  0.51100000000E-03 0.  1.
         11   -1    0    0    0    0 -0.00000000000E+00 -0.00000000000E+00 -0.45593999997E+02  0.45594000000E+02  0.51100000000E-03 0. -1.
    9900012    2    1    2    0    0  0.22530155201E+02 -0.20478863998E+02 -0.94724351011E+01  0.59301971856E+02  0.50000050752E+02 0.  0.
        -12    1    1    2    0    0 -0.22530155201E+02  0.20478863998E+02  0.94724351011E+01  0.31886028144E+02  0.00000000000E+00 0.  1.
         11    1    3    3    0    0  0.80936923460E+01 -0.74901019287E+01  0.33682355337E+01  0.11530589472E+02  0.51100000000E-03 0. -1.
        -11    1    3    3    0    0  0.17176865831E+02 -0.67649621312E+01  0.11998871794E+02  0.22017773662E+02  0.51100000000E-03 0.  1.
        -12    1    3    3    0    0 -0.27404029758E+01 -0.62237999384E+01 -0.24839542429E+02  0.25753608723E+02  0.00000000000E+00 0.  1.
</event>
<event>
 7    1  0.1202531E-011  0.5930194E+02  0.7816164E-02  0.1266605E+00
        -11   -1    0    0    0    0  0.00000000000E+00  0.00000000000E+00  0.45593999997E+02  0.45594000000E+02  0.51100000000E-03 0.  1.
         11   -1    0    0    0    0 -0.00000000000E+00 -0.00000000000E+00 -0.45593999997E+02  0.45594000000E+02  0.51100000000E-03 0. -1.
    9900012    2    1    2    0    0  0.20729038511E+02  0.41856480758E+01 -0.23864364684E+02  0.59301943656E+02  0.49999999322E+02 0.  0.
        -12    1    1    2    0    0 -0.20729038511E+02 -0.41856480758E+01  0.23864364684E+02  0.31886056344E+02  0.00000000000E+00 0.  1.
         11    1    3    3    0    0  0.13770650988E+02 -0.12648375994E+02 -0.68966681757E+01  0.19929281876E+02  0.51100000000E-03 0. -1.
        -11    1    3    3    0    0  0.14127137410E+02 -0.58303127846E+00 -0.17696177748E+00  0.14140270599E+02  0.51100000000E-03 0.  1.
         12    1    3    3    0    0 -0.71687498870E+01  0.17417055348E+02 -0.16790734731E+02  0.25232391181E+02  0.00000000000E+00 0. -1.
</event>
<event>
 7    1  0.1202531E-011  0.5930193E+02  0.7816164E-02  0.1266605E+00
        -11   -1    0    0    0    0  0.00000000000E+00  0.00000000000E+00  0.45593999997E+02  0.45594000000E+02  0.51100000000E-03 0.  1.
         11   -1    0    0    0    0 -0.00000000000E+00 -0.00000000000E+00 -0.45593999997E+02  0.45594000000E+02  0.51100000000E-03 0. -1.
    9900012    2    1    2    0    0  0.12109652732E+02 -0.18887721826E+02 -0.22656825480E+02  0.59301929908E+02  0.49999974249E+02 0.  0.
        -12    1    1    2    0    0 -0.12109652732E+02  0.18887721826E+02  0.22656825480E+02  0.31886070092E+02  0.00000000000E+00 0.  1.
         11    1    3    3    0    0  0.27234909458E+01  0.10462555652E+02 -0.24570260725E+01  0.11086904486E+02  0.51100000000E-03 0. -1.
        -11    1    3    3    0    0 -0.14446005085E+01  0.62025500425E+01 -0.12241901731E+01  0.64851476082E+01  0.51100000000E-03 0.  1.
         12    1    3    3    0    0  0.10830762295E+02 -0.35552827520E+02 -0.18975609234E+02  0.41729877814E+02  0.00000000000E+00 0. -1.
</event>
<event>
 7    1  0.1202531E-011  0.5930192E+02  0.7816164E-02  0.1266605E+00
        -11   -1    0    0    0    0  0.00000000000E+00  0.00000000000E+00  0.45593999997E+02  0.45594000000E+02  0.51100000000E-03 0.  1.
         11   -1    0    0    0    0 -0.00000000000E+00 -0.00000000000E+00 -0.45593999997E+02  0.45594000000E+02  0.51100000000E-03 0. -1.
    9900012    2    1    2    0    0 -0.21589719360E+02 -0.22071323011E+02 -0.79663460428E+01  0.59301922305E+02  0.49999960383E+02 0.  0.
        -12    1    1    2    0    0  0.21589719360E+02  0.22071323011E+02  0.79663460428E+01  0.31886077695E+02  0.00000000000E+00 0.  1.
         11    1    3    3    0    0 -0.40068257366E+01 -0.12482343338E+02  0.16195840557E+01  0.13209337624E+02  0.51100000000E-03 0. -1.
        -11    1    3    3    0    0  0.12463061835E+02 -0.47306035376E+01 -0.81455434971E+01  0.15622304543E+02  0.51100000000E-03 0.  1.
         12    1    3    3    0    0 -0.30045955458E+02 -0.48583761351E+01 -0.14403866014E+01  0.30470280137E+02  0.00000000000E+00 0. -1.
</event>
<event>
 7    1  0.1202531E-011  0.5930198E+02  0.7816164E-02  0.1266605E+00
        -11   -1    0    0    0    0  0.00000000000E+00  0.00000000000E+00  0.45593999997E+02  0.45594000000E+02  0.51100000000E-03 0.  1.
         11   -1    0    0    0    0 -0.00000000000E+00 -0.00000000000E+00 -0.45593999997E+02  0.45594000000E+02  0.51100000000E-03 0. -1.
    9900012    2    1    2    0    0 -0.13383589247E+02 -0.27485459880E+02  0.90635173984E+01  0.59301979339E+02  0.50000064400E+02 0.  0.
        -12    1    1    2    0    0  0.13383589247E+02  0.27485459880E+02 -0.90635173984E+01  0.31886020661E+02  0.00000000000E+00 0.  1.
         11    1    3    3    0    0  0.56938872173E+00 -0.15383497842E+02  0.15095816087E+02  0.21560609290E+02  0.51100000000E-03 0. -1.
        -11    1    3    3    0    0 -0.33668526006E+01 -0.22060821051E+02 -0.92346070179E+00  0.22335359899E+02  0.51100000000E-03 0.  1.
        -12    1    3    3    0    0 -0.10586125368E+02  0.99588590140E+01 -0.51088379867E+01  0.15406010150E+02  0.00000000000E+00 0.  1.
</event>
<event>
 7    1  0.1202531E-011  0.5930194E+02  0.7816164E-02  0.1266605E+00
        -11   -1    0    0    0    0  0.00000000000E+00  0.00000000000E+00  0.45593999997E+02  0.45594000000E+02  0.51100000000E-03 0.  1.
         11   -1    0    0    0    0 -0.00000000000E+00 -0.00000000000E+00 -0.45593999997E+02  0.45594000000E+02  0.51100000000E-03 0. -1.
    9900012    2    1    2    0    0 -0.37839717965E+01  0.16822160697E+02 -0.26821950914E+02  0.59301943739E+02  0.49999999474E+02 0.  0.
        -12    1    1    2    0    0  0.37839717965E+01 -0.16822160697E+02  0.26821950914E+02  0.31886056261E+02  0.00000000000E+00 0.  1.
         11    1    3    3    0    0 -0.78409949903E+00  0.17762528024E+01 -0.27326452183E+01  0.33521987102E+01  0.51100000000E-03 0. -1.
        -11    1    3    3    0    0 -0.10910088718E+02  0.17063577535E+02  0.87853678808E+01  0.22076648369E+02  0.51100000000E-03 0.  1.
        -12    1    3    3    0    0  0.79102164207E+01 -0.20176696410E+01 -0.32874673576E+02  0.33873096660E+02  0.00000000000E+00 0.  1.
</event>
<event>
 7    1  0.1252375E-011  0.5930196E+02  0.7816164E-02  0.1266605E+00
        -11   -1    0    0    0    0  0.00000000000E+00  0.00000000000E+00  0.45593999997E+02  0.45594000000E+02  0.51100000000E-03 0. -1.
         11   -1    0    0    0    0 -0.00000000000E+00 -0.00000000000E+00 -0.45593999997E+02  0.45594000000E+02  0.51100000000E-03 0.  1.
    9900012    2    1    2    0    0  0.13496274586E+02 -0.15097556915E+02  0.24629939319E+02  0.59301959742E+02  0.50000028658E+02 0.  0.
        -12    1    1    2    0    0 -0.13496274586E+02  0.15097556915E+02 -0.24629939319E+02  0.31886040258E+02  0.00000000000E+00 0.  1.
         11    1    3    3    0    0  0.24024482867E+02 -0.14873905709E+02  0.15782582777E+02  0.32365085623E+02  0.51100000000E-03 0. -1.
        -11    1    3    3    0    0 -0.43360236775E+00  0.77319724041E+01  0.11450307211E+02  0.13823203093E+02  0.51100000000E-03 0.  1.
        -12    1    3    3    0    0 -0.10094605913E+02 -0.79556236105E+01 -0.26029506690E+01  0.13113671025E+02  0.00000000000E+00 0.  1.
</event>
<event>
 7    1  0.1202531E-011  0.5930195E+02  0.7816164E-02  0.1266605E+00
        -11   -1    0    0    0    0  0.00000000000E+00  0.00000000000E+00  0.45593999997E+02  0.45594000000E+02  0.51100000000E-03 0. -1.
         11   -1    0    0    0    0 -0.00000000000E+00 -0.00000000000E+00 -0.45593999997E+02  0.45594000000E+02  0.51100000000E-03 0.  1.
    9900012    2    1    2    0    0 -0.25335429849E+01 -0.24891295919E+01  0.31687623989E+02  0.59301951009E+02  0.50000012732E+02 0.  0.
        -12    1    1    2    0    0  0.25335429849E+01  0.24891295919E+01 -0.31687623989E+02  0.31886048991E+02  0.00000000000E+00 0.  1.
         11    1    3    3    0    0 -0.67204340604E+01 -0.24838013259E-01  0.69572184292E+01  0.96730418907E+01  0.51100000000E-03 0. -1.
        -11    1    3    3    0    0 -0.80481118509E+01 -0.14852530922E+02 -0.27316489355E+01  0.17112325538E+02  0.51100000000E-03 0.  1.
         12    1    3    3    0    0  0.12235002926E+02  0.12388239343E+02  0.27462054495E+02  0.32516583580E+02  0.00000000000E+00 0. -1.
</event>
<event>
 7    1  0.1202531E-011  0.5930195E+02  0.7816164E-02  0.1266605E+00
        -11   -1    0    0    0    0  0.00000000000E+00  0.00000000000E+00  0.45593999997E+02  0.45594000000E+02  0.51100000000E-03 0.  1.
         11   -1    0    0    0    0 -0.00000000000E+00 -0.00000000000E+00 -0.45593999997E+02  0.45594000000E+02  0.51100000000E-03 0. -1.
    9900012    2    1    2    0    0 -0.59996075049E+01  0.25007498406E+02 -0.18850728308E+02  0.59301949375E+02  0.50000009751E+02 0.  0.
        -12    1    1    2    0    0  0.59996075049E+01 -0.25007498406E+02  0.18850728308E+02  0.31886050625E+02  0.00000000000E+00 0.  1.
         11    1    3    3    0    0 -0.97906778079E+01  0.59489832592E+01 -0.14076284192E+02  0.18149092282E+02  0.51100000000E-03 0. -1.
        -11    1    3    3    0    0  0.11294019209E+02  0.41880228913E+01 -0.16755032703E+02  0.20635540380E+02  0.51100000000E-03 0.  1.
         12    1    3    3    0    0 -0.75029489061E+01  0.14870492256E+02  0.11980588586E+02  0.20517316713E+02  0.00000000000E+00 0. -1.
</event>
<event>
 7    1  0.1202531E-011  0.5930203E+02  0.7816164E-02  0.1266604E+00
        -11   -1    0    0    0    0  0.00000000000E+00  0.00000000000E+00  0.45593999997E+02  0.45594000000E+02  0.51100000000E-03 0. -1.
         11   -1    0    0    0    0 -0.00000000000E+00 -0.00000000000E+00 -0.45593999997E+02  0.45594000000E+02  0.51100000000E-03 0.  1.
    9900012    2    1    2    0    0 -0.28581604256E+01 -0.20135543606E+02  0.24558208631E+02  0.59302034302E+02  0.50000164639E+02 0.  0.
        -12    1    1    2    0    0  0.28581604256E+01  0.20135543606E+02 -0.24558208631E+02  0.31885965698E+02  0.00000000000E+00 0.  1.
         11    1    3    3    0    0 -0.23730354948E+02 -0.51279855118E+01  0.71022342978E+01  0.25295606608E+02  0.51100000000E-03 0. -1.
        -11    1    3    3    0    0  0.97056213207E+01  0.55770804859E+00  0.36110943410E+01  0.10370637690E+02  0.51100000000E-03 0.  1.
        -12    1    3    3    0    0  0.11166573202E+02 -0.15565266143E+02  0.13844879992E+02  0.23635790005E+02  0.00000000000E+00 0.  1.
</event>
<event>
 7    1  0.1202531E-011  0.5930197E+02  0.7816164E-02  0.1266605E+00
        -11   -1    0    0    0    0  0.00000000000E+00  0.00000000000E+00  0.45593999997E+02  0.45594000000E+02  0.51100000000E-03 0.  1.
         11   -1    0    0    0    0 -0.00000000000E+00 -0.00000000000E+00 -0.45593999997E+02  0.45594000000E+02  0.51100000000E-03 0. -1.
    9900012    2    1    2    0    0  0.31163925209E+00 -0.31740585508E+02 -0.30260424674E+01  0.59301971391E+02  0.50000049904E+02 0.  0.
        -12    1    1    2    0    0 -0.31163925209E+00  0.31740585508E+02  0.30260424674E+01  0.31886028609E+02  0.00000000000E+00 0.  1.
         11    1    3    3    0    0 -0.48191607793E+01 -0.20737701017E+02  0.14156402867E+02  0.25567172242E+02  0.51100000000E-03 0. -1.
        -11    1    3    3    0    0  0.10654589350E+02 -0.44934088561E+00  0.22907243098E+01  0.10907318625E+02  0.51100000000E-03 0.  1.
         12    1    3    3    0    0 -0.55237893190E+01 -0.10553543606E+02 -0.19473169644E+02  0.22827480524E+02  0.00000000000E+00 0. -1.
</event>
<event>
 7    1  0.1202531E-011  0.5930196E+02  0.7816164E-02  0.1266605E+00
        -11   -1    0    0    0    0  0.00000000000E+00  0.00000000000E+00  0.45593999997E+02  0.45594000000E+02  0.51100000000E-03 0.  1.
         11   -1    0    0    0    0 -0.00000000000E+00 -0.00000000000E+00 -0.45593999997E+02  0.45594000000E+02  0.51100000000E-03 0. -1.
    9900012    2    1    2    0    0  0.14440678129E+02 -0.34837811017E+01 -0.28214352757E+02  0.59301958899E+02  0.50000027122E+02 0.  0.
        -12    1    1    2    0    0 -0.14440678129E+02  0.34837811017E+01  0.28214352757E+02  0.31886041101E+02  0.00000000000E+00 0.  1.
         11    1    3    3    0    0  0.16042629022E+02  0.11345536156E+02 -0.13011874887E+02  0.23566841641E+02  0.51100000000E-03 0. -1.
        -11    1    3    3    0    0 -0.36298939630E+01 -0.79788192497E+00  0.78424167470E+01  0.86784933279E+01  0.51100000000E-03 0.  1.
        -12    1    3    3    0    0  0.20279430699E+01 -0.14031435333E+02 -0.23044894617E+02  0.27056623930E+02  0.00000000000E+00 0.  1.
</event>
<event>
 7    1  0.1202531E-011  0.5930194E+02  0.7816164E-02  0.1266605E+00
        -11   -1    0    0    0    0  0.00000000000E+00  0.00000000000E+00  0.45593999997E+02  0.45594000000E+02  0.51100000000E-03 0. -1.
         11   -1    0    0    0    0 -0.00000000000E+00 -0.00000000000E+00 -0.45593999997E+02  0.45594000000E+02  0.51100000000E-03 0.  1.
    9900012    2    1    2    0    0  0.39529466147E+01 -0.11455699891E+02  0.29493417186E+02  0.59301944988E+02  0.50000001752E+02 0.  0.
        -12    1    1    2    0    0 -0.39529466147E+01  0.11455699891E+02 -0.29493417186E+02  0.31886055012E+02  0.00000000000E+00 0.  1.
         11    1    3    3    0    0  0.48239839348E+01 -0.10531190811E+02  0.42128546151E+02  0.43692003868E+02  0.51100000000E-03 0. -1.
        -11    1    3    3    0    0 -0.15966933720E+01 -0.15649149932E+01  0.61955867313E+00  0.23199659202E+01  0.51100000000E-03 0.  1.
        -12    1    3    3    0    0  0.72565605193E+00  0.64040591367E+00 -0.13254687638E+02  0.13289975201E+02  0.00000000000E+00 0.  1.
</event>
<event>
 7    1  0.1202531E-011  0.5930197E+02  0.7816164E-02  0.1266605E+00
        -11   -1    0    0    0    0  0.00000000000E+00  0.00000000000E+00  0.45593999997E+02  0.45594000000E+02  0.51100000000E-03 0. -1.
         11   -1    0    0    0    0 -0.00000000000E+00 -0.00000000000E+00 -0.45593999997E+02  0.45594000000E+02  0.51100000000E-03 0.  1.
    9900012    2    1    2    0    0  0.10307779014E+02  0.28816279831E+02 -0.89493482012E+01  0.59301966620E+02  0.50000041202E+02 0.  0.
        -12    1    1    2    0    0 -0.10307779014E+02 -0.28816279831E+02  0.89493482012E+01  0.31886033380E+02  0.00000000000E+00 0.  1.
         11    1    3    3    0    0 -0.15031025236E+00  0.22822856112E+02 -0.10845902705E+02  0.25269328444E+02  0.51100000000E-03 0. -1.
        -11    1    3    3    0    0  0.14160371331E+02  0.16814046269E+02  0.41645331264E+01  0.22373457591E+02  0.51100000000E-03 0.  1.
        -12    1    3    3    0    0 -0.37022820643E+01 -0.10820622550E+02 -0.22679786224E+01  0.11659180584E+02  0.00000000000E+00 0.  1.
</event>
<event>
 7    1  0.1202531E-011  0.5930193E+02  0.7816164E-02  0.1266605E+00
        -11   -1    0    0    0    0  0.00000000000E+00  0.00000000000E+00  0.45593999997E+02  0.45594000000E+02  0.51100000000E-03 0.  1.
         11   -1    0    0    0    0 -0.00000000000E+00 -0.00000000000E+00 -0.45593999997E+02  0.45594000000E+02  0.51100000000E-03 0. -1.
    9900012    2    1    2    0    0 -0.14042863131E+02 -0.18602685473E+02 -0.21759122678E+02  0.59301932017E+02  0.49999978095E+02 0.  0.
        -12    1    1    2    0    0  0.14042863131E+02  0.18602685473E+02  0.21759122678E+02  0.31886067983E+02  0.00000000000E+00 0.  1.
         11    1    3    3    0    0 -0.10033294980E+01  0.12068077595E+02 -0.31225827039E+01  0.12505826239E+02  0.51100000000E-03 0.  1.
        -11    1    3    3    0    0 -0.50022497396E+00 -0.40583528239E+01  0.67806880693E+01  0.79182184627E+01  0.51100000000E-03 0. -1.
         12    1    3    3    0    0 -0.12539308659E+02 -0.26612410244E+02 -0.25417228044E+02  0.38877887315E+02  0.00000000000E+00 0. -1.
</event>
<event>
 7    1  0.1202531E-011  0.5930194E+02  0.7816164E-02  0.1266605E+00
        -11   -1    0    0    0    0  0.00000000000E+00  0.00000000000E+00  0.45593999997E+02  0.45594000000E+02  0.51100000000E-03 0.  1.
         11   -1    0    0    0    0 -0.00000000000E+00 -0.00000000000E+00 -0.45593999997E+02  0.45594000000E+02  0.51100000000E-03 0. -1.
    9900012    2    1    2    0    0  0.31660365165E+02  0.59491587019E+00 -0.37401025039E+01  0.59301936994E+02  0.49999987173E+02 0.  0.
        -12    1    1    2    0    0 -0.31660365165E+02 -0.59491587019E+00  0.37401025039E+01  0.31886063006E+02  0.00000000000E+00 0.  1.
         11    1    3    3    0    0 -0.55534542057E+01  0.21590912346E+01 -0.86581440018E+01  0.10510280034E+02  0.51100000000E-03 0. -1.
        -11    1    3    3    0    0  0.13049596826E+02  0.14502430995E+02  0.13661970501E+01  0.19557069738E+02  0.51100000000E-03 0.  1.
        -12    1    3    3    0    0  0.24164222545E+02 -0.16066606359E+02  0.35518444477E+01  0.29234587223E+02  0.00000000000E+00 0.  1.
</event>
<event>
 7    1  0.1202531E-011  0.5930195E+02  0.7816164E-02  0.1266605E+00
        -11   -1    0    0    0    0  0.00000000000E+00  0.00000000000E+00  0.45593999997E+02  0.45594000000E+02  0.51100000000E-03 0.  1.
         11   -1    0    0    0    0 -0.00000000000E+00 -0.00000000000E+00 -0.45593999997E+02  0.45594000000E+02  0.51100000000E-03 0. -1.
    9900012    2    1    2    0    0 -0.19230389525E+02 -0.19075446012E+02 -0.16823787023E+02  0.59301947694E+02  0.50000006686E+02 0.  0.
        -12    1    1    2    0    0  0.19230389525E+02  0.19075446012E+02  0.16823787023E+02  0.31886052306E+02  0.00000000000E+00 0.  1.
         11    1    3    3    0    0  0.43252683147E+01  0.66441005701E+01 -0.59240039507E+01  0.98967591387E+01  0.51100000000E-03 0. -1.
        -11    1    3    3    0    0  0.61396592110E+01 -0.96249781896E+01  0.45158875886E+01  0.12277168295E+02  0.51100000000E-03 0.  1.
        -12    1    3    3    0    0 -0.29695317051E+02 -0.16094568393E+02 -0.15415670661E+02  0.37128020260E+02  0.00000000000E+00 0.  1.
</event>
<event>
 7    1  0.1202531E-011  0.5930195E+02  0.7816164E-02  0.1266605E+00
        -11   -1    0    0    0    0  0.00000000000E+00  0.00000000000E+00  0.45593999997E+02  0.45594000000E+02  0.51100000000E-03 0.  1.
         11   -1    0    0    0    0 -0.00000000000E+00 -0.00000000000E+00 -0.45593999997E+02  0.45594000000E+02  0.51100000000E-03 0. -1.
    9900012    2    1    2    0    0  0.19703095630E+02  0.24716429900E+02  0.41959900638E+01  0.59301949492E+02  0.50000009965E+02 0.  0.
        -12    1    1    2    0    0 -0.19703095630E+02 -0.24716429900E+02 -0.41959900638E+01  0.31886050508E+02  0.00000000000E+00 0.  1.
         11    1    3    3    0    0 -0.59288914789E+01  0.99290301290E+01 -0.12574405062E+02  0.17083707337E+02  0.51100000000E-03 0. -1.
        -11    1    3    3    0    0  0.19085995430E+00 -0.40486931142E+01  0.86280548033E+01  0.95326635000E+01  0.51100000000E-03 0.  1.
         12    1    3    3    0    0  0.25441127154E+02  0.18836092885E+02  0.81423403223E+01  0.32685578655E+02  0.00000000000E+00 0. -1.
</event>
<event>
 7    1  0.1202531E-011  0.5930195E+02  0.7816164E-02  0.1266605E+00
        -11   -1    0    0    0    0  0.00000000000E+00  0.00000000000E+00  0.45593999997E+02  0.45594000000E+02  0.51100000000E-03 0. -1.
         11   -1    0    0    0    0 -0.00000000000E+00 -0.00000000000E+00 -0.45593999997E+02  0.45594000000E+02  0.51100000000E-03 0.  1.
    9900012    2    1    2    0    0 -0.26244933898E+02 -0.15604763826E+02 -0.91877658077E+01  0.59301948976E+02  0.50000009024E+02 0.  0.
        -12    1    1    2    0    0  0.26244933898E+02  0.15604763826E+02  0.91877658077E+01  0.31886051024E+02  0.00000000000E+00 0.  1.
         11    1    3    3    0    0 -0.20100028367E+02 -0.74925002484E+01 -0.92026273523E+00  0.21470807718E+02  0.51100000000E-03 0. -1.
        -11    1    3    3    0    0 -0.20538201510E+02 -0.40418133107E+01 -0.91559227856E+01  0.22846988826E+02  0.51100000000E-03 0.  1.
        -12    1    3    3    0    0  0.14393295979E+02 -0.40704502670E+01  0.88841971315E+00  0.14984152431E+02  0.00000000000E+00 0.  1.
</event>
<event>
 7    1  0.1202531E-011  0.5930181E+02  0.7816164E-02  0.1266605E+00
        -11   -1    0    0    0    0  0.00000000000E+00  0.00000000000E+00  0.45593999997E+02  0.45594000000E+02  0.51100000000E-03 0.  1.
         11   -1    0    0    0    0 -0.00000000000E+00 -0.00000000000E+00 -0.45593999997E+02  0.45594000000E+02  0.51100000000E-03 0. -1.
    9900012    2    1    2    0    0  0.21819402883E+02  0.22359784131E+02 -0.63782912255E+01  0.59301813531E+02  0.49999762005E+02 0.  0.
        -12    1    1    2    0    0 -0.21819402883E+02 -0.22359784131E+02  0.63782912255E+01  0.31886186469E+02  0.00000000000E+00 0.  1.
         11    1    3    3    0    0  0.31854591940E+01  0.18561217057E+02  0.33132655114E+01  0.19121811042E+02  0.51100000000E-03 0. -1.
        -11    1    3    3    0    0  0.86029401179E+01  0.18903737699E+02 -0.65482001218E+01  0.21777070574E+02  0.51100000000E-03 0.  1.
        -12    1    3    3    0    0  0.10031003572E+02 -0.15105170625E+02 -0.31433566152E+01  0.18402931916E+02  0.00000000000E+00 0.  1.
</event>
<event>
 7    1  0.1202531E-011  0.5930194E+02  0.7816164E-02  0.1266605E+00
        -11   -1    0    0    0    0  0.00000000000E+00  0.00000000000E+00  0.45593999997E+02  0.45594000000E+02  0.51100000000E-03 0. -1.
         11   -1    0    0    0    0 -0.00000000000E+00 -0.00000000000E+00 -0.45593999997E+02  0.45594000000E+02  0.51100000000E-03 0.  1.
    9900012    2    1    2    0    0 -0.14343410026E+02 -0.11362648117E+02  0.26112784860E+02  0.59301941659E+02  0.49999995680E+02 0.  0.
        -12    1    1    2    0    0  0.14343410026E+02  0.11362648117E+02 -0.26112784860E+02  0.31886058341E+02  0.00000000000E+00 0.  1.
         11    1    3    3    0    0 -0.70366126927E+01 -0.95024685791E+01 -0.21832194989E+01  0.12024029064E+02  0.51100000000E-03 0. -1.
        -11    1    3    3    0    0 -0.55441794905E+01  0.64567375311E+01 -0.69707778227E+01  0.11000869488E+02  0.51100000000E-03 0.  1.
         12    1    3    3    0    0 -0.17626178424E+01 -0.83169170692E+01  0.35266782181E+02  0.36277043108E+02  0.00000000000E+00 0. -1.
</event>
<event>
 7    1  0.1202531E-011  0.5930189E+02  0.7816164E-02  0.1266605E+00
        -11   -1    0    0    0    0  0.00000000000E+00  0.00000000000E+00  0.45593999997E+02  0.45594000000E+02  0.51100000000E-03 0. -1.
         11   -1    0    0    0    0 -0.00000000000E+00 -0.00000000000E+00 -0.45593999997E+02  0.45594000000E+02  0.51100000000E-03 0.  1.
    9900012    2    1    2    0    0  0.30715688400E+02 -0.44765563509E+01 -0.72959331799E+01  0.59301894693E+02  0.49999910026E+02 0.  0.
        -12    1    1    2    0    0 -0.30715688400E+02  0.44765563509E+01  0.72959331799E+01  0.31886105307E+02  0.00000000000E+00 0.  1.
         11    1    3    3    0    0  0.23972735330E+01 -0.45011387972E+01  0.13290635538E+02  0.14235454475E+02  0.51100000000E-03 0. -1.
        -11    1    3    3    0    0 -0.45947469336E+01  0.47830573769E+01 -0.51803478744E+01  0.84157793231E+01  0.51100000000E-03 0.  1.
         12    1    3    3    0    0  0.32913161801E+02 -0.47584749306E+01 -0.15406220843E+02  0.36650660895E+02  0.00000000000E+00 0. -1.
</event>
<event>
 7    1  0.1202531E-011  0.5930195E+02  0.7816164E-02  0.1266605E+00
        -11   -1    0    0    0    0  0.00000000000E+00  0.00000000000E+00  0.45593999997E+02  0.45594000000E+02  0.51100000000E-03 0.  1.
         11   -1    0    0    0    0 -0.00000000000E+00 -0.00000000000E+00 -0.45593999997E+02  0.45594000000E+02  0.51100000000E-03 0. -1.
    9900012    2    1    2    0    0 -0.95261727846E+01  0.14292208932E+02 -0.26864572435E+02  0.59301945741E+02  0.50000003124E+02 0.  0.
        -12    1    1    2    0    0  0.95261727846E+01 -0.14292208932E+02  0.26864572435E+02  0.31886054259E+02  0.00000000000E+00 0.  1.
         11    1    3    3    0    0 -0.42020034684E+00  0.10750170133E+02 -0.41367438852E+01  0.11526290664E+02  0.51100000000E-03 0. -1.
        -11    1    3    3    0    0 -0.14759583772E+02 -0.95455520803E+01  0.35010719615E+01  0.17922622096E+02  0.51100000000E-03 0.  1.
         12    1    3    3    0    0  0.56536113347E+01  0.13087590879E+02 -0.26228900511E+02  0.29853032981E+02  0.00000000000E+00 0. -1.
</event>
<event>
 7    1  0.1202531E-011  0.5930195E+02  0.7816164E-02  0.1266605E+00
        -11   -1    0    0    0    0  0.00000000000E+00  0.00000000000E+00  0.45593999997E+02  0.45594000000E+02  0.51100000000E-03 0. -1.
         11   -1    0    0    0    0 -0.00000000000E+00 -0.00000000000E+00 -0.45593999997E+02  0.45594000000E+02  0.51100000000E-03 0.  1.
    9900012    2    1    2    0    0 -0.13534772653E+02  0.18358583717E+02  0.22282116748E+02  0.59301946722E+02  0.50000004914E+02 0.  0.
        -12    1    1    2    0    0  0.13534772653E+02 -0.18358583717E+02 -0.22282116748E+02  0.31886053278E+02  0.00000000000E+00 0.  1.
         11    1    3    3    0    0 -0.74753468959E+01  0.41769767823E+01  0.60022063871E+01  0.10457266757E+02  0.51100000000E-03 0. -1.
        -11    1    3    3    0    0 -0.15060109289E+02 -0.88708278931E+01 -0.26622148964E+01  0.17680098069E+02  0.51100000000E-03 0.  1.
         12    1    3    3    0    0  0.90006835320E+01  0.23052434827E+02  0.18942125257E+02  0.31164581896E+02  0.00000000000E+00 0. -1.
</event>
<event>
 7    1  0.1202531E-011  0.5930188E+02  0.7816164E-02  0.1266605E+00
        -11   -1    0    0    0    0  0.00000000000E+00  0.00000000000E+00  0.45593999997E+02  0.45594000000E+02  0.51100000000E-03 0. -1.
         11   -1    0    0    0    0 -0.00000000000E+00 -0.00000000000E+00 -0.45593999997E+02  0.45594000000E+02  0.51100000000E-03 0.  1.
    9900012    2    1    2    0    0 -0.23758051195E+02 -0.24935088337E+01  0.21120176064E+02  0.59301883588E+02  0.49999889772E+02 0.  0.
        -12    1    1    2    0    0  0.23758051195E+02  0.24935088337E+01 -0.21120176064E+02  0.31886116412E+02  0.00000000000E+00 0.  1.
         11    1    3    3    0    0  0.11643041400E+02  0.40370401665E+01  0.12394578295E+02  0.17478091364E+02  0.51100000000E-03 0. -1.
        -11    1    3    3    0    0 -0.36192273718E+01  0.32097857756E+01  0.70377786337E+01  0.85400152138E+01  0.51100000000E-03 0.  1.
        -12    1    3    3    0    0 -0.31781865223E+02 -0.97403347758E+01  0.16878191357E+01  0.33283777010E+02  0.00000000000E+00 0.  1.
</event>
<event>
 7    1  0.1202531E-011  0.5930195E+02  0.7816164E-02  0.1266605E+00
        -11   -1    0    0    0    0  0.00000000000E+00  0.00000000000E+00  0.45593999997E+02  0.45594000000E+02  0.51100000000E-03 0.  1.
         11   -1    0    0    0    0 -0.00000000000E+00 -0.00000000000E+00 -0.45593999997E+02  0.45594000000E+02  0.51100000000E-03 0. -1.
    9900012    2    1    2    0    0 -0.29232964000E+02  0.46342678932E+01 -0.11860769342E+02  0.59301945485E+02  0.50000002658E+02 0.  0.
        -12    1    1    2    0    0  0.29232964000E+02 -0.46342678932E+01  0.11860769342E+02  0.31886054515E+02  0.00000000000E+00 0.  1.
         11    1    3    3    0    0 -0.40692173190E+01 -0.42376452242E+01  0.11148564857E+02  0.12601851660E+02  0.51100000000E-03 0. -1.
        -11    1    3    3    0    0  0.56080577779E+01  0.19140236114E+01  0.21955724664E+01  0.63193620834E+01  0.51100000000E-03 0.  1.
         12    1    3    3    0    0 -0.30771804459E+02  0.69578895060E+01 -0.25204906665E+02  0.40380731742E+02  0.00000000000E+00 0. -1.
</event>
<event>
 7    1  0.1202531E-011  0.5930193E+02  0.7816164E-02  0.1266605E+00
        -11   -1    0    0    0    0  0.00000000000E+00  0.00000000000E+00  0.45593999997E+02  0.45594000000E+02  0.51100000000E-03 0. -1.
         11   -1    0    0    0    0 -0.00000000000E+00 -0.00000000000E+00 -0.45593999997E+02  0.45594000000E+02  0.51100000000E-03 0.  1.
    9900012    2    1    2    0    0  0.14228279470E+02 -0.97987007031E+01  0.26800434808E+02  0.59301925013E+02  0.49999965322E+02 0.  0.
        -12    1    1    2    0    0 -0.14228279470E+02  0.97987007031E+01 -0.26800434808E+02  0.31886074987E+02  0.00000000000E+00 0.  1.
         11    1    3    3    0    0  0.10017434653E+02 -0.25977500609E+02  0.55878678318E+01  0.28397249904E+02  0.51100000000E-03 0. -1.
        -11    1    3    3    0    0 -0.34000669182E+01 -0.73774707221E+00  0.59078008449E+01  0.68561532126E+01  0.51100000000E-03 0.  1.
        -12    1    3    3    0    0  0.76109117351E+01  0.16916546978E+02  0.15304766131E+02  0.24048521897E+02  0.00000000000E+00 0.  1.
</event>
<event>
 7    1  0.1202531E-011  0.5930194E+02  0.7816164E-02  0.1266605E+00
        -11   -1    0    0    0    0  0.00000000000E+00  0.00000000000E+00  0.45593999997E+02  0.45594000000E+02  0.51100000000E-03 0.  1.
         11   -1    0    0    0    0 -0.00000000000E+00 -0.00000000000E+00 -0.45593999997E+02  0.45594000000E+02  0.51100000000E-03 0. -1.
    9900012    2    1    2    0    0 -0.61659490772E+01 -0.12976891078E+02 -0.28465806242E+02  0.59301941055E+02  0.49999994578E+02 0.  0.
        -12    1    1    2    0    0  0.61659490772E+01  0.12976891078E+02  0.28465806242E+02  0.31886058945E+02  0.00000000000E+00 0.  1.
         11    1    3    3    0    0 -0.56983983576E+01  0.10727439833E+02 -0.31052263369E+00  0.12150972545E+02  0.51100000000E-03 0.  1.
        -11    1    3    3    0    0 -0.12929991847E+02 -0.21373957314E+02 -0.16570579219E+02  0.29976905049E+02  0.51100000000E-03 0. -1.
        -12    1    3    3    0    0  0.12462441128E+02 -0.23303735974E+01 -0.11584704389E+02  0.17174063461E+02  0.00000000000E+00 0.  1.
</event>
<event>
 7    1  0.1202531E-011  0.5930197E+02  0.7816164E-02  0.1266605E+00
        -11   -1    0    0    0    0  0.00000000000E+00  0.00000000000E+00  0.45593999997E+02  0.45594000000E+02  0.51100000000E-03 0. -1.
         11   -1    0    0    0    0 -0.00000000000E+00 -0.00000000000E+00 -0.45593999997E+02  0.45594000000E+02  0.51100000000E-03 0.  1.
    9900012    2    1    2    0    0 -0.17626951446E+02 -0.19907619639E+02  0.17598177902E+02  0.59301974809E+02  0.50000056138E+02 0.  0.
        -12    1    1    2    0    0  0.17626951446E+02  0.19907619639E+02 -0.17598177902E+02  0.31886025191E+02  0.00000000000E+00 0.  1.
         11    1    3    3    0    0 -0.19551520016E+01 -0.11872584679E+01 -0.10129195405E+02  0.10384257404E+02  0.51100000000E-03 0. -1.
        -11    1    3    3    0    0 -0.17280283430E+01  0.75240056183E+01 -0.75170928981E+00  0.77564044258E+01  0.51100000000E-03 0.  1.
         12    1    3    3    0    0 -0.13943771102E+02 -0.26244366789E+02  0.28479082596E+02  0.41161312980E+02  0.00000000000E+00 0. -1.
</event>
<event>
 7    1  0.1202531E-011  0.5930198E+02  0.7816164E-02  0.1266605E+00
        -11   -1    0    0    0    0  0.00000000000E+00  0.00000000000E+00  0.45593999997E+02  0.45594000000E+02  0.51100000000E-03 0.  1.
         11   -1    0    0    0    0 -0.00000000000E+00 -0.00000000000E+00 -0.45593999997E+02  0.45594000000E+02  0.51100000000E-03 0. -1.
    9900012    2    1    2    0    0  0.53766170619E+01 -0.71645144273E+00 -0.31421282587E+02  0.59301979347E+02  0.50000064414E+02 0.  0.
        -12    1    1    2    0    0 -0.53766170619E+01  0.71645144273E+00  0.31421282587E+02  0.31886020653E+02  0.00000000000E+00 0.  1.
         11    1    3    3    0    0  0.15332746929E+01 -0.13613477972E+02 -0.17113827681E+02  0.21921697287E+02  0.51100000000E-03 0. -1.
        -11    1    3    3    0    0  0.10621199096E+02 -0.65100048388E+01 -0.21933332823E+00  0.12459459884E+02  0.51100000000E-03 0.  1.
        -12    1    3    3    0    0 -0.67778567266E+01  0.19407031369E+02 -0.14088121577E+02  0.24920822176E+02  0.00000000000E+00 0.  1.
</event>
<event>
 7    1  0.1202531E-011  0.5930201E+02  0.7816164E-02  0.1266605E+00
        -11   -1    0    0    0    0  0.00000000000E+00  0.00000000000E+00  0.45593999997E+02  0.45594000000E+02  0.51100000000E-03 0.  1.
         11   -1    0    0    0    0 -0.00000000000E+00 -0.00000000000E+00 -0.45593999997E+02  0.45594000000E+02  0.51100000000E-03 0. -1.
    9900012    2    1    2    0    0 -0.27645296883E+01  0.28482776101E+02 -0.14064332438E+02  0.59302006119E+02  0.50000113240E+02 0.  0.
        -12    1    1    2    0    0  0.27645296883E+01 -0.28482776101E+02  0.14064332438E+02  0.31885993881E+02  0.00000000000E+00 0.  1.
         11    1    3    3    0    0  0.35819310645E+01  0.61963029259E+01 -0.43105007504E+01  0.83549277125E+01  0.51100000000E-03 0.  1.
        -11    1    3    3    0    0 -0.25734534510E+01  0.30860977808E+02 -0.20154926521E+02  0.36949204014E+02  0.51100000000E-03 0. -1.
        -12    1    3    3    0    0 -0.37730073018E+01 -0.85745046325E+01  0.10401094833E+02  0.13997874393E+02  0.00000000000E+00 0.  1.
</event>
<event>
 7    1  0.1202531E-011  0.5930195E+02  0.7816164E-02  0.1266605E+00
        -11   -1    0    0    0    0  0.00000000000E+00  0.00000000000E+00  0.45593999997E+02  0.45594000000E+02  0.51100000000E-03 0.  1.
         11   -1    0    0    0    0 -0.00000000000E+00 -0.00000000000E+00 -0.45593999997E+02  0.45594000000E+02  0.51100000000E-03 0. -1.
    9900012    2    1    2    0    0  0.21458057515E+02  0.21813120510E+02  0.89699345437E+01  0.59301950003E+02  0.50000010897E+02 0.  0.
        -12    1    1    2    0    0 -0.21458057515E+02 -0.21813120510E+02 -0.89699345437E+01  0.31886049997E+02  0.00000000000E+00 0.  1.
         11    1    3    3    0    0  0.79421264384E+01  0.12680953920E+02  0.14695451401E+02  0.20972368889E+02  0.51100000000E-03 0. -1.
        -11    1    3    3    0    0  0.42563828946E+01 -0.58550327622E+00  0.13902231422E+02  0.14551001622E+02  0.51100000000E-03 0.  1.
         12    1    3    3    0    0  0.92595481823E+01  0.97176698667E+01 -0.19627748279E+02  0.23778579492E+02  0.00000000000E+00 0. -1.
</event>
<event>
 7    1  0.1202531E-011  0.5930195E+02  0.7816164E-02  0.1266605E+00
        -11   -1    0    0    0    0  0.00000000000E+00  0.00000000000E+00  0.45593999997E+02  0.45594000000E+02  0.51100000000E-03 0.  1.
         11   -1    0    0    0    0 -0.00000000000E+00 -0.00000000000E+00 -0.45593999997E+02  0.45594000000E+02  0.51100000000E-03 0. -1.
    9900012    2    1    2    0    0 -0.10963641846E+02 -0.12405652555E+02 -0.27251025310E+02  0.59301952295E+02  0.50000015077E+02 0.  0.
        -12    1    1    2    0    0  0.10963641846E+02  0.12405652555E+02  0.27251025310E+02  0.31886047705E+02  0.00000000000E+00 0.  1.
         11    1    3    3    0    0  0.61277945281E+01 -0.87587949150E+01 -0.26534165802E+01  0.11013944523E+02  0.51100000000E-03 0. -1.
        -11    1    3    3    0    0 -0.19400389941E+02 -0.99797540883E+00 -0.33495686183E+02  0.38721209665E+02  0.51100000000E-03 0.  1.
         12    1    3    3    0    0  0.23089535667E+01 -0.26488822312E+01  0.88980774539E+01  0.95667981071E+01  0.00000000000E+00 0. -1.
</event>
<event>
 7    1  0.1202531E-011  0.5930195E+02  0.7816164E-02  0.1266605E+00
        -11   -1    0    0    0    0  0.00000000000E+00  0.00000000000E+00  0.45593999997E+02  0.45594000000E+02  0.51100000000E-03 0.  1.
         11   -1    0    0    0    0 -0.00000000000E+00 -0.00000000000E+00 -0.45593999997E+02  0.45594000000E+02  0.51100000000E-03 0. -1.
    9900012    2    1    2    0    0  0.25110907442E+02  0.62335186630E+01 -0.18636133644E+02  0.59301954389E+02  0.50000018897E+02 0.  0.
        -12    1    1    2    0    0 -0.25110907442E+02 -0.62335186630E+01  0.18636133644E+02  0.31886045611E+02  0.00000000000E+00 0.  1.
         11    1    3    3    0    0  0.25309192231E+02 -0.47824591911E+01 -0.71788139157E+01  0.26738782635E+02  0.51100000000E-03 0. -1.
        -11    1    3    3    0    0 -0.81640386633E+01  0.13165986288E+01  0.65943973805E+01  0.10576910528E+02  0.51100000000E-03 0.  1.
         12    1    3    3    0    0  0.79657538742E+01  0.96993792253E+01 -0.18051717109E+02  0.21986261227E+02  0.00000000000E+00 0. -1.
</event>
<event>
 7    1  0.1202531E-011  0.5930193E+02  0.7816164E-02  0.1266605E+00
        -11   -1    0    0    0    0  0.00000000000E+00  0.00000000000E+00  0.45593999997E+02  0.45594000000E+02  0.51100000000E-03 0. -1.
         11   -1    0    0    0    0 -0.00000000000E+00 -0.00000000000E+00 -0.45593999997E+02  0.45594000000E+02  0.51100000000E-03 0.  1.
    9900012    2    1    2    0    0  0.14491659813E+02 -0.20526392322E+02  0.19631112189E+02  0.59301928563E+02  0.49999971796E+02 0.  0.
        -12    1    1    2    0    0 -0.14491659813E+02  0.20526392322E+02 -0.19631112189E+02  0.31886071437E+02  0.00000000000E+00 0.  1.
         11    1    3    3    0    0  0.12493546130E+02 -0.58996657845E+00  0.12958886933E+00  0.12508139310E+02  0.51100000000E-03 0. -1.
        -11    1    3    3    0    0 -0.39409862567E+01 -0.64906663878E+01 -0.10749316965E+02  0.13160848693E+02  0.51100000000E-03 0.  1.
         12    1    3    3    0    0  0.59390999399E+01 -0.13445759356E+02  0.30250840285E+02  0.33632940560E+02  0.00000000000E+00 0. -1.
</event>
<event>
 7    1  0.1202531E-011  0.5930196E+02  0.7816164E-02  0.1266605E+00
        -11   -1    0    0    0    0  0.00000000000E+00  0.00000000000E+00  0.45593999997E+02  0.45594000000E+02  0.51100000000E-03 0.  1.
         11   -1    0    0    0    0 -0.00000000000E+00 -0.00000000000E+00 -0.45593999997E+02  0.45594000000E+02  0.51100000000E-03 0. -1.
    9900012    2    1    2    0    0  0.17627046751E+02  0.18380984394E+02 -0.19187141284E+02  0.59301956735E+02  0.50000023175E+02 0.  0.
        -12    1    1    2    0    0 -0.17627046751E+02 -0.18380984394E+02  0.19187141284E+02  0.31886043265E+02  0.00000000000E+00 0.  1.
         11    1    3    3    0    0  0.21189218116E+02  0.71276520092E+01 -0.29936136055E+02  0.37362529755E+02  0.51100000000E-03 0. -1.
        -11    1    3    3    0    0 -0.62695959717E+01 -0.97204180788E+00  0.19570442583E+01  0.66394820140E+01  0.51100000000E-03 0.  1.
        -12    1    3    3    0    0  0.27074246059E+01  0.12225374193E+02  0.87919505123E+01  0.15299944966E+02  0.00000000000E+00 0.  1.
</event>
<event>
 7    1  0.1202531E-011  0.5930197E+02  0.7816164E-02  0.1266605E+00
        -11   -1    0    0    0    0  0.00000000000E+00  0.00000000000E+00  0.45593999997E+02  0.45594000000E+02  0.51100000000E-03 0. -1.
         11   -1    0    0    0    0 -0.00000000000E+00 -0.00000000000E+00 -0.45593999997E+02  0.45594000000E+02  0.51100000000E-03 0.  1.
    9900012    2    1    2    0    0  0.26225677440E+02  0.12863158574E+02 -0.12785606829E+02  0.59301972532E+02  0.50000051985E+02 0.  0.
        -12    1    1    2    0    0 -0.26225677440E+02 -0.12863158574E+02  0.12785606829E+02  0.31886027468E+02  0.00000000000E+00 0.  1.
         11    1    3    3    0    0  0.18276640814E+02  0.12794306710E+02 -0.87939174316E+01  0.23980468463E+02  0.51100000000E-03 0. -1.
        -11    1    3    3    0    0  0.20809966958E+02  0.46327548888E+00 -0.72618100066E+01  0.22045481029E+02  0.51100000000E-03 0.  1.
         12    1    3    3    0    0 -0.12860930331E+02 -0.39442362533E+00  0.32701206090E+01  0.13276023041E+02  0.00000000000E+00 0. -1.
</event>
<event>
 7    1  0.1202531E-011  0.5930194E+02  0.7816164E-02  0.1266605E+00
        -11   -1    0    0    0    0  0.00000000000E+00  0.00000000000E+00  0.45593999997E+02  0.45594000000E+02  0.51100000000E-03 0.  1.
         11   -1    0    0    0    0 -0.00000000000E+00 -0.00000000000E+00 -0.45593999997E+02  0.45594000000E+02  0.51100000000E-03 0. -1.
    9900012    2    1    2    0    0 -0.59623025786E+01  0.30849637184E+02  0.54288046438E+01  0.59301935861E+02  0.49999985105E+02 0.  0.
        -12    1    1    2    0    0  0.59623025786E+01 -0.30849637184E+02 -0.54288046438E+01  0.31886064139E+02  0.00000000000E+00 0.  1.
         11    1    3    3    0    0 -0.96473685174E+01  0.96597750446E+01  0.45743595495E+01  0.14398185260E+02  0.51100000000E-03 0. -1.
        -11    1    3    3    0    0  0.70443735920E+01 -0.18944113939E+01  0.15659242604E+02  0.17274949292E+02  0.51100000000E-03 0.  1.
         12    1    3    3    0    0 -0.33593076531E+01  0.23084273533E+02 -0.14804797510E+02  0.27628801309E+02  0.00000000000E+00 0. -1.
</event>
<event>
 7    1  0.1202531E-011  0.5930191E+02  0.7816164E-02  0.1266605E+00
        -11   -1    0    0    0    0  0.00000000000E+00  0.00000000000E+00  0.45593999997E+02  0.45594000000E+02  0.51100000000E-03 0. -1.
         11   -1    0    0    0    0 -0.00000000000E+00 -0.00000000000E+00 -0.45593999997E+02  0.45594000000E+02  0.51100000000E-03 0.  1.
    9900012    2    1    2    0    0 -0.20914778515E+02 -0.18950982668E+02  0.14837625184E+02  0.59301908589E+02  0.49999935368E+02 0.  0.
        -12    1    1    2    0    0  0.20914778515E+02  0.18950982668E+02 -0.14837625184E+02  0.31886091411E+02  0.00000000000E+00 0.  1.
         11    1    3    3    0    0 -0.42343912289E+01 -0.88129927569E+00 -0.12386420462E+01  0.44989989857E+01  0.51100000000E-03 0. -1.
        -11    1    3    3    0    0 -0.22472078588E+02  0.27972157014E+01  0.22792413896E+02  0.32129625942E+02  0.51100000000E-03 0.  1.
         12    1    3    3    0    0  0.57916913018E+01 -0.20866899094E+02 -0.67161466659E+01  0.22673283661E+02  0.00000000000E+00 0. -1.
</event>
<event>
 7    1  0.1202531E-011  0.5930194E+02  0.7816164E-02  0.1266605E+00
        -11   -1    0    0    0    0  0.00000000000E+00  0.00000000000E+00  0.45593999997E+02  0.45594000000E+02  0.51100000000E-03 0.  1.
         11   -1    0    0    0    0 -0.00000000000E+00 -0.00000000000E+00 -0.45593999997E+02  0.45594000000E+02  0.51100000000E-03 0. -1.
    9900012    2    1    2    0    0 -0.28133791146E+02  0.11425493245E+02  0.97298004381E+01  0.59301935384E+02  0.49999984236E+02 0.  0.
        -12    1    1    2    0    0  0.28133791146E+02 -0.11425493245E+02 -0.97298004381E+01  0.31886064616E+02  0.00000000000E+00 0.  1.
         11    1    3    3    0    0  0.48105515530E+01 -0.13977136008E+01 -0.88984893493E+01  0.10211666001E+02  0.51100000000E-03 0.  1.
        -11    1    3    3    0    0 -0.31128308118E+01  0.12955080668E+02 -0.10302883827E+01  0.13363582049E+02  0.51100000000E-03 0. -1.
         12    1    3    3    0    0 -0.29831511887E+02 -0.13187382195E+00  0.19658578170E+02  0.35726687334E+02  0.00000000000E+00 0. -1.
</event>
<event>
 7    1  0.1202531E-011  0.5930194E+02  0.7816164E-02  0.1266605E+00
        -11   -1    0    0    0    0  0.00000000000E+00  0.00000000000E+00  0.45593999997E+02  0.45594000000E+02  0.51100000000E-03 0. -1.
         11   -1    0    0    0    0 -0.00000000000E+00 -0.00000000000E+00 -0.45593999997E+02  0.45594000000E+02  0.51100000000E-03 0.  1.
    9900012    2    1    2    0    0  0.64965031354E+01  0.31211748749E+02 -0.58544630103E+00  0.59301944109E+02  0.50000000147E+02 0.  0.
        -12    1    1    2    0    0 -0.64965031354E+01 -0.31211748749E+02  0.58544630103E+00  0.31886055891E+02  0.00000000000E+00 0.  1.
         11    1    3    3    0    0  0.63009946286E+01 -0.50479742777E+00  0.95014499576E+01  0.11412050881E+02  0.51100000000E-03 0. -1.
        -11    1    3    3    0    0  0.25918099021E+01  0.27752521477E+00 -0.15656102788E+02  0.15871611563E+02  0.51100000000E-03 0.  1.
         12    1    3    3    0    0 -0.23963013952E+01  0.31439020962E+02  0.55692065298E+01  0.32018281665E+02  0.00000000000E+00 0. -1.
</event>
<event>
 7    1  0.1202531E-011  0.5930194E+02  0.7816164E-02  0.1266605E+00
        -11   -1    0    0    0    0  0.00000000000E+00  0.00000000000E+00  0.45593999997E+02  0.45594000000E+02  0.51100000000E-03 0.  1.
         11   -1    0    0    0    0 -0.00000000000E+00 -0.00000000000E+00 -0.45593999997E+02  0.45594000000E+02  0.51100000000E-03 0. -1.
    9900012    2    1    2    0    0 -0.18221011269E+02 -0.16177677607E+02 -0.20566924179E+02  0.59301939181E+02  0.49999991160E+02 0.  0.
        -12    1    1    2    0    0  0.18221011269E+02  0.16177677607E+02  0.20566924179E+02  0.31886060819E+02  0.00000000000E+00 0.  1.
         11    1    3    3    0    0 -0.10184030396E+02  0.38159285562E+01  0.31686284732E+01  0.11327664919E+02  0.51100000000E-03 0. -1.
        -11    1    3    3    0    0  0.12961872636E+02 -0.72837235228E+00 -0.97133026986E+01  0.16213849576E+02  0.51100000000E-03 0.  1.
         12    1    3    3    0    0 -0.20998853508E+02 -0.19265233811E+02 -0.14022249953E+02  0.31760424685E+02  0.00000000000E+00 0. -1.
</event>
<event>
 7    1  0.1202531E-011  0.5930171E+02  0.7816164E-02  0.1266606E+00
        -11   -1    0    0    0    0  0.00000000000E+00  0.00000000000E+00  0.45593999997E+02  0.45594000000E+02  0.51100000000E-03 0.  1.
         11   -1    0    0    0    0 -0.00000000000E+00 -0.00000000000E+00 -0.45593999997E+02  0.45594000000E+02  0.51100000000E-03 0. -1.
    9900012    2    1    2    0    0  0.26801914793E+02  0.12960955645E+02 -0.11419568350E+02  0.59301709073E+02  0.49999571496E+02 0.  0.
        -12    1    1    2    0    0 -0.26801914793E+02 -0.12960955645E+02  0.11419568350E+02  0.31886290927E+02  0.00000000000E+00 0.  1.
         11    1    3    3    0    0 -0.13703254098E+01  0.91126828785E+01  0.37075165693E+01  0.99329985576E+01  0.51100000000E-03 0. -1.
        -11    1    3    3    0    0  0.23104030098E+02  0.16553654688E+02  0.72403252846E+00  0.28431389584E+02  0.51100000000E-03 0.  1.
         12    1    3    3    0    0  0.50682101049E+01 -0.12705381921E+02 -0.15851117448E+02  0.20937320931E+02  0.00000000000E+00 0. -1.
</event>
<event>
 7    1  0.1202531E-011  0.5930195E+02  0.7816164E-02  0.1266605E+00
        -11   -1    0    0    0    0  0.00000000000E+00  0.00000000000E+00  0.45593999997E+02  0.45594000000E+02  0.51100000000E-03 0.  1.
         11   -1    0    0    0    0 -0.00000000000E+00 -0.00000000000E+00 -0.45593999997E+02  0.45594000000E+02  0.51100000000E-03 0. -1.
    9900012    2    1    2    0    0 -0.12012985872E+02 -0.91548831225E+01 -0.28081962327E+02  0.59301947835E+02  0.50000006943E+02 0.  0.
        -12    1    1    2    0    0  0.12012985872E+02  0.91548831225E+01  0.28081962327E+02  0.31886052165E+02  0.00000000000E+00 0.  1.
         11    1    3    3    0    0  0.85247613714E+01  0.22857665256E+00 -0.11758278482E+02  0.14525182162E+02  0.51100000000E-03 0. -1.
        -11    1    3    3    0    0 -0.26633869322E+00 -0.10415313965E+02  0.79714583635E+01  0.13118454558E+02  0.51100000000E-03 0.  1.
        -12    1    3    3    0    0 -0.20271408550E+02  0.10318541896E+01 -0.24295142209E+02  0.31658311115E+02  0.00000000000E+00 0.  1.
</event>
<event>
 7    1  0.1202531E-011  0.5930197E+02  0.7816164E-02  0.1266605E+00
        -11   -1    0    0    0    0  0.00000000000E+00  0.00000000000E+00  0.45593999997E+02  0.45594000000E+02  0.51100000000E-03 0. -1.
         11   -1    0    0    0    0 -0.00000000000E+00 -0.00000000000E+00 -0.45593999997E+02  0.45594000000E+02  0.51100000000E-03 0.  1.
    9900012    2    1    2    0    0 -0.17753002692E+02 -0.24412316028E+02 -0.10275628091E+02  0.59301971538E+02  0.50000050172E+02 0.  0.
        -12    1    1    2    0    0  0.17753002692E+02  0.24412316028E+02  0.10275628091E+02  0.31886028462E+02  0.00000000000E+00 0.  1.
         11    1    3    3    0    0 -0.27065482164E+01 -0.23504090472E+02 -0.48182509192E+01  0.24145045338E+02  0.51100000000E-03 0. -1.
        -11    1    3    3    0    0  0.60206668537E+01 -0.74672048005E+01 -0.85837498024E+01  0.12871998206E+02  0.51100000000E-03 0.  1.
        -12    1    3    3    0    0 -0.21067121330E+02  0.65589792451E+01  0.31263726309E+01  0.22284927994E+02  0.00000000000E+00 0.  1.
</event>
<event>
 7    1  0.1202531E-011  0.5930189E+02  0.7816164E-02  0.1266605E+00
        -11   -1    0    0    0    0  0.00000000000E+00  0.00000000000E+00  0.45593999997E+02  0.45594000000E+02  0.51100000000E-03 0. -1.
         11   -1    0    0    0    0 -0.00000000000E+00 -0.00000000000E+00 -0.45593999997E+02  0.45594000000E+02  0.51100000000E-03 0.  1.
    9900012    2    1    2    0    0  0.78919632558E+01  0.34273725912E+01  0.30703325808E+02  0.59301887309E+02  0.49999896558E+02 0.  0.
        -12    1    1    2    0    0 -0.78919632558E+01 -0.34273725912E+01 -0.30703325808E+02  0.31886112691E+02  0.00000000000E+00 0.  1.
         11    1    3    3    0    0 -0.42279692506E+00 -0.56219255706E+01  0.63209584299E+00  0.56731252213E+01  0.51100000000E-03 0. -1.
        -11    1    3    3    0    0  0.48886187695E+01  0.19419090566E+02 -0.16376762908E+01  0.20091830573E+02  0.51100000000E-03 0.  1.
         12    1    3    3    0    0  0.34261414113E+01 -0.10369792404E+02  0.31708906256E+02  0.33536931514E+02  0.00000000000E+00 0. -1.
</event>
<event>
 7    1  0.1202531E-011  0.5930194E+02  0.7816164E-02  0.1266605E+00
        -11   -1    0    0    0    0  0.00000000000E+00  0.00000000000E+00  0.45593999997E+02  0.45594000000E+02  0.51100000000E-03 0. -1.
         11   -1    0    0    0    0 -0.00000000000E+00 -0.00000000000E+00 -0.45593999997E+02  0.45594000000E+02  0.51100000000E-03 0.  1.
    9900012    2    1    2    0    0  0.19067356094E+02  0.12213000358E+02  0.22449933720E+02  0.59301937682E+02  0.49999988426E+02 0.  0.
        -12    1    1    2    0    0 -0.19067356094E+02 -0.12213000358E+02 -0.22449933720E+02  0.31886062318E+02  0.00000000000E+00 0.  1.
         11    1    3    3    0    0  0.15184495798E+02 -0.10542221520E+02  0.86003876814E+01  0.20388085142E+02  0.51100000000E-03 0. -1.
        -11    1    3    3    0    0 -0.86835732398E+01  0.94248470670E+01 -0.39103307306E+01  0.13398614597E+02  0.51100000000E-03 0.  1.
         12    1    3    3    0    0  0.12566433536E+02  0.13330374811E+02  0.17759876769E+02  0.25515237942E+02  0.00000000000E+00 0. -1.
</event>
<event>
 7    1  0.1202531E-011  0.5930194E+02  0.7816164E-02  0.1266605E+00
        -11   -1    0    0    0    0  0.00000000000E+00  0.00000000000E+00  0.45593999997E+02  0.45594000000E+02  0.51100000000E-03 0.  1.
         11   -1    0    0    0    0 -0.00000000000E+00 -0.00000000000E+00 -0.45593999997E+02  0.45594000000E+02  0.51100000000E-03 0. -1.
    9900012    2    1    2    0    0 -0.28870097410E+02  0.13486661987E+02  0.11611603246E+01  0.59301939263E+02  0.49999991311E+02 0.  0.
        -12    1    1    2    0    0  0.28870097410E+02 -0.13486661987E+02 -0.11611603246E+01  0.31886060737E+02  0.00000000000E+00 0.  1.
         11    1    3    3    0    0 -0.18982238602E+02 -0.50073323067E-01 -0.31582220014E+00  0.18984931751E+02  0.51100000000E-03 0.  1.
        -11    1    3    3    0    0 -0.12575790127E+02 -0.16546364579E+01 -0.13703838383E+02  0.18673068998E+02  0.51100000000E-03 0. -1.
        -12    1    3    3    0    0  0.26879313187E+01  0.15191371768E+02  0.15180820908E+02  0.21643938514E+02  0.00000000000E+00 0.  1.
</event>
<event>
 7    1  0.1202531E-011  0.5930193E+02  0.7816164E-02  0.1266605E+00
        -11   -1    0    0    0    0  0.00000000000E+00  0.00000000000E+00  0.45593999997E+02  0.45594000000E+02  0.51100000000E-03 0.  1.
         11   -1    0    0    0    0 -0.00000000000E+00 -0.00000000000E+00 -0.45593999997E+02  0.45594000000E+02  0.51100000000E-03 0. -1.
    9900012    2    1    2    0    0 -0.31330488815E+02 -0.45235139670E+01 -0.38288282983E+01  0.59301927270E+02  0.49999969438E+02 0.  0.
        -12    1    1    2    0    0  0.31330488815E+02  0.45235139670E+01  0.38288282983E+01  0.31886072730E+02  0.00000000000E+00 0.  1.
         11    1    3    3    0    0 -0.63432947741E+01  0.75572084697E+01  0.52563738219E+01  0.11179367355E+02  0.51100000000E-03 0. -1.
        -11    1    3    3    0    0 -0.36608437701E+01  0.31438630883E+01  0.12991751251E+02  0.13858977346E+02  0.51100000000E-03 0.  1.
         12    1    3    3    0    0 -0.21326350271E+02 -0.15224585525E+02 -0.22076953372E+02  0.34263582569E+02  0.00000000000E+00 0. -1.
</event>
<event>
 7    1  0.1202531E-011  0.5930204E+02  0.7816164E-02  0.1266604E+00
        -11   -1    0    0    0    0  0.00000000000E+00  0.00000000000E+00  0.45593999997E+02  0.45594000000E+02  0.51100000000E-03 0.  1.
         11   -1    0    0    0    0 -0.00000000000E+00 -0.00000000000E+00 -0.45593999997E+02  0.45594000000E+02  0.51100000000E-03 0. -1.
    9900012    2    1    2    0    0 -0.37118570112E+01 -0.30563073746E+02  0.82967018933E+01  0.59302037233E+02  0.50000169983E+02 0.  0.
        -12    1    1    2    0    0  0.37118570112E+01  0.30563073746E+02 -0.82967018933E+01  0.31885962767E+02  0.00000000000E+00 0.  1.
         11    1    3    3    0    0  0.45046642091E+01 -0.81537211735E+01 -0.14516124404E+02  0.17247986450E+02  0.51100000000E-03 0. -1.
        -11    1    3    3    0    0 -0.94631757806E+01 -0.11027951808E+02 -0.20558405503E+01  0.14676303948E+02  0.51100000000E-03 0.  1.
        -12    1    3    3    0    0  0.12466545603E+01 -0.11381400765E+02  0.24868666848E+02  0.27377746835E+02  0.00000000000E+00 0.  1.
</event>
<event>
 7    1  0.1202531E-011  0.5930195E+02  0.7816164E-02  0.1266605E+00
        -11   -1    0    0    0    0  0.00000000000E+00  0.00000000000E+00  0.45593999997E+02  0.45594000000E+02  0.51100000000E-03 0. -1.
         11   -1    0    0    0    0 -0.00000000000E+00 -0.00000000000E+00 -0.45593999997E+02  0.45594000000E+02  0.51100000000E-03 0.  1.
    9900012    2    1    2    0    0 -0.29388818814E+02 -0.99663038854E+01 -0.73273793545E+01  0.59301947052E+02  0.50000005515E+02 0.  0.
        -12    1    1    2    0    0  0.29388818814E+02  0.99663038854E+01  0.73273793545E+01  0.31886052948E+02  0.00000000000E+00 0.  1.
         11    1    3    3    0    0 -0.11325852533E+02  0.24412972655E+01 -0.10306364723E+01  0.11631727289E+02  0.51100000000E-03 0. -1.
        -11    1    3    3    0    0 -0.21858375541E+01  0.11960894966E+02 -0.13024323013E+02  0.17817796845E+02  0.51100000000E-03 0.  1.
         12    1    3    3    0    0 -0.15877128727E+02 -0.24368496117E+02  0.67275801309E+01  0.29852422917E+02  0.00000000000E+00 0. -1.
</event>
<event>
 7    1  0.1202531E-011  0.5930193E+02  0.7816164E-02  0.1266605E+00
        -11   -1    0    0    0    0  0.00000000000E+00  0.00000000000E+00  0.45593999997E+02  0.45594000000E+02  0.51100000000E-03 0.  1.
         11   -1    0    0    0    0 -0.00000000000E+00 -0.00000000000E+00 -0.45593999997E+02  0.45594000000E+02  0.51100000000E-03 0. -1.
    9900012    2    1    2    0    0 -0.19341429805E+02 -0.20993203669E+02 -0.14209708019E+02  0.59301932365E+02  0.49999978731E+02 0.  0.
        -12    1    1    2    0    0  0.19341429805E+02  0.20993203669E+02  0.14209708019E+02  0.31886067635E+02  0.00000000000E+00 0.  1.
         11    1    3    3    0    0 -0.13304613967E+02  0.29377994485E+01 -0.30665654751E+00  0.13628553001E+02  0.51100000000E-03 0. -1.
        -11    1    3    3    0    0 -0.20684122777E+02 -0.89335589300E+01 -0.66765796616E+01  0.23499321830E+02  0.51100000000E-03 0.  1.
         12    1    3    3    0    0  0.14647306939E+02 -0.14997444188E+02 -0.72264718098E+01  0.22174057534E+02  0.00000000000E+00 0. -1.
</event>
<event>
 7    1  0.1202531E-011  0.5930194E+02  0.7816164E-02  0.1266605E+00
        -11   -1    0    0    0    0  0.00000000000E+00  0.00000000000E+00  0.45593999997E+02  0.45594000000E+02  0.51100000000E-03 0. -1.
         11   -1    0    0    0    0 -0.00000000000E+00 -0.00000000000E+00 -0.45593999997E+02  0.45594000000E+02  0.51100000000E-03 0.  1.
    9900012    2    1    2    0    0  0.16465064452E+02  0.25816420786E+02 -0.88957826703E+01  0.59301939113E+02  0.49999991036E+02 0.  0.
        -12    1    1    2    0    0 -0.16465064452E+02 -0.25816420786E+02  0.88957826703E+01  0.31886060887E+02  0.00000000000E+00 0.  1.
         11    1    3    3    0    0 -0.93663708768E+00 -0.59753762829E+01  0.20513222364E+01  0.63867310836E+01  0.51100000000E-03 0. -1.
        -11    1    3    3    0    0 -0.77702970813E+01  0.16803657625E+02 -0.14347765776E+02  0.23422186263E+02  0.51100000000E-03 0.  1.
         12    1    3    3    0    0  0.25171998621E+02  0.14988139444E+02  0.34006608692E+01  0.29493021766E+02  0.00000000000E+00 0. -1.
</event>
<event>
 7    1  0.1202531E-011  0.5930190E+02  0.7816164E-02  0.1266605E+00
        -11   -1    0    0    0    0  0.00000000000E+00  0.00000000000E+00  0.45593999997E+02  0.45594000000E+02  0.51100000000E-03 0.  1.
         11   -1    0    0    0    0 -0.00000000000E+00 -0.00000000000E+00 -0.45593999997E+02  0.45594000000E+02  0.51100000000E-03 0. -1.
    9900012    2    1    2    0    0 -0.16858229464E+02 -0.25149192098E+02  0.10002080642E+02  0.59301899877E+02  0.49999919480E+02 0.  0.
        -12    1    1    2    0    0  0.16858229464E+02  0.25149192098E+02 -0.10002080642E+02  0.31886100123E+02  0.00000000000E+00 0.  1.
         11    1    3    3    0    0  0.54032797647E+01  0.56358077750E+01 -0.19531287099E+01  0.80481347846E+01  0.51100000000E-03 0. -1.
        -11    1    3    3    0    0 -0.20088148577E+02 -0.19077502036E+01  0.91598680988E+01  0.22160243860E+02  0.51100000000E-03 0.  1.
        -12    1    3    3    0    0 -0.21733606519E+01 -0.28877249669E+02  0.27953412535E+01  0.29093521233E+02  0.00000000000E+00 0.  1.
</event>
<event>
 7    1  0.1202531E-011  0.5930195E+02  0.7816164E-02  0.1266605E+00
        -11   -1    0    0    0    0  0.00000000000E+00  0.00000000000E+00  0.45593999997E+02  0.45594000000E+02  0.51100000000E-03 0. -1.
         11   -1    0    0    0    0 -0.00000000000E+00 -0.00000000000E+00 -0.45593999997E+02  0.45594000000E+02  0.51100000000E-03 0.  1.
    9900012    2    1    2    0    0 -0.77982058312E+01 -0.24866285774E+02  0.18373245618E+02  0.59301947611E+02  0.50000006535E+02 0.  0.
        -12    1    1    2    0    0  0.77982058312E+01  0.24866285774E+02 -0.18373245618E+02  0.31886052389E+02  0.00000000000E+00 0.  1.
         11    1    3    3    0    0 -0.87887793198E+01 -0.21156001878E+02  0.31482033129E+02  0.38935041640E+02  0.51100000000E-03 0. -1.
        -11    1    3    3    0    0  0.70319804863E+01 -0.42207911520E+01 -0.33102525005E+01  0.88442975632E+01  0.51100000000E-03 0.  1.
        -12    1    3    3    0    0 -0.60414069977E+01  0.51050725522E+00 -0.97985350100E+01  0.11522608407E+02  0.00000000000E+00 0.  1.
</event>
<event>
 7    1  0.1202531E-011  0.5930194E+02  0.7816164E-02  0.1266605E+00
        -11   -1    0    0    0    0  0.00000000000E+00  0.00000000000E+00  0.45593999997E+02  0.45594000000E+02  0.51100000000E-03 0. -1.
         11   -1    0    0    0    0 -0.00000000000E+00 -0.00000000000E+00 -0.45593999997E+02  0.45594000000E+02  0.51100000000E-03 0.  1.
    9900012    2    1    2    0    0 -0.23198580899E+02  0.17184949766E+02  0.13536038644E+02  0.59301937271E+02  0.49999987677E+02 0.  0.
        -12    1    1    2    0    0  0.23198580899E+02 -0.17184949766E+02 -0.13536038644E+02  0.31886062729E+02  0.00000000000E+00 0.  1.
         11    1    3    3    0    0  0.55388770134E+01  0.20855225339E+02  0.21863303019E+01  0.21688698047E+02  0.51100000000E-03 0.  1.
        -11    1    3    3    0    0 -0.50892002341E+01 -0.32788293917E+01 -0.58113058491E+01  0.83917791401E+01  0.51100000000E-03 0. -1.
        -12    1    3    3    0    0 -0.23648257679E+02 -0.39144618150E+00  0.17161014191E+02  0.29221460084E+02  0.00000000000E+00 0.  1.
</event>
<event>
 7    1  0.1202531E-011  0.5930193E+02  0.7816164E-02  0.1266605E+00
        -11   -1    0    0    0    0  0.00000000000E+00  0.00000000000E+00  0.45593999997E+02  0.45594000000E+02  0.51100000000E-03 0. -1.
         11   -1    0    0    0    0 -0.00000000000E+00 -0.00000000000E+00 -0.45593999997E+02  0.45594000000E+02  0.51100000000E-03 0.  1.
    9900012    2    1    2    0    0  0.35753913632E+01  0.88457097261E+01  0.30425174325E+02  0.59301933503E+02  0.49999980805E+02 0.  0.
        -12    1    1    2    0    0 -0.35753913632E+01 -0.88457097261E+01 -0.30425174325E+02  0.31886066497E+02  0.00000000000E+00 0.  1.
         11    1    3    3    0    0 -0.16294155686E+02 -0.24745555474E+00  0.20714103082E+02  0.26355925529E+02  0.51100000000E-03 0. -1.
        -11    1    3    3    0    0  0.41510940347E+01 -0.51164125597E+01 -0.39999033252E+01  0.77076900585E+01  0.51100000000E-03 0.  1.
         12    1    3    3    0    0  0.15718453014E+02  0.14209577841E+02  0.13710974568E+02  0.25238317915E+02  0.00000000000E+00 0. -1.
</event>
<event>
 7    1  0.1202531E-011  0.5930195E+02  0.7816164E-02  0.1266605E+00
        -11   -1    0    0    0    0  0.00000000000E+00  0.00000000000E+00  0.45593999997E+02  0.45594000000E+02  0.51100000000E-03 0.  1.
         11   -1    0    0    0    0 -0.00000000000E+00 -0.00000000000E+00 -0.45593999997E+02  0.45594000000E+02  0.51100000000E-03 0. -1.
    9900012    2    1    2    0    0 -0.22315306786E+02  0.50852388946E+01 -0.22201076583E+02  0.59301947045E+02  0.50000005503E+02 0.  0.
        -12    1    1    2    0    0  0.22315306786E+02 -0.50852388946E+01  0.22201076583E+02  0.31886052955E+02  0.00000000000E+00 0.  1.
         11    1    3    3    0    0 -0.74751475866E+01  0.15499501566E+02 -0.70554040121E+01  0.18598147926E+02  0.51100000000E-03 0. -1.
        -11    1    3    3    0    0  0.65809453148E+01 -0.57983494340E+00 -0.15798330702E+02  0.17124027068E+02  0.51100000000E-03 0.  1.
        -12    1    3    3    0    0 -0.21421104515E+02 -0.98344277278E+01  0.65265813141E+00  0.23579772051E+02  0.00000000000E+00 0.  1.
</event>
<event>
 7    1  0.1202531E-011  0.5930196E+02  0.7816164E-02  0.1266605E+00
        -11   -1    0    0    0    0  0.00000000000E+00  0.00000000000E+00  0.45593999997E+02  0.45594000000E+02  0.51100000000E-03 0. -1.
         11   -1    0    0    0    0 -0.00000000000E+00 -0.00000000000E+00 -0.45593999997E+02  0.45594000000E+02  0.51100000000E-03 0.  1.
    9900012    2    1    2    0    0 -0.28836949185E+02 -0.12752874307E+02  0.47449165859E+01  0.59301957995E+02  0.50000025472E+02 0.  0.
        -12    1    1    2    0    0  0.28836949185E+02  0.12752874307E+02 -0.47449165859E+01  0.31886042005E+02  0.00000000000E+00 0.  1.
         11    1    3    3    0    0 -0.14873879905E+02 -0.93290756958E+01 -0.10244935291E+02  0.20327878791E+02  0.51100000000E-03 0. -1.
        -11    1    3    3    0    0 -0.19077553291E+02 -0.58192536642E+00 -0.36545479448E+01  0.19433152025E+02  0.51100000000E-03 0.  1.
         12    1    3    3    0    0  0.51144840115E+01 -0.28418732448E+01  0.18644399822E+02  0.19540927178E+02  0.00000000000E+00 0. -1.
</event>
<event>
 7    1  0.1202531E-011  0.5930193E+02  0.7816164E-02  0.1266605E+00
        -11   -1    0    0    0    0  0.00000000000E+00  0.00000000000E+00  0.45593999997E+02  0.45594000000E+02  0.51100000000E-03 0.  1.
         11   -1    0    0    0    0 -0.00000000000E+00 -0.00000000000E+00 -0.45593999997E+02  0.45594000000E+02  0.51100000000E-03 0. -1.
    9900012    2    1    2    0    0  0.29256785326E+02 -0.10535349599E+02  0.70546688109E+01  0.59301930458E+02  0.49999975252E+02 0.  0.
        -12    1    1    2    0    0 -0.29256785326E+02  0.10535349599E+02 -0.70546688109E+01  0.31886069542E+02  0.00000000000E+00 0.  1.
         11    1    3    3    0    0  0.17764757565E+02  0.66546946099E+01  0.18468189019E+02  0.26475376817E+02  0.51100000000E-03 0. -1.
        -11    1    3    3    0    0  0.31282649125E+01  0.55023607734E+01 -0.67614287399E+00  0.63654681596E+01  0.51100000000E-03 0.  1.
         12    1    3    3    0    0  0.83637628486E+01 -0.22692404982E+02 -0.10737377334E+02  0.26461085482E+02  0.00000000000E+00 0. -1.
</event>
<event>
 7    1  0.1202531E-011  0.5930194E+02  0.7816164E-02  0.1266605E+00
        -11   -1    0    0    0    0  0.00000000000E+00  0.00000000000E+00  0.45593999997E+02  0.45594000000E+02  0.51100000000E-03 0. -1.
         11   -1    0    0    0    0 -0.00000000000E+00 -0.00000000000E+00 -0.45593999997E+02  0.45594000000E+02  0.51100000000E-03 0.  1.
    9900012    2    1    2    0    0  0.90113373934E+00 -0.31668883213E+02  0.36042328192E+01  0.59301941915E+02  0.49999996146E+02 0.  0.
        -12    1    1    2    0    0 -0.90113373934E+00  0.31668883213E+02 -0.36042328192E+01  0.31886058085E+02  0.00000000000E+00 0.  1.
         11    1    3    3    0    0 -0.62942722815E+01 -0.82792859283E+01  0.33316214962E+01  0.10920812291E+02  0.51100000000E-03 0. -1.
        -11    1    3    3    0    0 -0.33316319069E+01  0.31391565807E+01  0.15409120551E+02  0.16074671743E+02  0.51100000000E-03 0.  1.
         12    1    3    3    0    0  0.10527037928E+02 -0.26528753866E+02 -0.15136509228E+02  0.32306457881E+02  0.00000000000E+00 0. -1.
</event>
<event>
 7    1  0.1202531E-011  0.5930192E+02  0.7816164E-02  0.1266605E+00
        -11   -1    0    0    0    0  0.00000000000E+00  0.00000000000E+00  0.45593999997E+02  0.45594000000E+02  0.51100000000E-03 0. -1.
         11   -1    0    0    0    0 -0.00000000000E+00 -0.00000000000E+00 -0.45593999997E+02  0.45594000000E+02  0.51100000000E-03 0.  1.
    9900012    2    1    2    0    0  0.18601446484E+01  0.30934597558E+02 -0.75041680493E+01  0.59301921497E+02  0.49999958909E+02 0.  0.
        -12    1    1    2    0    0 -0.18601446484E+01 -0.30934597558E+02  0.75041680493E+01  0.31886078503E+02  0.00000000000E+00 0.  1.
         11    1    3    3    0    0 -0.24266773264E+01 -0.45274486194E+01  0.29419014162E+00  0.51452018374E+01  0.51100000000E-03 0. -1.
        -11    1    3    3    0    0 -0.30120465954E+01 -0.44566232632E-01 -0.16586311069E+02  0.16857642954E+02  0.51100000000E-03 0.  1.
         12    1    3    3    0    0  0.72988685701E+01  0.35506612410E+02  0.87879528778E+01  0.37299076705E+02  0.00000000000E+00 0. -1.
</event>
<event>
 7    1  0.1295258E-011  0.5930219E+02  0.7816164E-02  0.1266604E+00
        -11   -1    0    0    0    0  0.00000000000E+00  0.00000000000E+00  0.45593999997E+02  0.45594000000E+02  0.51100000000E-03 0. -1.
         11   -1    0    0    0    0 -0.00000000000E+00 -0.00000000000E+00 -0.45593999997E+02  0.45594000000E+02  0.51100000000E-03 0.  1.
    9900012    2    1    2    0    0 -0.28148245969E+02  0.13572936297E+02  0.63369338543E+01  0.59302186830E+02  0.50000442811E+02 0.  0.
        -12    1    1    2    0    0  0.28148245969E+02 -0.13572936297E+02 -0.63369338543E+01  0.31885813170E+02  0.00000000000E+00 0.  1.
         11    1    3    3    0    0 -0.13920621087E+02  0.97713190395E+01  0.17716346284E+02  0.24558731506E+02  0.51100000000E-03 0. -1.
        -11    1    3    3    0    0 -0.17903292140E+02 -0.41480633318E+01  0.22788360277E+01  0.18518298863E+02  0.51100000000E-03 0.  1.
        -12    1    3    3    0    0  0.36756672588E+01  0.79496805895E+01 -0.13658248458E+02  0.16225156462E+02  0.00000000000E+00 0.  1.
</event>
<event>
 7    1  0.1202531E-011  0.5930195E+02  0.7816164E-02  0.1266605E+00
        -11   -1    0    0    0    0  0.00000000000E+00  0.00000000000E+00  0.45593999997E+02  0.45594000000E+02  0.51100000000E-03 0.  1.
         11   -1    0    0    0    0 -0.00000000000E+00 -0.00000000000E+00 -0.45593999997E+02  0.45594000000E+02  0.51100000000E-03 0. -1.
    9900012    2    1    2    0    0  0.38589775091E+01  0.15897832268E+02 -0.27369465962E+02  0.59301945913E+02  0.50000003438E+02 0.  0.
        -12    1    1    2    0    0 -0.38589775091E+01 -0.15897832268E+02  0.27369465962E+02  0.31886054087E+02  0.00000000000E+00 0.  1.
         11    1    3    3    0    0 -0.13774000829E+02 -0.30886175452E+01 -0.11961907531E+02  0.18502699511E+02  0.51100000000E-03 0. -1.
        -11    1    3    3    0    0  0.15020214182E+02 -0.19987398777E+01 -0.12108319917E+02  0.19396216297E+02  0.51100000000E-03 0.  1.
         12    1    3    3    0    0  0.26127641559E+01  0.20985189691E+02 -0.32992385143E+01  0.21403030105E+02  0.00000000000E+00 0. -1.
</event>
<event>
 7    1  0.1202531E-011  0.5930197E+02  0.7816164E-02  0.1266605E+00
        -11   -1    0    0    0    0  0.00000000000E+00  0.00000000000E+00  0.45593999997E+02  0.45594000000E+02  0.51100000000E-03 0.  1.
         11   -1    0    0    0    0 -0.00000000000E+00 -0.00000000000E+00 -0.45593999997E+02  0.45594000000E+02  0.51100000000E-03 0. -1.
    9900012    2    1    2    0    0  0.28976765219E+02 -0.48329508156E+01 -0.12397926320E+02  0.59301969937E+02  0.50000047253E+02 0.  0.
        -12    1    1    2    0    0 -0.28976765219E+02  0.48329508156E+01  0.12397926320E+02  0.31886030063E+02  0.00000000000E+00 0.  1.
         11    1    3    3    0    0  0.85420300720E+01 -0.90864875495E+01 -0.10941605000E+02  0.16590637540E+02  0.51100000000E-03 0. -1.
        -11    1    3    3    0    0  0.97772266359E+01  0.13080350187E+02 -0.15840718804E+02  0.22751221818E+02  0.51100000000E-03 0.  1.
        -12    1    3    3    0    0  0.10657508511E+02 -0.88268134534E+01  0.14384397484E+02  0.19960110580E+02  0.00000000000E+00 0.  1.
</event>
<event>
 7    1  0.1202531E-011  0.5930192E+02  0.7816164E-02  0.1266605E+00
        -11   -1    0    0    0    0  0.00000000000E+00  0.00000000000E+00  0.45593999997E+02  0.45594000000E+02  0.51100000000E-03 0.  1.
         11   -1    0    0    0    0 -0.00000000000E+00 -0.00000000000E+00 -0.45593999997E+02  0.45594000000E+02  0.51100000000E-03 0. -1.
    9900012    2    1    2    0    0 -0.23022413638E+01 -0.11830737486E+02 -0.29520422648E+02  0.59301921250E+02  0.49999958459E+02 0.  0.
        -12    1    1    2    0    0  0.23022413638E+01  0.11830737486E+02  0.29520422648E+02  0.31886078750E+02  0.00000000000E+00 0.  1.
         11    1    3    3    0    0 -0.91328894634E+01 -0.25232246963E+02 -0.26809726892E+02  0.37932010401E+02  0.51100000000E-03 0. -1.
        -11    1    3    3    0    0  0.25631283974E+01 -0.31723531870E+01 -0.69410117923E+00  0.41370555511E+01  0.51100000000E-03 0.  1.
         12    1    3    3    0    0  0.42675197022E+01  0.16573862664E+02 -0.20165945760E+01  0.17232855298E+02  0.00000000000E+00 0. -1.
</event>
<event>
 7    1  0.1202531E-011  0.5930193E+02  0.7816164E-02  0.1266605E+00
        -11   -1    0    0    0    0  0.00000000000E+00  0.00000000000E+00  0.45593999997E+02  0.45594000000E+02  0.51100000000E-03 0.  1.
         11   -1    0    0    0    0 -0.00000000000E+00 -0.00000000000E+00 -0.45593999997E+02  0.45594000000E+02  0.51100000000E-03 0. -1.
    9900012    2    1    2    0    0 -0.24907520460E+00  0.13981957747E+02 -0.28655965329E+02  0.59301928906E+02  0.49999972421E+02 0.  0.
        -12    1    1    2    0    0  0.24907520460E+00 -0.13981957747E+02  0.28655965329E+02  0.31886071094E+02  0.00000000000E+00 0.  1.
         11    1    3    3    0    0  0.73943530797E+01 -0.46528756808E+01 -0.70310377419E+01  0.11214330188E+02  0.51100000000E-03 0. -1.
        -11    1    3    3    0    0  0.89183627266E+01 -0.36739384201E+01  0.38564115655E+01  0.10387825935E+02  0.51100000000E-03 0.  1.
        -12    1    3    3    0    0 -0.16561791011E+02  0.22308771848E+02 -0.25481339153E+02  0.37699772783E+02  0.00000000000E+00 0.  1.
</event>
<event>
 7    1  0.1202531E-011  0.5930194E+02  0.7816164E-02  0.1266605E+00
        -11   -1    0    0    0    0  0.00000000000E+00  0.00000000000E+00  0.45593999997E+02  0.45594000000E+02  0.51100000000E-03 0.  1.
         11   -1    0    0    0    0 -0.00000000000E+00 -0.00000000000E+00 -0.45593999997E+02  0.45594000000E+02  0.51100000000E-03 0. -1.
    9900012    2    1    2    0    0  0.26787655009E+02  0.12886902742E+02  0.11535609386E+02  0.59301937103E+02  0.49999987371E+02 0.  0.
        -12    1    1    2    0    0 -0.26787655009E+02 -0.12886902742E+02 -0.11535609386E+02  0.31886062897E+02  0.00000000000E+00 0.  1.
         11    1    3    3    0    0  0.29021108671E+01  0.40810367347E+01 -0.12828284987E+01  0.51694059169E+01  0.51100000000E-03 0. -1.
        -11    1    3    3    0    0 -0.94323302374E+01 -0.12781076981E+01 -0.89587794089E+01  0.13071424626E+02  0.51100000000E-03 0.  1.
         12    1    3    3    0    0  0.33317874379E+02  0.10083973705E+02  0.21777217294E+02  0.41061106560E+02  0.00000000000E+00 0. -1.
</event>
<event>
 7    1  0.1202531E-011  0.5930192E+02  0.7816164E-02  0.1266605E+00
        -11   -1    0    0    0    0  0.00000000000E+00  0.00000000000E+00  0.45593999997E+02  0.45594000000E+02  0.51100000000E-03 0.  1.
         11   -1    0    0    0    0 -0.00000000000E+00 -0.00000000000E+00 -0.45593999997E+02  0.45594000000E+02  0.51100000000E-03 0. -1.
    9900012    2    1    2    0    0 -0.89414516802E+01 -0.12945364524E+02 -0.27734278930E+02  0.59301917635E+02  0.49999951867E+02 0.  0.
        -12    1    1    2    0    0  0.89414516802E+01  0.12945364524E+02  0.27734278930E+02  0.31886082365E+02  0.00000000000E+00 0.  1.
         11    1    3    3    0    0 -0.84250371916E+01  0.72427442110E+01 -0.22172572938E+02  0.24800435204E+02  0.51100000000E-03 0. -1.
        -11    1    3    3    0    0  0.10484762891E+02 -0.28446754370E+01  0.43428735445E+01  0.11699700086E+02  0.51100000000E-03 0.  1.
         12    1    3    3    0    0 -0.11001177380E+02 -0.17343433298E+02 -0.99045795367E+01  0.22801782345E+02  0.00000000000E+00 0. -1.
</event>
<event>
 7    1  0.1202531E-011  0.5930183E+02  0.7816164E-02  0.1266605E+00
        -11   -1    0    0    0    0  0.00000000000E+00  0.00000000000E+00  0.45593999997E+02  0.45594000000E+02  0.51100000000E-03 0. -1.
         11   -1    0    0    0    0 -0.00000000000E+00 -0.00000000000E+00 -0.45593999997E+02  0.45594000000E+02  0.51100000000E-03 0.  1.
    9900012    2    1    2    0    0  0.18449960839E+01  0.11819060398E+02  0.29557294204E+02  0.59301829958E+02  0.49999791965E+02 0.  0.
        -12    1    1    2    0    0 -0.18449960839E+01 -0.11819060398E+02 -0.29557294204E+02  0.31886170042E+02  0.00000000000E+00 0.  1.
         11    1    3    3    0    0 -0.27879131572E+00  0.36756720862E+01  0.10822877772E+02  0.11433414775E+02  0.51100000000E-03 0. -1.
        -11    1    3    3    0    0  0.90851831093E+01  0.23446256871E+02  0.18213763888E+02  0.31048489635E+02  0.51100000000E-03 0.  1.
        -12    1    3    3    0    0 -0.69613957097E+01 -0.15302868560E+02  0.52065254426E+00  0.16819925548E+02  0.00000000000E+00 0.  1.
</event>
<event>
 7    1  0.1202531E-011  0.5930192E+02  0.7816164E-02  0.1266605E+00
        -11   -1    0    0    0    0  0.00000000000E+00  0.00000000000E+00  0.45593999997E+02  0.45594000000E+02  0.51100000000E-03 0. -1.
         11   -1    0    0    0    0 -0.00000000000E+00 -0.00000000000E+00 -0.45593999997E+02  0.45594000000E+02  0.51100000000E-03 0.  1.
    9900012    2    1    2    0    0  0.86871799967E+01 -0.21768599151E+02  0.21619043077E+02  0.59301921081E+02  0.49999958150E+02 0.  0.
        -12    1    1    2    0    0 -0.86871799967E+01  0.21768599151E+02 -0.21619043077E+02  0.31886078919E+02  0.00000000000E+00 0.  1.
         11    1    3    3    0    0 -0.16452934006E+02 -0.41147774836E+01  0.56344444028E+01  0.17871133012E+02  0.51100000000E-03 0.  1.
        -11    1    3    3    0    0 -0.63630565541E+00 -0.10514304298E+02  0.88262061684E+01  0.13742539625E+02  0.51100000000E-03 0. -1.
         12    1    3    3    0    0  0.25776419658E+02 -0.71395173698E+01  0.71583925057E+01  0.27688248444E+02  0.00000000000E+00 0. -1.
</event>
<event>
 7    1  0.1202531E-011  0.5930196E+02  0.7816164E-02  0.1266605E+00
        -11   -1    0    0    0    0  0.00000000000E+00  0.00000000000E+00  0.45593999997E+02  0.45594000000E+02  0.51100000000E-03 0. -1.
         11   -1    0    0    0    0 -0.00000000000E+00 -0.00000000000E+00 -0.45593999997E+02  0.45594000000E+02  0.51100000000E-03 0.  1.
    9900012    2    1    2    0    0 -0.20976895793E+00  0.21139553079E+02  0.23870380253E+02  0.59301956645E+02  0.50000023011E+02 0.  0.
        -12    1    1    2    0    0  0.20976895793E+00 -0.21139553079E+02 -0.23870380253E+02  0.31886043355E+02  0.00000000000E+00 0.  1.
         11    1    3    3    0    0 -0.84611854829E+01  0.21486869888E+02  0.17942880670E+02  0.29244216597E+02  0.51100000000E-03 0. -1.
        -11    1    3    3    0    0 -0.59696662636E+01  0.66676791798E+01 -0.55067240526E+01  0.10508038399E+02  0.51100000000E-03 0.  1.
        -12    1    3    3    0    0  0.14221082789E+02 -0.70149959888E+01  0.11434223636E+02  0.19549701649E+02  0.00000000000E+00 0.  1.
</event>
<event>
 7    1  0.1202531E-011  0.5930200E+02  0.7816164E-02  0.1266605E+00
        -11   -1    0    0    0    0  0.00000000000E+00  0.00000000000E+00  0.45593999997E+02  0.45594000000E+02  0.51100000000E-03 0.  1.
         11   -1    0    0    0    0 -0.00000000000E+00 -0.00000000000E+00 -0.45593999997E+02  0.45594000000E+02  0.51100000000E-03 0. -1.
    9900012    2    1    2    0    0 -0.12263939520E+02  0.20365191978E+02 -0.21250220756E+02  0.59301997758E+02  0.50000097990E+02 0.  0.
        -12    1    1    2    0    0  0.12263939520E+02 -0.20365191978E+02  0.21250220756E+02  0.31886002242E+02  0.00000000000E+00 0.  1.
         11    1    3    3    0    0 -0.38672022954E+01  0.18515479933E+01 -0.12611762849E+02  0.13320662371E+02  0.51100000000E-03 0. -1.
        -11    1    3    3    0    0 -0.21404362216E+02 -0.12488527677E+01 -0.53169548779E+01  0.22090187065E+02  0.51100000000E-03 0.  1.
         12    1    3    3    0    0  0.13007624992E+02  0.19762496752E+02 -0.33215030287E+01  0.23891148323E+02  0.00000000000E+00 0. -1.
</event>
<event>
 7    1  0.1430275E-011  0.5930195E+02  0.7816164E-02  0.1266605E+00
        -11   -1    0    0    0    0  0.00000000000E+00  0.00000000000E+00  0.45593999997E+02  0.45594000000E+02  0.51100000000E-03 0. -1.
         11   -1    0    0    0    0 -0.00000000000E+00 -0.00000000000E+00 -0.45593999997E+02  0.45594000000E+02  0.51100000000E-03 0.  1.
    9900012    2    1    2    0    0 -0.71925725207E+01 -0.20108113425E+02  0.23678062816E+02  0.59301953150E+02  0.50000016637E+02 0.  0.
        -12    1    1    2    0    0  0.71925725207E+01  0.20108113425E+02 -0.23678062816E+02  0.31886046850E+02  0.00000000000E+00 0.  1.
         11    1    3    3    0    0 -0.11382698181E+02 -0.14715244976E+02  0.25523699574E+02  0.31584228545E+02  0.51100000000E-03 0. -1.
        -11    1    3    3    0    0 -0.10838698833E+02  0.16923360935E+01 -0.17062006876E+01  0.11101914920E+02  0.51100000000E-03 0.  1.
        -12    1    3    3    0    0  0.15028824494E+02 -0.70852045426E+01 -0.13943606992E+00  0.16615809685E+02  0.00000000000E+00 0.  1.
</event>
<event>
 7    1  0.1202531E-011  0.5930185E+02  0.7816164E-02  0.1266605E+00
        -11   -1    0    0    0    0  0.00000000000E+00  0.00000000000E+00  0.45593999997E+02  0.45594000000E+02  0.51100000000E-03 0. -1.
         11   -1    0    0    0    0 -0.00000000000E+00 -0.00000000000E+00 -0.45593999997E+02  0.45594000000E+02  0.51100000000E-03 0.  1.
    9900012    2    1    2    0    0  0.81499734093E+01 -0.19184613205E+02  0.24129964456E+02  0.59301848852E+02  0.49999826421E+02 0.  0.
        -12    1    1    2    0    0 -0.81499734093E+01  0.19184613205E+02 -0.24129964456E+02  0.31886151148E+02  0.00000000000E+00 0.  1.
         11    1    3    3    0    0 -0.12081114957E+01 -0.13482809392E+02  0.12768519559E+02  0.18608620972E+02  0.51100000000E-03 0. -1.
        -11    1    3    3    0    0  0.19720829340E+02 -0.70919513092E+00  0.18587411643E+02  0.27109148630E+02  0.51100000000E-03 0.  1.
        -12    1    3    3    0    0 -0.10362744435E+02 -0.49926086824E+01 -0.72259667453E+01  0.13584079250E+02  0.00000000000E+00 0.  1.
</event>
<event>
 7    1  0.1202531E-011  0.5930195E+02  0.7816164E-02  0.1266605E+00
        -11   -1    0    0    0    0  0.00000000000E+00  0.00000000000E+00  0.45593999997E+02  0.45594000000E+02  0.51100000000E-03 0. -1.
         11   -1    0    0    0    0 -0.00000000000E+00 -0.00000000000E+00 -0.45593999997E+02  0.45594000000E+02  0.51100000000E-03 0.  1.
    9900012    2    1    2    0    0 -0.15388096510E+01  0.11225120412E+02  0.29805177887E+02  0.59301954584E+02  0.50000019252E+02 0.  0.
        -12    1    1    2    0    0  0.15388096510E+01 -0.11225120412E+02 -0.29805177887E+02  0.31886045416E+02  0.00000000000E+00 0.  1.
         11    1    3    3    0    0  0.94469670222E+01 -0.13332622960E+02  0.55611737247E+01  0.17260668421E+02  0.51100000000E-03 0. -1.
        -11    1    3    3    0    0  0.52971894231E+01  0.12827415112E+02  0.68151657022E+01  0.15461218517E+02  0.51100000000E-03 0.  1.
        -12    1    3    3    0    0 -0.16282966096E+02  0.11730328260E+02  0.17428838460E+02  0.26580067645E+02  0.00000000000E+00 0.  1.
</event>
<event>
 7    1  0.1202531E-011  0.5930198E+02  0.7816164E-02  0.1266605E+00
        -11   -1    0    0    0    0  0.00000000000E+00  0.00000000000E+00  0.45593999997E+02  0.45594000000E+02  0.51100000000E-03 0.  1.
         11   -1    0    0    0    0 -0.00000000000E+00 -0.00000000000E+00 -0.45593999997E+02  0.45594000000E+02  0.51100000000E-03 0. -1.
    9900012    2    1    2    0    0  0.28039090191E+02 -0.14376859015E+01 -0.15114917268E+02  0.59301980438E+02  0.50000066404E+02 0.  0.
        -12    1    1    2    0    0 -0.28039090191E+02  0.14376859015E+01  0.15114917268E+02  0.31886019562E+02  0.00000000000E+00 0.  1.
         11    1    3    3    0    0 -0.27672591356E+01 -0.55768993543E+01  0.76680846221E+01  0.98771985687E+01  0.51100000000E-03 0.  1.
        -11    1    3    3    0    0 -0.29655975340E+01 -0.75587310183E+01 -0.42869901358E+01  0.91819098245E+01  0.51100000000E-03 0. -1.
        -12    1    3    3    0    0  0.33771946860E+02  0.11697944471E+02 -0.18496011755E+02  0.40242872045E+02  0.00000000000E+00 0.  1.
</event>
<event>
 7    1  0.1202531E-011  0.5930195E+02  0.7816164E-02  0.1266605E+00
        -11   -1    0    0    0    0  0.00000000000E+00  0.00000000000E+00  0.45593999997E+02  0.45594000000E+02  0.51100000000E-03 0.  1.
         11   -1    0    0    0    0 -0.00000000000E+00 -0.00000000000E+00 -0.45593999997E+02  0.45594000000E+02  0.51100000000E-03 0. -1.
    9900012    2    1    2    0    0  0.11412782308E+01 -0.25818834017E+02 -0.18676333238E+02  0.59301950869E+02  0.50000012476E+02 0.  0.
        -12    1    1    2    0    0 -0.11412782308E+01  0.25818834017E+02  0.18676333238E+02  0.31886049131E+02  0.00000000000E+00 0.  1.
         11    1    3    3    0    0  0.42428455941E+01 -0.23627895254E+01 -0.80673062636E+00  0.49229389232E+01  0.51100000000E-03 0. -1.
        -11    1    3    3    0    0 -0.82653978244E+01  0.10329295185E+02 -0.15120692592E+02  0.20090955302E+02  0.51100000000E-03 0.  1.
         12    1    3    3    0    0  0.51638304611E+01 -0.33785339677E+02 -0.27489100195E+01  0.34288056644E+02  0.00000000000E+00 0. -1.
</event>
<event>
 7    1  0.1342324E-011  0.5930194E+02  0.7816164E-02  0.1266605E+00
        -11   -1    0    0    0    0  0.00000000000E+00  0.00000000000E+00  0.45593999997E+02  0.45594000000E+02  0.51100000000E-03 0. -1.
         11   -1    0    0    0    0 -0.00000000000E+00 -0.00000000000E+00 -0.45593999997E+02  0.45594000000E+02  0.51100000000E-03 0.  1.
    9900012    2    1    2    0    0  0.13158429927E+02 -0.22979089190E+02  0.17763392625E+02  0.59301938222E+02  0.49999989412E+02 0.  0.
        -12    1    1    2    0    0 -0.13158429927E+02  0.22979089190E+02 -0.17763392625E+02  0.31886061778E+02  0.00000000000E+00 0.  1.
         11    1    3    3    0    0  0.18842155207E+02 -0.17442024337E+01  0.13609580606E+02  0.23308576523E+02  0.51100000000E-03 0. -1.
        -11    1    3    3    0    0  0.97395823386E+01 -0.78365988037E+00 -0.11389256115E+01  0.98372119397E+01  0.51100000000E-03 0.  1.
        -12    1    3    3    0    0 -0.15423307619E+02 -0.20451226876E+02  0.52927376305E+01  0.26156149760E+02  0.00000000000E+00 0.  1.
</event>
<event>
 7    1  0.1202531E-011  0.5930212E+02  0.7816164E-02  0.1266604E+00
        -11   -1    0    0    0    0  0.00000000000E+00  0.00000000000E+00  0.45593999997E+02  0.45594000000E+02  0.51100000000E-03 0. -1.
         11   -1    0    0    0    0 -0.00000000000E+00 -0.00000000000E+00 -0.45593999997E+02  0.45594000000E+02  0.51100000000E-03 0.  1.
    9900012    2    1    2    0    0 -0.10547870031E+02  0.27065628243E+02  0.13149273712E+02  0.59302122350E+02  0.50000325216E+02 0.  0.
        -12    1    1    2    0    0  0.10547870031E+02 -0.27065628243E+02 -0.13149273712E+02  0.31885877650E+02  0.00000000000E+00 0.  1.
         11    1    3    3    0    0 -0.16181997307E+02  0.13090622324E+02  0.20636807905E+02  0.29310395263E+02  0.51100000000E-03 0. -1.
        -11    1    3    3    0    0  0.71264427135E-01 -0.43820403952E+01  0.53461594573E+01  0.69129427777E+01  0.51100000000E-03 0.  1.
         12    1    3    3    0    0  0.55628628492E+01  0.18357046314E+02 -0.12833693651E+02  0.23078784309E+02  0.00000000000E+00 0. -1.
</event>
<event>
 7    1  0.1202531E-011  0.5930195E+02  0.7816164E-02  0.1266605E+00
        -11   -1    0    0    0    0  0.00000000000E+00  0.00000000000E+00  0.45593999997E+02  0.45594000000E+02  0.51100000000E-03 0.  1.
         11   -1    0    0    0    0 -0.00000000000E+00 -0.00000000000E+00 -0.45593999997E+02  0.45594000000E+02  0.51100000000E-03 0. -1.
    9900012    2    1    2    0    0 -0.26770024851E+02 -0.95821255207E+01 -0.14431514160E+02  0.59301953507E+02  0.50000017288E+02 0.  0.
        -12    1    1    2    0    0  0.26770024851E+02  0.95821255207E+01  0.14431514160E+02  0.31886046493E+02  0.00000000000E+00 0.  1.
         11    1    3    3    0    0  0.60693662905E+01  0.56137962150E+01 -0.71767052283E+01  0.10947922785E+02  0.51100000000E-03 0. -1.
        -11    1    3    3    0    0 -0.39831451484E+01  0.90234844092E+01  0.55821302202E+00  0.98792873324E+01  0.51100000000E-03 0.  1.
        -12    1    3    3    0    0 -0.28856245993E+02 -0.24219406145E+02 -0.78130219538E+01  0.38474743389E+02  0.00000000000E+00 0.  1.
</event>
<event>
 7    1  0.1202531E-011  0.5930200E+02  0.7816164E-02  0.1266605E+00
        -11   -1    0    0    0    0  0.00000000000E+00  0.00000000000E+00  0.45593999997E+02  0.45594000000E+02  0.51100000000E-03 0.  1.
         11   -1    0    0    0    0 -0.00000000000E+00 -0.00000000000E+00 -0.45593999997E+02  0.45594000000E+02  0.51100000000E-03 0. -1.
    9900012    2    1    2    0    0 -0.16391220925E+02 -0.10225029728E+01 -0.27331293252E+02  0.59301996385E+02  0.50000095487E+02 0.  0.
        -12    1    1    2    0    0  0.16391220925E+02  0.10225029728E+01  0.27331293252E+02  0.31886003615E+02  0.00000000000E+00 0.  1.
         11    1    3    3    0    0  0.13389091651E+00 -0.12886252887E+02 -0.80637602654E+01  0.15201896925E+02  0.51100000000E-03 0. -1.
        -11    1    3    3    0    0  0.49701232514E+01 -0.43033752236E+01 -0.15633039903E+02  0.16959159776E+02  0.51100000000E-03 0.  1.
         12    1    3    3    0    0 -0.21495235093E+02  0.16167125138E+02 -0.36344930833E+01  0.27140939683E+02  0.00000000000E+00 0. -1.
</event>
<event>
 7    1  0.1202531E-011  0.5930194E+02  0.7816164E-02  0.1266605E+00
        -11   -1    0    0    0    0  0.00000000000E+00  0.00000000000E+00  0.45593999997E+02  0.45594000000E+02  0.51100000000E-03 0. -1.
         11   -1    0    0    0    0 -0.00000000000E+00 -0.00000000000E+00 -0.45593999997E+02  0.45594000000E+02  0.51100000000E-03 0.  1.
    9900012    2    1    2    0    0 -0.13322854982E+00  0.40946503292E+01  0.31621775538E+02  0.59301943496E+02  0.49999999030E+02 0.  0.
        -12    1    1    2    0    0  0.13322854982E+00 -0.40946503292E+01 -0.31621775538E+02  0.31886056504E+02  0.00000000000E+00 0.  1.
         11    1    3    3    0    0  0.26414118865E+01 -0.78373084776E+01  0.93709313477E+01  0.12498592541E+02  0.51100000000E-03 0. -1.
        -11    1    3    3    0    0  0.71324840240E+01 -0.11289894943E+02  0.31471980885E+00  0.13357885499E+02  0.51100000000E-03 0.  1.
         12    1    3    3    0    0 -0.99071244603E+01  0.23221853750E+02  0.21936124382E+02  0.33445465456E+02  0.00000000000E+00 0. -1.
</event>
<event>
 7    1  0.1202531E-011  0.5930196E+02  0.7816164E-02  0.1266605E+00
        -11   -1    0    0    0    0  0.00000000000E+00  0.00000000000E+00  0.45593999997E+02  0.45594000000E+02  0.51100000000E-03 0.  1.
         11   -1    0    0    0    0 -0.00000000000E+00 -0.00000000000E+00 -0.45593999997E+02  0.45594000000E+02  0.51100000000E-03 0. -1.
    9900012    2    1    2    0    0  0.16287086308E+02 -0.84633908336E+01 -0.26073388307E+02  0.59301956930E+02  0.50000023531E+02 0.  0.
        -12    1    1    2    0    0 -0.16287086308E+02  0.84633908336E+01  0.26073388307E+02  0.31886043070E+02  0.00000000000E+00 0.  1.
         11    1    3    3    0    0  0.28743121282E+01  0.55914816276E+01  0.36761452227E+01  0.72828827371E+01  0.51100000000E-03 0. -1.
        -11    1    3    3    0    0  0.93657854425E+01  0.12498043169E+02 -0.13370789237E+02  0.20559596910E+02  0.51100000000E-03 0.  1.
         12    1    3    3    0    0  0.40469887377E+01 -0.26552915631E+02 -0.16378744293E+02  0.31459477283E+02  0.00000000000E+00 0. -1.
</event>
<event>
 7    1  0.1202531E-011  0.5930208E+02  0.7816164E-02  0.1266604E+00
        -11   -1    0    0    0    0  0.00000000000E+00  0.00000000000E+00  0.45593999997E+02  0.45594000000E+02  0.51100000000E-03 0.  1.
         11   -1    0    0    0    0 -0.00000000000E+00 -0.00000000000E+00 -0.45593999997E+02  0.45594000000E+02  0.51100000000E-03 0. -1.
    9900012    2    1    2    0    0  0.26220491857E+02 -0.13030473553E+02 -0.12625551489E+02  0.59302078583E+02  0.50000245395E+02 0.  0.
        -12    1    1    2    0    0 -0.26220491857E+02  0.13030473553E+02  0.12625551489E+02  0.31885921417E+02  0.00000000000E+00 0.  1.
         11    1    3    3    0    0  0.16190584510E+01 -0.24554220713E+02 -0.16257043842E+02  0.29492754701E+02  0.51100000000E-03 0. -1.
        -11    1    3    3    0    0  0.45061678585E+01  0.34639069856E+01  0.57123271407E+01  0.80582182892E+01  0.51100000000E-03 0.  1.
        -12    1    3    3    0    0  0.20095265548E+02  0.80598401750E+01 -0.20808347870E+01  0.21751105592E+02  0.00000000000E+00 0.  1.
</event>
<event>
 7    1  0.1202531E-011  0.5930194E+02  0.7816164E-02  0.1266605E+00
        -11   -1    0    0    0    0  0.00000000000E+00  0.00000000000E+00  0.45593999997E+02  0.45594000000E+02  0.51100000000E-03 0.  1.
         11   -1    0    0    0    0 -0.00000000000E+00 -0.00000000000E+00 -0.45593999997E+02  0.45594000000E+02  0.51100000000E-03 0. -1.
    9900012    2    1    2    0    0  0.14074877631E+02 -0.26592917332E+02 -0.10556289282E+02  0.59301942296E+02  0.49999996841E+02 0.  0.
        -12    1    1    2    0    0 -0.14074877631E+02  0.26592917332E+02  0.10556289282E+02  0.31886057704E+02  0.00000000000E+00 0.  1.
         11    1    3    3    0    0 -0.79683242717E+01 -0.12757673474E+01 -0.23815291125E+00  0.80733197072E+01  0.51100000000E-03 0.  1.
        -11    1    3    3    0    0  0.40702664411E+01  0.24857932724E+01  0.10905928832E+02  0.11903172730E+02  0.51100000000E-03 0. -1.
         12    1    3    3    0    0  0.17972935461E+02 -0.27802943257E+02 -0.21224065203E+02  0.39325449858E+02  0.00000000000E+00 0. -1.
</event>
<event>
 7    1  0.1202531E-011  0.5930193E+02  0.7816164E-02  0.1266605E+00
        -11   -1    0    0    0    0  0.00000000000E+00  0.00000000000E+00  0.45593999997E+02  0.45594000000E+02  0.51100000000E-03 0.  1.
         11   -1    0    0    0    0 -0.00000000000E+00 -0.00000000000E+00 -0.45593999997E+02  0.45594000000E+02  0.51100000000E-03 0. -1.
    9900012    2    1    2    0    0  0.18147984028E+02  0.21762090386E+02 -0.14621340881E+02  0.59301929194E+02  0.49999972948E+02 0.  0.
        -12    1    1    2    0    0 -0.18147984028E+02 -0.21762090386E+02  0.14621340881E+02  0.31886070806E+02  0.00000000000E+00 0.  1.
         11    1    3    3    0    0  0.69311044681E+01  0.27160822613E+01  0.14423689104E+01  0.75827264445E+01  0.51100000000E-03 0. -1.
        -11    1    3    3    0    0 -0.13949560701E+02 -0.44199042050E+01 -0.31625619650E+01  0.14970891603E+02  0.51100000000E-03 0.  1.
         12    1    3    3    0    0  0.25166440261E+02  0.23465912330E+02 -0.12901147827E+02  0.36748311147E+02  0.00000000000E+00 0. -1.
</event>
<event>
 7    1  0.1202531E-011  0.5930164E+02  0.7816164E-02  0.1266606E+00
        -11   -1    0    0    0    0  0.00000000000E+00  0.00000000000E+00  0.45593999997E+02  0.45594000000E+02  0.51100000000E-03 0. -1.
         11   -1    0    0    0    0 -0.00000000000E+00 -0.00000000000E+00 -0.45593999997E+02  0.45594000000E+02  0.51100000000E-03 0.  1.
    9900012    2    1    2    0    0 -0.42256667412E+01 -0.31585060400E+02  0.11260117439E+01  0.59301636106E+02  0.49999438422E+02 0.  0.
        -12    1    1    2    0    0  0.42256667412E+01  0.31585060400E+02 -0.11260117439E+01  0.31886363894E+02  0.00000000000E+00 0.  1.
         11    1    3    3    0    0  0.10529191440E+02  0.32860989075E+01 -0.57650798619E+00  0.11045120195E+02  0.51100000000E-03 0. -1.
        -11    1    3    3    0    0  0.45650908367E+00 -0.30693016393E+01 -0.10502196922E+02  0.10951034359E+02  0.51100000000E-03 0.  1.
         12    1    3    3    0    0 -0.15211367265E+02 -0.31801857669E+02  0.12204716652E+02  0.37305481552E+02  0.00000000000E+00 0. -1.
</event>
<event>
 7    1  0.1202531E-011  0.5930193E+02  0.7816164E-02  0.1266605E+00
        -11   -1    0    0    0    0  0.00000000000E+00  0.00000000000E+00  0.45593999997E+02  0.45594000000E+02  0.51100000000E-03 0. -1.
         11   -1    0    0    0    0 -0.00000000000E+00 -0.00000000000E+00 -0.45593999997E+02  0.45594000000E+02  0.51100000000E-03 0.  1.
    9900012    2    1    2    0    0 -0.13427940118E+02  0.66551740195E+01  0.28144635621E+02  0.59301930451E+02  0.49999975240E+02 0.  0.
        -12    1    1    2    0    0  0.13427940118E+02 -0.66551740195E+01 -0.28144635621E+02  0.31886069549E+02  0.00000000000E+00 0.  1.
         11    1    3    3    0    0 -0.16220161443E+02 -0.78212689612E+01  0.21849034816E+02  0.28313357414E+02  0.51100000000E-03 0. -1.
        -11    1    3    3    0    0  0.29735088373E+01 -0.76125195907E+01  0.27068030386E+01  0.86092387744E+01  0.51100000000E-03 0.  1.
        -12    1    3    3    0    0 -0.18128751210E+00  0.22088962571E+02  0.35887977666E+01  0.22379334263E+02  0.00000000000E+00 0.  1.
</event>
<event>
 7    1  0.1202531E-011  0.5930196E+02  0.7816164E-02  0.1266605E+00
        -11   -1    0    0    0    0  0.00000000000E+00  0.00000000000E+00  0.45593999997E+02  0.45594000000E+02  0.51100000000E-03 0. -1.
         11   -1    0    0    0    0 -0.00000000000E+00 -0.00000000000E+00 -0.45593999997E+02  0.45594000000E+02  0.51100000000E-03 0.  1.
    9900012    2    1    2    0    0  0.21372204595E+02  0.14203568880E+02  0.18926361925E+02  0.59301958008E+02  0.50000025497E+02 0.  0.
        -12    1    1    2    0    0 -0.21372204595E+02 -0.14203568880E+02 -0.18926361925E+02  0.31886041992E+02  0.00000000000E+00 0.  1.
         11    1    3    3    0    0  0.38463048575E+01 -0.29558867194E+01 -0.47949777463E+01  0.68207872862E+01  0.51100000000E-03 0. -1.
        -11    1    3    3    0    0  0.21223840507E+02  0.58895015042E+01 -0.39478468257E+01  0.22376843581E+02  0.51100000000E-03 0.  1.
         12    1    3    3    0    0 -0.36979407693E+01  0.11269954095E+02  0.27669186497E+02  0.30104327141E+02  0.00000000000E+00 0. -1.
</event>
<event>
 7    1  0.1202531E-011  0.5930196E+02  0.7816164E-02  0.1266605E+00
        -11   -1    0    0    0    0  0.00000000000E+00  0.00000000000E+00  0.45593999997E+02  0.45594000000E+02  0.51100000000E-03 0. -1.
         11   -1    0    0    0    0 -0.00000000000E+00 -0.00000000000E+00 -0.45593999997E+02  0.45594000000E+02  0.51100000000E-03 0.  1.
    9900012    2    1    2    0    0 -0.14378623345E+02  0.15495338444E+02  0.23871939434E+02  0.59301955794E+02  0.50000021458E+02 0.  0.
        -12    1    1    2    0    0  0.14378623345E+02 -0.15495338444E+02 -0.23871939434E+02  0.31886044206E+02  0.00000000000E+00 0.  1.
         11    1    3    3    0    0 -0.10041970519E+02 -0.95583349594E+01  0.12428627141E+02  0.18619175921E+02  0.51100000000E-03 0. -1.
        -11    1    3    3    0    0 -0.10619269376E+02  0.13549859734E+02 -0.65518310235E+01  0.18419936778E+02  0.51100000000E-03 0.  1.
         12    1    3    3    0    0  0.62826165504E+01  0.11503813670E+02  0.17995143317E+02  0.22262843095E+02  0.00000000000E+00 0. -1.
</event>
<event>
 7    1  0.1202531E-011  0.5930168E+02  0.7816164E-02  0.1266606E+00
        -11   -1    0    0    0    0  0.00000000000E+00  0.00000000000E+00  0.45593999997E+02  0.45594000000E+02  0.51100000000E-03 0. -1.
         11   -1    0    0    0    0 -0.00000000000E+00 -0.00000000000E+00 -0.45593999997E+02  0.45594000000E+02  0.51100000000E-03 0.  1.
    9900012    2    1    2    0    0  0.26997027409E+02  0.16602451500E+02 -0.35009279596E+01  0.59301680342E+02  0.49999519099E+02 0.  0.
        -12    1    1    2    0    0 -0.26997027409E+02 -0.16602451500E+02  0.35009279596E+01  0.31886319658E+02  0.00000000000E+00 0.  1.
         11    1    3    3    0    0  0.14531261205E+02  0.27243130868E+01  0.95065929485E+01  0.17577108515E+02  0.51100000000E-03 0. -1.
        -11    1    3    3    0    0  0.91495231626E+01  0.31750463793E+01  0.11345789573E+02  0.14917159076E+02  0.51100000000E-03 0.  1.
        -12    1    3    3    0    0  0.33162430421E+01  0.10703092034E+02 -0.24353310481E+02  0.26807412751E+02  0.00000000000E+00 0.  1.
</event>
<event>
 7    1  0.1202531E-011  0.5930198E+02  0.7816164E-02  0.1266605E+00
        -11   -1    0    0    0    0  0.00000000000E+00  0.00000000000E+00  0.45593999997E+02  0.45594000000E+02  0.51100000000E-03 0. -1.
         11   -1    0    0    0    0 -0.00000000000E+00 -0.00000000000E+00 -0.45593999997E+02  0.45594000000E+02  0.51100000000E-03 0.  1.
    9900012    2    1    2    0    0 -0.70245887712E+01  0.27214882401E+02  0.15057337136E+02  0.59301983110E+02  0.50000071276E+02 0.  0.
        -12    1    1    2    0    0  0.70245887712E+01 -0.27214882401E+02 -0.15057337136E+02  0.31886016890E+02  0.00000000000E+00 0.  1.
         11    1    3    3    0    0  0.32895252433E+01 -0.85280285824E+01  0.16467614088E+01  0.92876300113E+01  0.51100000000E-03 0.  1.
        -11    1    3    3    0    0  0.47294047184E+00  0.18076593966E+02  0.21230103663E+02  0.27887348815E+02  0.51100000000E-03 0. -1.
         12    1    3    3    0    0 -0.10787054486E+02  0.17666317017E+02 -0.78195279359E+01  0.22127004284E+02  0.00000000000E+00 0. -1.
</event>
<event>
 7    1  0.1202531E-011  0.5930198E+02  0.7816164E-02  0.1266605E+00
        -11   -1    0    0    0    0  0.00000000000E+00  0.00000000000E+00  0.45593999997E+02  0.45594000000E+02  0.51100000000E-03 0. -1.
         11   -1    0    0    0    0 -0.00000000000E+00 -0.00000000000E+00 -0.45593999997E+02  0.45594000000E+02  0.51100000000E-03 0.  1.
    9900012    2    1    2    0    0 -0.30764530147E+02 -0.39380414107E+01  0.73995921066E+01  0.59301977221E+02  0.50000060537E+02 0.  0.
        -12    1    1    2    0    0  0.30764530147E+02  0.39380414107E+01 -0.73995921066E+01  0.31886022779E+02  0.00000000000E+00 0.  1.
         11    1    3    3    0    0 -0.42386545026E+01  0.79612157347E+01 -0.13831591617E+02  0.16512421836E+02  0.51100000000E-03 0. -1.
        -11    1    3    3    0    0  0.43172472862E+01 -0.18252410223E+01  0.22577018623E+01  0.52026288432E+01  0.51100000000E-03 0.  1.
         12    1    3    3    0    0 -0.30843122930E+02 -0.10074016123E+02  0.18973481861E+02  0.37586926542E+02  0.00000000000E+00 0. -1.
</event>
<event>
 7    1  0.1202531E-011  0.5930192E+02  0.7816164E-02  0.1266605E+00
        -11   -1    0    0    0    0  0.00000000000E+00  0.00000000000E+00  0.45593999997E+02  0.45594000000E+02  0.51100000000E-03 0.  1.
         11   -1    0    0    0    0 -0.00000000000E+00 -0.00000000000E+00 -0.45593999997E+02  0.45594000000E+02  0.51100000000E-03 0. -1.
    9900012    2    1    2    0    0 -0.11408423627E+02  0.29747139491E+02 -0.12953221057E+01  0.59301916877E+02  0.49999950484E+02 0.  0.
        -12    1    1    2    0    0  0.11408423627E+02 -0.29747139491E+02  0.12953221057E+01  0.31886083123E+02  0.00000000000E+00 0.  1.
         11    1    3    3    0    0 -0.24205394194E+02  0.18557378701E+02 -0.25040346812E+01  0.30603065243E+02  0.51100000000E-03 0. -1.
        -11    1    3    3    0    0  0.51424811765E+01  0.13247210694E+02 -0.81920687650E+01  0.16402551470E+02  0.51100000000E-03 0.  1.
        -12    1    3    3    0    0  0.76544893899E+01 -0.20574499033E+01  0.94007813405E+01  0.12296300165E+02  0.00000000000E+00 0.  1.
</event>
<event>
 7    1  0.1202531E-011  0.5930199E+02  0.7816164E-02  0.1266605E+00
        -11   -1    0    0    0    0  0.00000000000E+00  0.00000000000E+00  0.45593999997E+02  0.45594000000E+02  0.51100000000E-03 0.  1.
         11   -1    0    0    0    0 -0.00000000000E+00 -0.00000000000E+00 -0.45593999997E+02  0.45594000000E+02  0.51100000000E-03 0. -1.
    9900012    2    1    2    0    0  0.23694035072E+02 -0.13812238814E+02 -0.16264444786E+02  0.59301993614E+02  0.50000090433E+02 0.  0.
        -12    1    1    2    0    0 -0.23694035072E+02  0.13812238814E+02  0.16264444786E+02  0.31886006386E+02  0.00000000000E+00 0.  1.
         11    1    3    3    0    0 -0.29064148459E+01  0.90317055187E+01  0.33802201216E+01  0.10071982931E+02  0.51100000000E-03 0. -1.
        -11    1    3    3    0    0  0.35581084622E+01 -0.29085228671E+01  0.72534172150E+01  0.85867166399E+01  0.51100000000E-03 0.  1.
         12    1    3    3    0    0  0.23042341456E+02 -0.19935421466E+02 -0.26898082123E+02  0.40643294043E+02  0.00000000000E+00 0. -1.
</event>
<event>
 7    1  0.1202531E-011  0.5930197E+02  0.7816164E-02  0.1266605E+00
        -11   -1    0    0    0    0  0.00000000000E+00  0.00000000000E+00  0.45593999997E+02  0.45594000000E+02  0.51100000000E-03 0.  1.
         11   -1    0    0    0    0 -0.00000000000E+00 -0.00000000000E+00 -0.45593999997E+02  0.45594000000E+02  0.51100000000E-03 0. -1.
    9900012    2    1    2    0    0  0.14986453890E+02  0.25320751361E+02 -0.12287580069E+02  0.59301970557E+02  0.50000048383E+02 0.  0.
        -12    1    1    2    0    0 -0.14986453890E+02 -0.25320751361E+02  0.12287580069E+02  0.31886029443E+02  0.00000000000E+00 0.  1.
         11    1    3    3    0    0 -0.67784687002E+01  0.11870080712E+02  0.14254327981E+01  0.13743300657E+02  0.51100000000E-03 0. -1.
        -11    1    3    3    0    0  0.86170395712E+01  0.24466582487E+02 -0.53921112620E+01  0.26494186036E+02  0.51100000000E-03 0.  1.
        -12    1    3    3    0    0  0.13147883019E+02 -0.11015911838E+02 -0.83209016055E+01  0.19064483864E+02  0.00000000000E+00 0.  1.
</event>
<event>
 7    1  0.1202531E-011  0.5930196E+02  0.7816164E-02  0.1266605E+00
        -11   -1    0    0    0    0  0.00000000000E+00  0.00000000000E+00  0.45593999997E+02  0.45594000000E+02  0.51100000000E-03 0.  1.
         11   -1    0    0    0    0 -0.00000000000E+00 -0.00000000000E+00 -0.45593999997E+02  0.45594000000E+02  0.51100000000E-03 0. -1.
    9900012    2    1    2    0    0 -0.23645430029E+02  0.16178208267E+02 -0.13995677012E+02  0.59301956674E+02  0.50000023063E+02 0.  0.
        -12    1    1    2    0    0  0.23645430029E+02 -0.16178208267E+02  0.13995677012E+02  0.31886043326E+02  0.00000000000E+00 0.  1.
         11    1    3    3    0    0 -0.38532653648E+01  0.79475016975E+01 -0.22280944972E+02  0.23967706321E+02  0.51100000000E-03 0. -1.
        -11    1    3    3    0    0 -0.98236644188E+01 -0.69775055632E+01 -0.47591599418E+01  0.12955291201E+02  0.51100000000E-03 0.  1.
        -12    1    3    3    0    0 -0.99685002454E+01  0.15208212133E+02  0.13044427902E+02  0.22378959151E+02  0.00000000000E+00 0.  1.
</event>
<event>
 7    1  0.1202531E-011  0.5930190E+02  0.7816164E-02  0.1266605E+00
        -11   -1    0    0    0    0  0.00000000000E+00  0.00000000000E+00  0.45593999997E+02  0.45594000000E+02  0.51100000000E-03 0.  1.
         11   -1    0    0    0    0 -0.00000000000E+00 -0.00000000000E+00 -0.45593999997E+02  0.45594000000E+02  0.51100000000E-03 0. -1.
    9900012    2    1    2    0    0  0.22939083619E+02 -0.22145767432E+02  0.29470333501E+00  0.59301899227E+02  0.49999918294E+02 0.  0.
        -12    1    1    2    0    0 -0.22939083619E+02  0.22145767432E+02 -0.29470333501E+00  0.31886100773E+02  0.00000000000E+00 0.  1.
         11    1    3    3    0    0 -0.67697024623E+01 -0.95060203217E+01 -0.11651058583E+02  0.16490617337E+02  0.51100000000E-03 0. -1.
        -11    1    3    3    0    0  0.43115542968E+01 -0.95086184772E+01 -0.55389090002E+01  0.11818749467E+02  0.51100000000E-03 0.  1.
        -12    1    3    3    0    0  0.25397231785E+02 -0.31311286335E+01  0.17484670918E+02  0.30992532423E+02  0.00000000000E+00 0.  1.
</event>
<event>
 7    1  0.1202531E-011  0.5930218E+02  0.7816164E-02  0.1266604E+00
        -11   -1    0    0    0    0  0.00000000000E+00  0.00000000000E+00  0.45593999997E+02  0.45594000000E+02  0.51100000000E-03 0.  1.
         11   -1    0    0    0    0 -0.00000000000E+00 -0.00000000000E+00 -0.45593999997E+02  0.45594000000E+02  0.51100000000E-03 0. -1.
    9900012    2    1    2    0    0 -0.11808806787E+02  0.23463652535E+02 -0.18075253885E+02  0.59302176959E+02  0.50000424809E+02 0.  0.
        -12    1    1    2    0    0  0.11808806787E+02 -0.23463652535E+02  0.18075253885E+02  0.31885823041E+02  0.00000000000E+00 0.  1.
         11    1    3    3    0    0 -0.49010631996E+01 -0.92832686847E+01 -0.32198515978E+01  0.10980297925E+02  0.51100000000E-03 0. -1.
        -11    1    3    3    0    0  0.37714124809E+01  0.19744334867E+02  0.65074887916E+01  0.21128410307E+02  0.51100000000E-03 0.  1.
         12    1    3    3    0    0 -0.10679156068E+02  0.13002586352E+02 -0.21362891079E+02  0.27193468727E+02  0.00000000000E+00 0. -1.
</event>
<event>
 7    1  0.1202531E-011  0.5930194E+02  0.7816164E-02  0.1266605E+00
        -11   -1    0    0    0    0  0.00000000000E+00  0.00000000000E+00  0.45593999997E+02  0.45594000000E+02  0.51100000000E-03 0.  1.
         11   -1    0    0    0    0 -0.00000000000E+00 -0.00000000000E+00 -0.45593999997E+02  0.45594000000E+02  0.51100000000E-03 0. -1.
    9900012    2    1    2    0    0  0.14409197816E+02  0.23908374836E+02 -0.15410566400E+02  0.59301938378E+02  0.49999989696E+02 0.  0.
        -12    1    1    2    0    0 -0.14409197816E+02 -0.23908374836E+02  0.15410566400E+02  0.31886061622E+02  0.00000000000E+00 0.  1.
         11    1    3    3    0    0  0.91475755561E+01 -0.14315036845E+01 -0.10447926997E+02  0.13960176222E+02  0.51100000000E-03 0. -1.
        -11    1    3    3    0    0  0.13997759587E+02  0.48104638517E+01  0.10542641211E+02  0.18172097289E+02  0.51100000000E-03 0.  1.
         12    1    3    3    0    0 -0.87361373267E+01  0.20529414669E+02 -0.15505280613E+02  0.27169664866E+02  0.00000000000E+00 0. -1.
</event>
<event>
 7    1  0.1202531E-011  0.5930195E+02  0.7816164E-02  0.1266605E+00
        -11   -1    0    0    0    0  0.00000000000E+00  0.00000000000E+00  0.45593999997E+02  0.45594000000E+02  0.51100000000E-03 0.  1.
         11   -1    0    0    0    0 -0.00000000000E+00 -0.00000000000E+00 -0.45593999997E+02  0.45594000000E+02  0.51100000000E-03 0. -1.
    9900012    2    1    2    0    0 -0.15868069859E+02  0.23960678202E+02 -0.13813417665E+02  0.59301948998E+02  0.50000009064E+02 0.  0.
        -12    1    1    2    0    0  0.15868069859E+02 -0.23960678202E+02  0.13813417665E+02  0.31886051002E+02  0.00000000000E+00 0.  1.
         11    1    3    3    0    0  0.23036256601E+01  0.23525518654E+02 -0.59334564360E+01  0.24371348437E+02  0.51100000000E-03 0. -1.
        -11    1    3    3    0    0 -0.12900895038E+02  0.12955430152E+02  0.16185220456E+01  0.18354723563E+02  0.51100000000E-03 0.  1.
        -12    1    3    3    0    0 -0.52708004807E+01 -0.12520270604E+02 -0.94984832749E+01  0.16575876997E+02  0.00000000000E+00 0.  1.
</event>
<event>
 7    1  0.1202531E-011  0.5930192E+02  0.7816164E-02  0.1266605E+00
        -11   -1    0    0    0    0  0.00000000000E+00  0.00000000000E+00  0.45593999997E+02  0.45594000000E+02  0.51100000000E-03 0.  1.
         11   -1    0    0    0    0 -0.00000000000E+00 -0.00000000000E+00 -0.45593999997E+02  0.45594000000E+02  0.51100000000E-03 0. -1.
    9900012    2    1    2    0    0  0.99012424724E+01  0.29508077834E+02  0.69253643319E+01  0.59301922614E+02  0.49999960946E+02 0.  0.
        -12    1    1    2    0    0 -0.99012424724E+01 -0.29508077834E+02 -0.69253643319E+01  0.31886077386E+02  0.00000000000E+00 0.  1.
         11    1    3    3    0    0  0.11224762784E+02  0.41750386168E-02  0.12061481455E+02  0.16476487858E+02  0.51100000000E-03 0. -1.
        -11    1    3    3    0    0  0.11672613375E+02  0.90792990488E+01  0.62723705822E+01  0.16063194178E+02  0.51100000000E-03 0.  1.
         12    1    3    3    0    0 -0.12996133687E+02  0.20424603746E+02 -0.11408487706E+02  0.26762240577E+02  0.00000000000E+00 0. -1.
</event>
<event>
 7    1  0.1202531E-011  0.5930191E+02  0.7816164E-02  0.1266605E+00
        -11   -1    0    0    0    0  0.00000000000E+00  0.00000000000E+00  0.45593999997E+02  0.45594000000E+02  0.51100000000E-03 0. -1.
         11   -1    0    0    0    0 -0.00000000000E+00 -0.00000000000E+00 -0.45593999997E+02  0.45594000000E+02  0.51100000000E-03 0.  1.
    9900012    2    1    2    0    0  0.25852334602E+02 -0.17201398256E+02  0.72451155726E+01  0.59301905758E+02  0.49999930205E+02 0.  0.
        -12    1    1    2    0    0 -0.25852334602E+02  0.17201398256E+02 -0.72451155726E+01  0.31886094242E+02  0.00000000000E+00 0.  1.
         11    1    3    3    0    0  0.15899426457E+02 -0.12198067928E+02  0.20552590174E+02  0.28705288467E+02  0.51100000000E-03 0. -1.
        -11    1    3    3    0    0  0.10326949854E+01 -0.12274224049E+02  0.85592023298E+00  0.12347292604E+02  0.51100000000E-03 0.  1.
        -12    1    3    3    0    0  0.89202131600E+01  0.72708937208E+01 -0.14163394834E+02  0.18249324688E+02  0.00000000000E+00 0.  1.
</event>
<event>
 7    1  0.1202531E-011  0.5930193E+02  0.7816164E-02  0.1266605E+00
        -11   -1    0    0    0    0  0.00000000000E+00  0.00000000000E+00  0.45593999997E+02  0.45594000000E+02  0.51100000000E-03 0. -1.
         11   -1    0    0    0    0 -0.00000000000E+00 -0.00000000000E+00 -0.45593999997E+02  0.45594000000E+02  0.51100000000E-03 0.  1.
    9900012    2    1    2    0    0 -0.18752149031E+02  0.19438427757E+02  0.16947739650E+02  0.59301930217E+02  0.49999974813E+02 0.  0.
        -12    1    1    2    0    0  0.18752149031E+02 -0.19438427757E+02 -0.16947739650E+02  0.31886069783E+02  0.00000000000E+00 0.  1.
         11    1    3    3    0    0 -0.13566104513E+02  0.66017139853E+01  0.21524092749E+01  0.15239904369E+02  0.51100000000E-03 0. -1.
        -11    1    3    3    0    0 -0.18118208679E+02  0.14683904729E+02  0.19270932662E+02  0.30253188093E+02  0.51100000000E-03 0.  1.
        -12    1    3    3    0    0  0.12932164162E+02 -0.18471909574E+01 -0.44756022874E+01  0.13808837756E+02  0.00000000000E+00 0.  1.
</event>
<event>
 7    1  0.1202531E-011  0.5930196E+02  0.7816164E-02  0.1266605E+00
        -11   -1    0    0    0    0  0.00000000000E+00  0.00000000000E+00  0.45593999997E+02  0.45594000000E+02  0.51100000000E-03 0.  1.
         11   -1    0    0    0    0 -0.00000000000E+00 -0.00000000000E+00 -0.45593999997E+02  0.45594000000E+02  0.51100000000E-03 0. -1.
    9900012    2    1    2    0    0 -0.27067355990E+02 -0.29393868455E+01  0.16596321703E+02  0.59301958392E+02  0.50000026198E+02 0.  0.
        -12    1    1    2    0    0  0.27067355990E+02  0.29393868455E+01 -0.16596321703E+02  0.31886041608E+02  0.00000000000E+00 0.  1.
         11    1    3    3    0    0 -0.13745832990E+02 -0.12859524219E+02  0.73480794768E+01  0.20206671175E+02  0.51100000000E-03 0. -1.
        -11    1    3    3    0    0  0.82717254891E+01  0.87365951763E+01  0.12357849788E+02  0.17247202367E+02  0.51100000000E-03 0.  1.
         12    1    3    3    0    0 -0.21593248490E+02  0.11835421971E+01 -0.31096075613E+01  0.21848084851E+02  0.00000000000E+00 0. -1.
</event>
<event>
 7    1  0.1202531E-011  0.5930195E+02  0.7816164E-02  0.1266605E+00
        -11   -1    0    0    0    0  0.00000000000E+00  0.00000000000E+00  0.45593999997E+02  0.45594000000E+02  0.51100000000E-03 0. -1.
         11   -1    0    0    0    0 -0.00000000000E+00 -0.00000000000E+00 -0.45593999997E+02  0.45594000000E+02  0.51100000000E-03 0.  1.
    9900012    2    1    2    0    0 -0.14475144357E+02 -0.56344633654E+01  0.27846784905E+02  0.59301946448E+02  0.50000004414E+02 0.  0.
        -12    1    1    2    0    0  0.14475144357E+02  0.56344633654E+01 -0.27846784905E+02  0.31886053552E+02  0.00000000000E+00 0.  1.
         11    1    3    3    0    0  0.83684699644E+00 -0.10814336223E+02  0.96937123100E+01  0.14547104160E+02  0.51100000000E-03 0. -1.
        -11    1    3    3    0    0 -0.12212267335E+02 -0.26469594794E+00 -0.10078646933E+02  0.15836308334E+02  0.51100000000E-03 0.  1.
         12    1    3    3    0    0 -0.30997240193E+01  0.54445688058E+01  0.28231719528E+02  0.28918533953E+02  0.00000000000E+00 0. -1.
</event>
<event>
 7    1  0.1202531E-011  0.5930199E+02  0.7816164E-02  0.1266605E+00
        -11   -1    0    0    0    0  0.00000000000E+00  0.00000000000E+00  0.45593999997E+02  0.45594000000E+02  0.51100000000E-03 0. -1.
         11   -1    0    0    0    0 -0.00000000000E+00 -0.00000000000E+00 -0.45593999997E+02  0.45594000000E+02  0.51100000000E-03 0.  1.
    9900012    2    1    2    0    0  0.10779545944E+02 -0.22834594248E+02  0.19470499934E+02  0.59301989385E+02  0.50000082720E+02 0.  0.
        -12    1    1    2    0    0 -0.10779545944E+02  0.22834594248E+02 -0.19470499934E+02  0.31886010615E+02  0.00000000000E+00 0.  1.
         11    1    3    3    0    0 -0.38067748161E+01  0.75301463919E+01  0.13256621031E+02  0.15714090512E+02  0.51100000000E-03 0. -1.
        -11    1    3    3    0    0  0.28753728945E+01  0.48297789171E+01 -0.12364025292E+01  0.57552780251E+01  0.51100000000E-03 0.  1.
        -12    1    3    3    0    0  0.11710947866E+02 -0.35194519557E+02  0.74502814325E+01  0.37832620848E+02  0.00000000000E+00 0.  1.
</event>
<event>
 7    1  0.1202531E-011  0.5930192E+02  0.7816164E-02  0.1266605E+00
        -11   -1    0    0    0    0  0.00000000000E+00  0.00000000000E+00  0.45593999997E+02  0.45594000000E+02  0.51100000000E-03 0. -1.
         11   -1    0    0    0    0 -0.00000000000E+00 -0.00000000000E+00 -0.45593999997E+02  0.45594000000E+02  0.51100000000E-03 0.  1.
    9900012    2    1    2    0    0 -0.21230847300E+01 -0.29345954594E+02 -0.12289421095E+02  0.59301915094E+02  0.49999947232E+02 0.  0.
        -12    1    1    2    0    0  0.21230847300E+01  0.29345954594E+02  0.12289421095E+02  0.31886084906E+02  0.00000000000E+00 0.  1.
         11    1    3    3    0    0 -0.13155499644E+02 -0.47121228683E+01 -0.74293061475E+01  0.15826113323E+02  0.51100000000E-03 0. -1.
        -11    1    3    3    0    0 -0.57524473157E+01 -0.24017813906E+02  0.30963352161E+01  0.24890426412E+02  0.51100000000E-03 0.  1.
        -12    1    3    3    0    0  0.16784862230E+02 -0.61601781930E+00 -0.79564501634E+01  0.18585375359E+02  0.00000000000E+00 0.  1.
</event>
<event>
 7    1  0.1202531E-011  0.5930194E+02  0.7816164E-02  0.1266605E+00
        -11   -1    0    0    0    0  0.00000000000E+00  0.00000000000E+00  0.45593999997E+02  0.45594000000E+02  0.51100000000E-03 0. -1.
         11   -1    0    0    0    0 -0.00000000000E+00 -0.00000000000E+00 -0.45593999997E+02  0.45594000000E+02  0.51100000000E-03 0.  1.
    9900012    2    1    2    0    0 -0.73475728592E+01 -0.26505155312E+02  0.16131051851E+02  0.59301938487E+02  0.49999989894E+02 0.  0.
        -12    1    1    2    0    0  0.73475728592E+01  0.26505155312E+02 -0.16131051851E+02  0.31886061513E+02  0.00000000000E+00 0.  1.
         11    1    3    3    0    0 -0.78861409525E+01  0.13789691882E+00 -0.32081697335E+01  0.85148451532E+01  0.51100000000E-03 0. -1.
        -11    1    3    3    0    0 -0.99182375121E+01 -0.94773174079E+01 -0.87321151540E+01  0.16261636324E+02  0.51100000000E-03 0.  1.
         12    1    3    3    0    0  0.10456805605E+02 -0.17165734823E+02  0.28071336738E+02  0.34525457010E+02  0.00000000000E+00 0. -1.
</event>
<event>
 7    1  0.1202531E-011  0.5930196E+02  0.7816164E-02  0.1266605E+00
        -11   -1    0    0    0    0  0.00000000000E+00  0.00000000000E+00  0.45593999997E+02  0.45594000000E+02  0.51100000000E-03 0.  1.
         11   -1    0    0    0    0 -0.00000000000E+00 -0.00000000000E+00 -0.45593999997E+02  0.45594000000E+02  0.51100000000E-03 0. -1.
    9900012    2    1    2    0    0  0.23190661406E+02 -0.21865763010E+02 -0.89493247237E+00  0.59301964301E+02  0.50000036974E+02 0.  0.
        -12    1    1    2    0    0 -0.23190661406E+02  0.21865763010E+02  0.89493247237E+00  0.31886035699E+02  0.00000000000E+00 0.  1.
         11    1    3    3    0    0  0.15679689340E+02 -0.14426980121E+02  0.16119465263E+02  0.26717551794E+02  0.51100000000E-03 0. -1.
        -11    1    3    3    0    0  0.16047048957E+02 -0.36238205887E+01 -0.46743614227E+01  0.17102324721E+02  0.51100000000E-03 0.  1.
        -12    1    3    3    0    0 -0.85360768911E+01 -0.38149623002E+01 -0.12340036313E+02  0.15482087787E+02  0.00000000000E+00 0.  1.
</event>
<event>
 7    1  0.1202531E-011  0.5930187E+02  0.7816164E-02  0.1266605E+00
        -11   -1    0    0    0    0  0.00000000000E+00  0.00000000000E+00  0.45593999997E+02  0.45594000000E+02  0.51100000000E-03 0.  1.
         11   -1    0    0    0    0 -0.00000000000E+00 -0.00000000000E+00 -0.45593999997E+02  0.45594000000E+02  0.51100000000E-03 0. -1.
    9900012    2    1    2    0    0 -0.34723224411E+01 -0.85218332148E+01 -0.30529443700E+02  0.59301865128E+02  0.49999856105E+02 0.  0.
        -12    1    1    2    0    0  0.34723224411E+01  0.85218332148E+01  0.30529443700E+02  0.31886134872E+02  0.00000000000E+00 0.  1.
         11    1    3    3    0    0 -0.56618102335E+01  0.30176991055E+01  0.69284696428E+01  0.94427906291E+01  0.51100000000E-03 0. -1.
        -11    1    3    3    0    0 -0.12259200812E+02 -0.13230245517E+01 -0.58793382015E+01  0.13660344668E+02  0.51100000000E-03 0.  1.
         12    1    3    3    0    0  0.14448688604E+02 -0.10216507769E+02 -0.31578575141E+02  0.36198729830E+02  0.00000000000E+00 0. -1.
</event>
<event>
 7    1  0.1202531E-011  0.5930193E+02  0.7816164E-02  0.1266605E+00
        -11   -1    0    0    0    0  0.00000000000E+00  0.00000000000E+00  0.45593999997E+02  0.45594000000E+02  0.51100000000E-03 0.  1.
         11   -1    0    0    0    0 -0.00000000000E+00 -0.00000000000E+00 -0.45593999997E+02  0.45594000000E+02  0.51100000000E-03 0. -1.
    9900012    2    1    2    0    0  0.25945883775E+02 -0.92521322571E+01 -0.16060217673E+02  0.59301930505E+02  0.49999975337E+02 0.  0.
        -12    1    1    2    0    0 -0.25945883775E+02  0.92521322571E+01  0.16060217673E+02  0.31886069495E+02  0.00000000000E+00 0.  1.
         11    1    3    3    0    0  0.21754959683E+02 -0.58508654701E+00 -0.17127246046E+02  0.27694099632E+02  0.51100000000E-03 0. -1.
        -11    1    3    3    0    0  0.15831843067E+02 -0.85109215742E+00  0.56886843140E+01  0.16844368265E+02  0.51100000000E-03 0.  1.
        -12    1    3    3    0    0 -0.11640918975E+02 -0.78159535527E+01 -0.46216559414E+01  0.14763462608E+02  0.00000000000E+00 0.  1.
</event>
<event>
 7    1  0.1202531E-011  0.5930195E+02  0.7816164E-02  0.1266605E+00
        -11   -1    0    0    0    0  0.00000000000E+00  0.00000000000E+00  0.45593999997E+02  0.45594000000E+02  0.51100000000E-03 0.  1.
         11   -1    0    0    0    0 -0.00000000000E+00 -0.00000000000E+00 -0.45593999997E+02  0.45594000000E+02  0.51100000000E-03 0. -1.
    9900012    2    1    2    0    0  0.18661068707E+02  0.23463043233E+01 -0.25748395167E+02  0.59301945322E+02  0.50000002361E+02 0.  0.
        -12    1    1    2    0    0 -0.18661068707E+02 -0.23463043233E+01  0.25748395167E+02  0.31886054678E+02  0.00000000000E+00 0.  1.
         11    1    3    3    0    0 -0.24987225404E+00 -0.79239313323E+01 -0.58178540598E+01  0.98335420894E+01  0.51100000000E-03 0. -1.
        -11    1    3    3    0    0 -0.11950492078E+01 -0.43115202053E+01  0.97734395076E+01  0.10748835712E+02  0.51100000000E-03 0.  1.
        -12    1    3    3    0    0  0.20105990169E+02  0.14581755861E+02 -0.29703980615E+02  0.38719567521E+02  0.00000000000E+00 0.  1.
</event>
<event>
 7    1  0.1202531E-011  0.5930197E+02  0.7816164E-02  0.1266605E+00
        -11   -1    0    0    0    0  0.00000000000E+00  0.00000000000E+00  0.45593999997E+02  0.45594000000E+02  0.51100000000E-03 0.  1.
         11   -1    0    0    0    0 -0.00000000000E+00 -0.00000000000E+00 -0.45593999997E+02  0.45594000000E+02  0.51100000000E-03 0. -1.
    9900012    2    1    2    0    0  0.21516394693E+02 -0.21497852591E+02  0.95711023122E+01  0.59301970048E+02  0.50000047455E+02 0.  0.
        -12    1    1    2    0    0 -0.21516394693E+02  0.21497852591E+02 -0.95711023122E+01  0.31886029952E+02  0.00000000000E+00 0.  1.
         11    1    3    3    0    0  0.26437370516E+02 -0.27153671513E+02  0.85797290167E+01  0.38857022360E+02  0.51100000000E-03 0. -1.
        -11    1    3    3    0    0 -0.65492824200E+00 -0.70178651546E+01  0.30805324410E+00  0.70550874830E+01  0.51100000000E-03 0.  1.
        -12    1    3    3    0    0 -0.42660475806E+01  0.12673684076E+02  0.68332005140E+00  0.13389860205E+02  0.00000000000E+00 0.  1.
</event>
<event>
 7    1  0.1202531E-011  0.5930208E+02  0.7816164E-02  0.1266604E+00
        -11   -1    0    0    0    0  0.00000000000E+00  0.00000000000E+00  0.45593999997E+02  0.45594000000E+02  0.51100000000E-03 0. -1.
         11   -1    0    0    0    0 -0.00000000000E+00 -0.00000000000E+00 -0.45593999997E+02  0.45594000000E+02  0.51100000000E-03 0.  1.
    9900012    2    1    2    0    0 -0.59537437827E+01 -0.30226860906E+02 -0.82220151785E+01  0.59302082750E+02  0.50000252996E+02 0.  0.
        -12    1    1    2    0    0  0.59537437827E+01  0.30226860906E+02  0.82220151785E+01  0.31885917250E+02  0.00000000000E+00 0.  1.
         11    1    3    3    0    0  0.17870674317E+01 -0.40525141817E+02  0.10271098167E+01  0.40577526836E+02  0.51100000000E-03 0. -1.
        -11    1    3    3    0    0 -0.10463512502E+01  0.77962949497E+00 -0.66813712276E+01  0.68075983159E+01  0.51100000000E-03 0.  1.
        -12    1    3    3    0    0 -0.66944599642E+01  0.95186514162E+01 -0.25677537676E+01  0.11916957599E+02  0.00000000000E+00 0.  1.
</event>
<event>
 7    1  0.1202531E-011  0.5930193E+02  0.7816164E-02  0.1266605E+00
        -11   -1    0    0    0    0  0.00000000000E+00  0.00000000000E+00  0.45593999997E+02  0.45594000000E+02  0.51100000000E-03 0.  1.
         11   -1    0    0    0    0 -0.00000000000E+00 -0.00000000000E+00 -0.45593999997E+02  0.45594000000E+02  0.51100000000E-03 0. -1.
    9900012    2    1    2    0    0  0.25895208647E+02  0.95725446251E+01 -0.15953862941E+02  0.59301934325E+02  0.49999982305E+02 0.  0.
        -12    1    1    2    0    0 -0.25895208647E+02 -0.95725446251E+01  0.15953862941E+02  0.31886065675E+02  0.00000000000E+00 0.  1.
         11    1    3    3    0    0  0.94945001329E+01  0.76979468715E+01 -0.12804368304E+02  0.17701857720E+02  0.51100000000E-03 0. -1.
        -11    1    3    3    0    0  0.49578290127E+01  0.18014642439E+02  0.62418442205E+01  0.19699442385E+02  0.51100000000E-03 0.  1.
         12    1    3    3    0    0  0.11442879501E+02 -0.16140044686E+02 -0.93913388574E+01  0.21900634221E+02  0.00000000000E+00 0. -1.
</event>
<event>
 7    1  0.1202531E-011  0.5930194E+02  0.7816164E-02  0.1266605E+00
        -11   -1    0    0    0    0  0.00000000000E+00  0.00000000000E+00  0.45593999997E+02  0.45594000000E+02  0.51100000000E-03 0.  1.
         11   -1    0    0    0    0 -0.00000000000E+00 -0.00000000000E+00 -0.45593999997E+02  0.45594000000E+02  0.51100000000E-03 0. -1.
    9900012    2    1    2    0    0  0.29728932213E+02 -0.32504727433E+01 -0.11061012314E+02  0.59301937574E+02  0.49999988231E+02 0.  0.
        -12    1    1    2    0    0 -0.29728932213E+02  0.32504727433E+01  0.11061012314E+02  0.31886062426E+02  0.00000000000E+00 0.  1.
         11    1    3    3    0    0  0.34300719854E+01 -0.15195710203E+02 -0.50421263482E+01  0.16373699667E+02  0.51100000000E-03 0. -1.
        -11    1    3    3    0    0  0.13706115403E+02  0.11021485192E+02  0.11734172897E+02  0.21142884124E+02  0.51100000000E-03 0.  1.
         12    1    3    3    0    0  0.12592744825E+02  0.92375226793E+00 -0.17753058863E+02  0.21785353783E+02  0.00000000000E+00 0. -1.
</event>
<event>
 7    1  0.1202531E-011  0.5930196E+02  0.7816164E-02  0.1266605E+00
        -11   -1    0    0    0    0  0.00000000000E+00  0.00000000000E+00  0.45593999997E+02  0.45594000000E+02  0.51100000000E-03 0.  1.
         11   -1    0    0    0    0 -0.00000000000E+00 -0.00000000000E+00 -0.45593999997E+02  0.45594000000E+02  0.51100000000E-03 0. -1.
    9900012    2    1    2    0    0  0.52294569779E+01  0.34653602516E+01 -0.31262813934E+02  0.59301961095E+02  0.50000031127E+02 0.  0.
        -12    1    1    2    0    0 -0.52294569779E+01 -0.34653602516E+01  0.31262813934E+02  0.31886038905E+02  0.00000000000E+00 0.  1.
         11    1    3    3    0    0  0.64743142324E+01  0.12349914168E+02 -0.93407139695E+01  0.16783505666E+02  0.51100000000E-03 0. -1.
        -11    1    3    3    0    0  0.11846002482E+02 -0.12638181564E+02 -0.23072920436E+02  0.28851534894E+02  0.51100000000E-03 0.  1.
        -12    1    3    3    0    0 -0.13090859736E+02  0.37536276483E+01  0.11508204711E+01  0.13666920535E+02  0.00000000000E+00 0.  1.
</event>
<event>
 7    1  0.1202531E-011  0.5930186E+02  0.7816164E-02  0.1266605E+00
        -11   -1    0    0    0    0  0.00000000000E+00  0.00000000000E+00  0.45593999997E+02  0.45594000000E+02  0.51100000000E-03 0.  1.
         11   -1    0    0    0    0 -0.00000000000E+00 -0.00000000000E+00 -0.45593999997E+02  0.45594000000E+02  0.51100000000E-03 0. -1.
    9900012    2    1    2    0    0 -0.26060134378E+02  0.16909062498E+02 -0.71888081333E+01  0.59301859425E+02  0.49999845705E+02 0.  0.
        -12    1    1    2    0    0  0.26060134378E+02 -0.16909062498E+02  0.71888081333E+01  0.31886140575E+02  0.00000000000E+00 0.  1.
         11    1    3    3    0    0 -0.24197877034E+02  0.75662983740E+01 -0.22545361163E+02  0.33927561573E+02  0.51100000000E-03 0. -1.
        -11    1    3    3    0    0  0.98684893845E-02  0.13333989260E+02  0.52177534842E+01  0.14318530604E+02  0.51100000000E-03 0.  1.
        -12    1    3    3    0    0 -0.18721258341E+01 -0.39912251356E+01  0.10138799546E+02  0.11055767248E+02  0.00000000000E+00 0.  1.
</event>
<event>
 7    1  0.1202531E-011  0.5930191E+02  0.7816164E-02  0.1266605E+00
        -11   -1    0    0    0    0  0.00000000000E+00  0.00000000000E+00  0.45593999997E+02  0.45594000000E+02  0.51100000000E-03 0.  1.
         11   -1    0    0    0    0 -0.00000000000E+00 -0.00000000000E+00 -0.45593999997E+02  0.45594000000E+02  0.51100000000E-03 0. -1.
    9900012    2    1    2    0    0 -0.91673336774E+01  0.26683150944E+02  0.14855713853E+02  0.59301909222E+02  0.49999936522E+02 0.  0.
        -12    1    1    2    0    0  0.91673336774E+01 -0.26683150944E+02 -0.14855713853E+02  0.31886090778E+02  0.00000000000E+00 0.  1.
         11    1    3    3    0    0  0.80805238508E+01  0.52257373533E+01 -0.34999883677E-01  0.96231191327E+01  0.51100000000E-03 0. -1.
        -11    1    3    3    0    0  0.53841736813E+00  0.15239226609E+02  0.24245760086E+02  0.28642290469E+02  0.51100000000E-03 0.  1.
         12    1    3    3    0    0 -0.17786274896E+02  0.62181869816E+01 -0.93550463502E+01  0.21036499620E+02  0.00000000000E+00 0. -1.
</event>
<event>
 7    1  0.1202531E-011  0.5930195E+02  0.7816164E-02  0.1266605E+00
        -11   -1    0    0    0    0  0.00000000000E+00  0.00000000000E+00  0.45593999997E+02  0.45594000000E+02  0.51100000000E-03 0.  1.
         11   -1    0    0    0    0 -0.00000000000E+00 -0.00000000000E+00 -0.45593999997E+02  0.45594000000E+02  0.51100000000E-03 0. -1.
    9900012    2    1    2    0    0  0.27086865891E+02 -0.15326906035E+02 -0.69359604631E+01  0.59301954464E+02  0.50000019032E+02 0.  0.
        -12    1    1    2    0    0 -0.27086865891E+02  0.15326906035E+02  0.69359604631E+01  0.31886045536E+02  0.00000000000E+00 0.  1.
         11    1    3    3    0    0 -0.71932838201E+01 -0.12769063469E+02 -0.82956685058E+01  0.16840737223E+02  0.51100000000E-03 0. -1.
        -11    1    3    3    0    0  0.10375822857E+02 -0.12281554667E+02 -0.28061049569E+01  0.16320799928E+02  0.51100000000E-03 0.  1.
         12    1    3    3    0    0  0.23904326854E+02  0.97237121004E+01  0.41658129996E+01  0.26140417313E+02  0.00000000000E+00 0. -1.
</event>
<event>
 7    1  0.1202531E-011  0.5930194E+02  0.7816164E-02  0.1266605E+00
        -11   -1    0    0    0    0  0.00000000000E+00  0.00000000000E+00  0.45593999997E+02  0.45594000000E+02  0.51100000000E-03 0. -1.
         11   -1    0    0    0    0 -0.00000000000E+00 -0.00000000000E+00 -0.45593999997E+02  0.45594000000E+02  0.51100000000E-03 0.  1.
    9900012    2    1    2    0    0 -0.29006243042E+02 -0.12463846154E+02  0.44733635753E+01  0.59301943830E+02  0.49999999640E+02 0.  0.
        -12    1    1    2    0    0  0.29006243042E+02  0.12463846154E+02 -0.44733635753E+01  0.31886056170E+02  0.00000000000E+00 0.  1.
         11    1    3    3    0    0  0.44396242189E+01  0.43819738775E+01 -0.68278843685E+01  0.92483492299E+01  0.51100000000E-03 0.  1.
        -11    1    3    3    0    0 -0.20987210717E+02 -0.74616801571E+01 -0.93643011086E+01  0.24162570640E+02  0.51100000000E-03 0. -1.
         12    1    3    3    0    0 -0.12458656545E+02 -0.93841398740E+01  0.20665549052E+02  0.25891023960E+02  0.00000000000E+00 0. -1.
</event>
<event>
 7    1  0.1202531E-011  0.5930162E+02  0.7816164E-02  0.1266606E+00
        -11   -1    0    0    0    0  0.00000000000E+00  0.00000000000E+00  0.45593999997E+02  0.45594000000E+02  0.51100000000E-03 0. -1.
         11   -1    0    0    0    0 -0.00000000000E+00 -0.00000000000E+00 -0.45593999997E+02  0.45594000000E+02  0.51100000000E-03 0.  1.
    9900012    2    1    2    0    0  0.17890443866E+02 -0.21512628276E+02  0.15293144780E+02  0.59301616788E+02  0.49999403189E+02 0.  0.
        -12    1    1    2    0    0 -0.17890443866E+02  0.21512628276E+02 -0.15293144780E+02  0.31886383212E+02  0.00000000000E+00 0.  1.
         11    1    3    3    0    0  0.12411752762E+02  0.82867548673E+00  0.46775290008E+01  0.13289754982E+02  0.51100000000E-03 0. -1.
        -11    1    3    3    0    0  0.19668636950E+02 -0.23299654120E+02  0.83134272717E+01  0.31604465426E+02  0.51100000000E-03 0.  1.
        -12    1    3    3    0    0 -0.14189945846E+02  0.95835035638E+00  0.23021885074E+01  0.14407396380E+02  0.00000000000E+00 0.  1.
</event>
<event>
 7    1  0.1202531E-011  0.5930192E+02  0.7816164E-02  0.1266605E+00
        -11   -1    0    0    0    0  0.00000000000E+00  0.00000000000E+00  0.45593999997E+02  0.45594000000E+02  0.51100000000E-03 0.  1.
         11   -1    0    0    0    0 -0.00000000000E+00 -0.00000000000E+00 -0.45593999997E+02  0.45594000000E+02  0.51100000000E-03 0. -1.
    9900012    2    1    2    0    0 -0.56007492920E+01  0.30487876450E+02 -0.74728421935E+01  0.59301915676E+02  0.49999948294E+02 0.  0.
        -12    1    1    2    0    0  0.56007492920E+01 -0.30487876450E+02  0.74728421935E+01  0.31886084324E+02  0.00000000000E+00 0.  1.
         11    1    3    3    0    0 -0.82979563978E+01  0.47599736619E+01  0.51915209089E+01  0.10884177472E+02  0.51100000000E-03 0. -1.
        -11    1    3    3    0    0 -0.12152880973E+02  0.16890393389E+02 -0.20708167888E+02  0.29356534576E+02  0.51100000000E-03 0.  1.
        -12    1    3    3    0    0  0.14850088079E+02  0.88375093984E+01  0.80438047852E+01  0.19061203628E+02  0.00000000000E+00 0.  1.
</event>
<event>
 7    1  0.1202531E-011  0.5930196E+02  0.7816164E-02  0.1266605E+00
        -11   -1    0    0    0    0  0.00000000000E+00  0.00000000000E+00  0.45593999997E+02  0.45594000000E+02  0.51100000000E-03 0.  1.
         11   -1    0    0    0    0 -0.00000000000E+00 -0.00000000000E+00 -0.45593999997E+02  0.45594000000E+02  0.51100000000E-03 0. -1.
    9900012    2    1    2    0    0  0.22680758149E+02 -0.12892738453E+02 -0.18332486412E+02  0.59301959903E+02  0.50000028953E+02 0.  0.
        -12    1    1    2    0    0 -0.22680758149E+02  0.12892738453E+02  0.18332486412E+02  0.31886040097E+02  0.00000000000E+00 0.  1.
         11    1    3    3    0    0  0.78512381627E+01 -0.34031699133E+01  0.37756938431E+01  0.93530407037E+01  0.51100000000E-03 0. -1.
        -11    1    3    3    0    0  0.60041861301E+00 -0.14632777020E+02  0.76813637949E+01  0.16537291672E+02  0.51100000000E-03 0.  1.
         12    1    3    3    0    0  0.14229101373E+02  0.51432084798E+01 -0.29789544050E+02  0.33411627528E+02  0.00000000000E+00 0. -1.
</event>
<event>
 7    1  0.1202531E-011  0.5930195E+02  0.7816164E-02  0.1266605E+00
        -11   -1    0    0    0    0  0.00000000000E+00  0.00000000000E+00  0.45593999997E+02  0.45594000000E+02  0.51100000000E-03 0.  1.
         11   -1    0    0    0    0 -0.00000000000E+00 -0.00000000000E+00 -0.45593999997E+02  0.45594000000E+02  0.51100000000E-03 0. -1.
    9900012    2    1    2    0    0  0.20956454043E+02 -0.91048688437E+01 -0.22240701437E+02  0.59301946574E+02  0.50000004643E+02 0.  0.
        -12    1    1    2    0    0 -0.20956454043E+02  0.91048688437E+01  0.22240701437E+02  0.31886053426E+02  0.00000000000E+00 0.  1.
         11    1    3    3    0    0 -0.49448449542E+01  0.12577498123E+02 -0.10200927989E+02  0.16932332466E+02  0.51100000000E-03 0. -1.
        -11    1    3    3    0    0 -0.21281557513E+01 -0.57877419885E+01  0.29444279349E+01  0.68334954710E+01  0.51100000000E-03 0.  1.
        -12    1    3    3    0    0  0.28029454748E+02 -0.15894624978E+02 -0.14984201383E+02  0.35536118637E+02  0.00000000000E+00 0.  1.
</event>
<event>
 7    1  0.1202531E-011  0.5930193E+02  0.7816164E-02  0.1266605E+00
        -11   -1    0    0    0    0  0.00000000000E+00  0.00000000000E+00  0.45593999997E+02  0.45594000000E+02  0.51100000000E-03 0. -1.
         11   -1    0    0    0    0 -0.00000000000E+00 -0.00000000000E+00 -0.45593999997E+02  0.45594000000E+02  0.51100000000E-03 0.  1.
    9900012    2    1    2    0    0  0.67502681888E+01  0.10603047346E+02  0.29304103469E+02  0.59301933862E+02  0.49999981460E+02 0.  0.
        -12    1    1    2    0    0 -0.67502681888E+01 -0.10603047346E+02 -0.29304103469E+02  0.31886066138E+02  0.00000000000E+00 0.  1.
         11    1    3    3    0    0  0.62718945750E+01  0.19598857701E+01  0.33841686944E+01  0.73912388546E+01  0.51100000000E-03 0. -1.
        -11    1    3    3    0    0  0.88568578114E+01  0.23599148580E+02  0.23746837240E+02  0.34630564869E+02  0.51100000000E-03 0.  1.
        -12    1    3    3    0    0 -0.83784841976E+01 -0.14955987004E+02  0.21730975342E+01  0.17280130138E+02  0.00000000000E+00 0.  1.
</event>
<event>
 7    1  0.1202531E-011  0.5930196E+02  0.7816164E-02  0.1266605E+00
        -11   -1    0    0    0    0  0.00000000000E+00  0.00000000000E+00  0.45593999997E+02  0.45594000000E+02  0.51100000000E-03 0. -1.
         11   -1    0    0    0    0 -0.00000000000E+00 -0.00000000000E+00 -0.45593999997E+02  0.45594000000E+02  0.51100000000E-03 0.  1.
    9900012    2    1    2    0    0  0.30952353500E+02 -0.60867480473E+01  0.46500459745E+01  0.59301958907E+02  0.50000027137E+02 0.  0.
        -12    1    1    2    0    0 -0.30952353500E+02  0.60867480473E+01 -0.46500459745E+01  0.31886041093E+02  0.00000000000E+00 0.  1.
         11    1    3    3    0    0  0.79273324314E+00  0.72631518424E+01 -0.85866850356E+00  0.73565693459E+01  0.51100000000E-03 0.  1.
        -11    1    3    3    0    0  0.24177852896E+02  0.68651526420E+01  0.14511426250E+02  0.29022067183E+02  0.51100000000E-03 0. -1.
         12    1    3    3    0    0  0.59817673609E+01 -0.20215052532E+02 -0.90027117724E+01  0.22923322379E+02  0.00000000000E+00 0. -1.
</event>
<event>
 7    1  0.1202531E-011  0.5930194E+02  0.7816164E-02  0.1266605E+00
        -11   -1    0    0    0    0  0.00000000000E+00  0.00000000000E+00  0.45593999997E+02  0.45594000000E+02  0.51100000000E-03 0. -1.
         11   -1    0    0    0    0 -0.00000000000E+00 -0.00000000000E+00 -0.45593999997E+02  0.45594000000E+02  0.51100000000E-03 0.  1.
    9900012    2    1    2    0    0  0.25526889823E+02  0.18261350623E+02 -0.56233428403E+01  0.59301936973E+02  0.49999987135E+02 0.  0.
        -12    1    1    2    0    0 -0.25526889823E+02 -0.18261350623E+02  0.56233428403E+01  0.31886063027E+02  0.00000000000E+00 0.  1.
         11    1    3    3    0    0  0.31241622527E+01 -0.96059688718E+00  0.75024504888E+01  0.81835139005E+01  0.51100000000E-03 0. -1.
        -11    1    3    3    0    0  0.48449639509E+01  0.40352155096E+01 -0.24477892916E+02  0.25276943680E+02  0.51100000000E-03 0.  1.
         12    1    3    3    0    0  0.17557763620E+02  0.15186732001E+02  0.11352099587E+02  0.25841479393E+02  0.00000000000E+00 0. -1.
</event>
<event>
 7    1  0.1202531E-011  0.5930192E+02  0.7816164E-02  0.1266605E+00
        -11   -1    0    0    0    0  0.00000000000E+00  0.00000000000E+00  0.45593999997E+02  0.45594000000E+02  0.51100000000E-03 0.  1.
         11   -1    0    0    0    0 -0.00000000000E+00 -0.00000000000E+00 -0.45593999997E+02  0.45594000000E+02  0.51100000000E-03 0. -1.
    9900012    2    1    2    0    0 -0.27538020265E+02 -0.12323868253E+02 -0.10319956154E+02  0.59301924922E+02  0.49999965156E+02 0.  0.
        -12    1    1    2    0    0  0.27538020265E+02  0.12323868253E+02  0.10319956154E+02  0.31886075078E+02  0.00000000000E+00 0.  1.
         11    1    3    3    0    0  0.58582706607E+01 -0.10709627445E+02 -0.10723697528E+02  0.16248481285E+02  0.51100000000E-03 0. -1.
        -11    1    3    3    0    0 -0.26754462873E+01  0.41063628354E+01  0.93435170738E+01  0.10550902338E+02  0.51100000000E-03 0.  1.
         12    1    3    3    0    0 -0.30720844639E+02 -0.57206036435E+01 -0.89397756998E+01  0.32502541299E+02  0.00000000000E+00 0. -1.
</event>
<event>
 7    1  0.1202531E-011  0.5930168E+02  0.7816164E-02  0.1266606E+00
        -11   -1    0    0    0    0  0.00000000000E+00  0.00000000000E+00  0.45593999997E+02  0.45594000000E+02  0.51100000000E-03 0. -1.
         11   -1    0    0    0    0 -0.00000000000E+00 -0.00000000000E+00 -0.45593999997E+02  0.45594000000E+02  0.51100000000E-03 0.  1.
    9900012    2    1    2    0    0  0.28922110885E+02  0.26462949870E+01 -0.13162286252E+02  0.59301683898E+02  0.49999525583E+02 0.  0.
        -12    1    1    2    0    0 -0.28922110885E+02 -0.26462949870E+01  0.13162286252E+02  0.31886316102E+02  0.00000000000E+00 0.  1.
         11    1    3    3    0    0  0.27674696217E+02  0.20265401753E+02 -0.75225244582E+01  0.35116430533E+02  0.51100000000E-03 0. -1.
        -11    1    3    3    0    0  0.67426259939E+01 -0.11991175410E+02  0.11356725054E+01  0.13803660577E+02  0.51100000000E-03 0.  1.
        -12    1    3    3    0    0 -0.54952113263E+01 -0.56279313560E+01 -0.67754342995E+01  0.10381592788E+02  0.00000000000E+00 0.  1.
</event>
<event>
 7    1  0.1202531E-011  0.5930195E+02  0.7816164E-02  0.1266605E+00
        -11   -1    0    0    0    0  0.00000000000E+00  0.00000000000E+00  0.45593999997E+02  0.45594000000E+02  0.51100000000E-03 0.  1.
         11   -1    0    0    0    0 -0.00000000000E+00 -0.00000000000E+00 -0.45593999997E+02  0.45594000000E+02  0.51100000000E-03 0. -1.
    9900012    2    1    2    0    0 -0.72925274315E+01 -0.26861968358E+02 -0.15555510169E+02  0.59301949805E+02  0.50000010536E+02 0.  0.
        -12    1    1    2    0    0  0.72925274315E+01  0.26861968358E+02  0.15555510169E+02  0.31886050195E+02  0.00000000000E+00 0.  1.
         11    1    3    3    0    0 -0.13134482757E+02 -0.43867731820E+01 -0.26653286538E+02  0.30035913500E+02  0.51100000000E-03 0. -1.
        -11    1    3    3    0    0 -0.39515062818E+01 -0.22939655406E+01  0.27397573026E+01  0.53275651225E+01  0.51100000000E-03 0.  1.
        -12    1    3    3    0    0  0.97934616070E+01 -0.20181229636E+02  0.83580190659E+01  0.23938471183E+02  0.00000000000E+00 0.  1.
</event>
<event>
 7    1  0.1202531E-011  0.5930195E+02  0.7816164E-02  0.1266605E+00
        -11   -1    0    0    0    0  0.00000000000E+00  0.00000000000E+00  0.45593999997E+02  0.45594000000E+02  0.51100000000E-03 0. -1.
         11   -1    0    0    0    0 -0.00000000000E+00 -0.00000000000E+00 -0.45593999997E+02  0.45594000000E+02  0.51100000000E-03 0.  1.
    9900012    2    1    2    0    0 -0.21686676216E+02  0.37470171902E+01  0.23073102599E+02  0.59301950909E+02  0.50000012549E+02 0.  0.
        -12    1    1    2    0    0  0.21686676216E+02 -0.37470171902E+01 -0.23073102599E+02  0.31886049091E+02  0.00000000000E+00 0.  1.
         11    1    3    3    0    0 -0.11563699111E+02  0.14239075747E+02  0.23077872624E+02  0.29479800209E+02  0.51100000000E-03 0. -1.
        -11    1    3    3    0    0 -0.17405341709E+02 -0.28412140410E+01 -0.47176966092E+01  0.18255823148E+02  0.51100000000E-03 0.  1.
         12    1    3    3    0    0  0.72823646047E+01 -0.76508445159E+01  0.47129265841E+01  0.11566327552E+02  0.00000000000E+00 0. -1.
</event>
<event>
 7    1  0.1202531E-011  0.5930190E+02  0.7816164E-02  0.1266605E+00
        -11   -1    0    0    0    0  0.00000000000E+00  0.00000000000E+00  0.45593999997E+02  0.45594000000E+02  0.51100000000E-03 0.  1.
         11   -1    0    0    0    0 -0.00000000000E+00 -0.00000000000E+00 -0.45593999997E+02  0.45594000000E+02  0.51100000000E-03 0. -1.
    9900012    2    1    2    0    0  0.10371243471E+02  0.29602007235E+02 -0.57342487991E+01  0.59301903770E+02  0.49999926580E+02 0.  0.
        -12    1    1    2    0    0 -0.10371243471E+02 -0.29602007235E+02  0.57342487991E+01  0.31886096230E+02  0.00000000000E+00 0.  1.
         11    1    3    3    0    0  0.10002434190E+02 -0.41850127501E+00 -0.14007779572E+02  0.17217483029E+02  0.51100000000E-03 0. -1.
        -11    1    3    3    0    0  0.14204638206E+02  0.12394344986E+02  0.35087025264E+01  0.19175571122E+02  0.51100000000E-03 0.  1.
        -12    1    3    3    0    0 -0.13835828926E+02  0.17626163525E+02  0.47648282463E+01  0.22908849619E+02  0.00000000000E+00 0.  1.
</event>
<event>
 7    1  0.1202531E-011  0.5930196E+02  0.7816164E-02  0.1266605E+00
        -11   -1    0    0    0    0  0.00000000000E+00  0.00000000000E+00  0.45593999997E+02  0.45594000000E+02  0.51100000000E-03 0. -1.
         11   -1    0    0    0    0 -0.00000000000E+00 -0.00000000000E+00 -0.45593999997E+02  0.45594000000E+02  0.51100000000E-03 0.  1.
    9900012    2    1    2    0    0  0.18022488350E+02  0.25896690069E+02 -0.46120405495E+01  0.59301959781E+02  0.50000028729E+02 0.  0.
        -12    1    1    2    0    0 -0.18022488350E+02 -0.25896690069E+02  0.46120405495E+01  0.31886040219E+02  0.00000000000E+00 0.  1.
         11    1    3    3    0    0 -0.26644951896E+01 -0.78208152997E+01  0.77490092490E+01  0.11327481237E+02  0.51100000000E-03 0. -1.
        -11    1    3    3    0    0  0.21328085146E+02  0.19319931909E+02 -0.16248084929E+02  0.33047651188E+02  0.51100000000E-03 0.  1.
         12    1    3    3    0    0 -0.64110160657E+00  0.14397573460E+02  0.38870351304E+01  0.14926827356E+02  0.00000000000E+00 0. -1.
</event>
<event>
 7    1  0.1202531E-011  0.5930195E+02  0.7816164E-02  0.1266605E+00
        -11   -1    0    0    0    0  0.00000000000E+00  0.00000000000E+00  0.45593999997E+02  0.45594000000E+02  0.51100000000E-03 0.  1.
         11   -1    0    0    0    0 -0.00000000000E+00 -0.00000000000E+00 -0.45593999997E+02  0.45594000000E+02  0.51100000000E-03 0. -1.
    9900012    2    1    2    0    0 -0.18441242142E+01 -0.22099138530E+02 -0.22911728762E+02  0.59301952381E+02  0.50000015235E+02 0.  0.
        -12    1    1    2    0    0  0.18441242142E+01  0.22099138530E+02  0.22911728762E+02  0.31886047619E+02  0.00000000000E+00 0.  1.
         11    1    3    3    0    0  0.14896976850E+02 -0.14212500459E+02 -0.10215914190E+02  0.22984342313E+02  0.51100000000E-03 0. -1.
        -11    1    3    3    0    0 -0.12181031501E+02 -0.15269638068E+02  0.15954320149E+01  0.19598080996E+02  0.51100000000E-03 0.  1.
        -12    1    3    3    0    0 -0.45600695637E+01  0.73829999974E+01 -0.14291246587E+02  0.16719529072E+02  0.00000000000E+00 0.  1.
</event>
<event>
 7    1  0.1202531E-011  0.5930196E+02  0.7816164E-02  0.1266605E+00
        -11   -1    0    0    0    0  0.00000000000E+00  0.00000000000E+00  0.45593999997E+02  0.45594000000E+02  0.51100000000E-03 0. -1.
         11   -1    0    0    0    0 -0.00000000000E+00 -0.00000000000E+00 -0.45593999997E+02  0.45594000000E+02  0.51100000000E-03 0.  1.
    9900012    2    1    2    0    0 -0.12956197689E+02  0.92863913942E+01  0.27615566920E+02  0.59301958227E+02  0.50000025895E+02 0.  0.
        -12    1    1    2    0    0  0.12956197689E+02 -0.92863913942E+01 -0.27615566920E+02  0.31886041773E+02  0.00000000000E+00 0.  1.
         11    1    3    3    0    0 -0.16981688053E+02 -0.29404159884E+01  0.13987146912E+02  0.22196036905E+02  0.51100000000E-03 0. -1.
        -11    1    3    3    0    0  0.17492561914E+01 -0.10985581383E+02  0.54733138136E+01  0.12397582825E+02  0.51100000000E-03 0.  1.
         12    1    3    3    0    0  0.22762341722E+01  0.23212388766E+02  0.81551061943E+01  0.24708338496E+02  0.00000000000E+00 0. -1.
</event>
<event>
 7    1  0.1202531E-011  0.5930198E+02  0.7816164E-02  0.1266605E+00
        -11   -1    0    0    0    0  0.00000000000E+00  0.00000000000E+00  0.45593999997E+02  0.45594000000E+02  0.51100000000E-03 0.  1.
         11   -1    0    0    0    0 -0.00000000000E+00 -0.00000000000E+00 -0.45593999997E+02  0.45594000000E+02  0.51100000000E-03 0. -1.
    9900012    2    1    2    0    0  0.69053467717E+01  0.12018087681E+02 -0.28715851631E+02  0.59301978291E+02  0.50000062488E+02 0.  0.
        -12    1    1    2    0    0 -0.69053467717E+01 -0.12018087681E+02  0.28715851631E+02  0.31886021709E+02  0.00000000000E+00 0.  1.
         11    1    3    3    0    0 -0.67286162399E+01 -0.65650168584E+01 -0.88417152758E+01  0.12905411738E+02  0.51100000000E-03 0. -1.
        -11    1    3    3    0    0  0.14053720465E+02 -0.73684971509E+01 -0.91155923929E+01  0.18300159401E+02  0.51100000000E-03 0.  1.
         12    1    3    3    0    0 -0.41975745376E+00  0.25951601690E+02 -0.10758543962E+02  0.28096407151E+02  0.00000000000E+00 0. -1.
</event>
<event>
 7    1  0.1202531E-011  0.5930196E+02  0.7816164E-02  0.1266605E+00
        -11   -1    0    0    0    0  0.00000000000E+00  0.00000000000E+00  0.45593999997E+02  0.45594000000E+02  0.51100000000E-03 0. -1.
         11   -1    0    0    0    0 -0.00000000000E+00 -0.00000000000E+00 -0.45593999997E+02  0.45594000000E+02  0.51100000000E-03 0.  1.
    9900012    2    1    2    0    0 -0.23149257402E+00  0.26418299167E+02  0.17853278468E+02  0.59301958042E+02  0.50000025558E+02 0.  0.
        -12    1    1    2    0    0  0.23149257402E+00 -0.26418299167E+02 -0.17853278468E+02  0.31886041958E+02  0.00000000000E+00 0.  1.
         11    1    3    3    0    0 -0.31325522412E+01  0.96913935144E+01  0.19582706845E+02  0.22073024248E+02  0.51100000000E-03 0.  1.
        -11    1    3    3    0    0  0.16350152440E+01  0.21239534727E+02  0.10776873144E+02  0.23873250832E+02  0.51100000000E-03 0. -1.
        -12    1    3    3    0    0  0.12660444232E+01 -0.45126290743E+01 -0.12506301521E+02  0.13355682962E+02  0.00000000000E+00 0.  1.
</event>
<event>
 7    1  0.1202531E-011  0.5930194E+02  0.7816164E-02  0.1266605E+00
        -11   -1    0    0    0    0  0.00000000000E+00  0.00000000000E+00  0.45593999997E+02  0.45594000000E+02  0.51100000000E-03 0. -1.
         11   -1    0    0    0    0 -0.00000000000E+00 -0.00000000000E+00 -0.45593999997E+02  0.45594000000E+02  0.51100000000E-03 0.  1.
    9900012    2    1    2    0    0 -0.26874043269E+02 -0.11493276770E+02  0.12744056012E+02  0.59301943860E+02  0.49999999694E+02 0.  0.
        -12    1    1    2    0    0  0.26874043269E+02  0.11493276770E+02 -0.12744056012E+02  0.31886056140E+02  0.00000000000E+00 0.  1.
         11    1    3    3    0    0 -0.14226165367E+02 -0.76278750791E+01  0.16037524344E+02  0.22754569797E+02  0.51100000000E-03 0. -1.
        -11    1    3    3    0    0 -0.96868398644E+01 -0.11641902116E+01  0.14959288949E+02  0.17859746122E+02  0.51100000000E-03 0.  1.
        -12    1    3    3    0    0 -0.29610380374E+01 -0.27012114795E+01 -0.18252757281E+02  0.18687627941E+02  0.00000000000E+00 0.  1.
</event>
<event>
 7    1  0.1202531E-011  0.5930193E+02  0.7816164E-02  0.1266605E+00
        -11   -1    0    0    0    0  0.00000000000E+00  0.00000000000E+00  0.45593999997E+02  0.45594000000E+02  0.51100000000E-03 0.  1.
         11   -1    0    0    0    0 -0.00000000000E+00 -0.00000000000E+00 -0.45593999997E+02  0.45594000000E+02  0.51100000000E-03 0. -1.
    9900012    2    1    2    0    0 -0.61916036546E+01 -0.12392053311E+02 -0.28719718098E+02  0.59301934882E+02  0.49999983320E+02 0.  0.
        -12    1    1    2    0    0  0.61916036546E+01  0.12392053311E+02  0.28719718098E+02  0.31886065118E+02  0.00000000000E+00 0.  1.
         11    1    3    3    0    0 -0.14037114163E+02  0.97401821812E+01 -0.12514661600E+02  0.21178490933E+02  0.51100000000E-03 0. -1.
        -11    1    3    3    0    0  0.42422017828E+01 -0.53881890283E+01 -0.19509965299E+02  0.20680125803E+02  0.51100000000E-03 0.  1.
        -12    1    3    3    0    0  0.36033087258E+01 -0.16744046464E+02  0.33049088020E+01  0.17443318146E+02  0.00000000000E+00 0.  1.
</event>
<event>
 7    1  0.1202531E-011  0.5930188E+02  0.7816164E-02  0.1266605E+00
        -11   -1    0    0    0    0  0.00000000000E+00  0.00000000000E+00  0.45593999997E+02  0.45594000000E+02  0.51100000000E-03 0.  1.
         11   -1    0    0    0    0 -0.00000000000E+00 -0.00000000000E+00 -0.45593999997E+02  0.45594000000E+02  0.51100000000E-03 0. -1.
    9900012    2    1    2    0    0 -0.17555603220E+02 -0.23269698468E+02 -0.12924656155E+02  0.59301877502E+02  0.49999878673E+02 0.  0.
        -12    1    1    2    0    0  0.17555603220E+02  0.23269698468E+02  0.12924656155E+02  0.31886122498E+02  0.00000000000E+00 0.  1.
         11    1    3    3    0    0 -0.99336119958E+01 -0.26514925834E+02 -0.23710101136E+02  0.36930838542E+02  0.51100000000E-03 0. -1.
        -11    1    3    3    0    0 -0.41852399053E+01 -0.65055566100E+01  0.44447681160E+00  0.77482939908E+01  0.51100000000E-03 0.  1.
        -12    1    3    3    0    0 -0.34367513190E+01  0.97507839764E+01  0.10340968169E+02  0.14622744970E+02  0.00000000000E+00 0.  1.
</event>
<event>
 7    1  0.1202531E-011  0.5930195E+02  0.7816164E-02  0.1266605E+00
        -11   -1    0    0    0    0  0.00000000000E+00  0.00000000000E+00  0.45593999997E+02  0.45594000000E+02  0.51100000000E-03 0.  1.
         11   -1    0    0    0    0 -0.00000000000E+00 -0.00000000000E+00 -0.45593999997E+02  0.45594000000E+02  0.51100000000E-03 0. -1.
    9900012    2    1    2    0    0 -0.12567558182E+02 -0.73866892046E+01 -0.28358656209E+02  0.59301951671E+02  0.50000013939E+02 0.  0.
        -12    1    1    2    0    0  0.12567558182E+02  0.73866892046E+01  0.28358656209E+02  0.31886048329E+02  0.00000000000E+00 0.  1.
         11    1    3    3    0    0 -0.59587346979E+01  0.10138559091E+02 -0.14714167316E+02  0.18836231568E+02  0.51100000000E-03 0. -1.
        -11    1    3    3    0    0 -0.19382381329E+02 -0.62009363329E+01 -0.11177666353E+02  0.23217849658E+02  0.51100000000E-03 0.  1.
        -12    1    3    3    0    0  0.12773557845E+02 -0.11324311962E+02 -0.24668225400E+01  0.17247870445E+02  0.00000000000E+00 0.  1.
</event>
<event>
 7    1  0.1202531E-011  0.5930194E+02  0.7816164E-02  0.1266605E+00
        -11   -1    0    0    0    0  0.00000000000E+00  0.00000000000E+00  0.45593999997E+02  0.45594000000E+02  0.51100000000E-03 0.  1.
         11   -1    0    0    0    0 -0.00000000000E+00 -0.00000000000E+00 -0.45593999997E+02  0.45594000000E+02  0.51100000000E-03 0. -1.
    9900012    2    1    2    0    0 -0.13445245439E+02  0.76411129708E+01 -0.27884757266E+02  0.59301938466E+02  0.49999989856E+02 0.  0.
        -12    1    1    2    0    0  0.13445245439E+02 -0.76411129708E+01  0.27884757266E+02  0.31886061534E+02  0.00000000000E+00 0.  1.
         11    1    3    3    0    0  0.76121839420E+01 -0.36656652519E+01 -0.34999108000E+01  0.91450435743E+01  0.51100000000E-03 0. -1.
        -11    1    3    3    0    0 -0.36733388496E+01 -0.37566013865E+01 -0.26538738690E+02  0.27053837506E+02  0.51100000000E-03 0.  1.
        -12    1    3    3    0    0 -0.17384090532E+02  0.15063379609E+02  0.21538922233E+01  0.23103057386E+02  0.00000000000E+00 0.  1.
</event>
<event>
 7    1  0.1202531E-011  0.5930197E+02  0.7816164E-02  0.1266605E+00
        -11   -1    0    0    0    0  0.00000000000E+00  0.00000000000E+00  0.45593999997E+02  0.45594000000E+02  0.51100000000E-03 0.  1.
         11   -1    0    0    0    0 -0.00000000000E+00 -0.00000000000E+00 -0.45593999997E+02  0.45594000000E+02  0.51100000000E-03 0. -1.
    9900012    2    1    2    0    0  0.12417915010E+02 -0.13444220353E+02 -0.26110667814E+02  0.59301974098E+02  0.50000054842E+02 0.  0.
        -12    1    1    2    0    0 -0.12417915010E+02  0.13444220353E+02  0.26110667814E+02  0.31886025902E+02  0.00000000000E+00 0.  1.
         11    1    3    3    0    0 -0.12355099021E+02 -0.24816431428E+01 -0.26659567818E+02  0.29487956542E+02  0.51100000000E-03 0. -1.
        -11    1    3    3    0    0 -0.12809902431E+01 -0.44148567779E+00  0.10456575590E+01  0.17115038996E+01  0.51100000000E-03 0.  1.
         12    1    3    3    0    0  0.26054004275E+02 -0.10521091532E+02 -0.49675755567E+00  0.28102513657E+02  0.00000000000E+00 0. -1.
</event>
<event>
 7    1  0.1202531E-011  0.5930199E+02  0.7816164E-02  0.1266605E+00
        -11   -1    0    0    0    0  0.00000000000E+00  0.00000000000E+00  0.45593999997E+02  0.45594000000E+02  0.51100000000E-03 0.  1.
         11   -1    0    0    0    0 -0.00000000000E+00 -0.00000000000E+00 -0.45593999997E+02  0.45594000000E+02  0.51100000000E-03 0. -1.
    9900012    2    1    2    0    0  0.90373122848E+01 -0.30227763903E+02 -0.46181207588E+01  0.59301987969E+02  0.50000080139E+02 0.  0.
        -12    1    1    2    0    0 -0.90373122848E+01  0.30227763903E+02  0.46181207588E+01  0.31886012031E+02  0.00000000000E+00 0.  1.
         11    1    3    3    0    0  0.14196077618E+02 -0.12594088872E+02 -0.31656349911E+01  0.19239567028E+02  0.51100000000E-03 0. -1.
        -11    1    3    3    0    0  0.91443662336E+01 -0.31003746636E+00  0.11054883974E+02  0.14350122543E+02  0.51100000000E-03 0.  1.
        -12    1    3    3    0    0 -0.14303131567E+02 -0.17323637564E+02 -0.12507369742E+02  0.25712298399E+02  0.00000000000E+00 0.  1.
</event>
<event>
 7    1  0.1202531E-011  0.5930191E+02  0.7816164E-02  0.1266605E+00
        -11   -1    0    0    0    0  0.00000000000E+00  0.00000000000E+00  0.45593999997E+02  0.45594000000E+02  0.51100000000E-03 0.  1.
         11   -1    0    0    0    0 -0.00000000000E+00 -0.00000000000E+00 -0.45593999997E+02  0.45594000000E+02  0.51100000000E-03 0. -1.
    9900012    2    1    2    0    0 -0.18598942414E+02  0.24493803573E+02 -0.84175645762E+01  0.59301914229E+02  0.49999945654E+02 0.  0.
        -12    1    1    2    0    0  0.18598942414E+02 -0.24493803573E+02  0.84175645762E+01  0.31886085771E+02  0.00000000000E+00 0.  1.
         11    1    3    3    0    0  0.28145631303E+01  0.20826230338E+01 -0.42799180077E+01  0.55296277206E+01  0.51100000000E-03 0. -1.
        -11    1    3    3    0    0 -0.12491249167E+02  0.14656139410E+02 -0.23931367869E+02  0.30717162898E+02  0.51100000000E-03 0.  1.
        -12    1    3    3    0    0 -0.89222563776E+01  0.77550411296E+01  0.19793721300E+02  0.23055123611E+02  0.00000000000E+00 0.  1.
</event>
<event>
 7    1  0.1202531E-011  0.5930187E+02  0.7816164E-02  0.1266605E+00
        -11   -1    0    0    0    0  0.00000000000E+00  0.00000000000E+00  0.45593999997E+02  0.45594000000E+02  0.51100000000E-03 0.  1.
         11   -1    0    0    0    0 -0.00000000000E+00 -0.00000000000E+00 -0.45593999997E+02  0.45594000000E+02  0.51100000000E-03 0. -1.
    9900012    2    1    2    0    0 -0.12454282158E+02 -0.15776110695E+02 -0.24753394892E+02  0.59301868667E+02  0.49999862560E+02 0.  0.
        -12    1    1    2    0    0  0.12454282158E+02  0.15776110695E+02  0.24753394892E+02  0.31886131333E+02  0.00000000000E+00 0.  1.
         11    1    3    3    0    0 -0.52385660624E+01  0.97900761704E+01 -0.28979782163E+01  0.11475471398E+02  0.51100000000E-03 0. -1.
        -11    1    3    3    0    0  0.11806109871E+02 -0.48360138719E+01 -0.13275833161E+02  0.18412468787E+02  0.51100000000E-03 0.  1.
         12    1    3    3    0    0 -0.19021825966E+02 -0.20730172994E+02 -0.85795835143E+01  0.29413928482E+02  0.00000000000E+00 0. -1.
</event>
<event>
 7    1  0.1202531E-011  0.5930194E+02  0.7816164E-02  0.1266605E+00
        -11   -1    0    0    0    0  0.00000000000E+00  0.00000000000E+00  0.45593999997E+02  0.45594000000E+02  0.51100000000E-03 0.  1.
         11   -1    0    0    0    0 -0.00000000000E+00 -0.00000000000E+00 -0.45593999997E+02  0.45594000000E+02  0.51100000000E-03 0. -1.
    9900012    2    1    2    0    0  0.11934355495E+02 -0.12980993996E+02 -0.26566634080E+02  0.59301935762E+02  0.49999984926E+02 0.  0.
        -12    1    1    2    0    0 -0.11934355495E+02  0.12980993996E+02  0.26566634080E+02  0.31886064238E+02  0.00000000000E+00 0.  1.
         11    1    3    3    0    0  0.48463493941E+01  0.60059074739E+01  0.31619439804E+01  0.83400190067E+01  0.51100000000E-03 0. -1.
        -11    1    3    3    0    0 -0.95832775930E+01  0.22067179925E+01  0.12254041452E+01  0.99101175222E+01  0.51100000000E-03 0.  1.
         12    1    3    3    0    0  0.16671283694E+02 -0.21193619463E+02 -0.30953982206E+02  0.41051799234E+02  0.00000000000E+00 0. -1.
</event>
<event>
 7    1  0.1202531E-011  0.5930197E+02  0.7816164E-02  0.1266605E+00
        -11   -1    0    0    0    0  0.00000000000E+00  0.00000000000E+00  0.45593999997E+02  0.45594000000E+02  0.51100000000E-03 0.  1.
         11   -1    0    0    0    0 -0.00000000000E+00 -0.00000000000E+00 -0.45593999997E+02  0.45594000000E+02  0.51100000000E-03 0. -1.
    9900012    2    1    2    0    0 -0.29753525217E+02  0.11161636250E+02 -0.26199757743E+01  0.59301973912E+02  0.50000054502E+02 0.  0.
        -12    1    1    2    0    0  0.29753525217E+02 -0.11161636250E+02  0.26199757743E+01  0.31886026088E+02  0.00000000000E+00 0.  1.
         11    1    3    3    0    0 -0.13913573960E+02  0.20682723424E+02 -0.16850841412E+02  0.30088427096E+02  0.51100000000E-03 0. -1.
        -11    1    3    3    0    0 -0.16212793065E+01  0.39514932141E+01  0.72583619943E+01  0.84217969764E+01  0.51100000000E-03 0.  1.
         12    1    3    3    0    0 -0.14218671950E+02 -0.13472580388E+02  0.69725036432E+01  0.20791749840E+02  0.00000000000E+00 0. -1.
</event>
<event>
 7    1  0.1202531E-011  0.5930194E+02  0.7816164E-02  0.1266605E+00
        -11   -1    0    0    0    0  0.00000000000E+00  0.00000000000E+00  0.45593999997E+02  0.45594000000E+02  0.51100000000E-03 0.  1.
         11   -1    0    0    0    0 -0.00000000000E+00 -0.00000000000E+00 -0.45593999997E+02  0.45594000000E+02  0.51100000000E-03 0. -1.
    9900012    2    1    2    0    0  0.12103819975E+02  0.23449496800E+02 -0.17898025045E+02  0.59301942566E+02  0.49999997334E+02 0.  0.
        -12    1    1    2    0    0 -0.12103819975E+02 -0.23449496800E+02  0.17898025045E+02  0.31886057434E+02  0.00000000000E+00 0.  1.
         11    1    3    3    0    0  0.10769000221E+01  0.15016434974E+02 -0.67518086920E+01  0.16499695569E+02  0.51100000000E-03 0. -1.
        -11    1    3    3    0    0  0.22772194863E+02  0.59670223086E+01 -0.17395947790E+02  0.29271098611E+02  0.51100000000E-03 0.  1.
        -12    1    3    3    0    0 -0.11745274910E+02  0.24660395179E+01  0.62497314368E+01  0.13531148386E+02  0.00000000000E+00 0.  1.
</event>
<event>
 7    1  0.1202531E-011  0.5930195E+02  0.7816164E-02  0.1266605E+00
        -11   -1    0    0    0    0  0.00000000000E+00  0.00000000000E+00  0.45593999997E+02  0.45594000000E+02  0.51100000000E-03 0.  1.
         11   -1    0    0    0    0 -0.00000000000E+00 -0.00000000000E+00 -0.45593999997E+02  0.45594000000E+02  0.51100000000E-03 0. -1.
    9900012    2    1    2    0    0 -0.11667750843E+02 -0.18474126426E+02  0.23222628322E+02  0.59301949396E+02  0.50000009790E+02 0.  0.
        -12    1    1    2    0    0  0.11667750843E+02  0.18474126426E+02 -0.23222628322E+02  0.31886050604E+02  0.00000000000E+00 0.  1.
         11    1    3    3    0    0  0.83813696884E+01 -0.24878663527E+02  0.55019808331E+01  0.26822882957E+02  0.51100000000E-03 0. -1.
        -11    1    3    3    0    0  0.12614238968E+01  0.57068937117E+01  0.46595013040E+01  0.74746758289E+01  0.51100000000E-03 0.  1.
        -12    1    3    3    0    0 -0.21310544428E+02  0.69764338944E+00  0.13061146185E+02  0.25004390610E+02  0.00000000000E+00 0.  1.
</event>
<event>
 7    1  0.1202531E-011  0.5930192E+02  0.7816164E-02  0.1266605E+00
        -11   -1    0    0    0    0  0.00000000000E+00  0.00000000000E+00  0.45593999997E+02  0.45594000000E+02  0.51100000000E-03 0.  1.
         11   -1    0    0    0    0 -0.00000000000E+00 -0.00000000000E+00 -0.45593999997E+02  0.45594000000E+02  0.51100000000E-03 0. -1.
    9900012    2    1    2    0    0  0.16440474178E+02 -0.13431458198E+02 -0.23791362206E+02  0.59301918771E+02  0.49999953937E+02 0.  0.
        -12    1    1    2    0    0 -0.16440474178E+02  0.13431458198E+02  0.23791362206E+02  0.31886081229E+02  0.00000000000E+00 0.  1.
         11    1    3    3    0    0  0.45343396968E+01  0.63458202546E+01 -0.14201241242E+02  0.16202003711E+02  0.51100000000E-03 0. -1.
        -11    1    3    3    0    0 -0.58489360890E+01  0.46296078327E+01 -0.10528935248E+02  0.12903557640E+02  0.51100000000E-03 0.  1.
        -12    1    3    3    0    0  0.17755070570E+02 -0.24406886286E+02  0.93881428365E+00  0.30196357419E+02  0.00000000000E+00 0.  1.
</event>
<event>
 7    1  0.1202531E-011  0.5930196E+02  0.7816164E-02  0.1266605E+00
        -11   -1    0    0    0    0  0.00000000000E+00  0.00000000000E+00  0.45593999997E+02  0.45594000000E+02  0.51100000000E-03 0.  1.
         11   -1    0    0    0    0 -0.00000000000E+00 -0.00000000000E+00 -0.45593999997E+02  0.45594000000E+02  0.51100000000E-03 0. -1.
    9900012    2    1    2    0    0  0.29129760487E+02 -0.12920592128E+02  0.11112579787E+01  0.59301960088E+02  0.50000029290E+02 0.  0.
        -12    1    1    2    0    0 -0.29129760487E+02  0.12920592128E+02 -0.11112579787E+01  0.31886039912E+02  0.00000000000E+00 0.  1.
         11    1    3    3    0    0  0.12505488296E+02 -0.23432167720E+02  0.26048579046E+01  0.26687806327E+02  0.51100000000E-03 0. -1.
        -11    1    3    3    0    0  0.77978488706E+01 -0.30494139110E+01  0.97943118494E+01  0.12885414897E+02  0.51100000000E-03 0.  1.
        -12    1    3    3    0    0  0.88264233205E+01  0.13560989502E+02 -0.11287911775E+02  0.19728738864E+02  0.00000000000E+00 0.  1.
</event>
<event>
 7    1  0.1202531E-011  0.5930194E+02  0.7816164E-02  0.1266605E+00
        -11   -1    0    0    0    0  0.00000000000E+00  0.00000000000E+00  0.45593999997E+02  0.45594000000E+02  0.51100000000E-03 0.  1.
         11   -1    0    0    0    0 -0.00000000000E+00 -0.00000000000E+00 -0.45593999997E+02  0.45594000000E+02  0.51100000000E-03 0. -1.
    9900012    2    1    2    0    0 -0.19934005709E+02  0.16998849702E+02  0.18176772680E+02  0.59301944429E+02  0.50000000732E+02 0.  0.
        -12    1    1    2    0    0  0.19934005709E+02 -0.16998849702E+02 -0.18176772680E+02  0.31886055571E+02  0.00000000000E+00 0.  1.
         11    1    3    3    0    0 -0.80264457877E+01  0.90599077692E+01  0.38375400611E+00  0.12110038322E+02  0.51100000000E-03 0. -1.
        -11    1    3    3    0    0  0.40458143346E+01  0.21989959007E+02  0.75975102569E+01  0.23614594495E+02  0.51100000000E-03 0.  1.
         12    1    3    3    0    0 -0.15953374256E+02 -0.14051017075E+02  0.10195508417E+02  0.23577311612E+02  0.00000000000E+00 0. -1.
</event>
<event>
 7    1  0.1202531E-011  0.5930196E+02  0.7816164E-02  0.1266605E+00
        -11   -1    0    0    0    0  0.00000000000E+00  0.00000000000E+00  0.45593999997E+02  0.45594000000E+02  0.51100000000E-03 0.  1.
         11   -1    0    0    0    0 -0.00000000000E+00 -0.00000000000E+00 -0.45593999997E+02  0.45594000000E+02  0.51100000000E-03 0. -1.
    9900012    2    1    2    0    0  0.14935841738E+02  0.13722768594E+02 -0.24603375001E+02  0.59301955910E+02  0.50000021670E+02 0.  0.
        -12    1    1    2    0    0 -0.14935841738E+02 -0.13722768594E+02  0.24603375001E+02  0.31886044090E+02  0.00000000000E+00 0.  1.
         11    1    3    3    0    0  0.10431103966E+02  0.60599496845E+01 -0.17994736449E+02  0.21664289978E+02  0.51100000000E-03 0. -1.
        -11    1    3    3    0    0  0.18400668965E+02  0.10370085145E+02  0.17551950192E+01  0.21194433092E+02  0.51100000000E-03 0.  1.
        -12    1    3    3    0    0 -0.13895931194E+02 -0.27072662353E+01 -0.83638335707E+01  0.16443232839E+02  0.00000000000E+00 0.  1.
</event>
<event>
 7    1  0.1202531E-011  0.5930194E+02  0.7816164E-02  0.1266605E+00
        -11   -1    0    0    0    0  0.00000000000E+00  0.00000000000E+00  0.45593999997E+02  0.45594000000E+02  0.51100000000E-03 0.  1.
         11   -1    0    0    0    0 -0.00000000000E+00 -0.00000000000E+00 -0.45593999997E+02  0.45594000000E+02  0.51100000000E-03 0. -1.
    9900012    2    1    2    0    0  0.31744634599E+02  0.29962009978E+01  0.14719633121E+00  0.59301941714E+02  0.49999995780E+02 0.  0.
        -12    1    1    2    0    0 -0.31744634599E+02 -0.29962009978E+01 -0.14719633121E+00  0.31886058286E+02  0.00000000000E+00 0.  1.
         11    1    3    3    0    0 -0.70778585525E+01 -0.30196973235E+01 -0.10218862412E+02  0.12792177410E+02  0.51100000000E-03 0. -1.
        -11    1    3    3    0    0  0.48855055032E+01  0.97154124148E+01  0.49365599596E+01  0.11942655773E+02  0.51100000000E-03 0.  1.
        -12    1    3    3    0    0  0.33936987649E+02 -0.36995140935E+01  0.54294987839E+01  0.34567108532E+02  0.00000000000E+00 0.  1.
</event>
<event>
 7    1  0.1202531E-011  0.5930194E+02  0.7816164E-02  0.1266605E+00
        -11   -1    0    0    0    0  0.00000000000E+00  0.00000000000E+00  0.45593999997E+02  0.45594000000E+02  0.51100000000E-03 0.  1.
         11   -1    0    0    0    0 -0.00000000000E+00 -0.00000000000E+00 -0.45593999997E+02  0.45594000000E+02  0.51100000000E-03 0. -1.
    9900012    2    1    2    0    0 -0.30081995381E+02  0.85474347670E+01 -0.62238066059E+01  0.59301939474E+02  0.49999991695E+02 0.  0.
        -12    1    1    2    0    0  0.30081995381E+02 -0.85474347670E+01  0.62238066059E+01  0.31886060526E+02  0.00000000000E+00 0.  1.
         11    1    3    3    0    0 -0.56730470153E+01  0.20755350484E+01 -0.97857480108E+01  0.11500094459E+02  0.51100000000E-03 0. -1.
        -11    1    3    3    0    0  0.75029038100E+01  0.10419571949E+02  0.83154142725E+01  0.15297292570E+02  0.51100000000E-03 0.  1.
         12    1    3    3    0    0 -0.31911852176E+02 -0.39476722307E+01 -0.47534728676E+01  0.32504552445E+02  0.00000000000E+00 0. -1.
</event>
<event>
 7    1  0.1202531E-011  0.5930159E+02  0.7816164E-02  0.1266606E+00
        -11   -1    0    0    0    0  0.00000000000E+00  0.00000000000E+00  0.45593999997E+02  0.45594000000E+02  0.51100000000E-03 0.  1.
         11   -1    0    0    0    0 -0.00000000000E+00 -0.00000000000E+00 -0.45593999997E+02  0.45594000000E+02  0.51100000000E-03 0. -1.
    9900012    2    1    2    0    0  0.21037792676E+02 -0.23073672237E+01 -0.23850172699E+02  0.59301585934E+02  0.49999346920E+02 0.  0.
        -12    1    1    2    0    0 -0.21037792676E+02  0.23073672237E+01  0.23850172699E+02  0.31886414066E+02  0.00000000000E+00 0.  1.
         11    1    3    3    0    0  0.83411901259E+01  0.17034041506E+02 -0.60700140301E+00  0.18976366188E+02  0.51100000000E-03 0. -1.
        -11    1    3    3    0    0 -0.53284001743E+01 -0.10916886072E+01  0.38211761685E+00  0.54524899419E+01  0.51100000000E-03 0.  1.
        -12    1    3    3    0    0  0.18025002725E+02 -0.18249720123E+02 -0.23625288913E+02  0.34872729804E+02  0.00000000000E+00 0.  1.
</event>
<event>
 7    1  0.1202531E-011  0.5930194E+02  0.7816164E-02  0.1266605E+00
        -11   -1    0    0    0    0  0.00000000000E+00  0.00000000000E+00  0.45593999997E+02  0.45594000000E+02  0.51100000000E-03 0.  1.
         11   -1    0    0    0    0 -0.00000000000E+00 -0.00000000000E+00 -0.45593999997E+02  0.45594000000E+02  0.51100000000E-03 0. -1.
    9900012    2    1    2    0    0  0.11493816326E+02  0.11087098882E+02 -0.27598714053E+02  0.59301943600E+02  0.49999999220E+02 0.  0.
        -12    1    1    2    0    0 -0.11493816326E+02 -0.11087098882E+02  0.27598714053E+02  0.31886056400E+02  0.00000000000E+00 0.  1.
         11    1    3    3    0    0 -0.30534011626E+01 -0.12716660515E+02  0.26986496880E+01  0.13353629609E+02  0.51100000000E-03 0.  1.
        -11    1    3    3    0    0 -0.26302356142E+01  0.37878721299E+01 -0.14471788098E+02  0.15188771039E+02  0.51100000000E-03 0. -1.
        -12    1    3    3    0    0  0.17177453102E+02  0.20015887268E+02 -0.15825575643E+02  0.30759542952E+02  0.00000000000E+00 0.  1.
</event>
<event>
 7    1  0.1559642E-011  0.5930194E+02  0.7816164E-02  0.1266605E+00
        -11   -1    0    0    0    0  0.00000000000E+00  0.00000000000E+00  0.45593999997E+02  0.45594000000E+02  0.51100000000E-03 0. -1.
         11   -1    0    0    0    0 -0.00000000000E+00 -0.00000000000E+00 -0.45593999997E+02  0.45594000000E+02  0.51100000000E-03 0.  1.
    9900012    2    1    2    0    0 -0.67521918834E+01 -0.10675357447E+02  0.29277386199E+02  0.59301942004E+02  0.49999996310E+02 0.  0.
        -12    1    1    2    0    0  0.67521918834E+01  0.10675357447E+02 -0.29277386199E+02  0.31886057996E+02  0.00000000000E+00 0.  1.
         11    1    3    3    0    0  0.36062015729E+01 -0.32782013132E+01  0.30658533683E+02  0.31043469225E+02  0.51100000000E-03 0. -1.
        -11    1    3    3    0    0 -0.12613645628E+02 -0.86402224848E+01  0.88788413309E+01  0.17680252381E+02  0.51100000000E-03 0.  1.
        -12    1    3    3    0    0  0.22552521719E+01  0.12430663506E+01 -0.10259988815E+02  0.10578220398E+02  0.00000000000E+00 0.  1.
</event>
<event>
 7    1  0.1202531E-011  0.5930212E+02  0.7816164E-02  0.1266604E+00
        -11   -1    0    0    0    0  0.00000000000E+00  0.00000000000E+00  0.45593999997E+02  0.45594000000E+02  0.51100000000E-03 0.  1.
         11   -1    0    0    0    0 -0.00000000000E+00 -0.00000000000E+00 -0.45593999997E+02  0.45594000000E+02  0.51100000000E-03 0. -1.
    9900012    2    1    2    0    0  0.21426834431E+02 -0.18651561540E+02 -0.14481692219E+02  0.59302119251E+02  0.50000319564E+02 0.  0.
        -12    1    1    2    0    0 -0.21426834431E+02  0.18651561540E+02  0.14481692219E+02  0.31885880749E+02  0.00000000000E+00 0.  1.
         11    1    3    3    0    0  0.10838136768E+02  0.57667555094E+01 -0.17820236063E+02  0.21639812645E+02  0.51100000000E-03 0. -1.
        -11    1    3    3    0    0  0.48750847685E+01  0.53018465770E+01 -0.10004565799E+00  0.72031963753E+01  0.51100000000E-03 0.  1.
         12    1    3    3    0    0  0.57136128954E+01 -0.29720163626E+02  0.34385895018E+01  0.30459110231E+02  0.00000000000E+00 0. -1.
</event>
<event>
 7    1  0.1202531E-011  0.5930192E+02  0.7816164E-02  0.1266605E+00
        -11   -1    0    0    0    0  0.00000000000E+00  0.00000000000E+00  0.45593999997E+02  0.45594000000E+02  0.51100000000E-03 0. -1.
         11   -1    0    0    0    0 -0.00000000000E+00 -0.00000000000E+00 -0.45593999997E+02  0.45594000000E+02  0.51100000000E-03 0.  1.
    9900012    2    1    2    0    0  0.18271141174E+02  0.24594481640E+02  0.88316867845E+01  0.59301924381E+02  0.49999964169E+02 0.  0.
        -12    1    1    2    0    0 -0.18271141174E+02 -0.24594481640E+02 -0.88316867845E+01  0.31886075619E+02  0.00000000000E+00 0.  1.
         11    1    3    3    0    0  0.42878401130E+01  0.10496952270E+02 -0.43898059103E+01  0.12159028579E+02  0.51100000000E-03 0. -1.
        -11    1    3    3    0    0  0.10755274349E+02  0.61513572180E+01 -0.13945280918E+02  0.18654382383E+02  0.51100000000E-03 0.  1.
         12    1    3    3    0    0  0.32280267114E+01  0.79461721512E+01  0.27166773613E+02  0.28488513419E+02  0.00000000000E+00 0. -1.
</event>
<event>
 7    1  0.1202531E-011  0.5930196E+02  0.7816164E-02  0.1266605E+00
        -11   -1    0    0    0    0  0.00000000000E+00  0.00000000000E+00  0.45593999997E+02  0.45594000000E+02  0.51100000000E-03 0. -1.
         11   -1    0    0    0    0 -0.00000000000E+00 -0.00000000000E+00 -0.45593999997E+02  0.45594000000E+02  0.51100000000E-03 0.  1.
    9900012    2    1    2    0    0 -0.25008886418E+02  0.31935958590E+00  0.19778095331E+02  0.59301961592E+02  0.50000032033E+02 0.  0.
        -12    1    1    2    0    0  0.25008886418E+02 -0.31935958590E+00 -0.19778095331E+02  0.31886038408E+02  0.00000000000E+00 0.  1.
         11    1    3    3    0    0 -0.27755277943E+01 -0.13574957171E+02  0.66102853786E+01  0.15351836691E+02  0.51100000000E-03 0. -1.
        -11    1    3    3    0    0 -0.18143527287E+02 -0.53345855541E+01 -0.21426521438E+01  0.19032507558E+02  0.51100000000E-03 0.  1.
         12    1    3    3    0    0 -0.40898313368E+01  0.19228902311E+02  0.15310462096E+02  0.24917617343E+02  0.00000000000E+00 0. -1.
</event>
<event>
 7    1  0.1202531E-011  0.5930196E+02  0.7816164E-02  0.1266605E+00
        -11   -1    0    0    0    0  0.00000000000E+00  0.00000000000E+00  0.45593999997E+02  0.45594000000E+02  0.51100000000E-03 0. -1.
         11   -1    0    0    0    0 -0.00000000000E+00 -0.00000000000E+00 -0.45593999997E+02  0.45594000000E+02  0.51100000000E-03 0.  1.
    9900012    2    1    2    0    0 -0.19995675622E+02 -0.13576663267E+02  0.20798236979E+02  0.59301960884E+02  0.50000030742E+02 0.  0.
        -12    1    1    2    0    0  0.19995675622E+02  0.13576663267E+02 -0.20798236979E+02  0.31886039116E+02  0.00000000000E+00 0.  1.
         11    1    3    3    0    0 -0.28290256019E+02 -0.23481453157E+02  0.11948763615E+02  0.38658636554E+02  0.51100000000E-03 0. -1.
        -11    1    3    3    0    0 -0.33229659146E+01  0.48513476594E+01  0.18238064013E+01  0.61566181165E+01  0.51100000000E-03 0.  1.
        -12    1    3    3    0    0  0.11617546311E+02  0.50534422306E+01  0.70256669622E+01  0.14486706214E+02  0.00000000000E+00 0.  1.
</event>
<event>
 7    1  0.1202531E-011  0.5930194E+02  0.7816164E-02  0.1266605E+00
        -11   -1    0    0    0    0  0.00000000000E+00  0.00000000000E+00  0.45593999997E+02  0.45594000000E+02  0.51100000000E-03 0.  1.
         11   -1    0    0    0    0 -0.00000000000E+00 -0.00000000000E+00 -0.45593999997E+02  0.45594000000E+02  0.51100000000E-03 0. -1.
    9900012    2    1    2    0    0 -0.21569629718E+02  0.18745085678E+01 -0.23408502346E+02  0.59301942065E+02  0.49999996421E+02 0.  0.
        -12    1    1    2    0    0  0.21569629718E+02 -0.18745085678E+01  0.23408502346E+02  0.31886057935E+02  0.00000000000E+00 0.  1.
         11    1    3    3    0    0  0.46504098694E+01  0.98987689985E+01  0.38767921389E+01  0.11603510555E+02  0.51100000000E-03 0. -1.
        -11    1    3    3    0    0  0.36002029888E+01 -0.67671431767E+01 -0.64592689060E+00  0.76923930050E+01  0.51100000000E-03 0.  1.
         12    1    3    3    0    0 -0.29820242576E+02 -0.12571172540E+01 -0.26639367594E+02  0.40006038506E+02  0.00000000000E+00 0. -1.
</event>
<event>
 7    1  0.1202531E-011  0.5930195E+02  0.7816164E-02  0.1266605E+00
        -11   -1    0    0    0    0  0.00000000000E+00  0.00000000000E+00  0.45593999997E+02  0.45594000000E+02  0.51100000000E-03 0.  1.
         11   -1    0    0    0    0 -0.00000000000E+00 -0.00000000000E+00 -0.45593999997E+02  0.45594000000E+02  0.51100000000E-03 0. -1.
    9900012    2    1    2    0    0  0.20055957415E+02 -0.42031228270E+01 -0.24429742593E+02  0.59301953012E+02  0.50000016386E+02 0.  0.
        -12    1    1    2    0    0 -0.20055957415E+02  0.42031228270E+01  0.24429742593E+02  0.31886046988E+02  0.00000000000E+00 0.  1.
         11    1    3    3    0    0 -0.83294467203E+01  0.15405641806E+00 -0.36125061623E+01  0.90803974076E+01  0.51100000000E-03 0. -1.
        -11    1    3    3    0    0  0.18671399737E+02  0.12398384007E+02 -0.88654848684E+00  0.22430494034E+02  0.51100000000E-03 0.  1.
         12    1    3    3    0    0  0.97140043988E+01 -0.16755563252E+02 -0.19930687944E+02  0.27791061571E+02  0.00000000000E+00 0. -1.
</event>
<event>
 7    1  0.1202531E-011  0.5930194E+02  0.7816164E-02  0.1266605E+00
        -11   -1    0    0    0    0  0.00000000000E+00  0.00000000000E+00  0.45593999997E+02  0.45594000000E+02  0.51100000000E-03 0.  1.
         11   -1    0    0    0    0 -0.00000000000E+00 -0.00000000000E+00 -0.45593999997E+02  0.45594000000E+02  0.51100000000E-03 0. -1.
    9900012    2    1    2    0    0  0.21090363517E+02  0.43834710827E+01 -0.23509625885E+02  0.59301940957E+02  0.49999994401E+02 0.  0.
        -12    1    1    2    0    0 -0.21090363517E+02 -0.43834710827E+01  0.23509625885E+02  0.31886059043E+02  0.00000000000E+00 0.  1.
         11    1    3    3    0    0  0.16346313472E+02  0.57784663337E+01 -0.12049431697E+02  0.21113536932E+02  0.51100000000E-03 0. -1.
        -11    1    3    3    0    0  0.96469380315E+01 -0.14301275341E+02 -0.16126779222E+02  0.23614887213E+02  0.51100000000E-03 0.  1.
        -12    1    3    3    0    0 -0.49028879868E+01  0.12906280090E+02  0.46665850338E+01  0.14573516812E+02  0.00000000000E+00 0.  1.
</event>
<event>
 7    1  0.1202531E-011  0.5930195E+02  0.7816164E-02  0.1266605E+00
        -11   -1    0    0    0    0  0.00000000000E+00  0.00000000000E+00  0.45593999997E+02  0.45594000000E+02  0.51100000000E-03 0.  1.
         11   -1    0    0    0    0 -0.00000000000E+00 -0.00000000000E+00 -0.45593999997E+02  0.45594000000E+02  0.51100000000E-03 0. -1.
    9900012    2    1    2    0    0 -0.12885076116E+02 -0.24213560427E+01 -0.29065990109E+02  0.59301953951E+02  0.50000018098E+02 0.  0.
        -12    1    1    2    0    0  0.12885076116E+02  0.24213560427E+01  0.29065990109E+02  0.31886046049E+02  0.00000000000E+00 0.  1.
         11    1    3    3    0    0 -0.24129828626E+02 -0.84257173253E+00 -0.28844624272E+02  0.37616099031E+02  0.51100000000E-03 0. -1.
        -11    1    3    3    0    0 -0.32146294109E+01  0.44990569647E+01 -0.20446269021E+01  0.58954096763E+01  0.51100000000E-03 0.  1.
        -12    1    3    3    0    0  0.14459381921E+02 -0.60778412749E+01  0.18232610650E+01  0.15790445244E+02  0.00000000000E+00 0.  1.
</event>
<event>
 7    1  0.1202531E-011  0.5930194E+02  0.7816164E-02  0.1266605E+00
        -11   -1    0    0    0    0  0.00000000000E+00  0.00000000000E+00  0.45593999997E+02  0.45594000000E+02  0.51100000000E-03 0. -1.
         11   -1    0    0    0    0 -0.00000000000E+00 -0.00000000000E+00 -0.45593999997E+02  0.45594000000E+02  0.51100000000E-03 0.  1.
    9900012    2    1    2    0    0  0.36185958341E+01  0.77490148664E+01  0.30717738156E+02  0.59301938709E+02  0.49999990300E+02 0.  0.
        -12    1    1    2    0    0 -0.36185958341E+01 -0.77490148664E+01 -0.30717738156E+02  0.31886061291E+02  0.00000000000E+00 0.  1.
         11    1    3    3    0    0  0.11098125362E+02 -0.32338511755E+01  0.10583769743E+02  0.15672981918E+02  0.51100000000E-03 0. -1.
        -11    1    3    3    0    0  0.14132665442E+02  0.72352147423E+01  0.39246934522E+01  0.16354931484E+02  0.51100000000E-03 0.  1.
         12    1    3    3    0    0 -0.21612194970E+02  0.37476512996E+01  0.16209274961E+02  0.27274025307E+02  0.00000000000E+00 0. -1.
</event>
<event>
 7    1  0.1202531E-011  0.5930196E+02  0.7816164E-02  0.1266605E+00
        -11   -1    0    0    0    0  0.00000000000E+00  0.00000000000E+00  0.45593999997E+02  0.45594000000E+02  0.51100000000E-03 0.  1.
         11   -1    0    0    0    0 -0.00000000000E+00 -0.00000000000E+00 -0.45593999997E+02  0.45594000000E+02  0.51100000000E-03 0. -1.
    9900012    2    1    2    0    0 -0.19980543115E+02  0.24324951573E+02 -0.50788027874E+01  0.59301959011E+02  0.50000027326E+02 0.  0.
        -12    1    1    2    0    0  0.19980543115E+02 -0.24324951573E+02  0.50788027874E+01  0.31886040989E+02  0.00000000000E+00 0.  1.
         11    1    3    3    0    0 -0.51089754961E+01  0.72931486679E+01 -0.21981378840E+02  0.23716506153E+02  0.51100000000E-03 0. -1.
        -11    1    3    3    0    0  0.18384135714E+01 -0.22445160693E+01 -0.22613241195E+01  0.36784784735E+01  0.51100000000E-03 0.  1.
        -12    1    3    3    0    0 -0.16709981191E+02  0.19276318974E+02  0.19163900172E+02  0.31906974385E+02  0.00000000000E+00 0.  1.
</event>
<event>
 7    1  0.1202531E-011  0.5930191E+02  0.7816164E-02  0.1266605E+00
        -11   -1    0    0    0    0  0.00000000000E+00  0.00000000000E+00  0.45593999997E+02  0.45594000000E+02  0.51100000000E-03 0. -1.
         11   -1    0    0    0    0 -0.00000000000E+00 -0.00000000000E+00 -0.45593999997E+02  0.45594000000E+02  0.51100000000E-03 0.  1.
    9900012    2    1    2    0    0  0.28062647150E+02  0.99156403189E+01 -0.11440757107E+02  0.59301905677E+02  0.49999930057E+02 0.  0.
        -12    1    1    2    0    0 -0.28062647150E+02 -0.99156403189E+01  0.11440757107E+02  0.31886094323E+02  0.00000000000E+00 0.  1.
         11    1    3    3    0    0  0.12047140755E+02  0.13206189129E+01  0.18567119665E+02  0.22172405543E+02  0.51100000000E-03 0. -1.
        -11    1    3    3    0    0  0.10835708987E+02  0.23993789635E+01 -0.79837865684E+01  0.13671519919E+02  0.51100000000E-03 0.  1.
        -12    1    3    3    0    0  0.51797974084E+01  0.61956424424E+01 -0.22024090203E+02  0.23457980214E+02  0.00000000000E+00 0.  1.
</event>
<event>
 7    1  0.1202531E-011  0.5930194E+02  0.7816164E-02  0.1266605E+00
        -11   -1    0    0    0    0  0.00000000000E+00  0.00000000000E+00  0.45593999997E+02  0.45594000000E+02  0.51100000000E-03 0.  1.
         11   -1    0    0    0    0 -0.00000000000E+00 -0.00000000000E+00 -0.45593999997E+02  0.45594000000E+02  0.51100000000E-03 0. -1.
    9900012    2    1    2    0    0 -0.26131825998E+02 -0.14864622827E+02 -0.10625027943E+02  0.59301944105E+02  0.50000000140E+02 0.  0.
        -12    1    1    2    0    0  0.26131825998E+02  0.14864622827E+02  0.10625027943E+02  0.31886055895E+02  0.00000000000E+00 0.  1.
         11    1    3    3    0    0 -0.95522244634E+01 -0.12215255786E+02  0.28747188953E+01  0.15770905970E+02  0.51100000000E-03 0. -1.
        -11    1    3    3    0    0 -0.21872725056E+02  0.88786678074E+01  0.17786480668E+01  0.23672989516E+02  0.51100000000E-03 0.  1.
        -12    1    3    3    0    0  0.52931235216E+01 -0.11528034848E+02 -0.15278394905E+02  0.19858048619E+02  0.00000000000E+00 0.  1.
</event>
<event>
 7    1  0.1202531E-011  0.5930195E+02  0.7816164E-02  0.1266605E+00
        -11   -1    0    0    0    0  0.00000000000E+00  0.00000000000E+00  0.45593999997E+02  0.45594000000E+02  0.51100000000E-03 0.  1.
         11   -1    0    0    0    0 -0.00000000000E+00 -0.00000000000E+00 -0.45593999997E+02  0.45594000000E+02  0.51100000000E-03 0. -1.
    9900012    2    1    2    0    0  0.28935024661E+02  0.13301235632E+02 -0.16005399709E+01  0.59301948979E+02  0.50000009030E+02 0.  0.
        -12    1    1    2    0    0 -0.28935024661E+02 -0.13301235632E+02  0.16005399709E+01  0.31886051021E+02  0.00000000000E+00 0.  1.
         11    1    3    3    0    0 -0.12721318607E+01 -0.29260875979E+01 -0.12928179310E+02  0.13316085335E+02  0.51100000000E-03 0. -1.
        -11    1    3    3    0    0 -0.20457006227E+01  0.92155506279E+01 -0.31394914429E+01  0.99482496548E+01  0.51100000000E-03 0.  1.
        -12    1    3    3    0    0  0.32252857145E+02  0.70117726024E+01  0.14467130782E+02  0.36037613990E+02  0.00000000000E+00 0.  1.
</event>
<event>
 7    1  0.1202531E-011  0.5930195E+02  0.7816164E-02  0.1266605E+00
        -11   -1    0    0    0    0  0.00000000000E+00  0.00000000000E+00  0.45593999997E+02  0.45594000000E+02  0.51100000000E-03 0. -1.
         11   -1    0    0    0    0 -0.00000000000E+00 -0.00000000000E+00 -0.45593999997E+02  0.45594000000E+02  0.51100000000E-03 0.  1.
    9900012    2    1    2    0    0  0.14781887043E+02  0.31100697507E+01  0.28081015086E+02  0.59301950908E+02  0.50000012548E+02 0.  0.
        -12    1    1    2    0    0 -0.14781887043E+02 -0.31100697507E+01 -0.28081015086E+02  0.31886049092E+02  0.00000000000E+00 0.  1.
         11    1    3    3    0    0  0.13804743561E+01  0.29442096628E+01  0.46381113009E+01  0.56644643778E+01  0.51100000000E-03 0. -1.
        -11    1    3    3    0    0  0.24101070316E+02  0.11882689665E+02  0.19769735393E+01  0.26943799448E+02  0.51100000000E-03 0.  1.
         12    1    3    3    0    0 -0.10699657629E+02 -0.11716829577E+02  0.21465930246E+02  0.26693687082E+02  0.00000000000E+00 0. -1.
</event>
<event>
 7    1  0.1202531E-011  0.5930195E+02  0.7816164E-02  0.1266605E+00
        -11   -1    0    0    0    0  0.00000000000E+00  0.00000000000E+00  0.45593999997E+02  0.45594000000E+02  0.51100000000E-03 0.  1.
         11   -1    0    0    0    0 -0.00000000000E+00 -0.00000000000E+00 -0.45593999997E+02  0.45594000000E+02  0.51100000000E-03 0. -1.
    9900012    2    1    2    0    0  0.31130260522E+02 -0.24221128598E+01 -0.64622306405E+01  0.59301950139E+02  0.50000011146E+02 0.  0.
        -12    1    1    2    0    0 -0.31130260522E+02  0.24221128598E+01  0.64622306405E+01  0.31886049861E+02  0.00000000000E+00 0.  1.
         11    1    3    3    0    0  0.88983961315E+01 -0.64102029112E+00  0.65796989782E+01  0.11085341656E+02  0.51100000000E-03 0. -1.
        -11    1    3    3    0    0  0.27761003754E+01  0.11917750978E+02  0.94601002704E+01  0.15467159372E+02  0.51100000000E-03 0.  1.
        -12    1    3    3    0    0  0.19455764015E+02 -0.13698843546E+02 -0.22502029889E+02  0.32749449111E+02  0.00000000000E+00 0.  1.
</event>
<event>
 7    1  0.1202531E-011  0.5930195E+02  0.7816164E-02  0.1266605E+00
        -11   -1    0    0    0    0  0.00000000000E+00  0.00000000000E+00  0.45593999997E+02  0.45594000000E+02  0.51100000000E-03 0. -1.
         11   -1    0    0    0    0 -0.00000000000E+00 -0.00000000000E+00 -0.45593999997E+02  0.45594000000E+02  0.51100000000E-03 0.  1.
    9900012    2    1    2    0    0  0.26100871212E+02  0.97245207542E+01  0.15520895815E+02  0.59301953070E+02  0.50000016491E+02 0.  0.
        -12    1    1    2    0    0 -0.26100871212E+02 -0.97245207542E+01 -0.15520895815E+02  0.31886046930E+02  0.00000000000E+00 0.  1.
         11    1    3    3    0    0  0.18192960250E+02 -0.79644244899E+01  0.14061878710E+02  0.24334179526E+02  0.51100000000E-03 0. -1.
        -11    1    3    3    0    0  0.46872158850E+01 -0.55035335049E+01 -0.70085578048E+01  0.10068701831E+02  0.51100000000E-03 0.  1.
         12    1    3    3    0    0  0.32206950769E+01  0.23192478749E+02  0.84675749100E+01  0.24899071713E+02  0.00000000000E+00 0. -1.
</event>
<event>
 7    1  0.1202531E-011  0.5930195E+02  0.7816164E-02  0.1266605E+00
        -11   -1    0    0    0    0  0.00000000000E+00  0.00000000000E+00  0.45593999997E+02  0.45594000000E+02  0.51100000000E-03 0.  1.
         11   -1    0    0    0    0 -0.00000000000E+00 -0.00000000000E+00 -0.45593999997E+02  0.45594000000E+02  0.51100000000E-03 0. -1.
    9900012    2    1    2    0    0 -0.62799471200E+01  0.22652423679E+02 -0.21544150328E+02  0.59301945874E+02  0.50000003366E+02 0.  0.
        -12    1    1    2    0    0  0.62799471200E+01 -0.22652423679E+02  0.21544150328E+02  0.31886054126E+02  0.00000000000E+00 0.  1.
         11    1    3    3    0    0 -0.19150899920E+02  0.19756187668E+02 -0.45525059972E+01  0.27888872871E+02  0.51100000000E-03 0. -1.
        -11    1    3    3    0    0 -0.13357171462E+01  0.98135784857E+01 -0.10190115201E+02  0.14210169283E+02  0.51100000000E-03 0.  1.
         12    1    3    3    0    0  0.14206669946E+02 -0.69173424744E+01 -0.68015291301E+01  0.17202903719E+02  0.00000000000E+00 0. -1.
</event>
<event>
 7    1  0.1202531E-011  0.5930196E+02  0.7816164E-02  0.1266605E+00
        -11   -1    0    0    0    0  0.00000000000E+00  0.00000000000E+00  0.45593999997E+02  0.45594000000E+02  0.51100000000E-03 0. -1.
         11   -1    0    0    0    0 -0.00000000000E+00 -0.00000000000E+00 -0.45593999997E+02  0.45594000000E+02  0.51100000000E-03 0.  1.
    9900012    2    1    2    0    0 -0.19690851171E+02  0.22747687369E+02  0.10560901758E+02  0.59301960007E+02  0.50000029143E+02 0.  0.
        -12    1    1    2    0    0  0.19690851171E+02 -0.22747687369E+02 -0.10560901758E+02  0.31886039993E+02  0.00000000000E+00 0.  1.
         11    1    3    3    0    0 -0.19944249817E+01 -0.34008802331E+01  0.66455091493E+01  0.77269987370E+01  0.51100000000E-03 0. -1.
        -11    1    3    3    0    0 -0.17791133025E+02 -0.58739025414E+01  0.54600930791E+01  0.19515116246E+02  0.51100000000E-03 0.  1.
        -12    1    3    3    0    0  0.94706836064E-01  0.32022470143E+02 -0.15447004705E+01  0.32059845025E+02  0.00000000000E+00 0.  1.
</event>
<event>
 7    1  0.1202531E-011  0.5930201E+02  0.7816164E-02  0.1266605E+00
        -11   -1    0    0    0    0  0.00000000000E+00  0.00000000000E+00  0.45593999997E+02  0.45594000000E+02  0.51100000000E-03 0.  1.
         11   -1    0    0    0    0 -0.00000000000E+00 -0.00000000000E+00 -0.45593999997E+02  0.45594000000E+02  0.51100000000E-03 0. -1.
    9900012    2    1    2    0    0 -0.27746641694E+02  0.34332635209E+00 -0.15707389303E+02  0.59302014411E+02  0.50000128361E+02 0.  0.
        -12    1    1    2    0    0  0.27746641694E+02 -0.34332635209E+00  0.15707389303E+02  0.31885985589E+02  0.00000000000E+00 0.  1.
         11    1    3    3    0    0 -0.11979470270E+02  0.24844300003E+01 -0.59523121143E+01  0.13605518004E+02  0.51100000000E-03 0. -1.
        -11    1    3    3    0    0 -0.21392478918E+02 -0.11163748741E+02 -0.19690348414E+02  0.31144457952E+02  0.51100000000E-03 0.  1.
        -12    1    3    3    0    0  0.56253074938E+01  0.90226450927E+01  0.99352712256E+01  0.14552038455E+02  0.00000000000E+00 0.  1.
</event>
<event>
 7    1  0.1202531E-011  0.5930195E+02  0.7816164E-02  0.1266605E+00
        -11   -1    0    0    0    0  0.00000000000E+00  0.00000000000E+00  0.45593999997E+02  0.45594000000E+02  0.51100000000E-03 0.  1.
         11   -1    0    0    0    0 -0.00000000000E+00 -0.00000000000E+00 -0.45593999997E+02  0.45594000000E+02  0.51100000000E-03 0. -1.
    9900012    2    1    2    0    0 -0.43444259150E+01  0.67843326748E+01 -0.30851566479E+02  0.59301947241E+02  0.50000005860E+02 0.  0.
        -12    1    1    2    0    0  0.43444259150E+01 -0.67843326748E+01  0.30851566479E+02  0.31886052759E+02  0.00000000000E+00 0.  1.
         11    1    3    3    0    0 -0.24402762690E+02  0.21094976970E+01 -0.20511948369E+02  0.31948158532E+02  0.51100000000E-03 0.  1.
        -11    1    3    3    0    0  0.66756969923E+01  0.18403318904E+01 -0.11711596884E+02  0.13605633158E+02  0.51100000000E-03 0. -1.
        -12    1    3    3    0    0  0.13382639783E+02  0.28345030875E+01  0.13719787735E+01  0.13748155551E+02  0.00000000000E+00 0.  1.
</event>
<event>
 7    1  0.1202531E-011  0.5930195E+02  0.7816164E-02  0.1266605E+00
        -11   -1    0    0    0    0  0.00000000000E+00  0.00000000000E+00  0.45593999997E+02  0.45594000000E+02  0.51100000000E-03 0.  1.
         11   -1    0    0    0    0 -0.00000000000E+00 -0.00000000000E+00 -0.45593999997E+02  0.45594000000E+02  0.51100000000E-03 0. -1.
    9900012    2    1    2    0    0  0.58925250362E+01  0.29948985736E+02 -0.92226255143E+01  0.59301946320E+02  0.50000004181E+02 0.  0.
        -12    1    1    2    0    0 -0.58925250362E+01 -0.29948985736E+02  0.92226255143E+01  0.31886053680E+02  0.00000000000E+00 0.  1.
         11    1    3    3    0    0 -0.14298553439E+02  0.91582060805E+01 -0.69976980816E+01  0.18365433503E+02  0.51100000000E-03 0. -1.
        -11    1    3    3    0    0  0.57331794046E+01  0.85719652244E+01  0.13035674137E+02  0.16621574365E+02  0.51100000000E-03 0.  1.
         12    1    3    3    0    0  0.14457899071E+02  0.12218814431E+02 -0.15260601570E+02  0.24314938452E+02  0.00000000000E+00 0. -1.
</event>
<event>
 7    1  0.1202531E-011  0.5930196E+02  0.7816164E-02  0.1266605E+00
        -11   -1    0    0    0    0  0.00000000000E+00  0.00000000000E+00  0.45593999997E+02  0.45594000000E+02  0.51100000000E-03 0.  1.
         11   -1    0    0    0    0 -0.00000000000E+00 -0.00000000000E+00 -0.45593999997E+02  0.45594000000E+02  0.51100000000E-03 0. -1.
    9900012    2    1    2    0    0  0.31619725996E+02 -0.21845648483E+01 -0.34843092246E+01  0.59301955931E+02  0.50000021708E+02 0.  0.
        -12    1    1    2    0    0 -0.31619725996E+02  0.21845648483E+01  0.34843092246E+01  0.31886044069E+02  0.00000000000E+00 0.  1.
         11    1    3    3    0    0  0.41407055971E+01 -0.19408995352E+02 -0.69564695619E+01  0.21029669813E+02  0.51100000000E-03 0. -1.
        -11    1    3    3    0    0  0.29860443477E+01  0.45059798254E+01  0.86425916345E+01  0.10193856260E+02  0.51100000000E-03 0.  1.
        -12    1    3    3    0    0  0.24492976051E+02  0.12718450678E+02 -0.51704312971E+01  0.28078429858E+02  0.00000000000E+00 0.  1.
</event>
<event>
 7    1  0.1202531E-011  0.5930196E+02  0.7816164E-02  0.1266605E+00
        -11   -1    0    0    0    0  0.00000000000E+00  0.00000000000E+00  0.45593999997E+02  0.45594000000E+02  0.51100000000E-03 0.  1.
         11   -1    0    0    0    0 -0.00000000000E+00 -0.00000000000E+00 -0.45593999997E+02  0.45594000000E+02  0.51100000000E-03 0. -1.
    9900012    2    1    2    0    0  0.24789850479E+02  0.11179214647E+02 -0.16649568497E+02  0.59301958257E+02  0.50000025951E+02 0.  0.
        -12    1    1    2    0    0 -0.24789850479E+02 -0.11179214647E+02  0.16649568497E+02  0.31886041743E+02  0.00000000000E+00 0.  1.
         11    1    3    3    0    0  0.64004888851E+01  0.15790879574E+02 -0.11718089565E+02  0.20679259151E+02  0.51100000000E-03 0. -1.
        -11    1    3    3    0    0  0.24636115563E+02 -0.40811711279E+00  0.59901582889E+01  0.25357183325E+02  0.51100000000E-03 0.  1.
         12    1    3    3    0    0 -0.62467539682E+01 -0.42035478146E+01 -0.10921637221E+02  0.13265515781E+02  0.00000000000E+00 0. -1.
</event>
<event>
 7    1  0.1202531E-011  0.5930198E+02  0.7816164E-02  0.1266605E+00
        -11   -1    0    0    0    0  0.00000000000E+00  0.00000000000E+00  0.45593999997E+02  0.45594000000E+02  0.51100000000E-03 0.  1.
         11   -1    0    0    0    0 -0.00000000000E+00 -0.00000000000E+00 -0.45593999997E+02  0.45594000000E+02  0.51100000000E-03 0. -1.
    9900012    2    1    2    0    0  0.70197521641E+01 -0.15268254888E+02 -0.27098374275E+02  0.59301977732E+02  0.50000061468E+02 0.  0.
        -12    1    1    2    0    0 -0.70197521641E+01  0.15268254888E+02  0.27098374275E+02  0.31886022268E+02  0.00000000000E+00 0.  1.
         11    1    3    3    0    0  0.15908486416E+02  0.10874417889E+00 -0.36122717958E+01  0.16313806213E+02  0.51100000000E-03 0. -1.
        -11    1    3    3    0    0  0.94951717580E+01  0.21777722002E+00 -0.24302828251E+00  0.95007776860E+01  0.51100000000E-03 0.  1.
        -12    1    3    3    0    0 -0.18383906010E+02 -0.15594776287E+02 -0.23243074196E+02  0.33487393833E+02  0.00000000000E+00 0.  1.
</event>
<event>
 7    1  0.1202531E-011  0.5930193E+02  0.7816164E-02  0.1266605E+00
        -11   -1    0    0    0    0  0.00000000000E+00  0.00000000000E+00  0.45593999997E+02  0.45594000000E+02  0.51100000000E-03 0. -1.
         11   -1    0    0    0    0 -0.00000000000E+00 -0.00000000000E+00 -0.45593999997E+02  0.45594000000E+02  0.51100000000E-03 0.  1.
    9900012    2    1    2    0    0  0.31281653982E+02 -0.18739258361E+01 -0.58879386041E+01  0.59301932589E+02  0.49999979139E+02 0.  0.
        -12    1    1    2    0    0 -0.31281653982E+02  0.18739258361E+01  0.58879386041E+01  0.31886067411E+02  0.00000000000E+00 0.  1.
         11    1    3    3    0    0 -0.26511686804E+01 -0.11353941006E+01  0.25530337643E+01  0.38517264699E+01  0.51100000000E-03 0. -1.
        -11    1    3    3    0    0 -0.10516797511E+01 -0.61248153463E+01 -0.17786226586E+02  0.18840627637E+02  0.51100000000E-03 0.  1.
         12    1    3    3    0    0  0.34984502414E+02  0.53862836108E+01  0.93452542176E+01  0.36609578483E+02  0.00000000000E+00 0. -1.
</event>
<event>
 7    1  0.1202531E-011  0.5930187E+02  0.7816164E-02  0.1266605E+00
        -11   -1    0    0    0    0  0.00000000000E+00  0.00000000000E+00  0.45593999997E+02  0.45594000000E+02  0.51100000000E-03 0.  1.
         11   -1    0    0    0    0 -0.00000000000E+00 -0.00000000000E+00 -0.45593999997E+02  0.45594000000E+02  0.51100000000E-03 0. -1.
    9900012    2    1    2    0    0 -0.15223937870E+02 -0.15488223834E+02 -0.23346781857E+02  0.59301865319E+02  0.49999856454E+02 0.  0.
        -12    1    1    2    0    0  0.15223937870E+02  0.15488223834E+02  0.23346781857E+02  0.31886134681E+02  0.00000000000E+00 0.  1.
         11    1    3    3    0    0  0.10115167058E+02 -0.99151921861E+01 -0.16525686317E+02  0.21765246362E+02  0.51100000000E-03 0. -1.
        -11    1    3    3    0    0 -0.17086839761E+02 -0.13813305505E+02  0.31455034408E+01  0.22195983739E+02  0.51100000000E-03 0.  1.
         12    1    3    3    0    0 -0.82522651677E+01  0.82402738568E+01 -0.99665989817E+01  0.15340635218E+02  0.00000000000E+00 0. -1.
</event>
<event>
 7    1  0.1202531E-011  0.5930194E+02  0.7816164E-02  0.1266605E+00
        -11   -1    0    0    0    0  0.00000000000E+00  0.00000000000E+00  0.45593999997E+02  0.45594000000E+02  0.51100000000E-03 0.  1.
         11   -1    0    0    0    0 -0.00000000000E+00 -0.00000000000E+00 -0.45593999997E+02  0.45594000000E+02  0.51100000000E-03 0. -1.
    9900012    2    1    2    0    0 -0.20803885365E+02 -0.11155552158E+01 -0.24138650619E+02  0.59301944059E+02  0.50000000058E+02 0.  0.
        -12    1    1    2    0    0  0.20803885365E+02  0.11155552158E+01  0.24138650619E+02  0.31886055941E+02  0.00000000000E+00 0.  1.
         11    1    3    3    0    0 -0.46536247766E+01 -0.10688968581E+01 -0.25997324697E+02  0.26432170847E+02  0.51100000000E-03 0. -1.
        -11    1    3    3    0    0  0.58882950544E+01  0.49256847246E+01 -0.51157158844E+01  0.92252337599E+01  0.51100000000E-03 0.  1.
         12    1    3    3    0    0 -0.22038555643E+02 -0.49723430822E+01  0.69743899620E+01  0.23644539452E+02  0.00000000000E+00 0. -1.
</event>
<event>
 7    1  0.1202531E-011  0.5930194E+02  0.7816164E-02  0.1266605E+00
        -11   -1    0    0    0    0  0.00000000000E+00  0.00000000000E+00  0.45593999997E+02  0.45594000000E+02  0.51100000000E-03 0.  1.
         11   -1    0    0    0    0 -0.00000000000E+00 -0.00000000000E+00 -0.45593999997E+02  0.45594000000E+02  0.51100000000E-03 0. -1.
    9900012    2    1    2    0    0  0.11224534156E+02 -0.15179975417E+02 -0.25696287138E+02  0.59301937318E+02  0.49999987764E+02 0.  0.
        -12    1    1    2    0    0 -0.11224534156E+02  0.15179975417E+02  0.25696287138E+02  0.31886062682E+02  0.00000000000E+00 0.  1.
         11    1    3    3    0    0  0.49302549494E+01  0.10632445813E+02 -0.86619645005E+01  0.14573467230E+02  0.51100000000E-03 0. -1.
        -11    1    3    3    0    0 -0.35354396061E+01  0.56066175180E+01  0.17101516921E+01  0.68452985525E+01  0.51100000000E-03 0.  1.
         12    1    3    3    0    0  0.98297188124E+01 -0.31419038748E+02 -0.18744474329E+02  0.37883171536E+02  0.00000000000E+00 0. -1.
</event>
<event>
 7    1  0.1202531E-011  0.5930194E+02  0.7816164E-02  0.1266605E+00
        -11   -1    0    0    0    0  0.00000000000E+00  0.00000000000E+00  0.45593999997E+02  0.45594000000E+02  0.51100000000E-03 0. -1.
         11   -1    0    0    0    0 -0.00000000000E+00 -0.00000000000E+00 -0.45593999997E+02  0.45594000000E+02  0.51100000000E-03 0.  1.
    9900012    2    1    2    0    0 -0.25481649273E+02 -0.16208354767E+02  0.10232073024E+02  0.59301944548E+02  0.50000000949E+02 0.  0.
        -12    1    1    2    0    0  0.25481649273E+02  0.16208354767E+02 -0.10232073024E+02  0.31886055452E+02  0.00000000000E+00 0.  1.
         11    1    3    3    0    0 -0.39619178643E+01 -0.14648237916E+02  0.17256450579E+02  0.22979398470E+02  0.51100000000E-03 0. -1.
        -11    1    3    3    0    0  0.43286678081E+00 -0.84239146501E+01 -0.10053460834E+02  0.13123329863E+02  0.51100000000E-03 0.  1.
        -12    1    3    3    0    0 -0.21952598189E+02  0.68637977987E+01  0.30290832787E+01  0.23199216215E+02  0.00000000000E+00 0.  1.
</event>
<event>
 7    1  0.1202531E-011  0.5930190E+02  0.7816164E-02  0.1266605E+00
        -11   -1    0    0    0    0  0.00000000000E+00  0.00000000000E+00  0.45593999997E+02  0.45594000000E+02  0.51100000000E-03 0.  1.
         11   -1    0    0    0    0 -0.00000000000E+00 -0.00000000000E+00 -0.45593999997E+02  0.45594000000E+02  0.51100000000E-03 0. -1.
    9900012    2    1    2    0    0  0.13336935781E+02 -0.86223815200E+01 -0.27649661054E+02  0.59301904668E+02  0.49999928218E+02 0.  0.
        -12    1    1    2    0    0 -0.13336935781E+02  0.86223815200E+01  0.27649661054E+02  0.31886095332E+02  0.00000000000E+00 0.  1.
         11    1    3    3    0    0  0.78325245760E+01 -0.13961913102E+02 -0.13262716089E+02  0.20789013854E+02  0.51100000000E-03 0. -1.
        -11    1    3    3    0    0  0.49660064238E+01 -0.86270819155E+01  0.75555395581E+01  0.12496957248E+02  0.51100000000E-03 0.  1.
        -12    1    3    3    0    0  0.53840478080E+00  0.13966613497E+02 -0.21942484524E+02  0.26015933567E+02  0.00000000000E+00 0.  1.
</event>
<event>
 7    1  0.1202531E-011  0.5930195E+02  0.7816164E-02  0.1266605E+00
        -11   -1    0    0    0    0  0.00000000000E+00  0.00000000000E+00  0.45593999997E+02  0.45594000000E+02  0.51100000000E-03 0.  1.
         11   -1    0    0    0    0 -0.00000000000E+00 -0.00000000000E+00 -0.45593999997E+02  0.45594000000E+02  0.51100000000E-03 0. -1.
    9900012    2    1    2    0    0  0.24707506996E+01  0.31520449749E+02  0.41324177802E+01  0.59301949161E+02  0.50000009361E+02 0.  0.
        -12    1    1    2    0    0 -0.24707506996E+01 -0.31520449749E+02 -0.41324177802E+01  0.31886050839E+02  0.00000000000E+00 0.  1.
         11    1    3    3    0    0  0.10273630048E+02  0.60618939338E+01  0.91741330854E+01  0.15048546460E+02  0.51100000000E-03 0. -1.
        -11    1    3    3    0    0 -0.30652615943E+01 -0.60677125914E+01  0.73843997351E+01  0.10037047596E+02  0.51100000000E-03 0.  1.
        -12    1    3    3    0    0 -0.47376177543E+01  0.31526268407E+02 -0.12426115040E+02  0.34216355105E+02  0.00000000000E+00 0.  1.
</event>
<event>
 7    1  0.1202531E-011  0.5930193E+02  0.7816164E-02  0.1266605E+00
        -11   -1    0    0    0    0  0.00000000000E+00  0.00000000000E+00  0.45593999997E+02  0.45594000000E+02  0.51100000000E-03 0.  1.
         11   -1    0    0    0    0 -0.00000000000E+00 -0.00000000000E+00 -0.45593999997E+02  0.45594000000E+02  0.51100000000E-03 0. -1.
    9900012    2    1    2    0    0 -0.95642353354E+01  0.57332241244E+01 -0.29872675916E+02  0.59301933720E+02  0.49999981201E+02 0.  0.
        -12    1    1    2    0    0  0.95642353354E+01 -0.57332241244E+01  0.29872675916E+02  0.31886066280E+02  0.00000000000E+00 0.  1.
         11    1    3    3    0    0 -0.12215282041E+02  0.20678620413E+02 -0.18365702637E+02  0.30234375984E+02  0.51100000000E-03 0. -1.
        -11    1    3    3    0    0 -0.34034214175E+01 -0.10081071887E+01 -0.13300988790E+02  0.13766475965E+02  0.51100000000E-03 0.  1.
        -12    1    3    3    0    0  0.60544681232E+01 -0.13937289100E+02  0.17940155104E+01  0.15301081771E+02  0.00000000000E+00 0.  1.
</event>
<event>
 7    1  0.1202531E-011  0.5930194E+02  0.7816164E-02  0.1266605E+00
        -11   -1    0    0    0    0  0.00000000000E+00  0.00000000000E+00  0.45593999997E+02  0.45594000000E+02  0.51100000000E-03 0.  1.
         11   -1    0    0    0    0 -0.00000000000E+00 -0.00000000000E+00 -0.45593999997E+02  0.45594000000E+02  0.51100000000E-03 0. -1.
    9900012    2    1    2    0    0 -0.26878970426E+01 -0.16855202484E+02 -0.26933215555E+02  0.59301941269E+02  0.49999994969E+02 0.  0.
        -12    1    1    2    0    0  0.26878970426E+01  0.16855202484E+02  0.26933215555E+02  0.31886058731E+02  0.00000000000E+00 0.  1.
         11    1    3    3    0    0  0.67162151630E+01 -0.11992128207E+02 -0.16867503082E+02  0.21758477555E+02  0.51100000000E-03 0. -1.
        -11    1    3    3    0    0 -0.11700428935E+02 -0.69355202094E+01  0.10226320784E+02  0.17017024267E+02  0.51100000000E-03 0.  1.
         12    1    3    3    0    0  0.22963167298E+01  0.20724459326E+01 -0.20292033257E+02  0.20526439447E+02  0.00000000000E+00 0. -1.
</event>
<event>
 7    1  0.1202531E-011  0.5930191E+02  0.7816164E-02  0.1266605E+00
        -11   -1    0    0    0    0  0.00000000000E+00  0.00000000000E+00  0.45593999997E+02  0.45594000000E+02  0.51100000000E-03 0.  1.
         11   -1    0    0    0    0 -0.00000000000E+00 -0.00000000000E+00 -0.45593999997E+02  0.45594000000E+02  0.51100000000E-03 0. -1.
    9900012    2    1    2    0    0  0.91189638217E+00 -0.29338235598E+02 -0.12456282304E+02  0.59301912252E+02  0.49999942048E+02 0.  0.
        -12    1    1    2    0    0 -0.91189638217E+00  0.29338235598E+02  0.12456282304E+02  0.31886087748E+02  0.00000000000E+00 0.  1.
         11    1    3    3    0    0  0.78521498162E+01 -0.13845113747E+02  0.82909459260E+00  0.15938344629E+02  0.51100000000E-03 0. -1.
        -11    1    3    3    0    0  0.59737088157E+01 -0.57583205007E+01 -0.23032366114E+02  0.24481285528E+02  0.51100000000E-03 0.  1.
        -12    1    3    3    0    0 -0.12913962250E+02 -0.97348013505E+01  0.97469892172E+01  0.18882282095E+02  0.00000000000E+00 0.  1.
</event>
<event>
 7    1  0.1202531E-011  0.5930196E+02  0.7816164E-02  0.1266605E+00
        -11   -1    0    0    0    0  0.00000000000E+00  0.00000000000E+00  0.45593999997E+02  0.45594000000E+02  0.51100000000E-03 0.  1.
         11   -1    0    0    0    0 -0.00000000000E+00 -0.00000000000E+00 -0.45593999997E+02  0.45594000000E+02  0.51100000000E-03 0. -1.
    9900012    2    1    2    0    0  0.57197583107E+01  0.25064327955E+02 -0.18862224307E+02  0.59301957963E+02  0.50000025415E+02 0.  0.
        -12    1    1    2    0    0 -0.57197583107E+01 -0.25064327955E+02  0.18862224307E+02  0.31886042037E+02  0.00000000000E+00 0.  1.
         11    1    3    3    0    0 -0.39888191839E+01 -0.53922898144E+01  0.84171491214E+01  0.10762707258E+02  0.51100000000E-03 0. -1.
        -11    1    3    3    0    0 -0.26088005560E+01 -0.10947837080E+01 -0.10241117664E+02  0.10624729783E+02  0.51100000000E-03 0.  1.
        -12    1    3    3    0    0  0.12317378051E+02  0.31551401478E+02 -0.17038255765E+02  0.37914520922E+02  0.00000000000E+00 0.  1.
</event>
<event>
 7    1  0.1202531E-011  0.5930194E+02  0.7816164E-02  0.1266605E+00
        -11   -1    0    0    0    0  0.00000000000E+00  0.00000000000E+00  0.45593999997E+02  0.45594000000E+02  0.51100000000E-03 0.  1.
         11   -1    0    0    0    0 -0.00000000000E+00 -0.00000000000E+00 -0.45593999997E+02  0.45594000000E+02  0.51100000000E-03 0. -1.
    9900012    2    1    2    0    0  0.10836294989E+02 -0.46087537841E+01 -0.29631991762E+02  0.59301939780E+02  0.49999992254E+02 0.  0.
        -12    1    1    2    0    0 -0.10836294989E+02  0.46087537841E+01  0.29631991762E+02  0.31886060220E+02  0.00000000000E+00 0.  1.
         11    1    3    3    0    0  0.88283572548E+01 -0.13418833273E+01 -0.36927320671E+02  0.37991677442E+02  0.51100000000E-03 0. -1.
        -11    1    3    3    0    0  0.24536041796E+01  0.81807173368E+01  0.25841029482E+01  0.89231103279E+01  0.51100000000E-03 0.  1.
        -12    1    3    3    0    0 -0.44566644549E+00 -0.11447587794E+02  0.47112259605E+01  0.12387152010E+02  0.00000000000E+00 0.  1.
</event>
<event>
 7    1  0.1202531E-011  0.5930193E+02  0.7816164E-02  0.1266605E+00
        -11   -1    0    0    0    0  0.00000000000E+00  0.00000000000E+00  0.45593999997E+02  0.45594000000E+02  0.51100000000E-03 0. -1.
         11   -1    0    0    0    0 -0.00000000000E+00 -0.00000000000E+00 -0.45593999997E+02  0.45594000000E+02  0.51100000000E-03 0.  1.
    9900012    2    1    2    0    0  0.55589534792E+01 -0.31011465596E+02  0.49100440199E+01  0.59301929460E+02  0.49999973432E+02 0.  0.
        -12    1    1    2    0    0 -0.55589534792E+01  0.31011465596E+02 -0.49100440199E+01  0.31886070540E+02  0.00000000000E+00 0.  1.
         11    1    3    3    0    0  0.13458451754E+02 -0.73266543260E+00  0.94311403112E+01  0.16450323100E+02  0.51100000000E-03 0. -1.
        -11    1    3    3    0    0 -0.42338361525E+01 -0.10753473776E+02  0.12258370573E+02  0.16847261385E+02  0.51100000000E-03 0.  1.
        -12    1    3    3    0    0 -0.36656621222E+01 -0.19525326388E+02 -0.16779466865E+02  0.26004344975E+02  0.00000000000E+00 0.  1.
</event>
<event>
 7    1  0.1202531E-011  0.5930196E+02  0.7816164E-02  0.1266605E+00
        -11   -1    0    0    0    0  0.00000000000E+00  0.00000000000E+00  0.45593999997E+02  0.45594000000E+02  0.51100000000E-03 0. -1.
         11   -1    0    0    0    0 -0.00000000000E+00 -0.00000000000E+00 -0.45593999997E+02  0.45594000000E+02  0.51100000000E-03 0.  1.
    9900012    2    1    2    0    0  0.25147212660E+02  0.15833118549E+02  0.11560686151E+02  0.59301962118E+02  0.50000032992E+02 0.  0.
        -12    1    1    2    0    0 -0.25147212660E+02 -0.15833118549E+02 -0.11560686151E+02  0.31886037882E+02  0.00000000000E+00 0.  1.
         11    1    3    3    0    0  0.18853982164E+02  0.29920269419E+00 -0.31236799627E+01  0.19113334153E+02  0.51100000000E-03 0. -1.
        -11    1    3    3    0    0 -0.74391485476E+01 -0.75151416786E+01  0.44662346264E+01  0.11478917090E+02  0.51100000000E-03 0.  1.
         12    1    3    3    0    0  0.13732379043E+02  0.23049057534E+02  0.10218131488E+02  0.28709710874E+02  0.00000000000E+00 0. -1.
</event>
<event>
 7    1  0.1202531E-011  0.5930195E+02  0.7816164E-02  0.1266605E+00
        -11   -1    0    0    0    0  0.00000000000E+00  0.00000000000E+00  0.45593999997E+02  0.45594000000E+02  0.51100000000E-03 0. -1.
         11   -1    0    0    0    0 -0.00000000000E+00 -0.00000000000E+00 -0.45593999997E+02  0.45594000000E+02  0.51100000000E-03 0.  1.
    9900012    2    1    2    0    0  0.24517293395E+02  0.82478423782E+01  0.18643908019E+02  0.59301954690E+02  0.50000019445E+02 0.  0.
        -12    1    1    2    0    0 -0.24517293395E+02 -0.82478423782E+01 -0.18643908019E+02  0.31886045310E+02  0.00000000000E+00 0.  1.
         11    1    3    3    0    0  0.30659800327E+02 -0.26261515900E+01  0.67071315247E+01  0.31494533523E+02  0.51100000000E-03 0. -1.
        -11    1    3    3    0    0  0.93148122400E+00  0.34408590682E+01 -0.60947316716E+01  0.70606602246E+01  0.51100000000E-03 0.  1.
        -12    1    3    3    0    0 -0.70739881562E+01  0.74331348999E+01  0.18031508165E+02  0.20746760942E+02  0.00000000000E+00 0.  1.
</event>
<event>
 7    1  0.1202531E-011  0.5930197E+02  0.7816164E-02  0.1266605E+00
        -11   -1    0    0    0    0  0.00000000000E+00  0.00000000000E+00  0.45593999997E+02  0.45594000000E+02  0.51100000000E-03 0. -1.
         11   -1    0    0    0    0 -0.00000000000E+00 -0.00000000000E+00 -0.45593999997E+02  0.45594000000E+02  0.51100000000E-03 0.  1.
    9900012    2    1    2    0    0  0.21432937896E+02  0.87516043600E+01  0.21926181464E+02  0.59301971095E+02  0.50000049365E+02 0.  0.
        -12    1    1    2    0    0 -0.21432937896E+02 -0.87516043600E+01 -0.21926181464E+02  0.31886028905E+02  0.00000000000E+00 0.  1.
         11    1    3    3    0    0  0.11651232602E+02  0.13940225832E+02  0.93507629923E+01  0.20433254420E+02  0.51100000000E-03 0. -1.
        -11    1    3    3    0    0 -0.61191159238E+01  0.11933399021E+02  0.47061015947E+01  0.14212564314E+02  0.51100000000E-03 0.  1.
        -12    1    3    3    0    0  0.15900821217E+02 -0.17122020493E+02  0.78693168771E+01  0.24656152362E+02  0.00000000000E+00 0.  1.
</event>
<event>
 7    1  0.1202531E-011  0.5930190E+02  0.7816164E-02  0.1266605E+00
        -11   -1    0    0    0    0  0.00000000000E+00  0.00000000000E+00  0.45593999997E+02  0.45594000000E+02  0.51100000000E-03 0. -1.
         11   -1    0    0    0    0 -0.00000000000E+00 -0.00000000000E+00 -0.45593999997E+02  0.45594000000E+02  0.51100000000E-03 0.  1.
    9900012    2    1    2    0    0 -0.26456633586E+02  0.17780798410E+02  0.78302615555E+00  0.59301899850E+02  0.49999919431E+02 0.  0.
        -12    1    1    2    0    0  0.26456633586E+02 -0.17780798410E+02 -0.78302615555E+00  0.31886100150E+02  0.00000000000E+00 0.  1.
         11    1    3    3    0    0 -0.60609154900E+01  0.25231249209E+02  0.49232660425E+01  0.26411913638E+02  0.51100000000E-03 0. -1.
        -11    1    3    3    0    0  0.14410990095E+00  0.67339339048E+01 -0.41823635530E+01  0.79283540946E+01  0.51100000000E-03 0.  1.
        -12    1    3    3    0    0 -0.20539827997E+02 -0.14184384704E+02  0.42123666130E-01  0.24961632117E+02  0.00000000000E+00 0.  1.
</event>
<event>
 7    1  0.1202531E-011  0.5930194E+02  0.7816164E-02  0.1266605E+00
        -11   -1    0    0    0    0  0.00000000000E+00  0.00000000000E+00  0.45593999997E+02  0.45594000000E+02  0.51100000000E-03 0. -1.
         11   -1    0    0    0    0 -0.00000000000E+00 -0.00000000000E+00 -0.45593999997E+02  0.45594000000E+02  0.51100000000E-03 0.  1.
    9900012    2    1    2    0    0  0.16338154804E+02  0.13434109380E+02  0.23860218106E+02  0.59301943403E+02  0.49999998861E+02 0.  0.
        -12    1    1    2    0    0 -0.16338154804E+02 -0.13434109380E+02 -0.23860218106E+02  0.31886056597E+02  0.00000000000E+00 0.  1.
         11    1    3    3    0    0  0.99394693997E+01  0.21389292835E+01  0.65177677009E+01  0.12076811106E+02  0.51100000000E-03 0.  1.
        -11    1    3    3    0    0  0.91817110875E+01 -0.42065553861E+01  0.26947405290E+02  0.28777796629E+02  0.51100000000E-03 0. -1.
        -12    1    3    3    0    0 -0.27830256832E+01  0.15501735483E+02 -0.96049548845E+01  0.18447335668E+02  0.00000000000E+00 0.  1.
</event>
<event>
 7    1  0.1202531E-011  0.5930174E+02  0.7816164E-02  0.1266605E+00
        -11   -1    0    0    0    0  0.00000000000E+00  0.00000000000E+00  0.45593999997E+02  0.45594000000E+02  0.51100000000E-03 0. -1.
         11   -1    0    0    0    0 -0.00000000000E+00 -0.00000000000E+00 -0.45593999997E+02  0.45594000000E+02  0.51100000000E-03 0.  1.
    9900012    2    1    2    0    0  0.14159412908E+02 -0.21883976284E+02  0.18366705939E+02  0.59301744670E+02  0.49999636418E+02 0.  0.
        -12    1    1    2    0    0 -0.14159412908E+02  0.21883976284E+02 -0.18366705939E+02  0.31886255330E+02  0.00000000000E+00 0.  1.
         11    1    3    3    0    0 -0.26308463763E+01 -0.24358923691E+01 -0.23389173510E+01  0.42808245614E+01  0.51100000000E-03 0. -1.
        -11    1    3    3    0    0  0.93970719529E+01 -0.25808347594E+02 -0.46478683641E+01  0.27856389706E+02  0.51100000000E-03 0.  1.
        -12    1    3    3    0    0  0.73931873314E+01  0.63602636789E+01  0.25353491654E+02  0.27164530403E+02  0.00000000000E+00 0.  1.
</event>
<event>
 7    1  0.1202531E-011  0.5930194E+02  0.7816164E-02  0.1266605E+00
        -11   -1    0    0    0    0  0.00000000000E+00  0.00000000000E+00  0.45593999997E+02  0.45594000000E+02  0.51100000000E-03 0.  1.
         11   -1    0    0    0    0 -0.00000000000E+00 -0.00000000000E+00 -0.45593999997E+02  0.45594000000E+02  0.51100000000E-03 0. -1.
    9900012    2    1    2    0    0 -0.29175908121E+02 -0.51990149595E+01  0.11766800141E+02  0.59301937891E+02  0.49999988808E+02 0.  0.
        -12    1    1    2    0    0  0.29175908121E+02  0.51990149595E+01 -0.11766800141E+02  0.31886062109E+02  0.00000000000E+00 0.  1.
         11    1    3    3    0    0 -0.10986383385E+02 -0.18228389226E+02 -0.18241394834E+01  0.21361233082E+02  0.51100000000E-03 0. -1.
        -11    1    3    3    0    0 -0.78098952155E+01 -0.83300916170E+01  0.65831914820E+01  0.13180413498E+02  0.51100000000E-03 0.  1.
        -12    1    3    3    0    0 -0.10379629521E+02  0.21359465883E+02  0.70077481422E+01  0.24760291312E+02  0.00000000000E+00 0.  1.
</event>
<event>
 7    1  0.1202531E-011  0.5930194E+02  0.7816164E-02  0.1266605E+00
        -11   -1    0    0    0    0  0.00000000000E+00  0.00000000000E+00  0.45593999997E+02  0.45594000000E+02  0.51100000000E-03 0.  1.
         11   -1    0    0    0    0 -0.00000000000E+00 -0.00000000000E+00 -0.45593999997E+02  0.45594000000E+02  0.51100000000E-03 0. -1.
    9900012    2    1    2    0    0 -0.39442957990E+01  0.84689216139E+01 -0.30486725286E+02  0.59301944720E+02  0.50000001263E+02 0.  0.
        -12    1    1    2    0    0  0.39442957990E+01 -0.84689216139E+01  0.30486725286E+02  0.31886055280E+02  0.00000000000E+00 0.  1.
         11    1    3    3    0    0 -0.10194908310E+02 -0.65378480374E+00 -0.13041458791E+02  0.16566328431E+02  0.51100000000E-03 0. -1.
        -11    1    3    3    0    0  0.56771161355E+01  0.21387278297E+02 -0.20411524527E+02  0.30104412539E+02  0.51100000000E-03 0.  1.
        -12    1    3    3    0    0  0.57349637601E+00 -0.12264571879E+02  0.29662580315E+01  0.12631203750E+02  0.00000000000E+00 0.  1.
</event>
<event>
 7    1  0.1202531E-011  0.5930193E+02  0.7816164E-02  0.1266605E+00
        -11   -1    0    0    0    0  0.00000000000E+00  0.00000000000E+00  0.45593999997E+02  0.45594000000E+02  0.51100000000E-03 0.  1.
         11   -1    0    0    0    0 -0.00000000000E+00 -0.00000000000E+00 -0.45593999997E+02  0.45594000000E+02  0.51100000000E-03 0. -1.
    9900012    2    1    2    0    0 -0.88957777072E+01 -0.12017845125E+02 -0.28163059796E+02  0.59301930949E+02  0.49999976147E+02 0.  0.
        -12    1    1    2    0    0  0.88957777072E+01  0.12017845125E+02  0.28163059796E+02  0.31886069051E+02  0.00000000000E+00 0.  1.
         11    1    3    3    0    0 -0.11643169319E+02 -0.22389633415E+02 -0.89883922367E+01  0.26788995343E+02  0.51100000000E-03 0. -1.
        -11    1    3    3    0    0  0.97415634636E+01 -0.36553232273E+01 -0.95273882231E+01  0.14107819577E+02  0.51100000000E-03 0.  1.
        -12    1    3    3    0    0 -0.69941718520E+01  0.14027111517E+02 -0.96472793364E+01  0.18405116028E+02  0.00000000000E+00 0.  1.
</event>
<event>
 7    1  0.1202531E-011  0.5930194E+02  0.7816164E-02  0.1266605E+00
        -11   -1    0    0    0    0  0.00000000000E+00  0.00000000000E+00  0.45593999997E+02  0.45594000000E+02  0.51100000000E-03 0.  1.
         11   -1    0    0    0    0 -0.00000000000E+00 -0.00000000000E+00 -0.45593999997E+02  0.45594000000E+02  0.51100000000E-03 0. -1.
    9900012    2    1    2    0    0 -0.12334440715E+02  0.28481260503E+02  0.73075294893E+01  0.59301943254E+02  0.49999998589E+02 0.  0.
        -12    1    1    2    0    0  0.12334440715E+02 -0.28481260503E+02 -0.73075294893E+01  0.31886056746E+02  0.00000000000E+00 0.  1.
         11    1    3    3    0    0 -0.15437792970E+02  0.24324507653E+02 -0.61143916705E+01  0.29451534937E+02  0.51100000000E-03 0. -1.
        -11    1    3    3    0    0  0.11639175219E+02  0.10339738443E+02  0.49774261735E+01  0.16344887960E+02  0.51100000000E-03 0.  1.
        -12    1    3    3    0    0 -0.85358229644E+01 -0.61829855942E+01  0.84444949862E+01  0.13505520357E+02  0.00000000000E+00 0.  1.
</event>
<event>
 7    1  0.1202531E-011  0.5930198E+02  0.7816164E-02  0.1266605E+00
        -11   -1    0    0    0    0  0.00000000000E+00  0.00000000000E+00  0.45593999997E+02  0.45594000000E+02  0.51100000000E-03 0.  1.
         11   -1    0    0    0    0 -0.00000000000E+00 -0.00000000000E+00 -0.45593999997E+02  0.45594000000E+02  0.51100000000E-03 0. -1.
    9900012    2    1    2    0    0  0.19062913359E+02  0.37832184871E+01 -0.25278661407E+02  0.59301982212E+02  0.50000069639E+02 0.  0.
        -12    1    1    2    0    0 -0.19062913359E+02 -0.37832184871E+01  0.25278661407E+02  0.31886017788E+02  0.00000000000E+00 0.  1.
         11    1    3    3    0    0  0.10777416782E+02 -0.79506099032E+00 -0.20746703720E+02  0.23392531928E+02  0.51100000000E-03 0. -1.
        -11    1    3    3    0    0  0.63910600048E+01 -0.10361466453E+02 -0.13661618524E+02  0.18298782910E+02  0.51100000000E-03 0.  1.
         12    1    3    3    0    0  0.18944365713E+01  0.14939745930E+02  0.91296608361E+01  0.17610667374E+02  0.00000000000E+00 0. -1.
</event>
<event>
 7    1  0.1202531E-011  0.5930194E+02  0.7816164E-02  0.1266605E+00
        -11   -1    0    0    0    0  0.00000000000E+00  0.00000000000E+00  0.45593999997E+02  0.45594000000E+02  0.51100000000E-03 0.  1.
         11   -1    0    0    0    0 -0.00000000000E+00 -0.00000000000E+00 -0.45593999997E+02  0.45594000000E+02  0.51100000000E-03 0. -1.
    9900012    2    1    2    0    0  0.28376251442E+02  0.91497586483E+01 -0.11304472044E+02  0.59301940077E+02  0.49999992795E+02 0.  0.
        -12    1    1    2    0    0 -0.28376251442E+02 -0.91497586483E+01  0.11304472044E+02  0.31886059923E+02  0.00000000000E+00 0.  1.
         11    1    3    3    0    0 -0.59060979157E+01  0.67534608716E+00  0.55309020965E+01  0.81196652141E+01  0.51100000000E-03 0. -1.
        -11    1    3    3    0    0  0.72102123281E+01 -0.96306877335E+01  0.38124138320E+01  0.12620293480E+02  0.51100000000E-03 0.  1.
         12    1    3    3    0    0  0.27072137030E+02  0.18105100295E+02 -0.20647787972E+02  0.38561981383E+02  0.00000000000E+00 0. -1.
</event>
<event>
 7    1  0.1202531E-011  0.5930195E+02  0.7816164E-02  0.1266605E+00
        -11   -1    0    0    0    0  0.00000000000E+00  0.00000000000E+00  0.45593999997E+02  0.45594000000E+02  0.51100000000E-03 0.  1.
         11   -1    0    0    0    0 -0.00000000000E+00 -0.00000000000E+00 -0.45593999997E+02  0.45594000000E+02  0.51100000000E-03 0. -1.
    9900012    2    1    2    0    0  0.25226125054E+02 -0.82997497269E+01 -0.17648705823E+02  0.59301952142E+02  0.50000014799E+02 0.  0.
        -12    1    1    2    0    0 -0.25226125054E+02  0.82997497269E+01  0.17648705823E+02  0.31886047858E+02  0.00000000000E+00 0.  1.
         11    1    3    3    0    0  0.15068998777E+02 -0.15033691529E+01  0.16248264554E+01  0.15230722380E+02  0.51100000000E-03 0. -1.
        -11    1    3    3    0    0  0.55650752662E+01 -0.16448570532E+02  0.45577018514E+01  0.17952665030E+02  0.51100000000E-03 0.  1.
         12    1    3    3    0    0  0.45920510102E+01  0.96521899580E+01 -0.23831234130E+02  0.26118564732E+02  0.00000000000E+00 0. -1.
</event>
<event>
 7    1  0.1202531E-011  0.5930193E+02  0.7816164E-02  0.1266605E+00
        -11   -1    0    0    0    0  0.00000000000E+00  0.00000000000E+00  0.45593999997E+02  0.45594000000E+02  0.51100000000E-03 0.  1.
         11   -1    0    0    0    0 -0.00000000000E+00 -0.00000000000E+00 -0.45593999997E+02  0.45594000000E+02  0.51100000000E-03 0. -1.
    9900012    2    1    2    0    0  0.35413423253E+01  0.10858158033E+02 -0.29770467811E+02  0.59301930079E+02  0.49999974561E+02 0.  0.
        -12    1    1    2    0    0 -0.35413423253E+01 -0.10858158033E+02  0.29770467811E+02  0.31886069921E+02  0.00000000000E+00 0.  1.
         11    1    3    3    0    0  0.22958771008E+02  0.16661254764E+02 -0.20862840395E+02  0.35213075499E+02  0.51100000000E-03 0. -1.
        -11    1    3    3    0    0 -0.44663969691E+01  0.18519417336E+00  0.17233369459E+01  0.47909173712E+01  0.51100000000E-03 0.  1.
        -12    1    3    3    0    0 -0.14951031713E+02 -0.59882909044E+01 -0.10630964361E+02  0.19297937209E+02  0.00000000000E+00 0.  1.
</event>
<event>
 7    1  0.1202531E-011  0.5930198E+02  0.7816164E-02  0.1266605E+00
        -11   -1    0    0    0    0  0.00000000000E+00  0.00000000000E+00  0.45593999997E+02  0.45594000000E+02  0.51100000000E-03 0.  1.
         11   -1    0    0    0    0 -0.00000000000E+00 -0.00000000000E+00 -0.45593999997E+02  0.45594000000E+02  0.51100000000E-03 0. -1.
    9900012    2    1    2    0    0 -0.10606970077E+01 -0.27285754574E+02 -0.16464525325E+02  0.59301983080E+02  0.50000071222E+02 0.  0.
        -12    1    1    2    0    0  0.10606970077E+01  0.27285754574E+02  0.16464525325E+02  0.31886016920E+02  0.00000000000E+00 0.  1.
         11    1    3    3    0    0  0.74223334033E+01 -0.11832310573E+02  0.95409748881E+01  0.16915224170E+02  0.51100000000E-03 0. -1.
        -11    1    3    3    0    0 -0.10181241758E+02  0.59809116800E+01 -0.72612427730E+01  0.13861985252E+02  0.51100000000E-03 0.  1.
         12    1    3    3    0    0  0.16982113470E+01 -0.21434355682E+02 -0.18744257440E+02  0.28524773658E+02  0.00000000000E+00 0. -1.
</event>
<event>
 7    1  0.1202531E-011  0.5930216E+02  0.7816164E-02  0.1266604E+00
        -11   -1    0    0    0    0  0.00000000000E+00  0.00000000000E+00  0.45593999997E+02  0.45594000000E+02  0.51100000000E-03 0.  1.
         11   -1    0    0    0    0 -0.00000000000E+00 -0.00000000000E+00 -0.45593999997E+02  0.45594000000E+02  0.51100000000E-03 0. -1.
    9900012    2    1    2    0    0  0.39236641009E+01  0.10848212932E+02 -0.29725884313E+02  0.59302155774E+02  0.50000386174E+02 0.  0.
        -12    1    1    2    0    0 -0.39236641009E+01 -0.10848212932E+02  0.29725884313E+02  0.31885844226E+02  0.00000000000E+00 0.  1.
         11    1    3    3    0    0  0.22787800096E+01 -0.23610440241E+01 -0.33063481544E+02  0.33225911264E+02  0.51100000000E-03 0. -1.
        -11    1    3    3    0    0  0.99344639869E+01  0.10114009137E+02 -0.38341076932E+01  0.14686290805E+02  0.51100000000E-03 0.  1.
        -12    1    3    3    0    0 -0.82895798956E+01  0.30952478192E+01  0.71717049244E+01  0.11389953706E+02  0.00000000000E+00 0.  1.
</event>
<event>
 7    1  0.1202531E-011  0.5930190E+02  0.7816164E-02  0.1266605E+00
        -11   -1    0    0    0    0  0.00000000000E+00  0.00000000000E+00  0.45593999997E+02  0.45594000000E+02  0.51100000000E-03 0. -1.
         11   -1    0    0    0    0 -0.00000000000E+00 -0.00000000000E+00 -0.45593999997E+02  0.45594000000E+02  0.51100000000E-03 0.  1.
    9900012    2    1    2    0    0  0.81003175173E+01  0.82103473703E+01  0.29727067271E+02  0.59301898383E+02  0.49999916755E+02 0.  0.
        -12    1    1    2    0    0 -0.81003175173E+01 -0.82103473703E+01 -0.29727067271E+02  0.31886101617E+02  0.00000000000E+00 0.  1.
         11    1    3    3    0    0  0.87904630500E+01  0.16589024788E+02  0.15437092280E+02  0.24305797711E+02  0.51100000000E-03 0. -1.
        -11    1    3    3    0    0  0.37634961161E+01  0.90884322059E+01 -0.27258472081E+01  0.10207533798E+02  0.51100000000E-03 0.  1.
         12    1    3    3    0    0 -0.44536416489E+01 -0.17467109624E+02  0.17015822199E+02  0.24788566874E+02  0.00000000000E+00 0. -1.
</event>
<event>
 7    1  0.1202531E-011  0.5930192E+02  0.7816164E-02  0.1266605E+00
        -11   -1    0    0    0    0  0.00000000000E+00  0.00000000000E+00  0.45593999997E+02  0.45594000000E+02  0.51100000000E-03 0.  1.
         11   -1    0    0    0    0 -0.00000000000E+00 -0.00000000000E+00 -0.45593999997E+02  0.45594000000E+02  0.51100000000E-03 0. -1.
    9900012    2    1    2    0    0 -0.85760571818E+01 -0.65195394567E+01 -0.30011148189E+02  0.59301918912E+02  0.49999954195E+02 0.  0.
        -12    1    1    2    0    0  0.85760571818E+01  0.65195394567E+01  0.30011148189E+02  0.31886081088E+02  0.00000000000E+00 0.  1.
         11    1    3    3    0    0  0.20796399108E+01  0.59484591147E+01  0.68293472253E+01  0.92924190490E+01  0.51100000000E-03 0. -1.
        -11    1    3    3    0    0  0.57524644693E-01 -0.19849088310E+02 -0.16246122352E+02  0.25650070323E+02  0.51100000000E-03 0.  1.
         12    1    3    3    0    0 -0.10713221737E+02  0.73810897384E+01 -0.20594373062E+02  0.24359429540E+02  0.00000000000E+00 0. -1.
</event>
<event>
 7    1  0.1202531E-011  0.5930193E+02  0.7816164E-02  0.1266605E+00
        -11   -1    0    0    0    0  0.00000000000E+00  0.00000000000E+00  0.45593999997E+02  0.45594000000E+02  0.51100000000E-03 0.  1.
         11   -1    0    0    0    0 -0.00000000000E+00 -0.00000000000E+00 -0.45593999997E+02  0.45594000000E+02  0.51100000000E-03 0. -1.
    9900012    2    1    2    0    0 -0.24415756996E+02  0.13413887023E+02 -0.15513224737E+02  0.59301926293E+02  0.49999967655E+02 0.  0.
        -12    1    1    2    0    0  0.24415756996E+02 -0.13413887023E+02  0.15513224737E+02  0.31886073707E+02  0.00000000000E+00 0.  1.
         11    1    3    3    0    0 -0.27595005927E+02  0.15122988837E+02 -0.25347448694E+00  0.31468291867E+02  0.51100000000E-03 0. -1.
        -11    1    3    3    0    0 -0.67838481970E+01 -0.81043016672E+01 -0.34658180370E+01  0.11122598473E+02  0.51100000000E-03 0.  1.
        -12    1    3    3    0    0  0.99630971281E+01  0.63951998525E+01 -0.11793932213E+02  0.16711035952E+02  0.00000000000E+00 0.  1.
</event>
<event>
 7    1  0.1202531E-011  0.5930194E+02  0.7816164E-02  0.1266605E+00
        -11   -1    0    0    0    0  0.00000000000E+00  0.00000000000E+00  0.45593999997E+02  0.45594000000E+02  0.51100000000E-03 0. -1.
         11   -1    0    0    0    0 -0.00000000000E+00 -0.00000000000E+00 -0.45593999997E+02  0.45594000000E+02  0.51100000000E-03 0.  1.
    9900012    2    1    2    0    0  0.27266674243E+02  0.53379293901E+01  0.15644671780E+02  0.59301940827E+02  0.49999994163E+02 0.  0.
        -12    1    1    2    0    0 -0.27266674243E+02 -0.53379293901E+01 -0.15644671780E+02  0.31886059173E+02  0.00000000000E+00 0.  1.
         11    1    3    3    0    0 -0.43857755149E+01  0.33697393529E+01  0.21197133867E+01  0.59231204003E+01  0.51100000000E-03 0. -1.
        -11    1    3    3    0    0 -0.87308139764E+00 -0.82963408931E+00  0.20051110879E+02  0.20087249976E+02  0.51100000000E-03 0.  1.
        -12    1    3    3    0    0  0.32525531156E+02  0.27978241265E+01 -0.65261524865E+01  0.33291570451E+02  0.00000000000E+00 0.  1.
</event>
<event>
 7    1  0.1202531E-011  0.5930189E+02  0.7816164E-02  0.1266605E+00
        -11   -1    0    0    0    0  0.00000000000E+00  0.00000000000E+00  0.45593999997E+02  0.45594000000E+02  0.51100000000E-03 0.  1.
         11   -1    0    0    0    0 -0.00000000000E+00 -0.00000000000E+00 -0.45593999997E+02  0.45594000000E+02  0.51100000000E-03 0. -1.
    9900012    2    1    2    0    0 -0.25805504287E+02  0.28037894651E+01 -0.18518600068E+02  0.59301892754E+02  0.49999906488E+02 0.  0.
        -12    1    1    2    0    0  0.25805504287E+02 -0.28037894651E+01  0.18518600068E+02  0.31886107246E+02  0.00000000000E+00 0.  1.
         11    1    3    3    0    0 -0.11632788773E+02 -0.10160708336E+02 -0.78951910487E+00  0.15465610534E+02  0.51100000000E-03 0. -1.
        -11    1    3    3    0    0 -0.21656385470E+01 -0.52442500187E+01  0.81885929266E+01  0.99621886628E+01  0.51100000000E-03 0.  1.
         12    1    3    3    0    0 -0.12007076967E+02  0.18208747819E+02 -0.25917673890E+02  0.33874093557E+02  0.00000000000E+00 0. -1.
</event>
<event>
 7    1  0.1202531E-011  0.5930194E+02  0.7816164E-02  0.1266605E+00
        -11   -1    0    0    0    0  0.00000000000E+00  0.00000000000E+00  0.45593999997E+02  0.45594000000E+02  0.51100000000E-03 0.  1.
         11   -1    0    0    0    0 -0.00000000000E+00 -0.00000000000E+00 -0.45593999997E+02  0.45594000000E+02  0.51100000000E-03 0. -1.
    9900012    2    1    2    0    0 -0.29898271254E+01 -0.27984806171E+02 -0.14987739302E+02  0.59301940789E+02  0.49999994093E+02 0.  0.
        -12    1    1    2    0    0  0.29898271254E+01  0.27984806171E+02  0.14987739302E+02  0.31886059211E+02  0.00000000000E+00 0.  1.
         11    1    3    3    0    0  0.13452440662E+02 -0.12809790480E+02 -0.26165487945E+01  0.18759136967E+02  0.51100000000E-03 0. -1.
        -11    1    3    3    0    0 -0.39115743287E+01  0.57865443311E+01  0.66068545857E+01  0.96143141618E+01  0.51100000000E-03 0.  1.
         12    1    3    3    0    0 -0.12530693458E+02 -0.20961560022E+02 -0.18978045093E+02  0.30928489660E+02  0.00000000000E+00 0. -1.
</event>
<event>
 7    1  0.1202531E-011  0.5930193E+02  0.7816164E-02  0.1266605E+00
        -11   -1    0    0    0    0  0.00000000000E+00  0.00000000000E+00  0.45593999997E+02  0.45594000000E+02  0.51100000000E-03 0. -1.
         11   -1    0    0    0    0 -0.00000000000E+00 -0.00000000000E+00 -0.45593999997E+02  0.45594000000E+02  0.51100000000E-03 0.  1.
    9900012    2    1    2    0    0  0.16947188894E+02 -0.42092753347E+01  0.26679507243E+02  0.59301932243E+02  0.49999978508E+02 0.  0.
        -12    1    1    2    0    0 -0.16947188894E+02  0.42092753347E+01 -0.26679507243E+02  0.31886067757E+02  0.00000000000E+00 0.  1.
         11    1    3    3    0    0 -0.39846999902E+01  0.84342891113E+01  0.19340813486E+01  0.95265805906E+01  0.51100000000E-03 0. -1.
        -11    1    3    3    0    0  0.37675985867E+01 -0.81278689106E+00 -0.91803011369E+01  0.99565732492E+01  0.51100000000E-03 0.  1.
        -12    1    3    3    0    0  0.17164290298E+02 -0.11830777555E+02  0.33925727031E+02  0.39818778404E+02  0.00000000000E+00 0.  1.
</event>
<event>
 7    1  0.1202531E-011  0.5930194E+02  0.7816164E-02  0.1266605E+00
        -11   -1    0    0    0    0  0.00000000000E+00  0.00000000000E+00  0.45593999997E+02  0.45594000000E+02  0.51100000000E-03 0. -1.
         11   -1    0    0    0    0 -0.00000000000E+00 -0.00000000000E+00 -0.45593999997E+02  0.45594000000E+02  0.51100000000E-03 0.  1.
    9900012    2    1    2    0    0  0.18926990276E+02 -0.20409766020E+02  0.15554141803E+02  0.59301939768E+02  0.49999992232E+02 0.  0.
        -12    1    1    2    0    0 -0.18926990276E+02  0.20409766020E+02 -0.15554141803E+02  0.31886060232E+02  0.00000000000E+00 0.  1.
         11    1    3    3    0    0  0.57233500564E+01 -0.13588899963E+02  0.10537610011E+02  0.18123359597E+02  0.51100000000E-03 0. -1.
        -11    1    3    3    0    0 -0.10819761700E+02 -0.93817004465E+01  0.86754670360E+01  0.16743574142E+02  0.51100000000E-03 0.  1.
        -12    1    3    3    0    0  0.24023401919E+02  0.25608343903E+01 -0.36589352437E+01  0.24435006029E+02  0.00000000000E+00 0.  1.
</event>
<event>
 7    1  0.1202531E-011  0.5930194E+02  0.7816164E-02  0.1266605E+00
        -11   -1    0    0    0    0  0.00000000000E+00  0.00000000000E+00  0.45593999997E+02  0.45594000000E+02  0.51100000000E-03 0. -1.
         11   -1    0    0    0    0 -0.00000000000E+00 -0.00000000000E+00 -0.45593999997E+02  0.45594000000E+02  0.51100000000E-03 0.  1.
    9900012    2    1    2    0    0 -0.21954313683E+02 -0.88925156172E+01  0.21346005436E+02  0.59301942367E+02  0.49999996971E+02 0.  0.
        -12    1    1    2    0    0  0.21954313683E+02  0.88925156172E+01 -0.21346005436E+02  0.31886057633E+02  0.00000000000E+00 0.  1.
         11    1    3    3    0    0  0.18855446763E+01 -0.31653588860E+01  0.37910840345E+01  0.52865011133E+01  0.51100000000E-03 0. -1.
        -11    1    3    3    0    0 -0.31531972531E+02 -0.10847150452E+02  0.25381188308E+02  0.41906212962E+02  0.51100000000E-03 0.  1.
         12    1    3    3    0    0  0.76921141720E+01  0.51199937212E+01 -0.78262669055E+01  0.12109228292E+02  0.00000000000E+00 0. -1.
</event>
<event>
 7    1  0.1202531E-011  0.5930194E+02  0.7816164E-02  0.1266605E+00
        -11   -1    0    0    0    0  0.00000000000E+00  0.00000000000E+00  0.45593999997E+02  0.45594000000E+02  0.51100000000E-03 0. -1.
         11   -1    0    0    0    0 -0.00000000000E+00 -0.00000000000E+00 -0.45593999997E+02  0.45594000000E+02  0.51100000000E-03 0.  1.
    9900012    2    1    2    0    0  0.23424826671E+02 -0.74454810273E+01  0.20311650126E+02  0.59301939988E+02  0.49999992632E+02 0.  0.
        -12    1    1    2    0    0 -0.23424826671E+02  0.74454810273E+01 -0.20311650126E+02  0.31886060012E+02  0.00000000000E+00 0.  1.
         11    1    3    3    0    0  0.44276170054E+01  0.57142664658E+01  0.26979141105E+02  0.27930819691E+02  0.51100000000E-03 0.  1.
        -11    1    3    3    0    0  0.88488242506E+01 -0.11755395322E+02  0.52801558531E+01  0.15632372049E+02  0.51100000000E-03 0. -1.
        -12    1    3    3    0    0  0.10148385415E+02 -0.14043521712E+01 -0.11947646833E+02  0.15738748247E+02  0.00000000000E+00 0.  1.
</event>
<event>
 7    1  0.1202531E-011  0.5930195E+02  0.7816164E-02  0.1266605E+00
        -11   -1    0    0    0    0  0.00000000000E+00  0.00000000000E+00  0.45593999997E+02  0.45594000000E+02  0.51100000000E-03 0. -1.
         11   -1    0    0    0    0 -0.00000000000E+00 -0.00000000000E+00 -0.45593999997E+02  0.45594000000E+02  0.51100000000E-03 0.  1.
    9900012    2    1    2    0    0  0.21634542190E+02  0.22547808318E+02 -0.63453290324E+01  0.59301948563E+02  0.50000008272E+02 0.  0.
        -12    1    1    2    0    0 -0.21634542190E+02 -0.22547808318E+02  0.63453290324E+01  0.31886051437E+02  0.00000000000E+00 0.  1.
         11    1    3    3    0    0  0.24569022500E+02  0.17231055719E+02 -0.17779601449E+02  0.34880659050E+02  0.51100000000E-03 0. -1.
        -11    1    3    3    0    0  0.64490213342E+01 -0.45992402042E+01  0.44778306856E+01  0.90991128433E+01  0.51100000000E-03 0.  1.
        -12    1    3    3    0    0 -0.93835016436E+01  0.99159928023E+01  0.69564417312E+01  0.15322176670E+02  0.00000000000E+00 0.  1.
</event>
<event>
 7    1  0.1202531E-011  0.5930195E+02  0.7816164E-02  0.1266605E+00
        -11   -1    0    0    0    0  0.00000000000E+00  0.00000000000E+00  0.45593999997E+02  0.45594000000E+02  0.51100000000E-03 0. -1.
         11   -1    0    0    0    0 -0.00000000000E+00 -0.00000000000E+00 -0.45593999997E+02  0.45594000000E+02  0.51100000000E-03 0.  1.
    9900012    2    1    2    0    0 -0.10519897150E+02 -0.29516008028E+02 -0.59039740014E+01  0.59301954856E+02  0.50000019748E+02 0.  0.
        -12    1    1    2    0    0  0.10519897150E+02  0.29516008028E+02  0.59039740014E+01  0.31886045144E+02  0.00000000000E+00 0.  1.
         11    1    3    3    0    0 -0.12290882160E+02 -0.10500065129E+01  0.17774204590E+01  0.12463046245E+02  0.51100000000E-03 0. -1.
        -11    1    3    3    0    0 -0.15472320499E+02 -0.19271264213E+02 -0.10940843283E+02  0.27027326505E+02  0.51100000000E-03 0.  1.
        -12    1    3    3    0    0  0.17243305509E+02 -0.91947373021E+01  0.32594488226E+01  0.19811582107E+02  0.00000000000E+00 0.  1.
</event>
<event>
 7    1  0.1202531E-011  0.5930194E+02  0.7816164E-02  0.1266605E+00
        -11   -1    0    0    0    0  0.00000000000E+00  0.00000000000E+00  0.45593999997E+02  0.45594000000E+02  0.51100000000E-03 0.  1.
         11   -1    0    0    0    0 -0.00000000000E+00 -0.00000000000E+00 -0.45593999997E+02  0.45594000000E+02  0.51100000000E-03 0. -1.
    9900012    2    1    2    0    0  0.28064266447E+01 -0.11960833427E+02 -0.29424190672E+02  0.59301944059E+02  0.50000000057E+02 0.  0.
        -12    1    1    2    0    0 -0.28064266447E+01  0.11960833427E+02  0.29424190672E+02  0.31886055941E+02  0.00000000000E+00 0.  1.
         11    1    3    3    0    0  0.50181357007E+01  0.92632815816E+01 -0.26448557981E+02  0.28469567807E+02  0.51100000000E-03 0. -1.
        -11    1    3    3    0    0  0.90103356122E+01 -0.46080518292E+01 -0.36820656396E+01  0.10769303466E+02  0.51100000000E-03 0.  1.
        -12    1    3    3    0    0 -0.11222044668E+02 -0.16616063180E+02  0.70643294916E+00  0.20063072786E+02  0.00000000000E+00 0.  1.
</event>
<event>
 7    1  0.1202531E-011  0.5930195E+02  0.7816164E-02  0.1266605E+00
        -11   -1    0    0    0    0  0.00000000000E+00  0.00000000000E+00  0.45593999997E+02  0.45594000000E+02  0.51100000000E-03 0.  1.
         11   -1    0    0    0    0 -0.00000000000E+00 -0.00000000000E+00 -0.45593999997E+02  0.45594000000E+02  0.51100000000E-03 0. -1.
    9900012    2    1    2    0    0  0.16827976038E+02 -0.16646213452E+02 -0.21364530263E+02  0.59301947357E+02  0.50000006072E+02 0.  0.
        -12    1    1    2    0    0 -0.16827976038E+02  0.16646213452E+02  0.21364530263E+02  0.31886052643E+02  0.00000000000E+00 0.  1.
         11    1    3    3    0    0  0.34719285502E+01  0.47923126920E+01 -0.20436607138E+02  0.21276171187E+02  0.51100000000E-03 0. -1.
        -11    1    3    3    0    0  0.10931705811E+02 -0.14950426293E+02 -0.14010342311E+02  0.23222987108E+02  0.51100000000E-03 0.  1.
        -12    1    3    3    0    0  0.24243416765E+01 -0.64880998511E+01  0.13082419187E+02  0.14802789062E+02  0.00000000000E+00 0.  1.
</event>
<event>
 7    1  0.1202531E-011  0.5930193E+02  0.7816164E-02  0.1266605E+00
        -11   -1    0    0    0    0  0.00000000000E+00  0.00000000000E+00  0.45593999997E+02  0.45594000000E+02  0.51100000000E-03 0. -1.
         11   -1    0    0    0    0 -0.00000000000E+00 -0.00000000000E+00 -0.45593999997E+02  0.45594000000E+02  0.51100000000E-03 0.  1.
    9900012    2    1    2    0    0  0.19851812752E+02 -0.45851690759E+01  0.24527595370E+02  0.59301934397E+02  0.49999982436E+02 0.  0.
        -12    1    1    2    0    0 -0.19851812752E+02  0.45851690759E+01 -0.24527595370E+02  0.31886065603E+02  0.00000000000E+00 0.  1.
         11    1    3    3    0    0  0.99587602596E+01  0.18724926610E+02  0.17641163921E+02  0.27586417803E+02  0.51100000000E-03 0. -1.
        -11    1    3    3    0    0 -0.31086829558E+01 -0.22074599620E+01 -0.31781929005E+01  0.49636377363E+01  0.51100000000E-03 0.  1.
        -12    1    3    3    0    0  0.13001735448E+02 -0.21102635723E+02  0.10064624349E+02  0.26751878858E+02  0.00000000000E+00 0.  1.
</event>
<event>
 7    1  0.1202531E-011  0.5930206E+02  0.7816164E-02  0.1266604E+00
        -11   -1    0    0    0    0  0.00000000000E+00  0.00000000000E+00  0.45593999997E+02  0.45594000000E+02  0.51100000000E-03 0.  1.
         11   -1    0    0    0    0 -0.00000000000E+00 -0.00000000000E+00 -0.45593999997E+02  0.45594000000E+02  0.51100000000E-03 0. -1.
    9900012    2    1    2    0    0 -0.77298343377E+01  0.30278757857E+02 -0.63371546148E+01  0.59302061958E+02  0.50000215075E+02 0.  0.
        -12    1    1    2    0    0  0.77298343377E+01 -0.30278757857E+02  0.63371546148E+01  0.31885938042E+02  0.00000000000E+00 0.  1.
         11    1    3    3    0    0 -0.24413567156E+02  0.10465693498E+02 -0.56787718142E+01  0.27162500828E+02  0.51100000000E-03 0. -1.
        -11    1    3    3    0    0  0.50636988009E+01  0.15689958742E+02 -0.74175101672E+01  0.18078587008E+02  0.51100000000E-03 0.  1.
        -12    1    3    3    0    0  0.11620034017E+02  0.41231056168E+01  0.67591273666E+01  0.14060974121E+02  0.00000000000E+00 0.  1.
</event>
<event>
 7    1  0.1202531E-011  0.5930195E+02  0.7816164E-02  0.1266605E+00
        -11   -1    0    0    0    0  0.00000000000E+00  0.00000000000E+00  0.45593999997E+02  0.45594000000E+02  0.51100000000E-03 0. -1.
         11   -1    0    0    0    0 -0.00000000000E+00 -0.00000000000E+00 -0.45593999997E+02  0.45594000000E+02  0.51100000000E-03 0.  1.
    9900012    2    1    2    0    0  0.25296927308E+02  0.99648298692E+01  0.16657959087E+02  0.59301953420E+02  0.50000017129E+02 0.  0.
        -12    1    1    2    0    0 -0.25296927308E+02 -0.99648298692E+01 -0.16657959087E+02  0.31886046580E+02  0.00000000000E+00 0.  1.
         11    1    3    3    0    0  0.77515067902E+01  0.13233176319E+02  0.21260068525E+02  0.26214372527E+02  0.51100000000E-03 0. -1.
        -11    1    3    3    0    0 -0.44730961535E+01  0.29572616991E+01  0.58464400830E+01  0.79331486725E+01  0.51100000000E-03 0.  1.
        -12    1    3    3    0    0  0.22018516672E+02 -0.62256081487E+01 -0.10448549521E+02  0.25154432221E+02  0.00000000000E+00 0.  1.
</event>
<event>
 7    1  0.1202531E-011  0.5930194E+02  0.7816164E-02  0.1266605E+00
        -11   -1    0    0    0    0  0.00000000000E+00  0.00000000000E+00  0.45593999997E+02  0.45594000000E+02  0.51100000000E-03 0.  1.
         11   -1    0    0    0    0 -0.00000000000E+00 -0.00000000000E+00 -0.45593999997E+02  0.45594000000E+02  0.51100000000E-03 0. -1.
    9900012    2    1    2    0    0  0.30961118240E+02  0.33700304538E+01 -0.68390712182E+01  0.59301939674E+02  0.49999992061E+02 0.  0.
        -12    1    1    2    0    0 -0.30961118240E+02 -0.33700304538E+01  0.68390712182E+01  0.31886060326E+02  0.00000000000E+00 0.  1.
         11    1    3    3    0    0  0.11999094724E+02 -0.13386365407E+02  0.60688070915E+01  0.18973757477E+02  0.51100000000E-03 0. -1.
        -11    1    3    3    0    0  0.20820587894E+02  0.43115576060E+01  0.13584302353E+01  0.21305673944E+02  0.51100000000E-03 0.  1.
         12    1    3    3    0    0 -0.18585643781E+01  0.12444838255E+02 -0.14266308545E+02  0.19022508253E+02  0.00000000000E+00 0. -1.
</event>
<event>
 7    1  0.1202531E-011  0.5930195E+02  0.7816164E-02  0.1266605E+00
        -11   -1    0    0    0    0  0.00000000000E+00  0.00000000000E+00  0.45593999997E+02  0.45594000000E+02  0.51100000000E-03 0.  1.
         11   -1    0    0    0    0 -0.00000000000E+00 -0.00000000000E+00 -0.45593999997E+02  0.45594000000E+02  0.51100000000E-03 0. -1.
    9900012    2    1    2    0    0 -0.25599620913E+02  0.16845758129E+02 -0.88090751923E+01  0.59301953466E+02  0.50000017213E+02 0.  0.
        -12    1    1    2    0    0  0.25599620913E+02 -0.16845758129E+02  0.88090751923E+01  0.31886046534E+02  0.00000000000E+00 0.  1.
         11    1    3    3    0    0 -0.35585921785E+01 -0.63248986049E+01 -0.15890800721E+02  0.17469558336E+02  0.51100000000E-03 0. -1.
        -11    1    3    3    0    0  0.68232663032E+00 -0.28407916643E+01  0.66800508140E+01  0.72910044609E+01  0.51100000000E-03 0.  1.
         12    1    3    3    0    0 -0.22723355365E+02  0.26011448398E+02  0.40167471434E+00  0.34541390669E+02  0.00000000000E+00 0. -1.
</event>
<event>
 7    1  0.1202531E-011  0.5930193E+02  0.7816164E-02  0.1266605E+00
        -11   -1    0    0    0    0  0.00000000000E+00  0.00000000000E+00  0.45593999997E+02  0.45594000000E+02  0.51100000000E-03 0. -1.
         11   -1    0    0    0    0 -0.00000000000E+00 -0.00000000000E+00 -0.45593999997E+02  0.45594000000E+02  0.51100000000E-03 0.  1.
    9900012    2    1    2    0    0 -0.11970400660E+02  0.29098566135E+02  0.51676132689E+01  0.59301932980E+02  0.49999979852E+02 0.  0.
        -12    1    1    2    0    0  0.11970400660E+02 -0.29098566135E+02 -0.51676132689E+01  0.31886067020E+02  0.00000000000E+00 0.  1.
         11    1    3    3    0    0 -0.19173773163E+01  0.18197920393E+02  0.10198372952E+02  0.20948686200E+02  0.51100000000E-03 0. -1.
        -11    1    3    3    0    0 -0.14957858365E+02  0.19539709871E+02 -0.10790975515E+02  0.26869740258E+02  0.51100000000E-03 0.  1.
         12    1    3    3    0    0  0.49048350210E+01 -0.86390641285E+01  0.57602158326E+01  0.11483506522E+02  0.00000000000E+00 0. -1.
</event>
<event>
 7    1  0.1202531E-011  0.5930193E+02  0.7816164E-02  0.1266605E+00
        -11   -1    0    0    0    0  0.00000000000E+00  0.00000000000E+00  0.45593999997E+02  0.45594000000E+02  0.51100000000E-03 0.  1.
         11   -1    0    0    0    0 -0.00000000000E+00 -0.00000000000E+00 -0.45593999997E+02  0.45594000000E+02  0.51100000000E-03 0. -1.
    9900012    2    1    2    0    0  0.61589237411E+01  0.24665503548E+02 -0.19245829728E+02  0.59301931430E+02  0.49999977025E+02 0.  0.
        -12    1    1    2    0    0 -0.61589237411E+01 -0.24665503548E+02  0.19245829728E+02  0.31886068570E+02  0.00000000000E+00 0.  1.
         11    1    3    3    0    0  0.70208417616E+01 -0.80496344464E+01 -0.53478835467E+01  0.11945237229E+02  0.51100000000E-03 0. -1.
        -11    1    3    3    0    0  0.66697410128E+01  0.12869397620E+02  0.82506207682E+01  0.16678716485E+02  0.51100000000E-03 0.  1.
         12    1    3    3    0    0 -0.75316590333E+01  0.19845740374E+02 -0.22148566950E+02  0.30677977716E+02  0.00000000000E+00 0. -1.
</event>
<event>
 7    1  0.1202531E-011  0.5930196E+02  0.7816164E-02  0.1266605E+00
        -11   -1    0    0    0    0  0.00000000000E+00  0.00000000000E+00  0.45593999997E+02  0.45594000000E+02  0.51100000000E-03 0. -1.
         11   -1    0    0    0    0 -0.00000000000E+00 -0.00000000000E+00 -0.45593999997E+02  0.45594000000E+02  0.51100000000E-03 0.  1.
    9900012    2    1    2    0    0 -0.91048166015E+01  0.13088940084E+02  0.27613430235E+02  0.59301959681E+02  0.50000028549E+02 0.  0.
        -12    1    1    2    0    0  0.91048166015E+01 -0.13088940084E+02 -0.27613430235E+02  0.31886040319E+02  0.00000000000E+00 0.  1.
         11    1    3    3    0    0  0.24720578081E+01  0.28269323882E+02  0.11132354707E+02  0.30482701064E+02  0.51100000000E-03 0. -1.
        -11    1    3    3    0    0  0.21123301569E+01  0.87282084810E+00  0.30426102757E+01  0.38054214583E+01  0.51100000000E-03 0.  1.
        -12    1    3    3    0    0 -0.13689204567E+02 -0.16053204647E+02  0.13438465252E+02  0.25013837159E+02  0.00000000000E+00 0.  1.
</event>
<event>
 7    1  0.1202531E-011  0.5930194E+02  0.7816164E-02  0.1266605E+00
        -11   -1    0    0    0    0  0.00000000000E+00  0.00000000000E+00  0.45593999997E+02  0.45594000000E+02  0.51100000000E-03 0.  1.
         11   -1    0    0    0    0 -0.00000000000E+00 -0.00000000000E+00 -0.45593999997E+02  0.45594000000E+02  0.51100000000E-03 0. -1.
    9900012    2    1    2    0    0  0.15839887517E+02 -0.27155826071E+02  0.53272719891E+01  0.59301941087E+02  0.49999994637E+02 0.  0.
        -12    1    1    2    0    0 -0.15839887517E+02  0.27155826071E+02 -0.53272719891E+01  0.31886058913E+02  0.00000000000E+00 0.  1.
         11    1    3    3    0    0  0.20540775253E+01 -0.14451424607E+01 -0.29401910459E+01  0.38668326650E+01  0.51100000000E-03 0.  1.
        -11    1    3    3    0    0 -0.13629066787E+02 -0.17587801299E+02  0.13979035130E+02  0.26277283715E+02  0.51100000000E-03 0. -1.
         12    1    3    3    0    0  0.27414876779E+02 -0.81228823112E+01 -0.57115720952E+01  0.29157824707E+02  0.00000000000E+00 0. -1.
</event>
<event>
 7    1  0.1202531E-011  0.5930182E+02  0.7816164E-02  0.1266605E+00
        -11   -1    0    0    0    0  0.00000000000E+00  0.00000000000E+00  0.45593999997E+02  0.45594000000E+02  0.51100000000E-03 0. -1.
         11   -1    0    0    0    0 -0.00000000000E+00 -0.00000000000E+00 -0.45593999997E+02  0.45594000000E+02  0.51100000000E-03 0.  1.
    9900012    2    1    2    0    0 -0.10379359900E+02 -0.67967440077E+01  0.29373483201E+02  0.59301821859E+02  0.49999777194E+02 0.  0.
        -12    1    1    2    0    0  0.10379359900E+02  0.67967440077E+01 -0.29373483201E+02  0.31886178141E+02  0.00000000000E+00 0.  1.
         11    1    3    3    0    0  0.33668336755E+01 -0.84698239530E+01 -0.11961363963E+01  0.91926181979E+01  0.51100000000E-03 0. -1.
        -11    1    3    3    0    0 -0.82030497075E+01 -0.16285717112E+02  0.60447750436E+01  0.19210775933E+02  0.51100000000E-03 0.  1.
         12    1    3    3    0    0 -0.55431438684E+01  0.17958797058E+02  0.24524844554E+02  0.30898427728E+02  0.00000000000E+00 0. -1.
</event>
<event>
 7    1  0.1202531E-011  0.5930195E+02  0.7816164E-02  0.1266605E+00
        -11   -1    0    0    0    0  0.00000000000E+00  0.00000000000E+00  0.45593999997E+02  0.45594000000E+02  0.51100000000E-03 0. -1.
         11   -1    0    0    0    0 -0.00000000000E+00 -0.00000000000E+00 -0.45593999997E+02  0.45594000000E+02  0.51100000000E-03 0.  1.
    9900012    2    1    2    0    0 -0.24924417745E+01 -0.13313616221E+02  0.28866163880E+02  0.59301951953E+02  0.50000014455E+02 0.  0.
        -12    1    1    2    0    0  0.24924417745E+01  0.13313616221E+02 -0.28866163880E+02  0.31886048047E+02  0.00000000000E+00 0.  1.
         11    1    3    3    0    0 -0.19775093423E+01 -0.24195113677E+02  0.23252136448E+02  0.33615114438E+02  0.51100000000E-03 0. -1.
        -11    1    3    3    0    0  0.77379500248E+00  0.11859010280E+02  0.13297941233E+02  0.17834520594E+02  0.51100000000E-03 0.  1.
        -12    1    3    3    0    0 -0.12887274347E+01 -0.97751282397E+00 -0.76839138014E+01  0.78523169211E+01  0.00000000000E+00 0.  1.
</event>
<event>
 7    1  0.1202531E-011  0.5930188E+02  0.7816164E-02  0.1266605E+00
        -11   -1    0    0    0    0  0.00000000000E+00  0.00000000000E+00  0.45593999997E+02  0.45594000000E+02  0.51100000000E-03 0. -1.
         11   -1    0    0    0    0 -0.00000000000E+00 -0.00000000000E+00 -0.45593999997E+02  0.45594000000E+02  0.51100000000E-03 0.  1.
    9900012    2    1    2    0    0 -0.15523592840E+02 -0.17046032045E+02 -0.22026693387E+02  0.59301884452E+02  0.49999891348E+02 0.  0.
        -12    1    1    2    0    0  0.15523592840E+02  0.17046032045E+02  0.22026693387E+02  0.31886115548E+02  0.00000000000E+00 0.  1.
         11    1    3    3    0    0 -0.12341672951E+02 -0.13026626723E+02  0.12959492653E+00  0.17945102120E+02  0.51100000000E-03 0. -1.
        -11    1    3    3    0    0 -0.17569599269E+02 -0.64814780331E+01 -0.18467403967E+02  0.26301052935E+02  0.51100000000E-03 0.  1.
         12    1    3    3    0    0  0.14387679379E+02  0.24620727110E+01 -0.36888843466E+01  0.15055729397E+02  0.00000000000E+00 0. -1.
</event>
<event>
 7    1  0.1202531E-011  0.5930194E+02  0.7816164E-02  0.1266605E+00
        -11   -1    0    0    0    0  0.00000000000E+00  0.00000000000E+00  0.45593999997E+02  0.45594000000E+02  0.51100000000E-03 0. -1.
         11   -1    0    0    0    0 -0.00000000000E+00 -0.00000000000E+00 -0.45593999997E+02  0.45594000000E+02  0.51100000000E-03 0.  1.
    9900012    2    1    2    0    0  0.25080860077E+01 -0.29778508544E+02  0.11120727964E+02  0.59301942593E+02  0.49999997383E+02 0.  0.
        -12    1    1    2    0    0 -0.25080860077E+01  0.29778508544E+02 -0.11120727964E+02  0.31886057407E+02  0.00000000000E+00 0.  1.
         11    1    3    3    0    0 -0.15080110887E+02 -0.96459124200E+01  0.72913799863E+01  0.19329190183E+02  0.51100000000E-03 0. -1.
        -11    1    3    3    0    0 -0.35726147054E+01 -0.44452624159E+01  0.11244036913E+02  0.12607628649E+02  0.51100000000E-03 0.  1.
        -12    1    3    3    0    0  0.21160811600E+02 -0.15687333708E+02 -0.74146889348E+01  0.27365123761E+02  0.00000000000E+00 0.  1.
</event>
<event>
 7    1  0.1202531E-011  0.5930198E+02  0.7816164E-02  0.1266605E+00
        -11   -1    0    0    0    0  0.00000000000E+00  0.00000000000E+00  0.45593999997E+02  0.45594000000E+02  0.51100000000E-03 0. -1.
         11   -1    0    0    0    0 -0.00000000000E+00 -0.00000000000E+00 -0.45593999997E+02  0.45594000000E+02  0.51100000000E-03 0.  1.
    9900012    2    1    2    0    0  0.18334748028E+02  0.24991465289E+02 -0.74821263080E+01  0.59301975842E+02  0.50000058021E+02 0.  0.
        -12    1    1    2    0    0 -0.18334748028E+02 -0.24991465289E+02  0.74821263080E+01  0.31886024158E+02  0.00000000000E+00 0.  1.
         11    1    3    3    0    0  0.31379982275E+01  0.12624814151E+02  0.43876742479E+01  0.13728971221E+02  0.51100000000E-03 0. -1.
        -11    1    3    3    0    0 -0.80690513573E+01 -0.92188038101E+01 -0.37811128259E+01  0.12821573537E+02  0.51100000000E-03 0.  1.
         12    1    3    3    0    0  0.23265801158E+02  0.21585454948E+02 -0.80886877301E+01  0.32751431084E+02  0.00000000000E+00 0. -1.
</event>
<event>
 7    1  0.1202531E-011  0.5930194E+02  0.7816164E-02  0.1266605E+00
        -11   -1    0    0    0    0  0.00000000000E+00  0.00000000000E+00  0.45593999997E+02  0.45594000000E+02  0.51100000000E-03 0.  1.
         11   -1    0    0    0    0 -0.00000000000E+00 -0.00000000000E+00 -0.45593999997E+02  0.45594000000E+02  0.51100000000E-03 0. -1.
    9900012    2    1    2    0    0  0.21059182227E+02  0.62289529181E+01  0.23117777218E+02  0.59301942953E+02  0.49999998039E+02 0.  0.
        -12    1    1    2    0    0 -0.21059182227E+02 -0.62289529181E+01 -0.23117777218E+02  0.31886057047E+02  0.00000000000E+00 0.  1.
         11    1    3    3    0    0  0.14587394033E+02 -0.98285123442E+01  0.15026858107E+01  0.17653605425E+02  0.51100000000E-03 0. -1.
        -11    1    3    3    0    0 -0.92861794020E+01 -0.37220963856E+01  0.37443649215E+01  0.10682106455E+02  0.51100000000E-03 0.  1.
        -12    1    3    3    0    0  0.15757967596E+02  0.19779561648E+02  0.17870726485E+02  0.30966231073E+02  0.00000000000E+00 0.  1.
</event>
<event>
 7    1  0.1202531E-011  0.5930195E+02  0.7816164E-02  0.1266605E+00
        -11   -1    0    0    0    0  0.00000000000E+00  0.00000000000E+00  0.45593999997E+02  0.45594000000E+02  0.51100000000E-03 0. -1.
         11   -1    0    0    0    0 -0.00000000000E+00 -0.00000000000E+00 -0.45593999997E+02  0.45594000000E+02  0.51100000000E-03 0.  1.
    9900012    2    1    2    0    0 -0.27827690279E+02 -0.38390497016E+01 -0.15086466394E+02  0.59301951058E+02  0.50000012822E+02 0.  0.
        -12    1    1    2    0    0  0.27827690279E+02  0.38390497016E+01  0.15086466394E+02  0.31886048942E+02  0.00000000000E+00 0.  1.
         11    1    3    3    0    0 -0.29637751181E+01 -0.18253047658E+02  0.18929936585E+01  0.18588736832E+02  0.51100000000E-03 0. -1.
        -11    1    3    3    0    0 -0.12337522737E+02  0.13916218939E+02  0.11932226947E+01  0.18635970527E+02  0.51100000000E-03 0.  1.
        -12    1    3    3    0    0 -0.12526392424E+02  0.49777901800E+00 -0.18172682747E+02  0.22077243699E+02  0.00000000000E+00 0.  1.
</event>
<event>
 7    1  0.1202531E-011  0.5930194E+02  0.7816164E-02  0.1266605E+00
        -11   -1    0    0    0    0  0.00000000000E+00  0.00000000000E+00  0.45593999997E+02  0.45594000000E+02  0.51100000000E-03 0.  1.
         11   -1    0    0    0    0 -0.00000000000E+00 -0.00000000000E+00 -0.45593999997E+02  0.45594000000E+02  0.51100000000E-03 0. -1.
    9900012    2    1    2    0    0  0.28343119971E+02 -0.67317637993E+01 -0.12964250012E+02  0.59301939222E+02  0.49999991236E+02 0.  0.
        -12    1    1    2    0    0 -0.28343119971E+02  0.67317637993E+01  0.12964250012E+02  0.31886060778E+02  0.00000000000E+00 0.  1.
         11    1    3    3    0    0  0.26296065004E+01  0.79746457979E+01 -0.15983054968E+02  0.18054579816E+02  0.51100000000E-03 0. -1.
        -11    1    3    3    0    0  0.19129679745E+02  0.51159347427E+01  0.45032276896E+01  0.20307547742E+02  0.51100000000E-03 0.  1.
         12    1    3    3    0    0  0.65838337262E+01 -0.19822344340E+02 -0.14844227327E+01  0.20939811664E+02  0.00000000000E+00 0. -1.
</event>
<event>
 7    1  0.1202531E-011  0.5930190E+02  0.7816164E-02  0.1266605E+00
        -11   -1    0    0    0    0  0.00000000000E+00  0.00000000000E+00  0.45593999997E+02  0.45594000000E+02  0.51100000000E-03 0.  1.
         11   -1    0    0    0    0 -0.00000000000E+00 -0.00000000000E+00 -0.45593999997E+02  0.45594000000E+02  0.51100000000E-03 0. -1.
    9900012    2    1    2    0    0 -0.95983838857E+01 -0.18115171458E+02 -0.24422023417E+02  0.59301895849E+02  0.49999912133E+02 0.  0.
        -12    1    1    2    0    0  0.95983838857E+01  0.18115171458E+02  0.24422023417E+02  0.31886104151E+02  0.00000000000E+00 0.  1.
         11    1    3    3    0    0 -0.29241279584E+00 -0.20590685943E+02 -0.71247143369E+01  0.21790443031E+02  0.51100000000E-03 0. -1.
        -11    1    3    3    0    0 -0.39246726666E+01 -0.11249035513E+02  0.31318235161E+01  0.12318773247E+02  0.51100000000E-03 0.  1.
         12    1    3    3    0    0 -0.53812984233E+01  0.13724549998E+02 -0.20429132596E+02  0.25192679571E+02  0.00000000000E+00 0. -1.
</event>
<event>
 7    1  0.1202531E-011  0.5930196E+02  0.7816164E-02  0.1266605E+00
        -11   -1    0    0    0    0  0.00000000000E+00  0.00000000000E+00  0.45593999997E+02  0.45594000000E+02  0.51100000000E-03 0. -1.
         11   -1    0    0    0    0 -0.00000000000E+00 -0.00000000000E+00 -0.45593999997E+02  0.45594000000E+02  0.51100000000E-03 0.  1.
    9900012    2    1    2    0    0  0.22666227128E+02 -0.88662585655E+00  0.22409271548E+02  0.59301962163E+02  0.50000033075E+02 0.  0.
        -12    1    1    2    0    0 -0.22666227128E+02  0.88662585655E+00 -0.22409271548E+02  0.31886037837E+02  0.00000000000E+00 0.  1.
         11    1    3    3    0    0  0.15273525176E+02  0.81400606488E+01  0.16492174160E+02  0.23906755686E+02  0.51100000000E-03 0. -1.
        -11    1    3    3    0    0 -0.11333925148E+01  0.11384323148E+02  0.67056218798E+01  0.13260948578E+02  0.51100000000E-03 0.  1.
        -12    1    3    3    0    0  0.85260944669E+01 -0.20411009653E+02 -0.78852449177E+00  0.22134257900E+02  0.00000000000E+00 0.  1.
</event>
<event>
 7    1  0.1202531E-011  0.5930194E+02  0.7816164E-02  0.1266605E+00
        -11   -1    0    0    0    0  0.00000000000E+00  0.00000000000E+00  0.45593999997E+02  0.45594000000E+02  0.51100000000E-03 0.  1.
         11   -1    0    0    0    0 -0.00000000000E+00 -0.00000000000E+00 -0.45593999997E+02  0.45594000000E+02  0.51100000000E-03 0. -1.
    9900012    2    1    2    0    0 -0.30376282393E+02  0.60671795577E+01 -0.75625161479E+01  0.59301939562E+02  0.49999991855E+02 0.  0.
        -12    1    1    2    0    0  0.30376282393E+02 -0.60671795577E+01  0.75625161479E+01  0.31886060438E+02  0.00000000000E+00 0.  1.
         11    1    3    3    0    0 -0.21866296970E+02  0.12491431835E+02  0.10799971986E+02  0.27400916183E+02  0.51100000000E-03 0. -1.
        -11    1    3    3    0    0 -0.41571592768E+01  0.90157964328E+01 -0.55762797369E+01  0.11386898372E+02  0.51100000000E-03 0.  1.
        -12    1    3    3    0    0 -0.43528261458E+01 -0.15440048710E+02 -0.12786208397E+02  0.20514125007E+02  0.00000000000E+00 0.  1.
</event>
<event>
 7    1  0.1202531E-011  0.5930193E+02  0.7816164E-02  0.1266605E+00
        -11   -1    0    0    0    0  0.00000000000E+00  0.00000000000E+00  0.45593999997E+02  0.45594000000E+02  0.51100000000E-03 0.  1.
         11   -1    0    0    0    0 -0.00000000000E+00 -0.00000000000E+00 -0.45593999997E+02  0.45594000000E+02  0.51100000000E-03 0. -1.
    9900012    2    1    2    0    0 -0.24145466815E+02  0.40898930744E+01 -0.20420352165E+02  0.59301928188E+02  0.49999971112E+02 0.  0.
        -12    1    1    2    0    0  0.24145466815E+02 -0.40898930744E+01  0.20420352165E+02  0.31886071812E+02  0.00000000000E+00 0.  1.
         11    1    3    3    0    0  0.11917580843E+02  0.56628889288E+01  0.28975427203E+01  0.13508989535E+02  0.51100000000E-03 0. -1.
        -11    1    3    3    0    0 -0.13974279200E+02 -0.78733521071E+01 -0.64179995805E+01  0.17276020127E+02  0.51100000000E-03 0.  1.
        -12    1    3    3    0    0 -0.22088768458E+02  0.63003562526E+01 -0.16899895305E+02  0.28516918526E+02  0.00000000000E+00 0.  1.
</event>
<event>
 7    1  0.1202531E-011  0.5930193E+02  0.7816164E-02  0.1266605E+00
        -11   -1    0    0    0    0  0.00000000000E+00  0.00000000000E+00  0.45593999997E+02  0.45594000000E+02  0.51100000000E-03 0.  1.
         11   -1    0    0    0    0 -0.00000000000E+00 -0.00000000000E+00 -0.45593999997E+02  0.45594000000E+02  0.51100000000E-03 0. -1.
    9900012    2    1    2    0    0 -0.30779288875E+02  0.36157583178E+01 -0.75022036097E+01  0.59301931085E+02  0.49999976396E+02 0.  0.
        -12    1    1    2    0    0  0.30779288875E+02 -0.36157583178E+01  0.75022036097E+01  0.31886068915E+02  0.00000000000E+00 0.  1.
         11    1    3    3    0    0  0.18329545913E+01 -0.93333881069E+01  0.72860124793E+01  0.11981562260E+02  0.51100000000E-03 0. -1.
        -11    1    3    3    0    0  0.99093651390E+00 -0.21225306874E+01 -0.98948343470E+01  0.10168325266E+02  0.51100000000E-03 0.  1.
         12    1    3    3    0    0 -0.33603179980E+02  0.15071677112E+02 -0.48933817419E+01  0.37152043559E+02  0.00000000000E+00 0. -1.
</event>
<event>
 7    1  0.1202531E-011  0.5930197E+02  0.7816164E-02  0.1266605E+00
        -11   -1    0    0    0    0  0.00000000000E+00  0.00000000000E+00  0.45593999997E+02  0.45594000000E+02  0.51100000000E-03 0.  1.
         11   -1    0    0    0    0 -0.00000000000E+00 -0.00000000000E+00 -0.45593999997E+02  0.45594000000E+02  0.51100000000E-03 0. -1.
    9900012    2    1    2    0    0  0.20850050172E+02  0.21664135031E+02  0.10614132720E+02  0.59301966189E+02  0.50000040416E+02 0.  0.
        -12    1    1    2    0    0 -0.20850050172E+02 -0.21664135031E+02 -0.10614132720E+02  0.31886033811E+02  0.00000000000E+00 0.  1.
         11    1    3    3    0    0  0.12255276267E+02  0.24029864882E+01 -0.13232254520E+02  0.18195018559E+02  0.51100000000E-03 0. -1.
        -11    1    3    3    0    0 -0.93643280713E+01  0.72523048389E+01  0.75548692758E+01  0.14048580560E+02  0.51100000000E-03 0.  1.
        -12    1    3    3    0    0  0.17959101977E+02  0.12008843704E+02  0.16291517964E+02  0.27058367070E+02  0.00000000000E+00 0.  1.
</event>
<event>
 7    1  0.1202531E-011  0.5930196E+02  0.7816164E-02  0.1266605E+00
        -11   -1    0    0    0    0  0.00000000000E+00  0.00000000000E+00  0.45593999997E+02  0.45594000000E+02  0.51100000000E-03 0.  1.
         11   -1    0    0    0    0 -0.00000000000E+00 -0.00000000000E+00 -0.45593999997E+02  0.45594000000E+02  0.51100000000E-03 0. -1.
    9900012    2    1    2    0    0  0.11709762551E+02 -0.13451065449E+02 -0.26432365360E+02  0.59301958552E+02  0.50000026489E+02 0.  0.
        -12    1    1    2    0    0 -0.11709762551E+02  0.13451065449E+02  0.26432365360E+02  0.31886041448E+02  0.00000000000E+00 0.  1.
         11    1    3    3    0    0  0.64725731332E+01 -0.49468720659E+00 -0.23655401778E+01  0.69090302497E+01  0.51100000000E-03 0. -1.
        -11    1    3    3    0    0  0.99862723531E+01  0.14578254340E+00  0.10880512771E+02  0.14769307583E+02  0.51100000000E-03 0.  1.
        -12    1    3    3    0    0 -0.47490829355E+01 -0.13102160786E+02 -0.34947337953E+02  0.37623620719E+02  0.00000000000E+00 0.  1.
</event>
<event>
 7    1  0.1202531E-011  0.5930200E+02  0.7816164E-02  0.1266605E+00
        -11   -1    0    0    0    0  0.00000000000E+00  0.00000000000E+00  0.45593999997E+02  0.45594000000E+02  0.51100000000E-03 0.  1.
         11   -1    0    0    0    0 -0.00000000000E+00 -0.00000000000E+00 -0.45593999997E+02  0.45594000000E+02  0.51100000000E-03 0. -1.
    9900012    2    1    2    0    0 -0.35943317733E+00  0.28830158801E+02 -0.13616527729E+02  0.59301998744E+02  0.50000099789E+02 0.  0.
        -12    1    1    2    0    0  0.35943317733E+00 -0.28830158801E+02  0.13616527729E+02  0.31886001256E+02  0.00000000000E+00 0.  1.
         11    1    3    3    0    0 -0.28918100250E+01  0.22856785372E+01 -0.21620331374E+02  0.21932296291E+02  0.51100000000E-03 0. -1.
        -11    1    3    3    0    0  0.12831659075E+02  0.78259894811E+01  0.18964591768E+01  0.15149064118E+02  0.51100000000E-03 0.  1.
        -12    1    3    3    0    0 -0.10299282227E+02  0.18718490783E+02  0.61073444683E+01  0.22220638335E+02  0.00000000000E+00 0.  1.
</event>
<event>
 7    1  0.1202531E-011  0.5930192E+02  0.7816164E-02  0.1266605E+00
        -11   -1    0    0    0    0  0.00000000000E+00  0.00000000000E+00  0.45593999997E+02  0.45594000000E+02  0.51100000000E-03 0. -1.
         11   -1    0    0    0    0 -0.00000000000E+00 -0.00000000000E+00 -0.45593999997E+02  0.45594000000E+02  0.51100000000E-03 0.  1.
    9900012    2    1    2    0    0  0.18196317327E+02 -0.22264847769E+02  0.13780149692E+02  0.59301922537E+02  0.49999960807E+02 0.  0.
        -12    1    1    2    0    0 -0.18196317327E+02  0.22264847769E+02 -0.13780149692E+02  0.31886077463E+02  0.00000000000E+00 0.  1.
         11    1    3    3    0    0  0.13240396718E+02 -0.69782262253E+01  0.19149029491E+01  0.15088757406E+02  0.51100000000E-03 0. -1.
        -11    1    3    3    0    0  0.12552396351E+02 -0.26013921538E+02  0.47681044787E+01  0.29274931059E+02  0.51100000000E-03 0.  1.
         12    1    3    3    0    0 -0.75964757422E+01  0.10727299995E+02  0.70971422639E+01  0.14938234072E+02  0.00000000000E+00 0. -1.
</event>
<event>
 7    1  0.1202531E-011  0.5930201E+02  0.7816164E-02  0.1266605E+00
        -11   -1    0    0    0    0  0.00000000000E+00  0.00000000000E+00  0.45593999997E+02  0.45594000000E+02  0.51100000000E-03 0.  1.
         11   -1    0    0    0    0 -0.00000000000E+00 -0.00000000000E+00 -0.45593999997E+02  0.45594000000E+02  0.51100000000E-03 0. -1.
    9900012    2    1    2    0    0 -0.24256958361E+02 -0.67602203134E+01 -0.19560573465E+02  0.59302005552E+02  0.50000112206E+02 0.  0.
        -12    1    1    2    0    0  0.24256958361E+02  0.67602203134E+01  0.19560573465E+02  0.31885994448E+02  0.00000000000E+00 0.  1.
         11    1    3    3    0    0 -0.10587749420E+02 -0.96599782866E+01  0.28477397668E+01  0.14612502877E+02  0.51100000000E-03 0.  1.
        -11    1    3    3    0    0 -0.15050380111E+02 -0.12033256148E+02 -0.22589408343E+02  0.29691658165E+02  0.51100000000E-03 0. -1.
        -12    1    3    3    0    0  0.13811711696E+01  0.14933014121E+02  0.18109511113E+00  0.14997844511E+02  0.00000000000E+00 0.  1.
</event>
<event>
 7    1  0.1202531E-011  0.5930190E+02  0.7816164E-02  0.1266605E+00
        -11   -1    0    0    0    0  0.00000000000E+00  0.00000000000E+00  0.45593999997E+02  0.45594000000E+02  0.51100000000E-03 0.  1.
         11   -1    0    0    0    0 -0.00000000000E+00 -0.00000000000E+00 -0.45593999997E+02  0.45594000000E+02  0.51100000000E-03 0. -1.
    9900012    2    1    2    0    0  0.10423303049E+02 -0.11165726690E+02 -0.27989367929E+02  0.59301899329E+02  0.49999918480E+02 0.  0.
        -12    1    1    2    0    0 -0.10423303049E+02  0.11165726690E+02  0.27989367929E+02  0.31886100671E+02  0.00000000000E+00 0.  1.
         11    1    3    3    0    0  0.20406270800E+02 -0.14069714862E+02 -0.16486540572E+02  0.29768755173E+02  0.51100000000E-03 0. -1.
        -11    1    3    3    0    0  0.76151834038E+01 -0.21619455150E+01 -0.72468791928E+01  0.10732301010E+02  0.51100000000E-03 0.  1.
        -12    1    3    3    0    0 -0.17598151155E+02  0.50659336866E+01 -0.42559481643E+01  0.18800843146E+02  0.00000000000E+00 0.  1.
</event>
<event>
 7    1  0.1202531E-011  0.5930197E+02  0.7816164E-02  0.1266605E+00
        -11   -1    0    0    0    0  0.00000000000E+00  0.00000000000E+00  0.45593999997E+02  0.45594000000E+02  0.51100000000E-03 0.  1.
         11   -1    0    0    0    0 -0.00000000000E+00 -0.00000000000E+00 -0.45593999997E+02  0.45594000000E+02  0.51100000000E-03 0. -1.
    9900012    2    1    2    0    0 -0.42100442655E+01 -0.17579600187E+02 -0.26266941440E+02  0.59301968135E+02  0.50000043967E+02 0.  0.
        -12    1    1    2    0    0  0.42100442655E+01  0.17579600187E+02  0.26266941440E+02  0.31886031865E+02  0.00000000000E+00 0.  1.
         11    1    3    3    0    0 -0.41378150366E+01  0.96429166481E+01 -0.30692947552E+01  0.10932882754E+02  0.51100000000E-03 0. -1.
        -11    1    3    3    0    0  0.47704151873E+01  0.50568636210E+01 -0.11986858063E+02  0.13856893491E+02  0.51100000000E-03 0.  1.
         12    1    3    3    0    0 -0.48426444161E+01 -0.32279380456E+02 -0.11210788623E+02  0.34512191890E+02  0.00000000000E+00 0. -1.
</event>
<event>
 7    1  0.1202531E-011  0.5930195E+02  0.7816164E-02  0.1266605E+00
        -11   -1    0    0    0    0  0.00000000000E+00  0.00000000000E+00  0.45593999997E+02  0.45594000000E+02  0.51100000000E-03 0. -1.
         11   -1    0    0    0    0 -0.00000000000E+00 -0.00000000000E+00 -0.45593999997E+02  0.45594000000E+02  0.51100000000E-03 0.  1.
    9900012    2    1    2    0    0 -0.28467010258E+01  0.66368829044E+01  0.31057498444E+02  0.59301950841E+02  0.50000012425E+02 0.  0.
        -12    1    1    2    0    0  0.28467010258E+01 -0.66368829044E+01 -0.31057498444E+02  0.31886049159E+02  0.00000000000E+00 0.  1.
         11    1    3    3    0    0 -0.14107862649E+02 -0.30601149997E+01  0.14059359914E+02  0.20150972527E+02  0.51100000000E-03 0. -1.
        -11    1    3    3    0    0 -0.99256977442E+01 -0.40269625548E+00 -0.38888018280E+00  0.99414721264E+01  0.51100000000E-03 0.  1.
         12    1    3    3    0    0  0.21186859368E+02  0.10099694160E+02  0.17387018712E+02  0.29209506187E+02  0.00000000000E+00 0. -1.
</event>
<event>
 7    1  0.1202531E-011  0.5930195E+02  0.7816164E-02  0.1266605E+00
        -11   -1    0    0    0    0  0.00000000000E+00  0.00000000000E+00  0.45593999997E+02  0.45594000000E+02  0.51100000000E-03 0.  1.
         11   -1    0    0    0    0 -0.00000000000E+00 -0.00000000000E+00 -0.45593999997E+02  0.45594000000E+02  0.51100000000E-03 0. -1.
    9900012    2    1    2    0    0 -0.67819169283E+01  0.30212286815E+02 -0.76120785948E+01  0.59301946429E+02  0.50000004380E+02 0.  0.
        -12    1    1    2    0    0  0.67819169283E+01 -0.30212286815E+02  0.76120785948E+01  0.31886053571E+02  0.00000000000E+00 0.  1.
         11    1    3    3    0    0 -0.68513960790E+01  0.97515053335E+01  0.37795803272E+01  0.12502748186E+02  0.51100000000E-03 0. -1.
        -11    1    3    3    0    0  0.86433843489E+01 -0.47443160143E+01  0.89327743020E+01  0.13304551268E+02  0.51100000000E-03 0.  1.
         12    1    3    3    0    0 -0.85739051982E+01  0.25205097495E+02 -0.20324433224E+02  0.33494646975E+02  0.00000000000E+00 0. -1.
</event>
<event>
 7    1  0.1202531E-011  0.5930195E+02  0.7816164E-02  0.1266605E+00
        -11   -1    0    0    0    0  0.00000000000E+00  0.00000000000E+00  0.45593999997E+02  0.45594000000E+02  0.51100000000E-03 0.  1.
         11   -1    0    0    0    0 -0.00000000000E+00 -0.00000000000E+00 -0.45593999997E+02  0.45594000000E+02  0.51100000000E-03 0. -1.
    9900012    2    1    2    0    0 -0.23669982891E+00  0.12086647607E+02 -0.29505546905E+02  0.59301947009E+02  0.50000005437E+02 0.  0.
        -12    1    1    2    0    0  0.23669982891E+00 -0.12086647607E+02  0.29505546905E+02  0.31886052991E+02  0.00000000000E+00 0.  1.
         11    1    3    3    0    0 -0.61189889101E+01  0.13582079119E+01  0.48994915185E+01  0.79556125732E+01  0.51100000000E-03 0. -1.
        -11    1    3    3    0    0 -0.83793279495E+01 -0.83769120432E+01 -0.35805148648E+01  0.12377636253E+02  0.51100000000E-03 0.  1.
         12    1    3    3    0    0  0.14261617031E+02  0.19105351738E+02 -0.30824523559E+02  0.38968698182E+02  0.00000000000E+00 0. -1.
</event>
<event>
 7    1  0.1202531E-011  0.5930187E+02  0.7816164E-02  0.1266605E+00
        -11   -1    0    0    0    0  0.00000000000E+00  0.00000000000E+00  0.45593999997E+02  0.45594000000E+02  0.51100000000E-03 0. -1.
         11   -1    0    0    0    0 -0.00000000000E+00 -0.00000000000E+00 -0.45593999997E+02  0.45594000000E+02  0.51100000000E-03 0.  1.
    9900012    2    1    2    0    0  0.27670989674E+02  0.12834567571E+02  0.92906166461E+01  0.59301868971E+02  0.49999863115E+02 0.  0.
        -12    1    1    2    0    0 -0.27670989674E+02 -0.12834567571E+02 -0.92906166461E+01  0.31886131029E+02  0.00000000000E+00 0.  1.
         11    1    3    3    0    0  0.15686723862E+02  0.15777717177E+02  0.22725112947E+02  0.31803151158E+02  0.51100000000E-03 0. -1.
        -11    1    3    3    0    0  0.12290498988E+02  0.48246020771E+01 -0.15453367646E+01  0.13293653244E+02  0.51100000000E-03 0.  1.
        -12    1    3    3    0    0 -0.30623317606E+00 -0.77677516825E+01 -0.11889159536E+02  0.14205064570E+02  0.00000000000E+00 0.  1.
</event>
<event>
 7    1  0.1202531E-011  0.5930195E+02  0.7816164E-02  0.1266605E+00
        -11   -1    0    0    0    0  0.00000000000E+00  0.00000000000E+00  0.45593999997E+02  0.45594000000E+02  0.51100000000E-03 0. -1.
         11   -1    0    0    0    0 -0.00000000000E+00 -0.00000000000E+00 -0.45593999997E+02  0.45594000000E+02  0.51100000000E-03 0.  1.
    9900012    2    1    2    0    0 -0.71380640763E+01 -0.10526089659E+02  0.29239866731E+02  0.59301947740E+02  0.50000006771E+02 0.  0.
        -12    1    1    2    0    0  0.71380640763E+01  0.10526089659E+02 -0.29239866731E+02  0.31886052260E+02  0.00000000000E+00 0.  1.
         11    1    3    3    0    0  0.50810124393E+00  0.89659276737E+00 -0.26748210596E+01  0.28664810180E+01  0.51100000000E-03 0. -1.
        -11    1    3    3    0    0  0.22750279100E+01 -0.19874478794E+02 -0.19987578641E+01  0.20103872577E+02  0.51100000000E-03 0.  1.
         12    1    3    3    0    0 -0.99211932302E+01  0.84517963677E+01  0.33913445655E+02  0.36331594145E+02  0.00000000000E+00 0. -1.
</event>
<event>
 7    1  0.1202531E-011  0.5930188E+02  0.7816164E-02  0.1266605E+00
        -11   -1    0    0    0    0  0.00000000000E+00  0.00000000000E+00  0.45593999997E+02  0.45594000000E+02  0.51100000000E-03 0.  1.
         11   -1    0    0    0    0 -0.00000000000E+00 -0.00000000000E+00 -0.45593999997E+02  0.45594000000E+02  0.51100000000E-03 0. -1.
    9900012    2    1    2    0    0 -0.18211090290E+02  0.12316454913E+01 -0.26145050947E+02  0.59301883127E+02  0.49999888932E+02 0.  0.
        -12    1    1    2    0    0  0.18211090290E+02 -0.12316454913E+01  0.26145050947E+02  0.31886116873E+02  0.00000000000E+00 0.  1.
         11    1    3    3    0    0  0.12047836006E+00 -0.10717821672E+02 -0.31260822910E+02  0.33047318586E+02  0.51100000000E-03 0. -1.
        -11    1    3    3    0    0 -0.15281490891E+01 -0.28875970890E+01  0.12979333553E+01  0.35154072087E+01  0.51100000000E-03 0.  1.
         12    1    3    3    0    0 -0.16803419561E+02  0.14837064252E+02  0.38178386077E+01  0.22739157333E+02  0.00000000000E+00 0. -1.
</event>
<event>
 7    1  0.1202531E-011  0.5930196E+02  0.7816164E-02  0.1266605E+00
        -11   -1    0    0    0    0  0.00000000000E+00  0.00000000000E+00  0.45593999997E+02  0.45594000000E+02  0.51100000000E-03 0.  1.
         11   -1    0    0    0    0 -0.00000000000E+00 -0.00000000000E+00 -0.45593999997E+02  0.45594000000E+02  0.51100000000E-03 0. -1.
    9900012    2    1    2    0    0 -0.44333320241E+01  0.28713578580E+02 -0.13137561519E+02  0.59301959945E+02  0.50000029029E+02 0.  0.
        -12    1    1    2    0    0  0.44333320241E+01 -0.28713578580E+02  0.13137561519E+02  0.31886040055E+02  0.00000000000E+00 0.  1.
         11    1    3    3    0    0  0.10503696871E+01  0.89075023650E+01  0.14086551166E+02  0.16699634693E+02  0.51100000000E-03 0. -1.
        -11    1    3    3    0    0  0.96727494683E+01  0.30982140721E+01 -0.73377051525E+01  0.12530081001E+02  0.51100000000E-03 0.  1.
         12    1    3    3    0    0 -0.15156451180E+02  0.16707862143E+02 -0.19886407533E+02  0.30072244251E+02  0.00000000000E+00 0. -1.
</event>
<event>
 7    1  0.1202531E-011  0.5930194E+02  0.7816164E-02  0.1266605E+00
        -11   -1    0    0    0    0  0.00000000000E+00  0.00000000000E+00  0.45593999997E+02  0.45594000000E+02  0.51100000000E-03 0.  1.
         11   -1    0    0    0    0 -0.00000000000E+00 -0.00000000000E+00 -0.45593999997E+02  0.45594000000E+02  0.51100000000E-03 0. -1.
    9900012    2    1    2    0    0 -0.88492868255E+01 -0.25544519020E+02 -0.16908241121E+02  0.59301938044E+02  0.49999989087E+02 0.  0.
        -12    1    1    2    0    0  0.88492868255E+01  0.25544519020E+02  0.16908241121E+02  0.31886061956E+02  0.00000000000E+00 0.  1.
         11    1    3    3    0    0  0.12225116853E+02 -0.76539515717E+01 -0.13673856644E+02  0.19874878931E+02  0.51100000000E-03 0. -1.
        -11    1    3    3    0    0 -0.86879254204E+01 -0.22114883556E+02 -0.86195677416E+01  0.25275384688E+02  0.51100000000E-03 0.  1.
        -12    1    3    3    0    0 -0.12386478259E+02  0.42243161080E+01  0.53851832652E+01  0.14151674425E+02  0.00000000000E+00 0.  1.
</event>
<event>
 7    1  0.1202531E-011  0.5930193E+02  0.7816164E-02  0.1266605E+00
        -11   -1    0    0    0    0  0.00000000000E+00  0.00000000000E+00  0.45593999997E+02  0.45594000000E+02  0.51100000000E-03 0.  1.
         11   -1    0    0    0    0 -0.00000000000E+00 -0.00000000000E+00 -0.45593999997E+02  0.45594000000E+02  0.51100000000E-03 0. -1.
    9900012    2    1    2    0    0 -0.26310265984E+02  0.73063072063E+01 -0.16465390341E+02  0.59301932506E+02  0.49999978987E+02 0.  0.
        -12    1    1    2    0    0  0.26310265984E+02 -0.73063072063E+01  0.16465390341E+02  0.31886067494E+02  0.00000000000E+00 0.  1.
         11    1    3    3    0    0 -0.10634848144E+02 -0.11091496655E+02 -0.12538447540E+02  0.19832648842E+02  0.51100000000E-03 0. -1.
        -11    1    3    3    0    0 -0.12362991103E+01 -0.81538622015E+01 -0.41767992467E+01  0.92444338118E+01  0.51100000000E-03 0.  1.
         12    1    3    3    0    0 -0.14439118729E+02  0.26551666063E+02  0.24985644561E+00  0.30224849853E+02  0.00000000000E+00 0. -1.
</event>
<event>
 7    1  0.1202531E-011  0.5930193E+02  0.7816164E-02  0.1266605E+00
        -11   -1    0    0    0    0  0.00000000000E+00  0.00000000000E+00  0.45593999997E+02  0.45594000000E+02  0.51100000000E-03 0.  1.
         11   -1    0    0    0    0 -0.00000000000E+00 -0.00000000000E+00 -0.45593999997E+02  0.45594000000E+02  0.51100000000E-03 0. -1.
    9900012    2    1    2    0    0 -0.44227612417E+01  0.23418842255E+02 -0.21182971172E+02  0.59301933180E+02  0.49999980217E+02 0.  0.
        -12    1    1    2    0    0  0.44227612417E+01 -0.23418842255E+02  0.21182971172E+02  0.31886066820E+02  0.00000000000E+00 0.  1.
         11    1    3    3    0    0 -0.15313884646E+02 -0.92499571578E+00 -0.11238726114E+02  0.19017876983E+02  0.51100000000E-03 0.  1.
        -11    1    3    3    0    0 -0.72629298113E+01  0.79594744818E+00 -0.74680740580E+01  0.10447765894E+02  0.51100000000E-03 0. -1.
         12    1    3    3    0    0  0.18154053215E+02  0.23547890523E+02 -0.24761710001E+01  0.29836290303E+02  0.00000000000E+00 0. -1.
</event>
<event>
 7    1  0.1202531E-011  0.5930183E+02  0.7816164E-02  0.1266605E+00
        -11   -1    0    0    0    0  0.00000000000E+00  0.00000000000E+00  0.45593999997E+02  0.45594000000E+02  0.51100000000E-03 0.  1.
         11   -1    0    0    0    0 -0.00000000000E+00 -0.00000000000E+00 -0.45593999997E+02  0.45594000000E+02  0.51100000000E-03 0. -1.
    9900012    2    1    2    0    0 -0.17748043415E+01 -0.27218426622E+02 -0.16514691301E+02  0.59301832043E+02  0.49999795766E+02 0.  0.
        -12    1    1    2    0    0  0.17748043415E+01  0.27218426622E+02  0.16514691301E+02  0.31886167957E+02  0.00000000000E+00 0.  1.
         11    1    3    3    0    0 -0.48188248929E+01 -0.13817431091E+02  0.67629340470E+01  0.16120786349E+02  0.51100000000E-03 0. -1.
        -11    1    3    3    0    0  0.48129858243E+01 -0.25931453835E+01  0.81984612319E+01  0.98541363070E+01  0.51100000000E-03 0.  1.
        -12    1    3    3    0    0 -0.17689652730E+01 -0.10807850147E+02 -0.31476086580E+02  0.33326909388E+02  0.00000000000E+00 0.  1.
</event>
<event>
 7    1  0.1202531E-011  0.5930192E+02  0.7816164E-02  0.1266605E+00
        -11   -1    0    0    0    0  0.00000000000E+00  0.00000000000E+00  0.45593999997E+02  0.45594000000E+02  0.51100000000E-03 0.  1.
         11   -1    0    0    0    0 -0.00000000000E+00 -0.00000000000E+00 -0.45593999997E+02  0.45594000000E+02  0.51100000000E-03 0. -1.
    9900012    2    1    2    0    0  0.11895901991E+01 -0.17971098616E+01 -0.31813159910E+02  0.59301923538E+02  0.49999962632E+02 0.  0.
        -12    1    1    2    0    0 -0.11895901991E+01  0.17971098616E+01  0.31813159910E+02  0.31886076462E+02  0.00000000000E+00 0.  1.
         11    1    3    3    0    0 -0.99079401265E+01  0.13464776170E+01  0.15975196933E+01  0.10125825841E+02  0.51100000000E-03 0. -1.
        -11    1    3    3    0    0  0.17440963642E+02  0.22299858533E+01 -0.32374346495E+01  0.17878507573E+02  0.51100000000E-03 0.  1.
         12    1    3    3    0    0 -0.63434333162E+01 -0.53735733319E+01 -0.30173244953E+02  0.31297590125E+02  0.00000000000E+00 0. -1.
</event>
<event>
 7    1  0.1202531E-011  0.5930195E+02  0.7816164E-02  0.1266605E+00
        -11   -1    0    0    0    0  0.00000000000E+00  0.00000000000E+00  0.45593999997E+02  0.45594000000E+02  0.51100000000E-03 0. -1.
         11   -1    0    0    0    0 -0.00000000000E+00 -0.00000000000E+00 -0.45593999997E+02  0.45594000000E+02  0.51100000000E-03 0.  1.
    9900012    2    1    2    0    0  0.30010133957E+02 -0.66833500432E+01  0.84525050734E+01  0.59301950544E+02  0.50000011884E+02 0.  0.
        -12    1    1    2    0    0 -0.30010133957E+02  0.66833500432E+01 -0.84525050734E+01  0.31886049456E+02  0.00000000000E+00 0.  1.
         11    1    3    3    0    0  0.34920486281E+01 -0.10230555299E+02  0.54684263649E+01  0.12114551272E+02  0.51100000000E-03 0. -1.
        -11    1    3    3    0    0 -0.52922620517E+01  0.63794948402E+01 -0.97578135004E+01  0.12803160415E+02  0.51100000000E-03 0.  1.
         12    1    3    3    0    0  0.31810347380E+02 -0.28322895843E+01  0.12741892209E+02  0.34384238857E+02  0.00000000000E+00 0. -1.
</event>
<event>
 7    1  0.1202531E-011  0.5930196E+02  0.7816164E-02  0.1266605E+00
        -11   -1    0    0    0    0  0.00000000000E+00  0.00000000000E+00  0.45593999997E+02  0.45594000000E+02  0.51100000000E-03 0.  1.
         11   -1    0    0    0    0 -0.00000000000E+00 -0.00000000000E+00 -0.45593999997E+02  0.45594000000E+02  0.51100000000E-03 0. -1.
    9900012    2    1    2    0    0 -0.11124953794E+02  0.29406695826E+01 -0.29737309161E+02  0.59301957745E+02  0.50000025017E+02 0.  0.
        -12    1    1    2    0    0  0.11124953794E+02 -0.29406695826E+01  0.29737309161E+02  0.31886042255E+02  0.00000000000E+00 0.  1.
         11    1    3    3    0    0 -0.97600849997E+01  0.65364951364E-01 -0.48851214914E+01  0.10914574844E+02  0.51100000000E-03 0. -1.
        -11    1    3    3    0    0 -0.13778760474E+02 -0.14130173454E+02 -0.75332121069E+01  0.21124992946E+02  0.51100000000E-03 0.  1.
         12    1    3    3    0    0  0.12413891679E+02  0.17005478086E+02 -0.17318975563E+02  0.27262389956E+02  0.00000000000E+00 0. -1.
</event>
<event>
 7    1  0.1202531E-011  0.5930195E+02  0.7816164E-02  0.1266605E+00
        -11   -1    0    0    0    0  0.00000000000E+00  0.00000000000E+00  0.45593999997E+02  0.45594000000E+02  0.51100000000E-03 0.  1.
         11   -1    0    0    0    0 -0.00000000000E+00 -0.00000000000E+00 -0.45593999997E+02  0.45594000000E+02  0.51100000000E-03 0. -1.
    9900012    2    1    2    0    0  0.24771013310E+02  0.14924979752E+02  0.13429887457E+02  0.59301952925E+02  0.50000016226E+02 0.  0.
        -12    1    1    2    0    0 -0.24771013310E+02 -0.14924979752E+02 -0.13429887457E+02  0.31886047075E+02  0.00000000000E+00 0.  1.
         11    1    3    3    0    0  0.11731050597E+02  0.11392414192E+02  0.14116002327E+02  0.21602457527E+02  0.51100000000E-03 0. -1.
        -11    1    3    3    0    0  0.20145481829E+02  0.44332715482E+01  0.11461266049E+02  0.23597774354E+02  0.51100000000E-03 0.  1.
        -12    1    3    3    0    0 -0.71055191167E+01 -0.90070598803E+00 -0.12147380920E+02  0.14101721044E+02  0.00000000000E+00 0.  1.
</event>
<event>
 7    1  0.1202531E-011  0.5930195E+02  0.7816164E-02  0.1266605E+00
        -11   -1    0    0    0    0  0.00000000000E+00  0.00000000000E+00  0.45593999997E+02  0.45594000000E+02  0.51100000000E-03 0.  1.
         11   -1    0    0    0    0 -0.00000000000E+00 -0.00000000000E+00 -0.45593999997E+02  0.45594000000E+02  0.51100000000E-03 0. -1.
    9900012    2    1    2    0    0 -0.21568165588E+02  0.23259085755E+02 -0.32479368441E+01  0.59301953981E+02  0.50000018152E+02 0.  0.
        -12    1    1    2    0    0  0.21568165588E+02 -0.23259085755E+02  0.32479368441E+01  0.31886046019E+02  0.00000000000E+00 0.  1.
         11    1    3    3    0    0 -0.77976878947E+01  0.29030413751E+02  0.82051402580E+01  0.31159158942E+02  0.51100000000E-03 0. -1.
        -11    1    3    3    0    0  0.23648514297E+01  0.53975843616E+01 -0.12461288193E+01  0.60232280814E+01  0.51100000000E-03 0.  1.
         12    1    3    3    0    0 -0.16135329123E+02 -0.11168912357E+02 -0.10206948283E+02  0.22119566958E+02  0.00000000000E+00 0. -1.
</event>
<event>
 7    1  0.1202531E-011  0.5930212E+02  0.7816164E-02  0.1266604E+00
        -11   -1    0    0    0    0  0.00000000000E+00  0.00000000000E+00  0.45593999997E+02  0.45594000000E+02  0.51100000000E-03 0.  1.
         11   -1    0    0    0    0 -0.00000000000E+00 -0.00000000000E+00 -0.45593999997E+02  0.45594000000E+02  0.51100000000E-03 0. -1.
    9900012    2    1    2    0    0  0.23283174568E+02  0.71314765247E+01 -0.20585067472E+02  0.59302122590E+02  0.50000325654E+02 0.  0.
        -12    1    1    2    0    0 -0.23283174568E+02 -0.71314765247E+01  0.20585067472E+02  0.31885877410E+02  0.00000000000E+00 0.  1.
         11    1    3    3    0    0  0.21200200011E+02  0.89715795631E+01 -0.33700857760E+02  0.40812810910E+02  0.51100000000E-03 0. -1.
        -11    1    3    3    0    0  0.20819963202E+01  0.38424536274E+01  0.19554417475E+00  0.43746309949E+01  0.51100000000E-03 0.  1.
        -12    1    3    3    0    0  0.97823693545E-03 -0.56825566659E+01  0.12920246113E+02  0.14114680685E+02  0.00000000000E+00 0.  1.
</event>
<event>
 7    1  0.1202531E-011  0.5930196E+02  0.7816164E-02  0.1266605E+00
        -11   -1    0    0    0    0  0.00000000000E+00  0.00000000000E+00  0.45593999997E+02  0.45594000000E+02  0.51100000000E-03 0.  1.
         11   -1    0    0    0    0 -0.00000000000E+00 -0.00000000000E+00 -0.45593999997E+02  0.45594000000E+02  0.51100000000E-03 0. -1.
    9900012    2    1    2    0    0  0.60342385912E+00  0.45302461725E+01 -0.31556814394E+02  0.59301956259E+02  0.50000022307E+02 0.  0.
        -12    1    1    2    0    0 -0.60342385912E+00 -0.45302461725E+01  0.31556814394E+02  0.31886043741E+02  0.00000000000E+00 0.  1.
         11    1    3    3    0    0  0.83836866271E+01  0.63023064452E+01 -0.74236226993E+01  0.12849725376E+02  0.51100000000E-03 0. -1.
        -11    1    3    3    0    0 -0.16477065200E+01  0.18107873595E+02 -0.15630160591E+02  0.23977321436E+02  0.51100000000E-03 0.  1.
        -12    1    3    3    0    0 -0.61325562479E+01 -0.19879933868E+02 -0.85030311040E+01  0.22474909447E+02  0.00000000000E+00 0.  1.
</event>
<event>
 7    1  0.1202531E-011  0.5930196E+02  0.7816164E-02  0.1266605E+00
        -11   -1    0    0    0    0  0.00000000000E+00  0.00000000000E+00  0.45593999997E+02  0.45594000000E+02  0.51100000000E-03 0.  1.
         11   -1    0    0    0    0 -0.00000000000E+00 -0.00000000000E+00 -0.45593999997E+02  0.45594000000E+02  0.51100000000E-03 0. -1.
    9900012    2    1    2    0    0 -0.19886905634E+02 -0.60018745342E+01 -0.24191074165E+02  0.59301959435E+02  0.50000028099E+02 0.  0.
        -12    1    1    2    0    0  0.19886905634E+02  0.60018745342E+01  0.24191074165E+02  0.31886040565E+02  0.00000000000E+00 0.  1.
         11    1    3    3    0    0 -0.74354599469E+01  0.44535527638E+00 -0.25519162506E+02  0.26584056523E+02  0.51100000000E-03 0. -1.
        -11    1    3    3    0    0  0.78920564771E+01 -0.77366921283E+01  0.47839224884E+01  0.12042710457E+02  0.51100000000E-03 0.  1.
         12    1    3    3    0    0 -0.20343502165E+02  0.12894623177E+01 -0.34558341482E+01  0.20675192455E+02  0.00000000000E+00 0. -1.
</event>
<event>
 7    1  0.1202531E-011  0.5930204E+02  0.7816164E-02  0.1266604E+00
        -11   -1    0    0    0    0  0.00000000000E+00  0.00000000000E+00  0.45593999997E+02  0.45594000000E+02  0.51100000000E-03 0.  1.
         11   -1    0    0    0    0 -0.00000000000E+00 -0.00000000000E+00 -0.45593999997E+02  0.45594000000E+02  0.51100000000E-03 0. -1.
    9900012    2    1    2    0    0  0.25440507961E+02  0.81413288373E+01 -0.17413035274E+02  0.59302039484E+02  0.50000174089E+02 0.  0.
        -12    1    1    2    0    0 -0.25440507961E+02 -0.81413288373E+01  0.17413035274E+02  0.31885960516E+02  0.00000000000E+00 0.  1.
         11    1    3    3    0    0 -0.63788129933E+01 -0.49535357516E+01  0.82683460360E+01  0.11558214312E+02  0.51100000000E-03 0. -1.
        -11    1    3    3    0    0 -0.65375268570E-01  0.64296717669E+01 -0.27916275514E+00  0.64360613003E+01  0.51100000000E-03 0.  1.
        -12    1    3    3    0    0  0.31884696223E+02  0.66651928220E+01 -0.25402218555E+02  0.41307763872E+02  0.00000000000E+00 0.  1.
</event>
<event>
 7    1  0.1202531E-011  0.5930193E+02  0.7816164E-02  0.1266605E+00
        -11   -1    0    0    0    0  0.00000000000E+00  0.00000000000E+00  0.45593999997E+02  0.45594000000E+02  0.51100000000E-03 0.  1.
         11   -1    0    0    0    0 -0.00000000000E+00 -0.00000000000E+00 -0.45593999997E+02  0.45594000000E+02  0.51100000000E-03 0. -1.
    9900012    2    1    2    0    0  0.81772433480E+01 -0.29558122790E+02  0.87276195230E+01  0.59301932914E+02  0.49999979732E+02 0.  0.
        -12    1    1    2    0    0 -0.81772433480E+01  0.29558122790E+02 -0.87276195230E+01  0.31886067086E+02  0.00000000000E+00 0.  1.
         11    1    3    3    0    0  0.14435590708E+02 -0.88533982287E+01  0.18846287448E+02  0.25336761635E+02  0.51100000000E-03 0. -1.
        -11    1    3    3    0    0 -0.58636202334E+01 -0.94341556343E+01  0.72441464633E+01  0.13261334511E+02  0.51100000000E-03 0.  1.
         12    1    3    3    0    0 -0.39472712661E+00 -0.11270568927E+02 -0.17362814389E+02  0.20703836769E+02  0.00000000000E+00 0. -1.
</event>
<event>
 7    1  0.1202531E-011  0.5930195E+02  0.7816164E-02  0.1266605E+00
        -11   -1    0    0    0    0  0.00000000000E+00  0.00000000000E+00  0.45593999997E+02  0.45594000000E+02  0.51100000000E-03 0.  1.
         11   -1    0    0    0    0 -0.00000000000E+00 -0.00000000000E+00 -0.45593999997E+02  0.45594000000E+02  0.51100000000E-03 0. -1.
    9900012    2    1    2    0    0  0.26051482583E+02 -0.15225383775E+02  0.10306716746E+02  0.59301945589E+02  0.50000002847E+02 0.  0.
        -12    1    1    2    0    0 -0.26051482583E+02  0.15225383775E+02 -0.10306716746E+02  0.31886054411E+02  0.00000000000E+00 0.  1.
         11    1    3    3    0    0 -0.43016678821E+01  0.27220103325E+01 -0.34362684298E+01  0.61417935329E+01  0.51100000000E-03 0. -1.
        -11    1    3    3    0    0  0.30680935673E+01 -0.16624795252E+02 -0.75596300700E+01  0.18518774861E+02  0.51100000000E-03 0.  1.
         12    1    3    3    0    0  0.27285056897E+02 -0.13225988556E+01  0.21302615246E+02  0.34641377195E+02  0.00000000000E+00 0. -1.
</event>
<event>
 7    1  0.1202531E-011  0.5930196E+02  0.7816164E-02  0.1266605E+00
        -11   -1    0    0    0    0  0.00000000000E+00  0.00000000000E+00  0.45593999997E+02  0.45594000000E+02  0.51100000000E-03 0.  1.
         11   -1    0    0    0    0 -0.00000000000E+00 -0.00000000000E+00 -0.45593999997E+02  0.45594000000E+02  0.51100000000E-03 0. -1.
    9900012    2    1    2    0    0  0.11666079590E+02 -0.20317653958E+02 -0.21629030027E+02  0.59301962064E+02  0.50000032893E+02 0.  0.
        -12    1    1    2    0    0 -0.11666079590E+02  0.20317653958E+02  0.21629030027E+02  0.31886037936E+02  0.00000000000E+00 0.  1.
         11    1    3    3    0    0 -0.87749866620E+01 -0.22363412227E+01  0.82154726278E+01  0.12226839483E+02  0.51100000000E-03 0.  1.
        -11    1    3    3    0    0 -0.53220794047E+01 -0.19628907789E+01 -0.72540602065E+01  0.92086296017E+01  0.51100000000E-03 0. -1.
         12    1    3    3    0    0  0.25763145657E+02 -0.16118421956E+02 -0.22590442448E+02  0.37866492979E+02  0.00000000000E+00 0. -1.
</event>
<event>
 7    1  0.1202531E-011  0.5930190E+02  0.7816164E-02  0.1266605E+00
        -11   -1    0    0    0    0  0.00000000000E+00  0.00000000000E+00  0.45593999997E+02  0.45594000000E+02  0.51100000000E-03 0.  1.
         11   -1    0    0    0    0 -0.00000000000E+00 -0.00000000000E+00 -0.45593999997E+02  0.45594000000E+02  0.51100000000E-03 0. -1.
    9900012    2    1    2    0    0  0.22427196148E+02 -0.21842560536E+02 -0.60536606117E+01  0.59301899821E+02  0.49999919377E+02 0.  0.
        -12    1    1    2    0    0 -0.22427196148E+02  0.21842560536E+02  0.60536606117E+01  0.31886100179E+02  0.00000000000E+00 0.  1.
         11    1    3    3    0    0  0.18409443199E+02  0.38622058942E+00 -0.13338292510E+02  0.22736904200E+02  0.51100000000E-03 0. -1.
        -11    1    3    3    0    0 -0.75748814252E+01 -0.15129903120E+02 -0.56125708176E+01  0.17826770557E+02  0.51100000000E-03 0.  1.
         12    1    3    3    0    0  0.11592634375E+02 -0.70988780049E+01  0.12897202716E+02  0.18738225065E+02  0.00000000000E+00 0. -1.
</event>
<event>
 7    1  0.1202531E-011  0.5930195E+02  0.7816164E-02  0.1266605E+00
        -11   -1    0    0    0    0  0.00000000000E+00  0.00000000000E+00  0.45593999997E+02  0.45594000000E+02  0.51100000000E-03 0.  1.
         11   -1    0    0    0    0 -0.00000000000E+00 -0.00000000000E+00 -0.45593999997E+02  0.45594000000E+02  0.51100000000E-03 0. -1.
    9900012    2    1    2    0    0  0.93202861240E+01 -0.39500189344E+01 -0.30236560581E+02  0.59301953227E+02  0.50000016777E+02 0.  0.
        -12    1    1    2    0    0 -0.93202861240E+01  0.39500189344E+01  0.30236560581E+02  0.31886046773E+02  0.00000000000E+00 0.  1.
         11    1    3    3    0    0  0.45494209376E+01  0.15683706649E+02 -0.13104443209E+02  0.20938059060E+02  0.51100000000E-03 0. -1.
        -11    1    3    3    0    0 -0.79680077443E+01 -0.78747883831E+01  0.31935325397E+01  0.11649038151E+02  0.51100000000E-03 0.  1.
         12    1    3    3    0    0  0.12738872931E+02 -0.11758937200E+02 -0.20325649912E+02  0.26714856017E+02  0.00000000000E+00 0. -1.
</event>
<event>
 7    1  0.1202531E-011  0.5930194E+02  0.7816164E-02  0.1266605E+00
        -11   -1    0    0    0    0  0.00000000000E+00  0.00000000000E+00  0.45593999997E+02  0.45594000000E+02  0.51100000000E-03 0.  1.
         11   -1    0    0    0    0 -0.00000000000E+00 -0.00000000000E+00 -0.45593999997E+02  0.45594000000E+02  0.51100000000E-03 0. -1.
    9900012    2    1    2    0    0 -0.62466806925E+01  0.15495377025E+02 -0.27158664135E+02  0.59301940877E+02  0.49999994253E+02 0.  0.
        -12    1    1    2    0    0  0.62466806925E+01 -0.15495377025E+02  0.27158664135E+02  0.31886059123E+02  0.00000000000E+00 0.  1.
         11    1    3    3    0    0  0.57412095469E+01  0.19184388992E+02 -0.13048444734E+02  0.23901133411E+02  0.51100000000E-03 0. -1.
        -11    1    3    3    0    0  0.13479071856E+01  0.95519322088E+01  0.28790223858E+01  0.10067027012E+02  0.51100000000E-03 0.  1.
         12    1    3    3    0    0 -0.13335797425E+02 -0.13240944176E+02 -0.16989241786E+02  0.25333780454E+02  0.00000000000E+00 0. -1.
</event>
<event>
 7    1  0.1202531E-011  0.5930196E+02  0.7816164E-02  0.1266605E+00
        -11   -1    0    0    0    0  0.00000000000E+00  0.00000000000E+00  0.45593999997E+02  0.45594000000E+02  0.51100000000E-03 0. -1.
         11   -1    0    0    0    0 -0.00000000000E+00 -0.00000000000E+00 -0.45593999997E+02  0.45594000000E+02  0.51100000000E-03 0.  1.
    9900012    2    1    2    0    0  0.23621697949E+02  0.18152850758E+02  0.11367015802E+02  0.59301958337E+02  0.50000026097E+02 0.  0.
        -12    1    1    2    0    0 -0.23621697949E+02 -0.18152850758E+02 -0.11367015802E+02  0.31886041663E+02  0.00000000000E+00 0.  1.
         11    1    3    3    0    0  0.42323180733E+00 -0.20837785711E+01  0.78546032244E+01  0.81373245216E+01  0.51100000000E-03 0. -1.
        -11    1    3    3    0    0 -0.10159730155E+02  0.58687360724E+01  0.85201374712E+01  0.14500169747E+02  0.51100000000E-03 0.  1.
         12    1    3    3    0    0  0.33358196297E+02  0.14367893257E+02 -0.50077248932E+01  0.36664464069E+02  0.00000000000E+00 0. -1.
</event>
<event>
 7    1  0.1202531E-011  0.5930204E+02  0.7816164E-02  0.1266604E+00
        -11   -1    0    0    0    0  0.00000000000E+00  0.00000000000E+00  0.45593999997E+02  0.45594000000E+02  0.51100000000E-03 0.  1.
         11   -1    0    0    0    0 -0.00000000000E+00 -0.00000000000E+00 -0.45593999997E+02  0.45594000000E+02  0.51100000000E-03 0. -1.
    9900012    2    1    2    0    0 -0.19883426547E+02 -0.18897159241E+01 -0.24855432260E+02  0.59302043995E+02  0.50000182316E+02 0.  0.
        -12    1    1    2    0    0  0.19883426547E+02  0.18897159241E+01  0.24855432260E+02  0.31885956005E+02  0.00000000000E+00 0.  1.
         11    1    3    3    0    0 -0.33158269887E+01 -0.16556884095E+02 -0.11343575697E+02  0.20342119590E+02  0.51100000000E-03 0. -1.
        -11    1    3    3    0    0 -0.17158084924E+02 -0.31309703432E+01 -0.11825377245E+02  0.21072313608E+02  0.51100000000E-03 0.  1.
         12    1    3    3    0    0  0.59048536597E+00  0.17798138514E+02 -0.16864793171E+01  0.17887610797E+02  0.00000000000E+00 0. -1.
</event>
<event>
 7    1  0.1202531E-011  0.5930196E+02  0.7816164E-02  0.1266605E+00
        -11   -1    0    0    0    0  0.00000000000E+00  0.00000000000E+00  0.45593999997E+02  0.45594000000E+02  0.51100000000E-03 0.  1.
         11   -1    0    0    0    0 -0.00000000000E+00 -0.00000000000E+00 -0.45593999997E+02  0.45594000000E+02  0.51100000000E-03 0. -1.
    9900012    2    1    2    0    0  0.71603153848E+01  0.21541333217E+02 -0.22392420029E+02  0.59301958729E+02  0.50000026812E+02 0.  0.
        -12    1    1    2    0    0 -0.71603153848E+01 -0.21541333217E+02  0.22392420029E+02  0.31886041271E+02  0.00000000000E+00 0.  1.
         11    1    3    3    0    0 -0.14276163156E+02  0.20374490930E+02 -0.18867180534E+02  0.31223376125E+02  0.51100000000E-03 0. -1.
        -11    1    3    3    0    0  0.52469941790E+01 -0.75883959810E+01 -0.28692326433E+01  0.96616353534E+01  0.51100000000E-03 0.  1.
        -12    1    3    3    0    0  0.16189484362E+02  0.87552382681E+01 -0.65600685157E+00  0.18416947251E+02  0.00000000000E+00 0.  1.
</event>
<event>
 7    1  0.1202531E-011  0.5930196E+02  0.7816164E-02  0.1266605E+00
        -11   -1    0    0    0    0  0.00000000000E+00  0.00000000000E+00  0.45593999997E+02  0.45594000000E+02  0.51100000000E-03 0. -1.
         11   -1    0    0    0    0 -0.00000000000E+00 -0.00000000000E+00 -0.45593999997E+02  0.45594000000E+02  0.51100000000E-03 0.  1.
    9900012    2    1    2    0    0 -0.22761590054E+02  0.12052669192E+01  0.22297462372E+02  0.59301961074E+02  0.50000031089E+02 0.  0.
        -12    1    1    2    0    0  0.22761590054E+02 -0.12052669192E+01 -0.22297462372E+02  0.31886038926E+02  0.00000000000E+00 0.  1.
         11    1    3    3    0    0 -0.12335260244E+02  0.26673269406E+01  0.61590308357E+01  0.14043038823E+02  0.51100000000E-03 0. -1.
        -11    1    3    3    0    0 -0.13564892247E+02 -0.21522148107E+01 -0.11206160425E+02  0.17726149102E+02  0.51100000000E-03 0.  1.
         12    1    3    3    0    0  0.31385624359E+01  0.69015478930E+00  0.27344591961E+02  0.27532773149E+02  0.00000000000E+00 0. -1.
</event>
<event>
 7    1  0.1202531E-011  0.5930194E+02  0.7816164E-02  0.1266605E+00
        -11   -1    0    0    0    0  0.00000000000E+00  0.00000000000E+00  0.45593999997E+02  0.45594000000E+02  0.51100000000E-03 0. -1.
         11   -1    0    0    0    0 -0.00000000000E+00 -0.00000000000E+00 -0.45593999997E+02  0.45594000000E+02  0.51100000000E-03 0.  1.
    9900012    2    1    2    0    0 -0.31735513680E+02  0.10334419907E+01  0.29171429792E+01  0.59301944207E+02  0.50000000328E+02 0.  0.
        -12    1    1    2    0    0  0.31735513680E+02 -0.10334419907E+01 -0.29171429792E+01  0.31886055793E+02  0.00000000000E+00 0.  1.
         11    1    3    3    0    0 -0.30878416504E+02  0.19445561607E+02  0.95029786079E+01  0.37708262685E+02  0.51100000000E-03 0. -1.
        -11    1    3    3    0    0  0.13305901382E+01 -0.19440641462E+01  0.18185250785E+01  0.29760526277E+01  0.51100000000E-03 0.  1.
        -12    1    3    3    0    0 -0.21876873136E+01 -0.16468055471E+02 -0.84043607073E+01  0.18617628895E+02  0.00000000000E+00 0.  1.
</event>
<event>
 7    1  0.1202531E-011  0.5930196E+02  0.7816164E-02  0.1266605E+00
        -11   -1    0    0    0    0  0.00000000000E+00  0.00000000000E+00  0.45593999997E+02  0.45594000000E+02  0.51100000000E-03 0. -1.
         11   -1    0    0    0    0 -0.00000000000E+00 -0.00000000000E+00 -0.45593999997E+02  0.45594000000E+02  0.51100000000E-03 0.  1.
    9900012    2    1    2    0    0  0.29367315045E+02 -0.29445435722E+01 -0.12066898072E+02  0.59301959812E+02  0.50000028787E+02 0.  0.
        -12    1    1    2    0    0 -0.29367315045E+02  0.29445435722E+01  0.12066898072E+02  0.31886040188E+02  0.00000000000E+00 0.  1.
         11    1    3    3    0    0  0.56940062354E+01 -0.12121406045E+01 -0.14953415032E+02  0.16046669849E+02  0.51100000000E-03 0. -1.
        -11    1    3    3    0    0 -0.93203600172E+01 -0.18180533153E+01  0.38515907154E+01  0.10247398695E+02  0.51100000000E-03 0.  1.
         12    1    3    3    0    0  0.32993668827E+02  0.85650347544E-01 -0.96507375479E+00  0.33007891268E+02  0.00000000000E+00 0. -1.
</event>
<event>
 7    1  0.1202531E-011  0.5930193E+02  0.7816164E-02  0.1266605E+00
        -11   -1    0    0    0    0  0.00000000000E+00  0.00000000000E+00  0.45593999997E+02  0.45594000000E+02  0.51100000000E-03 0.  1.
         11   -1    0    0    0    0 -0.00000000000E+00 -0.00000000000E+00 -0.45593999997E+02  0.45594000000E+02  0.51100000000E-03 0. -1.
    9900012    2    1    2    0    0  0.20933764532E+02 -0.13780406800E+02 -0.19712921434E+02  0.59301931247E+02  0.49999976691E+02 0.  0.
        -12    1    1    2    0    0 -0.20933764532E+02  0.13780406800E+02  0.19712921434E+02  0.31886068753E+02  0.00000000000E+00 0.  1.
         11    1    3    3    0    0  0.30194637682E+00 -0.15701452934E+02 -0.19789675088E+01  0.15828553582E+02  0.51100000000E-03 0. -1.
        -11    1    3    3    0    0 -0.56924720101E+01  0.78207588005E+01 -0.12807504211E+02  0.16049942996E+02  0.51100000000E-03 0.  1.
         12    1    3    3    0    0  0.26324290165E+02 -0.58997126666E+01 -0.49264497146E+01  0.27423434669E+02  0.00000000000E+00 0. -1.
</event>
<event>
 7    1  0.1202531E-011  0.5930195E+02  0.7816164E-02  0.1266605E+00
        -11   -1    0    0    0    0  0.00000000000E+00  0.00000000000E+00  0.45593999997E+02  0.45594000000E+02  0.51100000000E-03 0.  1.
         11   -1    0    0    0    0 -0.00000000000E+00 -0.00000000000E+00 -0.45593999997E+02  0.45594000000E+02  0.51100000000E-03 0. -1.
    9900012    2    1    2    0    0 -0.28789258529E+02  0.97159062905E+01 -0.96695429137E+01  0.59301948162E+02  0.50000007539E+02 0.  0.
        -12    1    1    2    0    0  0.28789258529E+02 -0.97159062905E+01  0.96695429137E+01  0.31886051838E+02  0.00000000000E+00 0.  1.
         11    1    3    3    0    0  0.21054996213E+01 -0.10093784079E+02  0.54841799736E+00  0.10325617088E+02  0.51100000000E-03 0. -1.
        -11    1    3    3    0    0 -0.24320415324E+02 -0.18716965444E+01 -0.70094918296E+00  0.24402401101E+02  0.51100000000E-03 0.  1.
        -12    1    3    3    0    0 -0.65743428262E+01  0.21681386914E+02 -0.95170117281E+01  0.24573929973E+02  0.00000000000E+00 0.  1.
</event>
<event>
 7    1  0.1202531E-011  0.5930193E+02  0.7816164E-02  0.1266605E+00
        -11   -1    0    0    0    0  0.00000000000E+00  0.00000000000E+00  0.45593999997E+02  0.45594000000E+02  0.51100000000E-03 0. -1.
         11   -1    0    0    0    0 -0.00000000000E+00 -0.00000000000E+00 -0.45593999997E+02  0.45594000000E+02  0.51100000000E-03 0.  1.
    9900012    2    1    2    0    0  0.22958190378E+02  0.11505350846E+02  0.18901590285E+02  0.59301925942E+02  0.49999967016E+02 0.  0.
        -12    1    1    2    0    0 -0.22958190378E+02 -0.11505350846E+02 -0.18901590285E+02  0.31886074058E+02  0.00000000000E+00 0.  1.
         11    1    3    3    0    0  0.64617440355E+01 -0.27719361955E+01  0.88488819058E+01  0.11302233297E+02  0.51100000000E-03 0. -1.
        -11    1    3    3    0    0  0.29762874570E+02  0.15230707452E+02  0.91774259178E+01  0.34670279764E+02  0.51100000000E-03 0.  1.
        -12    1    3    3    0    0 -0.13266428227E+02 -0.95342041109E+00  0.87528246161E+00  0.13329412881E+02  0.00000000000E+00 0.  1.
</event>
<event>
 7    1  0.1202531E-011  0.5930194E+02  0.7816164E-02  0.1266605E+00
        -11   -1    0    0    0    0  0.00000000000E+00  0.00000000000E+00  0.45593999997E+02  0.45594000000E+02  0.51100000000E-03 0.  1.
         11   -1    0    0    0    0 -0.00000000000E+00 -0.00000000000E+00 -0.45593999997E+02  0.45594000000E+02  0.51100000000E-03 0. -1.
    9900012    2    1    2    0    0  0.49194369492E+01  0.31450982728E+02 -0.18317759871E+01  0.59301943836E+02  0.49999999650E+02 0.  0.
        -12    1    1    2    0    0 -0.49194369492E+01 -0.31450982728E+02  0.18317759871E+01  0.31886056164E+02  0.00000000000E+00 0.  1.
         11    1    3    3    0    0 -0.82009912443E+01 -0.42069735905E+01 -0.17796574357E+01  0.93873353530E+01  0.51100000000E-03 0. -1.
        -11    1    3    3    0    0  0.16748456987E+02  0.50467752926E+01  0.60153649475E+01  0.18497712508E+02  0.51100000000E-03 0.  1.
        -12    1    3    3    0    0 -0.36280287935E+01  0.30611181026E+02 -0.60674834989E+01  0.31416895975E+02  0.00000000000E+00 0.  1.
</event>
<event>
 7    1  0.1202531E-011  0.5930192E+02  0.7816164E-02  0.1266605E+00
        -11   -1    0    0    0    0  0.00000000000E+00  0.00000000000E+00  0.45593999997E+02  0.45594000000E+02  0.51100000000E-03 0. -1.
         11   -1    0    0    0    0 -0.00000000000E+00 -0.00000000000E+00 -0.45593999997E+02  0.45594000000E+02  0.51100000000E-03 0.  1.
    9900012    2    1    2    0    0 -0.29040247105E+02 -0.12503262552E+02 -0.41296818567E+01  0.59301924691E+02  0.49999964735E+02 0.  0.
        -12    1    1    2    0    0  0.29040247105E+02  0.12503262552E+02  0.41296818567E+01  0.31886075309E+02  0.00000000000E+00 0.  1.
         11    1    3    3    0    0 -0.14047795713E+01 -0.11047868601E+02  0.63990605095E+01  0.12844328784E+02  0.51100000000E-03 0. -1.
        -11    1    3    3    0    0 -0.16421864126E+00  0.12606355949E+02 -0.91277420639E+01  0.15564795325E+02  0.51100000000E-03 0.  1.
         12    1    3    3    0    0 -0.27471248892E+02 -0.14061749900E+02 -0.14010003023E+01  0.30892800582E+02  0.00000000000E+00 0. -1.
</event>
<event>
 7    1  0.1202531E-011  0.5930194E+02  0.7816164E-02  0.1266605E+00
        -11   -1    0    0    0    0  0.00000000000E+00  0.00000000000E+00  0.45593999997E+02  0.45594000000E+02  0.51100000000E-03 0. -1.
         11   -1    0    0    0    0 -0.00000000000E+00 -0.00000000000E+00 -0.45593999997E+02  0.45594000000E+02  0.51100000000E-03 0.  1.
    9900012    2    1    2    0    0  0.17988955863E+02  0.20581081159E+02  0.16417595723E+02  0.59301939032E+02  0.49999990888E+02 0.  0.
        -12    1    1    2    0    0 -0.17988955863E+02 -0.20581081159E+02 -0.16417595723E+02  0.31886060968E+02  0.00000000000E+00 0.  1.
         11    1    3    3    0    0 -0.61690843989E+01  0.10143341422E+02  0.88367050349E+01  0.14799740999E+02  0.51100000000E-03 0. -1.
        -11    1    3    3    0    0  0.47497160673E+00  0.14763296979E+02 -0.70110724164E+01  0.16350402821E+02  0.51100000000E-03 0.  1.
         12    1    3    3    0    0  0.23683068655E+02 -0.43255572406E+01  0.14591963105E+02  0.28151795212E+02  0.00000000000E+00 0. -1.
</event>
<event>
 7    1  0.1202531E-011  0.5930191E+02  0.7816164E-02  0.1266605E+00
        -11   -1    0    0    0    0  0.00000000000E+00  0.00000000000E+00  0.45593999997E+02  0.45594000000E+02  0.51100000000E-03 0. -1.
         11   -1    0    0    0    0 -0.00000000000E+00 -0.00000000000E+00 -0.45593999997E+02  0.45594000000E+02  0.51100000000E-03 0.  1.
    9900012    2    1    2    0    0  0.10977337296E+00  0.28152723720E+01  0.31761373624E+02  0.59301911133E+02  0.49999940009E+02 0.  0.
        -12    1    1    2    0    0 -0.10977337296E+00 -0.28152723720E+01 -0.31761373624E+02  0.31886088867E+02  0.00000000000E+00 0.  1.
         11    1    3    3    0    0  0.11017847042E+02  0.16580417358E+02  0.15487189314E+02  0.25222137624E+02  0.51100000000E-03 0. -1.
        -11    1    3    3    0    0  0.34689889770E+01 -0.14082448864E+02  0.36776834413E+01  0.14962439851E+02  0.51100000000E-03 0.  1.
        -12    1    3    3    0    0 -0.14377062646E+02  0.31730387779E+00  0.12596500868E+02  0.19117333659E+02  0.00000000000E+00 0.  1.
</event>
<event>
 7    1  0.1202531E-011  0.5930207E+02  0.7816164E-02  0.1266604E+00
        -11   -1    0    0    0    0  0.00000000000E+00  0.00000000000E+00  0.45593999997E+02  0.45594000000E+02  0.51100000000E-03 0. -1.
         11   -1    0    0    0    0 -0.00000000000E+00 -0.00000000000E+00 -0.45593999997E+02  0.45594000000E+02  0.51100000000E-03 0.  1.
    9900012    2    1    2    0    0  0.15792421567E+02  0.16830083894E+02 -0.22001369213E+02  0.59302069716E+02  0.50000229224E+02 0.  0.
        -12    1    1    2    0    0 -0.15792421567E+02 -0.16830083894E+02  0.22001369213E+02  0.31885930284E+02  0.00000000000E+00 0.  1.
         11    1    3    3    0    0  0.10287538965E+01 -0.29248621964E+01  0.17259446892E+01  0.35485262826E+01  0.51100000000E-03 0. -1.
        -11    1    3    3    0    0 -0.81341975167E+01  0.12435856885E+02  0.72571116193E+01  0.16537272296E+02  0.51100000000E-03 0.  1.
        -12    1    3    3    0    0  0.22897865187E+02  0.73190892058E+01 -0.30984425522E+02  0.39216271137E+02  0.00000000000E+00 0.  1.
</event>
<event>
 7    1  0.1202531E-011  0.5930195E+02  0.7816164E-02  0.1266605E+00
        -11   -1    0    0    0    0  0.00000000000E+00  0.00000000000E+00  0.45593999997E+02  0.45594000000E+02  0.51100000000E-03 0.  1.
         11   -1    0    0    0    0 -0.00000000000E+00 -0.00000000000E+00 -0.45593999997E+02  0.45594000000E+02  0.51100000000E-03 0. -1.
    9900012    2    1    2    0    0  0.25680719800E+02  0.34008453638E+01 -0.18591803633E+02  0.59301948489E+02  0.50000008136E+02 0.  0.
        -12    1    1    2    0    0 -0.25680719800E+02 -0.34008453638E+01  0.18591803633E+02  0.31886051511E+02  0.00000000000E+00 0.  1.
         11    1    3    3    0    0 -0.27773654505E+01 -0.59069754050E+01 -0.11001110434E+02  0.12791815677E+02  0.51100000000E-03 0. -1.
        -11    1    3    3    0    0 -0.78070223548E+01  0.29298256537E+01 -0.47075871851E+01  0.95757429882E+01  0.51100000000E-03 0.  1.
        -12    1    3    3    0    0  0.36265107606E+02  0.63779951151E+01 -0.28831060137E+01  0.36934389823E+02  0.00000000000E+00 0.  1.
</event>
<event>
 7    1  0.1202531E-011  0.5930194E+02  0.7816164E-02  0.1266605E+00
        -11   -1    0    0    0    0  0.00000000000E+00  0.00000000000E+00  0.45593999997E+02  0.45594000000E+02  0.51100000000E-03 0.  1.
         11   -1    0    0    0    0 -0.00000000000E+00 -0.00000000000E+00 -0.45593999997E+02  0.45594000000E+02  0.51100000000E-03 0. -1.
    9900012    2    1    2    0    0  0.21244666740E+02  0.12284413454E+02 -0.20358731362E+02  0.59301943149E+02  0.49999998398E+02 0.  0.
        -12    1    1    2    0    0 -0.21244666740E+02 -0.12284413454E+02  0.20358731362E+02  0.31886056851E+02  0.00000000000E+00 0.  1.
         11    1    3    3    0    0 -0.28114786503E+01  0.50166921284E+01 -0.12916483018E+02  0.14138852355E+02  0.51100000000E-03 0. -1.
        -11    1    3    3    0    0  0.64526375120E+01 -0.14448390877E+02 -0.67400282683E+01  0.17199433454E+02  0.51100000000E-03 0.  1.
        -12    1    3    3    0    0  0.17603507879E+02  0.21716112202E+02 -0.70222007551E+00  0.27963657341E+02  0.00000000000E+00 0.  1.
</event>
<event>
 7    1  0.1202531E-011  0.5930194E+02  0.7816164E-02  0.1266605E+00
        -11   -1    0    0    0    0  0.00000000000E+00  0.00000000000E+00  0.45593999997E+02  0.45594000000E+02  0.51100000000E-03 0.  1.
         11   -1    0    0    0    0 -0.00000000000E+00 -0.00000000000E+00 -0.45593999997E+02  0.45594000000E+02  0.51100000000E-03 0. -1.
    9900012    2    1    2    0    0 -0.43498261332E+01  0.23625768584E+02 -0.20967179861E+02  0.59301944115E+02  0.50000000160E+02 0.  0.
        -12    1    1    2    0    0  0.43498261332E+01 -0.23625768584E+02  0.20967179861E+02  0.31886055885E+02  0.00000000000E+00 0.  1.
         11    1    3    3    0    0  0.45444168450E+01 -0.27322736709E+01  0.64982692808E+01  0.83871656584E+01  0.51100000000E-03 0. -1.
        -11    1    3    3    0    0  0.93653564882E+01 -0.15001848559E+01 -0.73884576183E+01  0.12022884970E+02  0.51100000000E-03 0.  1.
         12    1    3    3    0    0 -0.18259599466E+02  0.27858227111E+02 -0.20076991523E+02  0.38891893487E+02  0.00000000000E+00 0. -1.
</event>
<event>
 7    1  0.1202531E-011  0.5930196E+02  0.7816164E-02  0.1266605E+00
        -11   -1    0    0    0    0  0.00000000000E+00  0.00000000000E+00  0.45593999997E+02  0.45594000000E+02  0.51100000000E-03 0.  1.
         11   -1    0    0    0    0 -0.00000000000E+00 -0.00000000000E+00 -0.45593999997E+02  0.45594000000E+02  0.51100000000E-03 0. -1.
    9900012    2    1    2    0    0 -0.26228584151E+02  0.35886666991E+00 -0.18128764850E+02  0.59301960314E+02  0.50000029702E+02 0.  0.
        -12    1    1    2    0    0  0.26228584151E+02 -0.35886666991E+00  0.18128764850E+02  0.31886039686E+02  0.00000000000E+00 0.  1.
         11    1    3    3    0    0 -0.29548890587E+02  0.22305862699E+01  0.48414081382E+01  0.30025850247E+02  0.51100000000E-03 0. -1.
        -11    1    3    3    0    0  0.27750796043E+01  0.77449829101E+01 -0.80040316280E+01  0.11478255514E+02  0.51100000000E-03 0.  1.
         12    1    3    3    0    0  0.54522683156E+00 -0.96167025100E+01 -0.14966141360E+02  0.17797854553E+02  0.00000000000E+00 0. -1.
</event>
<event>
 7    1  0.1202531E-011  0.5930193E+02  0.7816164E-02  0.1266605E+00
        -11   -1    0    0    0    0  0.00000000000E+00  0.00000000000E+00  0.45593999997E+02  0.45594000000E+02  0.51100000000E-03 0. -1.
         11   -1    0    0    0    0 -0.00000000000E+00 -0.00000000000E+00 -0.45593999997E+02  0.45594000000E+02  0.51100000000E-03 0.  1.
    9900012    2    1    2    0    0  0.21276700995E+02  0.10075237006E+02  0.21506120257E+02  0.59301927579E+02  0.49999970001E+02 0.  0.
        -12    1    1    2    0    0 -0.21276700995E+02 -0.10075237006E+02 -0.21506120257E+02  0.31886072421E+02  0.00000000000E+00 0.  1.
         11    1    3    3    0    0 -0.11545263426E+01  0.15809045933E+02  0.10106663007E+02  0.18799029278E+02  0.51100000000E-03 0. -1.
        -11    1    3    3    0    0  0.20410433772E+01  0.10500820539E+01 -0.99499969329E+01  0.10211315763E+02  0.51100000000E-03 0.  1.
         12    1    3    3    0    0  0.20390183960E+02 -0.67838909805E+01  0.21349454183E+02  0.30291582538E+02  0.00000000000E+00 0. -1.
</event>
<event>
 7    1  0.1202531E-011  0.5930195E+02  0.7816164E-02  0.1266605E+00
        -11   -1    0    0    0    0  0.00000000000E+00  0.00000000000E+00  0.45593999997E+02  0.45594000000E+02  0.51100000000E-03 0.  1.
         11   -1    0    0    0    0 -0.00000000000E+00 -0.00000000000E+00 -0.45593999997E+02  0.45594000000E+02  0.51100000000E-03 0. -1.
    9900012    2    1    2    0    0  0.91994458634E+01  0.18237059773E+02 -0.24484691587E+02  0.59301948575E+02  0.50000008293E+02 0.  0.
        -12    1    1    2    0    0 -0.91994458634E+01 -0.18237059773E+02  0.24484691587E+02  0.31886051425E+02  0.00000000000E+00 0.  1.
         11    1    3    3    0    0 -0.33961150840E+01  0.18209022965E+01  0.70008794618E+01  0.79913450894E+01  0.51100000000E-03 0. -1.
        -11    1    3    3    0    0  0.44509360710E+01 -0.83739607844E+01 -0.21270138995E+02  0.23288470629E+02  0.51100000000E-03 0.  1.
         12    1    3    3    0    0  0.81446248763E+01  0.24790118261E+02 -0.10215432054E+02  0.28022132857E+02  0.00000000000E+00 0. -1.
</event>
<event>
 7    1  0.1202531E-011  0.5930208E+02  0.7816164E-02  0.1266604E+00
        -11   -1    0    0    0    0  0.00000000000E+00  0.00000000000E+00  0.45593999997E+02  0.45594000000E+02  0.51100000000E-03 0. -1.
         11   -1    0    0    0    0 -0.00000000000E+00 -0.00000000000E+00 -0.45593999997E+02  0.45594000000E+02  0.51100000000E-03 0.  1.
    9900012    2    1    2    0    0  0.29908195580E+02  0.90414034826E+01  0.63611711545E+01  0.59302084014E+02  0.50000255301E+02 0.  0.
        -12    1    1    2    0    0 -0.29908195580E+02 -0.90414034826E+01 -0.63611711545E+01  0.31885915986E+02  0.00000000000E+00 0.  1.
         11    1    3    3    0    0  0.35669433940E+02  0.89666703867E+01 -0.11857651157E+01  0.36798311573E+02  0.51100000000E-03 0. -1.
        -11    1    3    3    0    0 -0.21206666186E+01 -0.11673963513E+01 -0.70261959578E+01  0.74315187577E+01  0.51100000000E-03 0.  1.
        -12    1    3    3    0    0 -0.36405717412E+01  0.12421294472E+01  0.14573132228E+02  0.15072253684E+02  0.00000000000E+00 0.  1.
</event>
<event>
 7    1  0.1202531E-011  0.5930194E+02  0.7816164E-02  0.1266605E+00
        -11   -1    0    0    0    0  0.00000000000E+00  0.00000000000E+00  0.45593999997E+02  0.45594000000E+02  0.51100000000E-03 0. -1.
         11   -1    0    0    0    0 -0.00000000000E+00 -0.00000000000E+00 -0.45593999997E+02  0.45594000000E+02  0.51100000000E-03 0.  1.
    9900012    2    1    2    0    0 -0.35318019794E+01 -0.21438607318E+02 -0.23337377051E+02  0.59301942286E+02  0.49999996823E+02 0.  0.
        -12    1    1    2    0    0  0.35318019794E+01  0.21438607318E+02  0.23337377051E+02  0.31886057714E+02  0.00000000000E+00 0.  1.
         11    1    3    3    0    0 -0.50378837702E+01 -0.13664046515E+02  0.10571408589E+02  0.17995586121E+02  0.51100000000E-03 0. -1.
        -11    1    3    3    0    0 -0.46974171986E+01  0.62195740814E+00  0.10233210021E+01  0.48476536066E+01  0.51100000000E-03 0.  1.
        -12    1    3    3    0    0  0.62034989894E+01 -0.83965182111E+01 -0.34932106642E+02  0.36458702558E+02  0.00000000000E+00 0.  1.
</event>
<event>
 7    1  0.1202531E-011  0.5930193E+02  0.7816164E-02  0.1266605E+00
        -11   -1    0    0    0    0  0.00000000000E+00  0.00000000000E+00  0.45593999997E+02  0.45594000000E+02  0.51100000000E-03 0.  1.
         11   -1    0    0    0    0 -0.00000000000E+00 -0.00000000000E+00 -0.45593999997E+02  0.45594000000E+02  0.51100000000E-03 0. -1.
    9900012    2    1    2    0    0  0.23526862938E+02 -0.21510410473E+02 -0.71436318369E+00  0.59301931676E+02  0.49999977473E+02 0.  0.
        -12    1    1    2    0    0 -0.23526862938E+02  0.21510410473E+02  0.71436318369E+00  0.31886068324E+02  0.00000000000E+00 0.  1.
         11    1    3    3    0    0  0.27968666758E+02 -0.16152088536E+02 -0.58906532836E+01  0.32830413958E+02  0.51100000000E-03 0. -1.
        -11    1    3    3    0    0  0.10277047302E+02 -0.36427605451E+01  0.39707725326E+01  0.11604069993E+02  0.51100000000E-03 0.  1.
         12    1    3    3    0    0 -0.14718851122E+02 -0.17155613915E+01  0.12055175673E+01  0.14867447725E+02  0.00000000000E+00 0. -1.
</event>
<event>
 7    1  0.1202531E-011  0.5930196E+02  0.7816164E-02  0.1266605E+00
        -11   -1    0    0    0    0  0.00000000000E+00  0.00000000000E+00  0.45593999997E+02  0.45594000000E+02  0.51100000000E-03 0. -1.
         11   -1    0    0    0    0 -0.00000000000E+00 -0.00000000000E+00 -0.45593999997E+02  0.45594000000E+02  0.51100000000E-03 0.  1.
    9900012    2    1    2    0    0  0.19361632892E+02 -0.85715348899E+01  0.23840627308E+02  0.59301959966E+02  0.50000029067E+02 0.  0.
        -12    1    1    2    0    0 -0.19361632892E+02  0.85715348899E+01 -0.23840627308E+02  0.31886040034E+02  0.00000000000E+00 0.  1.
         11    1    3    3    0    0  0.10683325203E+02 -0.81160275298E+01  0.27658854726E+02  0.30741105791E+02  0.51100000000E-03 0. -1.
        -11    1    3    3    0    0  0.29076588796E+01 -0.59727268734E+01  0.10349800887E+02  0.12298224470E+02  0.51100000000E-03 0.  1.
        -12    1    3    3    0    0  0.57706488099E+01  0.55172195134E+01 -0.14168028305E+02  0.16262629704E+02  0.00000000000E+00 0.  1.
</event>
<event>
 7    1  0.1202531E-011  0.5930195E+02  0.7816164E-02  0.1266605E+00
        -11   -1    0    0    0    0  0.00000000000E+00  0.00000000000E+00  0.45593999997E+02  0.45594000000E+02  0.51100000000E-03 0. -1.
         11   -1    0    0    0    0 -0.00000000000E+00 -0.00000000000E+00 -0.45593999997E+02  0.45594000000E+02  0.51100000000E-03 0.  1.
    9900012    2    1    2    0    0 -0.28281212465E+01  0.27774588922E+02  0.15404349882E+02  0.59301952035E+02  0.50000014603E+02 0.  0.
        -12    1    1    2    0    0  0.28281212465E+01 -0.27774588922E+02 -0.15404349882E+02  0.31886047965E+02  0.00000000000E+00 0.  1.
         11    1    3    3    0    0 -0.10977385594E+02  0.72311952899E+01  0.68331364112E+01  0.14815023904E+02  0.51100000000E-03 0. -1.
        -11    1    3    3    0    0 -0.53471367333E+01  0.24903468649E+02  0.14276551163E+02  0.29199221486E+02  0.51100000000E-03 0.  1.
        -12    1    3    3    0    0  0.13496401081E+02 -0.43600750175E+01 -0.57053376920E+01  0.15287706645E+02  0.00000000000E+00 0.  1.
</event>
<event>
 7    1  0.1202531E-011  0.5930194E+02  0.7816164E-02  0.1266605E+00
        -11   -1    0    0    0    0  0.00000000000E+00  0.00000000000E+00  0.45593999997E+02  0.45594000000E+02  0.51100000000E-03 0. -1.
         11   -1    0    0    0    0 -0.00000000000E+00 -0.00000000000E+00 -0.45593999997E+02  0.45594000000E+02  0.51100000000E-03 0.  1.
    9900012    2    1    2    0    0 -0.19282669785E+02  0.16405640775E+02 -0.19384378652E+02  0.59301944443E+02  0.50000000758E+02 0.  0.
        -12    1    1    2    0    0  0.19282669785E+02 -0.16405640775E+02  0.19384378652E+02  0.31886055557E+02  0.00000000000E+00 0.  1.
         11    1    3    3    0    0 -0.16435754658E+02 -0.81312768100E+01  0.32346178750E+01  0.18620269783E+02  0.51100000000E-03 0. -1.
        -11    1    3    3    0    0 -0.61860436087E+01  0.10062560537E+02 -0.22963308429E+02  0.25823163911E+02  0.51100000000E-03 0.  1.
         12    1    3    3    0    0  0.33391284826E+01  0.14474357049E+02  0.34431190265E+00  0.14858510749E+02  0.00000000000E+00 0. -1.
</event>
<event>
 7    1  0.1202531E-011  0.5930199E+02  0.7816164E-02  0.1266605E+00
        -11   -1    0    0    0    0  0.00000000000E+00  0.00000000000E+00  0.45593999997E+02  0.45594000000E+02  0.51100000000E-03 0. -1.
         11   -1    0    0    0    0 -0.00000000000E+00 -0.00000000000E+00 -0.45593999997E+02  0.45594000000E+02  0.51100000000E-03 0.  1.
    9900012    2    1    2    0    0  0.14207705363E+02 -0.23412970864E+02  0.16330685122E+02  0.59301994090E+02  0.50000091301E+02 0.  0.
        -12    1    1    2    0    0 -0.14207705363E+02  0.23412970864E+02 -0.16330685122E+02  0.31886005910E+02  0.00000000000E+00 0.  1.
         11    1    3    3    0    0  0.10098474133E+02  0.46572269152E+01  0.58439323411E+00  0.11135998297E+02  0.51100000000E-03 0. -1.
        -11    1    3    3    0    0 -0.39922728487E+01 -0.28919554628E+02 -0.13533898606E+01  0.29225169747E+02  0.51100000000E-03 0.  1.
         12    1    3    3    0    0  0.81015040787E+01  0.84935684848E+00  0.17099681749E+02  0.18940826046E+02  0.00000000000E+00 0. -1.
</event>
<event>
 7    1  0.1202531E-011  0.5930193E+02  0.7816164E-02  0.1266605E+00
        -11   -1    0    0    0    0  0.00000000000E+00  0.00000000000E+00  0.45593999997E+02  0.45594000000E+02  0.51100000000E-03 0.  1.
         11   -1    0    0    0    0 -0.00000000000E+00 -0.00000000000E+00 -0.45593999997E+02  0.45594000000E+02  0.51100000000E-03 0. -1.
    9900012    2    1    2    0    0  0.20573124740E+02 -0.11502886654E+02 -0.21474433418E+02  0.59301934805E+02  0.49999983180E+02 0.  0.
        -12    1    1    2    0    0 -0.20573124740E+02  0.11502886654E+02  0.21474433418E+02  0.31886065195E+02  0.00000000000E+00 0.  1.
         11    1    3    3    0    0  0.59143642737E+01 -0.99703071830E+01 -0.97354624176E+01  0.15138228391E+02  0.51100000000E-03 0. -1.
        -11    1    3    3    0    0  0.15354304618E+02 -0.48864397680E+01 -0.25400032706E+02  0.30079787660E+02  0.51100000000E-03 0.  1.
        -12    1    3    3    0    0 -0.69554415135E+00  0.33538602970E+01  0.13661061705E+02  0.14083918754E+02  0.00000000000E+00 0.  1.
</event>
<event>
 7    1  0.1202531E-011  0.5930188E+02  0.7816164E-02  0.1266605E+00
        -11   -1    0    0    0    0  0.00000000000E+00  0.00000000000E+00  0.45593999997E+02  0.45594000000E+02  0.51100000000E-03 0.  1.
         11   -1    0    0    0    0 -0.00000000000E+00 -0.00000000000E+00 -0.45593999997E+02  0.45594000000E+02  0.51100000000E-03 0. -1.
    9900012    2    1    2    0    0  0.26707515090E+01 -0.96434238193E+01 -0.30275335170E+02  0.59301883017E+02  0.49999888731E+02 0.  0.
        -12    1    1    2    0    0 -0.26707515090E+01  0.96434238193E+01  0.30275335170E+02  0.31886116983E+02  0.00000000000E+00 0.  1.
         11    1    3    3    0    0 -0.87545962469E+01 -0.16167115668E+02 -0.11527780638E+02  0.21700421912E+02  0.51100000000E-03 0. -1.
        -11    1    3    3    0    0  0.11256720279E+02 -0.47876272739E+01  0.34308440316E+01  0.12704558921E+02  0.51100000000E-03 0.  1.
        -12    1    3    3    0    0  0.16862747732E+00  0.11311319123E+02 -0.22178398564E+02  0.24896902184E+02  0.00000000000E+00 0.  1.
</event>
<event>
 7    1  0.1202531E-011  0.5930225E+02  0.7816164E-02  0.1266604E+00
        -11   -1    0    0    0    0  0.00000000000E+00  0.00000000000E+00  0.45593999997E+02  0.45594000000E+02  0.51100000000E-03 0. -1.
         11   -1    0    0    0    0 -0.00000000000E+00 -0.00000000000E+00 -0.45593999997E+02  0.45594000000E+02  0.51100000000E-03 0.  1.
    9900012    2    1    2    0    0 -0.29245099543E+02  0.16450043661E+01  0.12598384281E+02  0.59302248117E+02  0.50000554582E+02 0.  0.
        -12    1    1    2    0    0  0.29245099543E+02 -0.16450043661E+01 -0.12598384281E+02  0.31885751883E+02  0.00000000000E+00 0.  1.
         11    1    3    3    0    0 -0.94481027338E+01 -0.59637982088E+01  0.42881358232E+01  0.11967524533E+02  0.51100000000E-03 0. -1.
        -11    1    3    3    0    0 -0.29260771761E+02  0.15374469787E+02  0.10932330838E+02  0.34814981590E+02  0.51100000000E-03 0.  1.
        -12    1    3    3    0    0  0.94637749513E+01 -0.77656672126E+01 -0.26220823805E+01  0.12519741994E+02  0.00000000000E+00 0.  1.
</event>
<event>
 7    1  0.1202531E-011  0.5930193E+02  0.7816164E-02  0.1266605E+00
        -11   -1    0    0    0    0  0.00000000000E+00  0.00000000000E+00  0.45593999997E+02  0.45594000000E+02  0.51100000000E-03 0.  1.
         11   -1    0    0    0    0 -0.00000000000E+00 -0.00000000000E+00 -0.45593999997E+02  0.45594000000E+02  0.51100000000E-03 0. -1.
    9900012    2    1    2    0    0 -0.29533438202E+02  0.68114947193E+01 -0.99045959310E+01  0.59301930112E+02  0.49999974622E+02 0.  0.
        -12    1    1    2    0    0  0.29533438202E+02 -0.68114947193E+01  0.99045959310E+01  0.31886069888E+02  0.00000000000E+00 0.  1.
         11    1    3    3    0    0 -0.23952995553E+02  0.50214795684E+01 -0.77584382136E+01  0.25674006637E+02  0.51100000000E-03 0. -1.
        -11    1    3    3    0    0  0.61475097337E+01  0.14226062883E+02 -0.50281981820E+01  0.16292805722E+02  0.51100000000E-03 0.  1.
         12    1    3    3    0    0 -0.11727952383E+02 -0.12436047732E+02  0.28820404646E+01  0.17335117753E+02  0.00000000000E+00 0. -1.
</event>
<event>
 7    1  0.1202531E-011  0.5930194E+02  0.7816164E-02  0.1266605E+00
        -11   -1    0    0    0    0  0.00000000000E+00  0.00000000000E+00  0.45593999997E+02  0.45594000000E+02  0.51100000000E-03 0.  1.
         11   -1    0    0    0    0 -0.00000000000E+00 -0.00000000000E+00 -0.45593999997E+02  0.45594000000E+02  0.51100000000E-03 0. -1.
    9900012    2    1    2    0    0 -0.10018893107E+02 -0.78844897268E+01 -0.29226312510E+02  0.59301941287E+02  0.49999995001E+02 0.  0.
        -12    1    1    2    0    0  0.10018893107E+02  0.78844897268E+01  0.29226312510E+02  0.31886058713E+02  0.00000000000E+00 0.  1.
         11    1    3    3    0    0 -0.11662962618E+02 -0.74518649018E+01 -0.15976384584E+02  0.21137640649E+02  0.51100000000E-03 0. -1.
        -11    1    3    3    0    0 -0.13449371293E+00 -0.17409670012E+02 -0.15699146629E+01  0.17480827520E+02  0.51100000000E-03 0.  1.
        -12    1    3    3    0    0  0.17785632234E+01  0.16977045187E+02 -0.11680013263E+02  0.20683473118E+02  0.00000000000E+00 0.  1.
</event>
<event>
 7    1  0.1202531E-011  0.5930195E+02  0.7816164E-02  0.1266605E+00
        -11   -1    0    0    0    0  0.00000000000E+00  0.00000000000E+00  0.45593999997E+02  0.45594000000E+02  0.51100000000E-03 0. -1.
         11   -1    0    0    0    0 -0.00000000000E+00 -0.00000000000E+00 -0.45593999997E+02  0.45594000000E+02  0.51100000000E-03 0.  1.
    9900012    2    1    2    0    0  0.31011132393E+02  0.55154270450E+01 -0.49608261145E+01  0.59301951898E+02  0.50000014354E+02 0.  0.
        -12    1    1    2    0    0 -0.31011132393E+02 -0.55154270450E+01  0.49608261145E+01  0.31886048102E+02  0.00000000000E+00 0.  1.
         11    1    3    3    0    0  0.10482116991E+02 -0.74515398295E+00 -0.92845917798E+01  0.14022613018E+02  0.51100000000E-03 0. -1.
        -11    1    3    3    0    0 -0.40088317929E+01  0.11398210492E+01 -0.13755631877E+02  0.14373146245E+02  0.51100000000E-03 0.  1.
         12    1    3    3    0    0  0.24537847195E+02  0.51207599788E+01  0.18079397543E+02  0.30906192636E+02  0.00000000000E+00 0. -1.
</event>
<event>
 7    1  0.1202531E-011  0.5930195E+02  0.7816164E-02  0.1266605E+00
        -11   -1    0    0    0    0  0.00000000000E+00  0.00000000000E+00  0.45593999997E+02  0.45594000000E+02  0.51100000000E-03 0.  1.
         11   -1    0    0    0    0 -0.00000000000E+00 -0.00000000000E+00 -0.45593999997E+02  0.45594000000E+02  0.51100000000E-03 0. -1.
    9900012    2    1    2    0    0 -0.28506501758E+02  0.14163394969E+02 -0.18701753697E+01  0.59301953593E+02  0.50000017445E+02 0.  0.
        -12    1    1    2    0    0  0.28506501758E+02 -0.14163394969E+02  0.18701753697E+01  0.31886046407E+02  0.00000000000E+00 0.  1.
         11    1    3    3    0    0 -0.19463213211E+02  0.42595999974E+01 -0.24000157657E+02  0.31192441848E+02  0.51100000000E-03 0. -1.
        -11    1    3    3    0    0 -0.39670853776E+01  0.13111307226E+01  0.39992664981E+00  0.41972338214E+01  0.51100000000E-03 0.  1.
        -12    1    3    3    0    0 -0.50762031692E+01  0.85926642492E+01  0.21730055637E+02  0.23912277924E+02  0.00000000000E+00 0.  1.
</event>
<event>
 7    1  0.1202531E-011  0.5930193E+02  0.7816164E-02  0.1266605E+00
        -11   -1    0    0    0    0  0.00000000000E+00  0.00000000000E+00  0.45593999997E+02  0.45594000000E+02  0.51100000000E-03 0.  1.
         11   -1    0    0    0    0 -0.00000000000E+00 -0.00000000000E+00 -0.45593999997E+02  0.45594000000E+02  0.51100000000E-03 0. -1.
    9900012    2    1    2    0    0 -0.17346478205E+02  0.50407975753E+00 -0.26750085053E+02  0.59301930112E+02  0.49999974622E+02 0.  0.
        -12    1    1    2    0    0  0.17346478205E+02 -0.50407975753E+00  0.26750085053E+02  0.31886069888E+02  0.00000000000E+00 0.  1.
         11    1    3    3    0    0 -0.11171282210E+02  0.39464621606E+01  0.96522829247E+01  0.15281972245E+02  0.51100000000E-03 0. -1.
        -11    1    3    3    0    0  0.62014859685E+01 -0.47862420382E+01 -0.30267973980E+01  0.83980976307E+01  0.51100000000E-03 0.  1.
        -12    1    3    3    0    0 -0.12376681964E+02  0.13438596351E+01 -0.33375570580E+02  0.35621860236E+02  0.00000000000E+00 0.  1.
</event>
<event>
 7    1  0.1202531E-011  0.5930194E+02  0.7816164E-02  0.1266605E+00
        -11   -1    0    0    0    0  0.00000000000E+00  0.00000000000E+00  0.45593999997E+02  0.45594000000E+02  0.51100000000E-03 0.  1.
         11   -1    0    0    0    0 -0.00000000000E+00 -0.00000000000E+00 -0.45593999997E+02  0.45594000000E+02  0.51100000000E-03 0. -1.
    9900012    2    1    2    0    0  0.31271072815E+02 -0.21165555951E+01  0.58618068187E+01  0.59301943773E+02  0.49999999535E+02 0.  0.
        -12    1    1    2    0    0 -0.31271072815E+02  0.21165555951E+01 -0.58618068187E+01  0.31886056227E+02  0.00000000000E+00 0.  1.
         11    1    3    3    0    0  0.14572551626E+02  0.15551587959E+02 -0.76451167535E+01  0.22641973399E+02  0.51100000000E-03 0. -1.
        -11    1    3    3    0    0  0.12757547700E+02 -0.16830006861E+02 -0.14512929098E+01  0.21168618416E+02  0.51100000000E-03 0.  1.
         12    1    3    3    0    0  0.39409734879E+01 -0.83813669282E+00  0.14958216482E+02  0.15491351957E+02  0.00000000000E+00 0. -1.
</event>
<event>
 7    1  0.1202531E-011  0.5930193E+02  0.7816164E-02  0.1266605E+00
        -11   -1    0    0    0    0  0.00000000000E+00  0.00000000000E+00  0.45593999997E+02  0.45594000000E+02  0.51100000000E-03 0. -1.
         11   -1    0    0    0    0 -0.00000000000E+00 -0.00000000000E+00 -0.45593999997E+02  0.45594000000E+02  0.51100000000E-03 0.  1.
    9900012    2    1    2    0    0 -0.18003477158E+02  0.29591432174E+00  0.26315558403E+02  0.59301931425E+02  0.49999977016E+02 0.  0.
        -12    1    1    2    0    0  0.18003477158E+02 -0.29591432174E+00 -0.26315558403E+02  0.31886068575E+02  0.00000000000E+00 0.  1.
         11    1    3    3    0    0  0.26733729781E+01 -0.26690090329E+01  0.27377532654E+01  0.46653858898E+01  0.51100000000E-03 0. -1.
        -11    1    3    3    0    0 -0.94141876118E+01 -0.16598039277E+02  0.25648695467E+02  0.31968381498E+02  0.51100000000E-03 0.  1.
         12    1    3    3    0    0 -0.11262662525E+02  0.19562962631E+02 -0.20708903292E+01  0.22668164037E+02  0.00000000000E+00 0. -1.
</event>
<event>
 7    1  0.1202531E-011  0.5930190E+02  0.7816164E-02  0.1266605E+00
        -11   -1    0    0    0    0  0.00000000000E+00  0.00000000000E+00  0.45593999997E+02  0.45594000000E+02  0.51100000000E-03 0. -1.
         11   -1    0    0    0    0 -0.00000000000E+00 -0.00000000000E+00 -0.45593999997E+02  0.45594000000E+02  0.51100000000E-03 0.  1.
    9900012    2    1    2    0    0  0.21050336249E+02  0.23849634650E+02  0.21913176240E+01  0.59301896411E+02  0.49999913159E+02 0.  0.
        -12    1    1    2    0    0 -0.21050336249E+02 -0.23849634650E+02 -0.21913176240E+01  0.31886103589E+02  0.00000000000E+00 0.  1.
         11    1    3    3    0    0  0.60693316669E+01  0.12477973178E+02 -0.11806904025E+01  0.13925897874E+02  0.51100000000E-03 0.  1.
        -11    1    3    3    0    0  0.97918673985E+01 -0.90911440394E+01 -0.13014315009E+02  0.18652130241E+02  0.51100000000E-03 0. -1.
         12    1    3    3    0    0  0.51891371836E+01  0.20462805511E+02  0.16386323036E+02  0.26723868297E+02  0.00000000000E+00 0. -1.
</event>
<event>
 7    1  0.1202531E-011  0.5930188E+02  0.7816164E-02  0.1266605E+00
        -11   -1    0    0    0    0  0.00000000000E+00  0.00000000000E+00  0.45593999997E+02  0.45594000000E+02  0.51100000000E-03 0.  1.
         11   -1    0    0    0    0 -0.00000000000E+00 -0.00000000000E+00 -0.45593999997E+02  0.45594000000E+02  0.51100000000E-03 0. -1.
    9900012    2    1    2    0    0 -0.23419315248E+02  0.19232299628E+02  0.99186255790E+01  0.59301877485E+02  0.49999878641E+02 0.  0.
        -12    1    1    2    0    0  0.23419315248E+02 -0.19232299628E+02 -0.99186255790E+01  0.31886122515E+02  0.00000000000E+00 0.  1.
         11    1    3    3    0    0 -0.15960626218E+02  0.11874092535E+02  0.62496802959E+01  0.20851718559E+02  0.51100000000E-03 0. -1.
        -11    1    3    3    0    0 -0.89804953445E+00  0.19246573724E+02  0.11828506231E+02  0.22608641113E+02  0.51100000000E-03 0.  1.
         12    1    3    3    0    0 -0.65606394956E+01 -0.11888366631E+02 -0.81595609474E+01  0.15841517812E+02  0.00000000000E+00 0. -1.
</event>
<event>
 7    1  0.1202531E-011  0.5930203E+02  0.7816164E-02  0.1266604E+00
        -11   -1    0    0    0    0  0.00000000000E+00  0.00000000000E+00  0.45593999997E+02  0.45594000000E+02  0.51100000000E-03 0.  1.
         11   -1    0    0    0    0 -0.00000000000E+00 -0.00000000000E+00 -0.45593999997E+02  0.45594000000E+02  0.51100000000E-03 0. -1.
    9900012    2    1    2    0    0  0.36618775439E+01 -0.97336079222E+00 -0.31660041922E+02  0.59302030783E+02  0.50000158221E+02 0.  0.
        -12    1    1    2    0    0 -0.36618775439E+01  0.97336079222E+00  0.31660041922E+02  0.31885969217E+02  0.00000000000E+00 0.  1.
         11    1    3    3    0    0 -0.41095241016E+01 -0.18185169242E+02 -0.58994183749E+01  0.19554838432E+02  0.51100000000E-03 0. -1.
        -11    1    3    3    0    0  0.75854429190E+01 -0.14247742079E+00  0.12023995676E+01  0.76814718039E+01  0.51100000000E-03 0.  1.
         12    1    3    3    0    0  0.18595872651E+00  0.17354285870E+02 -0.26963023115E+02  0.32065720547E+02  0.00000000000E+00 0. -1.
</event>
<event>
 7    1  0.1202531E-011  0.5930195E+02  0.7816164E-02  0.1266605E+00
        -11   -1    0    0    0    0  0.00000000000E+00  0.00000000000E+00  0.45593999997E+02  0.45594000000E+02  0.51100000000E-03 0.  1.
         11   -1    0    0    0    0 -0.00000000000E+00 -0.00000000000E+00 -0.45593999997E+02  0.45594000000E+02  0.51100000000E-03 0. -1.
    9900012    2    1    2    0    0 -0.20187873617E+02 -0.19587683316E+02 -0.15016421521E+02  0.59301945146E+02  0.50000002039E+02 0.  0.
        -12    1    1    2    0    0  0.20187873617E+02  0.19587683316E+02  0.15016421521E+02  0.31886054854E+02  0.00000000000E+00 0.  1.
         11    1    3    3    0    0  0.36295678409E+01 -0.88157542792E+01  0.37190198728E+00  0.95409432223E+01  0.51100000000E-03 0. -1.
        -11    1    3    3    0    0 -0.12669502778E+02  0.92909796631E+01  0.74449332515E+01  0.17385788309E+02  0.51100000000E-03 0.  1.
         12    1    3    3    0    0 -0.11147938680E+02 -0.20062908700E+02 -0.22833256760E+02  0.32375213614E+02  0.00000000000E+00 0. -1.
</event>
<event>
 7    1  0.1202531E-011  0.5930194E+02  0.7816164E-02  0.1266605E+00
        -11   -1    0    0    0    0  0.00000000000E+00  0.00000000000E+00  0.45593999997E+02  0.45594000000E+02  0.51100000000E-03 0. -1.
         11   -1    0    0    0    0 -0.00000000000E+00 -0.00000000000E+00 -0.45593999997E+02  0.45594000000E+02  0.51100000000E-03 0.  1.
    9900012    2    1    2    0    0 -0.46142189003E+01  0.18589903463E+02  0.25492058301E+02  0.59301944063E+02  0.50000000064E+02 0.  0.
        -12    1    1    2    0    0  0.46142189003E+01 -0.18589903463E+02 -0.25492058301E+02  0.31886055937E+02  0.00000000000E+00 0.  1.
         11    1    3    3    0    0 -0.78526969740E+00 -0.30345079070E+01  0.74429998837E+00  0.32216252838E+01  0.51100000000E-03 0. -1.
        -11    1    3    3    0    0 -0.12599107841E+02  0.20211564587E+01 -0.93249622668E+01  0.15804351089E+02  0.51100000000E-03 0.  1.
         12    1    3    3    0    0  0.87701586382E+01  0.19603254912E+02  0.34072720579E+02  0.40275967689E+02  0.00000000000E+00 0. -1.
</event>
<event>
 7    1  0.1202531E-011  0.5930194E+02  0.7816164E-02  0.1266605E+00
        -11   -1    0    0    0    0  0.00000000000E+00  0.00000000000E+00  0.45593999997E+02  0.45594000000E+02  0.51100000000E-03 0.  1.
         11   -1    0    0    0    0 -0.00000000000E+00 -0.00000000000E+00 -0.45593999997E+02  0.45594000000E+02  0.51100000000E-03 0. -1.
    9900012    2    1    2    0    0 -0.20994195362E+02  0.16705544465E+02 -0.17230473761E+02  0.59301942219E+02  0.49999996702E+02 0.  0.
        -12    1    1    2    0    0  0.20994195362E+02 -0.16705544465E+02  0.17230473761E+02  0.31886057781E+02  0.00000000000E+00 0.  1.
         11    1    3    3    0    0 -0.14258791825E+02  0.45804469587E+01 -0.21095918678E+02  0.25871440311E+02  0.51100000000E-03 0. -1.
        -11    1    3    3    0    0 -0.15235767093E+02  0.34168205364E+01 -0.70046116900E+01  0.17113382094E+02  0.51100000000E-03 0.  1.
        -12    1    3    3    0    0  0.85003635559E+01  0.87082769704E+01  0.10870056608E+02  0.16317119814E+02  0.00000000000E+00 0.  1.
</event>
<event>
 7    1  0.1202531E-011  0.5930198E+02  0.7816164E-02  0.1266605E+00
        -11   -1    0    0    0    0  0.00000000000E+00  0.00000000000E+00  0.45593999997E+02  0.45594000000E+02  0.51100000000E-03 0.  1.
         11   -1    0    0    0    0 -0.00000000000E+00 -0.00000000000E+00 -0.45593999997E+02  0.45594000000E+02  0.51100000000E-03 0. -1.
    9900012    2    1    2    0    0  0.15184974645E+02  0.18340985496E+02 -0.21207146945E+02  0.59301979780E+02  0.50000065203E+02 0.  0.
        -12    1    1    2    0    0 -0.15184974645E+02 -0.18340985496E+02  0.21207146945E+02  0.31886020220E+02  0.00000000000E+00 0.  1.
         11    1    3    3    0    0  0.50776495380E+01 -0.10343268176E+02 -0.22020102761E+02  0.24852578282E+02  0.51100000000E-03 0. -1.
        -11    1    3    3    0    0  0.90333569499E+01  0.16447320729E+02 -0.68446166270E+01  0.19974100079E+02  0.51100000000E-03 0.  1.
        -12    1    3    3    0    0  0.10739681571E+01  0.12236932942E+02  0.76575724429E+01  0.14475301419E+02  0.00000000000E+00 0.  1.
</event>
<event>
 7    1  0.1202531E-011  0.5930192E+02  0.7816164E-02  0.1266605E+00
        -11   -1    0    0    0    0  0.00000000000E+00  0.00000000000E+00  0.45593999997E+02  0.45594000000E+02  0.51100000000E-03 0.  1.
         11   -1    0    0    0    0 -0.00000000000E+00 -0.00000000000E+00 -0.45593999997E+02  0.45594000000E+02  0.51100000000E-03 0. -1.
    9900012    2    1    2    0    0 -0.14513259968E+02  0.61973871671E+01 -0.27707033967E+02  0.59301920688E+02  0.49999957435E+02 0.  0.
        -12    1    1    2    0    0  0.14513259968E+02 -0.61973871671E+01  0.27707033967E+02  0.31886079312E+02  0.00000000000E+00 0.  1.
         11    1    3    3    0    0 -0.67532873893E+01 -0.67851999000E+01 -0.70719817802E+01  0.11902048345E+02  0.51100000000E-03 0. -1.
        -11    1    3    3    0    0  0.86698434677E+01 -0.10698624419E+02 -0.80377104504E+01  0.15944639844E+02  0.51100000000E-03 0.  1.
         12    1    3    3    0    0 -0.16429816046E+02  0.23681211486E+02 -0.12597341737E+02  0.31455232499E+02  0.00000000000E+00 0. -1.
</event>
<event>
 7    1  0.1202531E-011  0.5930193E+02  0.7816164E-02  0.1266605E+00
        -11   -1    0    0    0    0  0.00000000000E+00  0.00000000000E+00  0.45593999997E+02  0.45594000000E+02  0.51100000000E-03 0.  1.
         11   -1    0    0    0    0 -0.00000000000E+00 -0.00000000000E+00 -0.45593999997E+02  0.45594000000E+02  0.51100000000E-03 0. -1.
    9900012    2    1    2    0    0 -0.89507298393E+01  0.23201138104E+02 -0.19957775270E+02  0.59301934584E+02  0.49999982778E+02 0.  0.
        -12    1    1    2    0    0  0.89507298393E+01 -0.23201138104E+02  0.19957775270E+02  0.31886065416E+02  0.00000000000E+00 0.  1.
         11    1    3    3    0    0 -0.84004817393E+01 -0.51087211649E+01 -0.17048684629E+02  0.19680568418E+02  0.51100000000E-03 0. -1.
        -11    1    3    3    0    0  0.46639918580E+01 -0.43610294225E+01  0.22247668939E+00  0.63891230865E+01  0.51100000000E-03 0.  1.
         12    1    3    3    0    0 -0.52142399581E+01  0.32670888691E+02 -0.31315673300E+01  0.33232243080E+02  0.00000000000E+00 0. -1.
</event>
<event>
 7    1  0.1202531E-011  0.5930205E+02  0.7816164E-02  0.1266604E+00
        -11   -1    0    0    0    0  0.00000000000E+00  0.00000000000E+00  0.45593999997E+02  0.45594000000E+02  0.51100000000E-03 0. -1.
         11   -1    0    0    0    0 -0.00000000000E+00 -0.00000000000E+00 -0.45593999997E+02  0.45594000000E+02  0.51100000000E-03 0.  1.
    9900012    2    1    2    0    0  0.27964687149E+02  0.13570312972E+02  0.71089276939E+01  0.59302047380E+02  0.50000188490E+02 0.  0.
        -12    1    1    2    0    0 -0.27964687149E+02 -0.13570312972E+02 -0.71089276939E+01  0.31885952620E+02  0.00000000000E+00 0.  1.
         11    1    3    3    0    0  0.13027489757E+00  0.74936669639E+01 -0.18726381194E+02  0.20170507406E+02  0.51100000000E-03 0. -1.
        -11    1    3    3    0    0 -0.36660748408E+00 -0.18913516450E+00  0.62432353470E-01  0.41721842926E+00  0.51100000000E-03 0.  1.
         12    1    3    3    0    0  0.28201019736E+02  0.62657811723E+01  0.25772876535E+02  0.38714321545E+02  0.00000000000E+00 0. -1.
</event>
<event>
 7    1  0.1202531E-011  0.5930194E+02  0.7816164E-02  0.1266605E+00
        -11   -1    0    0    0    0  0.00000000000E+00  0.00000000000E+00  0.45593999997E+02  0.45594000000E+02  0.51100000000E-03 0. -1.
         11   -1    0    0    0    0 -0.00000000000E+00 -0.00000000000E+00 -0.45593999997E+02  0.45594000000E+02  0.51100000000E-03 0.  1.
    9900012    2    1    2    0    0 -0.25928482285E+02 -0.65017014762E-01  0.18558840200E+02  0.59301937678E+02  0.49999988420E+02 0.  0.
        -12    1    1    2    0    0  0.25928482285E+02  0.65017014762E-01 -0.18558840200E+02  0.31886062322E+02  0.00000000000E+00 0.  1.
         11    1    3    3    0    0  0.71342960229E+01  0.50211854936E+00  0.40437650520E+01  0.82159806984E+01  0.51100000000E-03 0. -1.
        -11    1    3    3    0    0  0.17799871639E+01  0.11794454147E+02  0.22846379866E+01  0.12144837336E+02  0.51100000000E-03 0.  1.
         12    1    3    3    0    0 -0.34842765472E+02 -0.12361589711E+02  0.12230437161E+02  0.38941119643E+02  0.00000000000E+00 0. -1.
</event>
<event>
 7    1  0.1202531E-011  0.5930194E+02  0.7816164E-02  0.1266605E+00
        -11   -1    0    0    0    0  0.00000000000E+00  0.00000000000E+00  0.45593999997E+02  0.45594000000E+02  0.51100000000E-03 0.  1.
         11   -1    0    0    0    0 -0.00000000000E+00 -0.00000000000E+00 -0.45593999997E+02  0.45594000000E+02  0.51100000000E-03 0. -1.
    9900012    2    1    2    0    0  0.15395985676E+02  0.21500061845E+02 -0.17816607119E+02  0.59301944686E+02  0.50000001201E+02 0.  0.
        -12    1    1    2    0    0 -0.15395985676E+02 -0.21500061845E+02  0.17816607119E+02  0.31886055314E+02  0.00000000000E+00 0.  1.
         11    1    3    3    0    0  0.41189586611E+01  0.54514410474E+01 -0.23206895918E+02  0.24191817798E+02  0.51100000000E-03 0. -1.
        -11    1    3    3    0    0  0.43036362979E+01 -0.82581722651E+01  0.30944350988E+00  0.93174272249E+01  0.51100000000E-03 0.  1.
        -12    1    3    3    0    0  0.69733907171E+01  0.24306793062E+02  0.50808452899E+01  0.25792699663E+02  0.00000000000E+00 0.  1.
</event>
<event>
 7    1  0.1202531E-011  0.5930195E+02  0.7816164E-02  0.1266605E+00
        -11   -1    0    0    0    0  0.00000000000E+00  0.00000000000E+00  0.45593999997E+02  0.45594000000E+02  0.51100000000E-03 0. -1.
         11   -1    0    0    0    0 -0.00000000000E+00 -0.00000000000E+00 -0.45593999997E+02  0.45594000000E+02  0.51100000000E-03 0.  1.
    9900012    2    1    2    0    0 -0.20610212534E+02  0.24267449254E+02  0.17407386247E+01  0.59301950935E+02  0.50000012597E+02 0.  0.
        -12    1    1    2    0    0  0.20610212534E+02 -0.24267449254E+02 -0.17407386247E+01  0.31886049065E+02  0.00000000000E+00 0.  1.
         11    1    3    3    0    0  0.43187931104E+01 -0.62925461730E-01  0.38763827304E+01  0.58036434141E+01  0.51100000000E-03 0. -1.
        -11    1    3    3    0    0 -0.30200722756E+01 -0.75893369359E+01 -0.11077994741E+02  0.13763750921E+02  0.51100000000E-03 0.  1.
         12    1    3    3    0    0 -0.21908933369E+02  0.31919711652E+02  0.89423506353E+01  0.39734556600E+02  0.00000000000E+00 0. -1.
</event>
<event>
 7    1  0.1202531E-011  0.5930206E+02  0.7816164E-02  0.1266604E+00
        -11   -1    0    0    0    0  0.00000000000E+00  0.00000000000E+00  0.45593999997E+02  0.45594000000E+02  0.51100000000E-03 0. -1.
         11   -1    0    0    0    0 -0.00000000000E+00 -0.00000000000E+00 -0.45593999997E+02  0.45594000000E+02  0.51100000000E-03 0.  1.
    9900012    2    1    2    0    0 -0.28045340894E+02  0.15165533948E+02 -0.42251925282E+00  0.59302061276E+02  0.50000213832E+02 0.  0.
        -12    1    1    2    0    0  0.28045340894E+02 -0.15165533948E+02  0.42251925282E+00  0.31885938724E+02  0.00000000000E+00 0.  1.
         11    1    3    3    0    0 -0.27428477595E+02 -0.27277447086E+00 -0.91243133433E+00  0.27445005379E+02  0.51100000000E-03 0. -1.
        -11    1    3    3    0    0 -0.15142223868E+01 -0.76558745020E+01  0.34947294574E+01  0.85509308306E+01  0.51100000000E-03 0.  1.
         12    1    3    3    0    0  0.89735908756E+00  0.23094182921E+02 -0.30048173759E+01  0.23306125066E+02  0.00000000000E+00 0. -1.
</event>
<event>
 7    1  0.1202531E-011  0.5930194E+02  0.7816164E-02  0.1266605E+00
        -11   -1    0    0    0    0  0.00000000000E+00  0.00000000000E+00  0.45593999997E+02  0.45594000000E+02  0.51100000000E-03 0.  1.
         11   -1    0    0    0    0 -0.00000000000E+00 -0.00000000000E+00 -0.45593999997E+02  0.45594000000E+02  0.51100000000E-03 0. -1.
    9900012    2    1    2    0    0 -0.61462053192E+01 -0.30785801642E+02  0.55838551736E+01  0.59301939391E+02  0.49999991543E+02 0.  0.
        -12    1    1    2    0    0  0.61462053192E+01  0.30785801642E+02 -0.55838551736E+01  0.31886060609E+02  0.00000000000E+00 0.  1.
         11    1    3    3    0    0  0.19108951846E+01 -0.10919117118E+02 -0.30711064986E+01  0.11502622937E+02  0.51100000000E-03 0.  1.
        -11    1    3    3    0    0 -0.22636301663E+02 -0.10649520393E+02 -0.53489954426E+01  0.25581755023E+02  0.51100000000E-03 0. -1.
        -12    1    3    3    0    0  0.14579201159E+02 -0.92171641305E+01  0.14003957115E+02  0.22217561430E+02  0.00000000000E+00 0.  1.
</event>
<event>
 7    1  0.1202531E-011  0.5930193E+02  0.7816164E-02  0.1266605E+00
        -11   -1    0    0    0    0  0.00000000000E+00  0.00000000000E+00  0.45593999997E+02  0.45594000000E+02  0.51100000000E-03 0. -1.
         11   -1    0    0    0    0 -0.00000000000E+00 -0.00000000000E+00 -0.45593999997E+02  0.45594000000E+02  0.51100000000E-03 0.  1.
    9900012    2    1    2    0    0  0.64337618299E+01  0.43892270598E+01  0.30920266237E+02  0.59301929850E+02  0.49999974142E+02 0.  0.
        -12    1    1    2    0    0 -0.64337618299E+01 -0.43892270598E+01 -0.30920266237E+02  0.31886070150E+02  0.00000000000E+00 0.  1.
         11    1    3    3    0    0 -0.57019885600E+01 -0.92261665929E+01  0.75823976851E+01  0.13233577689E+02  0.51100000000E-03 0. -1.
        -11    1    3    3    0    0 -0.50347909415E+01 -0.35101114894E+01 -0.56027678115E+01  0.83102954161E+01  0.51100000000E-03 0.  1.
         12    1    3    3    0    0  0.17170541331E+02  0.17125505142E+02  0.28940636363E+02  0.37758056744E+02  0.00000000000E+00 0. -1.
</event>
<event>
 7    1  0.1202531E-011  0.5930192E+02  0.7816164E-02  0.1266605E+00
        -11   -1    0    0    0    0  0.00000000000E+00  0.00000000000E+00  0.45593999997E+02  0.45594000000E+02  0.51100000000E-03 0. -1.
         11   -1    0    0    0    0 -0.00000000000E+00 -0.00000000000E+00 -0.45593999997E+02  0.45594000000E+02  0.51100000000E-03 0.  1.
    9900012    2    1    2    0    0  0.14703991838E+02  0.12641919977E+02 -0.25311990026E+02  0.59301915955E+02  0.49999948801E+02 0.  0.
        -12    1    1    2    0    0 -0.14703991838E+02 -0.12641919977E+02  0.25311990026E+02  0.31886084045E+02  0.00000000000E+00 0.  1.
         11    1    3    3    0    0 -0.82707711074E+01  0.47630033456E+01 -0.11154090364E+01  0.96091619385E+01  0.51100000000E-03 0. -1.
        -11    1    3    3    0    0  0.60632323086E+01  0.14285632726E+02 -0.27243334543E+02  0.31353490487E+02  0.51100000000E-03 0.  1.
        -12    1    3    3    0    0  0.16911530637E+02 -0.64067160940E+01  0.30467535540E+01  0.18339263529E+02  0.00000000000E+00 0.  1.
</event>
<event>
 7    1  0.1202531E-011  0.5930194E+02  0.7816164E-02  0.1266605E+00
        -11   -1    0    0    0    0  0.00000000000E+00  0.00000000000E+00  0.45593999997E+02  0.45594000000E+02  0.51100000000E-03 0.  1.
         11   -1    0    0    0    0 -0.00000000000E+00 -0.00000000000E+00 -0.45593999997E+02  0.45594000000E+02  0.51100000000E-03 0. -1.
    9900012    2    1    2    0    0  0.12111251958E+02  0.27746255203E+02  0.10009172716E+02  0.59301942855E+02  0.49999997862E+02 0.  0.
        -12    1    1    2    0    0 -0.12111251958E+02 -0.27746255203E+02 -0.10009172716E+02  0.31886057145E+02  0.00000000000E+00 0.  1.
         11    1    3    3    0    0  0.35374428967E+01 -0.40714995459E+01  0.69903936632E+01  0.88292816598E+01  0.51100000000E-03 0. -1.
        -11    1    3    3    0    0  0.11970715155E+02  0.80107634299E+01  0.17293995817E+02  0.22506724409E+02  0.51100000000E-03 0.  1.
         12    1    3    3    0    0 -0.33969060934E+01  0.23806991319E+02 -0.14275216765E+02  0.27965936786E+02  0.00000000000E+00 0. -1.
</event>
<event>
 7    1  0.1202531E-011  0.5930195E+02  0.7816164E-02  0.1266605E+00
        -11   -1    0    0    0    0  0.00000000000E+00  0.00000000000E+00  0.45593999997E+02  0.45594000000E+02  0.51100000000E-03 0.  1.
         11   -1    0    0    0    0 -0.00000000000E+00 -0.00000000000E+00 -0.45593999997E+02  0.45594000000E+02  0.51100000000E-03 0. -1.
    9900012    2    1    2    0    0 -0.21553424828E+02 -0.41037475173E+01 -0.23137184959E+02  0.59301949864E+02  0.50000010643E+02 0.  0.
        -12    1    1    2    0    0  0.21553424828E+02  0.41037475173E+01  0.23137184959E+02  0.31886050136E+02  0.00000000000E+00 0.  1.
         11    1    3    3    0    0 -0.12659569794E+02 -0.14743822182E+02 -0.16199852643E+02  0.25299806834E+02  0.51100000000E-03 0. -1.
        -11    1    3    3    0    0  0.70415475081E+01 -0.66752954829E+01 -0.28947653943E+01  0.10125345823E+02  0.51100000000E-03 0.  1.
        -12    1    3    3    0    0 -0.15935402542E+02  0.17315370148E+02 -0.40425669218E+01  0.23876797207E+02  0.00000000000E+00 0.  1.
</event>
<event>
 7    1  0.1202531E-011  0.5930177E+02  0.7816164E-02  0.1266605E+00
        -11   -1    0    0    0    0  0.00000000000E+00  0.00000000000E+00  0.45593999997E+02  0.45594000000E+02  0.51100000000E-03 0.  1.
         11   -1    0    0    0    0 -0.00000000000E+00 -0.00000000000E+00 -0.45593999997E+02  0.45594000000E+02  0.51100000000E-03 0. -1.
    9900012    2    1    2    0    0 -0.14781541751E+02 -0.16358288115E+02 -0.23035715892E+02  0.59301768281E+02  0.49999679478E+02 0.  0.
        -12    1    1    2    0    0  0.14781541751E+02  0.16358288115E+02  0.23035715892E+02  0.31886231719E+02  0.00000000000E+00 0.  1.
         11    1    3    3    0    0 -0.19599396573E+02 -0.50045988219E+01 -0.14085524676E+02  0.24649226378E+02  0.51100000000E-03 0. -1.
        -11    1    3    3    0    0 -0.52263661587E+01  0.49020803893E+01  0.68083335177E+01  0.98842653201E+01  0.51100000000E-03 0.  1.
         12    1    3    3    0    0  0.10044220980E+02 -0.16255769683E+02 -0.15758524734E+02  0.24768276582E+02  0.00000000000E+00 0. -1.
</event>
<event>
 7    1  0.1202531E-011  0.5930206E+02  0.7816164E-02  0.1266604E+00
        -11   -1    0    0    0    0  0.00000000000E+00  0.00000000000E+00  0.45593999997E+02  0.45594000000E+02  0.51100000000E-03 0. -1.
         11   -1    0    0    0    0 -0.00000000000E+00 -0.00000000000E+00 -0.45593999997E+02  0.45594000000E+02  0.51100000000E-03 0.  1.
    9900012    2    1    2    0    0 -0.10871461791E+02 -0.29263459365E+02  0.64941868850E+01  0.59302059544E+02  0.50000210673E+02 0.  0.
        -12    1    1    2    0    0  0.10871461791E+02  0.29263459365E+02 -0.64941868850E+01  0.31885940456E+02  0.00000000000E+00 0.  1.
         11    1    3    3    0    0  0.16848119872E+01 -0.51908709551E+01 -0.79843146381E+01  0.96712467245E+01  0.51100000000E-03 0. -1.
        -11    1    3    3    0    0 -0.77599714019E+01 -0.28856363868E+02 -0.38142969971E+01  0.30124006269E+02  0.51100000000E-03 0.  1.
        -12    1    3    3    0    0 -0.47963023758E+01  0.47837754578E+01  0.18292798520E+02  0.19506806551E+02  0.00000000000E+00 0.  1.
</event>
<event>
 7    1  0.1202531E-011  0.5930195E+02  0.7816164E-02  0.1266605E+00
        -11   -1    0    0    0    0  0.00000000000E+00  0.00000000000E+00  0.45593999997E+02  0.45594000000E+02  0.51100000000E-03 0.  1.
         11   -1    0    0    0    0 -0.00000000000E+00 -0.00000000000E+00 -0.45593999997E+02  0.45594000000E+02  0.51100000000E-03 0. -1.
    9900012    2    1    2    0    0  0.14920339614E+02  0.27954114775E+02 -0.35596765268E+01  0.59301947187E+02  0.50000005761E+02 0.  0.
        -12    1    1    2    0    0 -0.14920339614E+02 -0.27954114775E+02  0.35596765268E+01  0.31886052813E+02  0.00000000000E+00 0.  1.
         11    1    3    3    0    0 -0.76725522668E+01 -0.46773519957E+01 -0.25621924365E+01  0.93440093280E+01  0.51100000000E-03 0. -1.
        -11    1    3    3    0    0  0.65954352187E+01 -0.39037944953E+01 -0.60375629181E+01  0.97566153679E+01  0.51100000000E-03 0.  1.
        -12    1    3    3    0    0  0.15997456662E+02  0.36535261266E+02  0.50400788278E+01  0.40201322491E+02  0.00000000000E+00 0.  1.
</event>
<event>
 7    1  0.1202531E-011  0.5930197E+02  0.7816164E-02  0.1266605E+00
        -11   -1    0    0    0    0  0.00000000000E+00  0.00000000000E+00  0.45593999997E+02  0.45594000000E+02  0.51100000000E-03 0. -1.
         11   -1    0    0    0    0 -0.00000000000E+00 -0.00000000000E+00 -0.45593999997E+02  0.45594000000E+02  0.51100000000E-03 0.  1.
    9900012    2    1    2    0    0  0.15523398381E+02  0.14953815698E+02  0.23497372959E+02  0.59301967992E+02  0.50000043705E+02 0.  0.
        -12    1    1    2    0    0 -0.15523398381E+02 -0.14953815698E+02 -0.23497372959E+02  0.31886032008E+02  0.00000000000E+00 0.  1.
         11    1    3    3    0    0 -0.12549542054E+02  0.13191420772E+02  0.71465975906E+00  0.18221287731E+02  0.51100000000E-03 0. -1.
        -11    1    3    3    0    0  0.26330760078E+01  0.11874371023E+01 -0.34730967824E+01  0.45172444760E+01  0.51100000000E-03 0.  1.
         12    1    3    3    0    0  0.25439864427E+02  0.57495782328E+00  0.26255809982E+02  0.36563435785E+02  0.00000000000E+00 0. -1.
</event>
<event>
 7    1  0.1202531E-011  0.5930195E+02  0.7816164E-02  0.1266605E+00
        -11   -1    0    0    0    0  0.00000000000E+00  0.00000000000E+00  0.45593999997E+02  0.45594000000E+02  0.51100000000E-03 0.  1.
         11   -1    0    0    0    0 -0.00000000000E+00 -0.00000000000E+00 -0.45593999997E+02  0.45594000000E+02  0.51100000000E-03 0. -1.
    9900012    2    1    2    0    0 -0.93410646731E+01 -0.24258936617E+02 -0.18465332374E+02  0.59301952978E+02  0.50000016323E+02 0.  0.
        -12    1    1    2    0    0  0.93410646731E+01  0.24258936617E+02  0.18465332374E+02  0.31886047022E+02  0.00000000000E+00 0.  1.
         11    1    3    3    0    0  0.15348664070E-02 -0.29271059311E+02  0.43406591405E+01  0.29591151339E+02  0.51100000000E-03 0. -1.
        -11    1    3    3    0    0  0.35658386716E+01  0.17265346438E+00 -0.66897140582E+00  0.36321533081E+01  0.51100000000E-03 0.  1.
         12    1    3    3    0    0 -0.12908438211E+02  0.48394692299E+01 -0.22137020109E+02  0.26078648331E+02  0.00000000000E+00 0. -1.
</event>
<event>
 7    1  0.1202531E-011  0.5930193E+02  0.7816164E-02  0.1266605E+00
        -11   -1    0    0    0    0  0.00000000000E+00  0.00000000000E+00  0.45593999997E+02  0.45594000000E+02  0.51100000000E-03 0. -1.
         11   -1    0    0    0    0 -0.00000000000E+00 -0.00000000000E+00 -0.45593999997E+02  0.45594000000E+02  0.51100000000E-03 0.  1.
    9900012    2    1    2    0    0  0.36668568899E+01  0.92133496210E+01  0.30304947008E+02  0.59301929941E+02  0.49999974308E+02 0.  0.
        -12    1    1    2    0    0 -0.36668568899E+01 -0.92133496210E+01 -0.30304947008E+02  0.31886070059E+02  0.00000000000E+00 0.  1.
         11    1    3    3    0    0 -0.38896542574E+01  0.16053932888E+02  0.24734913763E+01  0.16702584568E+02  0.51100000000E-03 0. -1.
        -11    1    3    3    0    0  0.12706581022E+02  0.66996756015E+01  0.43501531348E+01  0.15008886934E+02  0.51100000000E-03 0.  1.
         12    1    3    3    0    0 -0.51500698747E+01 -0.13540258868E+02  0.23481302497E+02  0.27590458439E+02  0.00000000000E+00 0. -1.
</event>
<event>
 7    1  0.1202531E-011  0.5930196E+02  0.7816164E-02  0.1266605E+00
        -11   -1    0    0    0    0  0.00000000000E+00  0.00000000000E+00  0.45593999997E+02  0.45594000000E+02  0.51100000000E-03 0.  1.
         11   -1    0    0    0    0 -0.00000000000E+00 -0.00000000000E+00 -0.45593999997E+02  0.45594000000E+02  0.51100000000E-03 0. -1.
    9900012    2    1    2    0    0  0.21106281500E+00 -0.19377789457E+02 -0.25321455850E+02  0.59301962333E+02  0.50000033384E+02 0.  0.
        -12    1    1    2    0    0 -0.21106281500E+00  0.19377789457E+02  0.25321455850E+02  0.31886037667E+02  0.00000000000E+00 0.  1.
         11    1    3    3    0    0 -0.18214504908E+02  0.13483187558E+01 -0.15456111276E+02  0.23926502639E+02  0.51100000000E-03 0. -1.
        -11    1    3    3    0    0  0.47096610894E+01 -0.14237549927E+02 -0.13040931085E+02  0.19873465206E+02  0.51100000000E-03 0.  1.
        -12    1    3    3    0    0  0.13715906633E+02 -0.64885582860E+01  0.31755865107E+01  0.15501994487E+02  0.00000000000E+00 0.  1.
</event>
<event>
 7    1  0.1202531E-011  0.5930177E+02  0.7816164E-02  0.1266605E+00
        -11   -1    0    0    0    0  0.00000000000E+00  0.00000000000E+00  0.45593999997E+02  0.45594000000E+02  0.51100000000E-03 0.  1.
         11   -1    0    0    0    0 -0.00000000000E+00 -0.00000000000E+00 -0.45593999997E+02  0.45594000000E+02  0.51100000000E-03 0. -1.
    9900012    2    1    2    0    0  0.83881185179E+01  0.29371890831E+02 -0.91467657893E+01  0.59301767428E+02  0.49999677923E+02 0.  0.
        -12    1    1    2    0    0 -0.83881185179E+01 -0.29371890831E+02  0.91467657893E+01  0.31886232572E+02  0.00000000000E+00 0.  1.
         11    1    3    3    0    0 -0.91125948801E+01  0.12035698538E+02 -0.14132817635E+02  0.20679312351E+02  0.51100000000E-03 0. -1.
        -11    1    3    3    0    0  0.14851249764E+02 -0.55109282525E-01 -0.78944113364E+01  0.16819167256E+02  0.51100000000E-03 0.  1.
        -12    1    3    3    0    0  0.26494636345E+01  0.17391301575E+02  0.12880463182E+02  0.21803287821E+02  0.00000000000E+00 0.  1.
</event>
<event>
 7    1  0.1202531E-011  0.5930193E+02  0.7816164E-02  0.1266605E+00
        -11   -1    0    0    0    0  0.00000000000E+00  0.00000000000E+00  0.45593999997E+02  0.45594000000E+02  0.51100000000E-03 0.  1.
         11   -1    0    0    0    0 -0.00000000000E+00 -0.00000000000E+00 -0.45593999997E+02  0.45594000000E+02  0.51100000000E-03 0. -1.
    9900012    2    1    2    0    0 -0.27924477606E+02  0.23849727220E+01 -0.15207142640E+02  0.59301925740E+02  0.49999966647E+02 0.  0.
        -12    1    1    2    0    0  0.27924477606E+02 -0.23849727220E+01  0.15207142640E+02  0.31886074260E+02  0.00000000000E+00 0.  1.
         11    1    3    3    0    0 -0.38492134868E+01 -0.19002422519E+02 -0.51598941715E+01  0.20063225418E+02  0.51100000000E-03 0. -1.
        -11    1    3    3    0    0 -0.15361163185E+02  0.12338054137E+01 -0.74870273994E+01  0.17133102163E+02  0.51100000000E-03 0.  1.
        -12    1    3    3    0    0 -0.87141009342E+01  0.20153589827E+02 -0.25602210693E+01  0.22105598158E+02  0.00000000000E+00 0.  1.
</event>
<event>
 7    1  0.1202531E-011  0.5930194E+02  0.7816164E-02  0.1266605E+00
        -11   -1    0    0    0    0  0.00000000000E+00  0.00000000000E+00  0.45593999997E+02  0.45594000000E+02  0.51100000000E-03 0. -1.
         11   -1    0    0    0    0 -0.00000000000E+00 -0.00000000000E+00 -0.45593999997E+02  0.45594000000E+02  0.51100000000E-03 0.  1.
    9900012    2    1    2    0    0 -0.21100756893E+02 -0.75380299213E+01 -0.22686059161E+02  0.59301935382E+02  0.49999984233E+02 0.  0.
        -12    1    1    2    0    0  0.21100756893E+02  0.75380299213E+01  0.22686059161E+02  0.31886064618E+02  0.00000000000E+00 0.  1.
         11    1    3    3    0    0 -0.10097066239E+02 -0.11319963081E+02  0.11168329926E+02  0.18836770009E+02  0.51100000000E-03 0. -1.
        -11    1    3    3    0    0 -0.13722116655E+02 -0.36201340896E+01 -0.23454815290E+02  0.27414051450E+02  0.51100000000E-03 0.  1.
        -12    1    3    3    0    0  0.27184260009E+01  0.74020672490E+01 -0.10399573797E+02  0.13051113923E+02  0.00000000000E+00 0.  1.
</event>
<event>
 7    1  0.1202531E-011  0.5930192E+02  0.7816164E-02  0.1266605E+00
        -11   -1    0    0    0    0  0.00000000000E+00  0.00000000000E+00  0.45593999997E+02  0.45594000000E+02  0.51100000000E-03 0. -1.
         11   -1    0    0    0    0 -0.00000000000E+00 -0.00000000000E+00 -0.45593999997E+02  0.45594000000E+02  0.51100000000E-03 0.  1.
    9900012    2    1    2    0    0  0.28905357932E+02 -0.59428891938E+01  0.12078259822E+02  0.59301921385E+02  0.49999958705E+02 0.  0.
        -12    1    1    2    0    0 -0.28905357932E+02  0.59428891938E+01 -0.12078259822E+02  0.31886078615E+02  0.00000000000E+00 0.  1.
         11    1    3    3    0    0 -0.52174379723E+01  0.43900521475E+01  0.70737588631E+00  0.68552605901E+01  0.51100000000E-03 0. -1.
        -11    1    3    3    0    0  0.17857578917E+02  0.10153290622E+02  0.15800798950E+02  0.25916166440E+02  0.51100000000E-03 0.  1.
        -12    1    3    3    0    0  0.16265216987E+02 -0.20486231963E+02 -0.44299150144E+01  0.26530494355E+02  0.00000000000E+00 0.  1.
</event>
<event>
 7    1  0.1202531E-011  0.5930193E+02  0.7816164E-02  0.1266605E+00
        -11   -1    0    0    0    0  0.00000000000E+00  0.00000000000E+00  0.45593999997E+02  0.45594000000E+02  0.51100000000E-03 0.  1.
         11   -1    0    0    0    0 -0.00000000000E+00 -0.00000000000E+00 -0.45593999997E+02  0.45594000000E+02  0.51100000000E-03 0. -1.
    9900012    2    1    2    0    0 -0.16662138469E+02 -0.20813093324E+02 -0.17490281611E+02  0.59301926819E+02  0.49999968615E+02 0.  0.
        -12    1    1    2    0    0  0.16662138469E+02  0.20813093324E+02  0.17490281611E+02  0.31886073181E+02  0.00000000000E+00 0.  1.
         11    1    3    3    0    0  0.14348005144E+02 -0.33589854855E+01 -0.42372351444E+01  0.15333042654E+02  0.51100000000E-03 0. -1.
        -11    1    3    3    0    0 -0.12839288886E+02 -0.79602852345E+01 -0.17409737103E+02  0.23050215322E+02  0.51100000000E-03 0.  1.
        -12    1    3    3    0    0 -0.18170854727E+02 -0.94938226042E+01  0.41566906365E+01  0.20918668843E+02  0.00000000000E+00 0.  1.
</event>
<event>
 7    1  0.1202531E-011  0.5930192E+02  0.7816164E-02  0.1266605E+00
        -11   -1    0    0    0    0  0.00000000000E+00  0.00000000000E+00  0.45593999997E+02  0.45594000000E+02  0.51100000000E-03 0.  1.
         11   -1    0    0    0    0 -0.00000000000E+00 -0.00000000000E+00 -0.45593999997E+02  0.45594000000E+02  0.51100000000E-03 0. -1.
    9900012    2    1    2    0    0 -0.21756105489E+02  0.14472324371E+02  0.18274185546E+02  0.59301919085E+02  0.49999954510E+02 0.  0.
        -12    1    1    2    0    0  0.21756105489E+02 -0.14472324371E+02 -0.18274185546E+02  0.31886080915E+02  0.00000000000E+00 0.  1.
         11    1    3    3    0    0 -0.21322110492E+02  0.10007531482E+02 -0.76377716510E+01  0.24761232567E+02  0.51100000000E-03 0. -1.
        -11    1    3    3    0    0  0.34573957767E+01 -0.21041404930E+01 -0.27408539308E+01  0.48880746007E+01  0.51100000000E-03 0.  1.
         12    1    3    3    0    0 -0.38913907742E+01  0.65689333818E+01  0.28652811128E+02  0.29652611917E+02  0.00000000000E+00 0. -1.
</event>
<event>
 7    1  0.1202531E-011  0.5930194E+02  0.7816164E-02  0.1266605E+00
        -11   -1    0    0    0    0  0.00000000000E+00  0.00000000000E+00  0.45593999997E+02  0.45594000000E+02  0.51100000000E-03 0.  1.
         11   -1    0    0    0    0 -0.00000000000E+00 -0.00000000000E+00 -0.45593999997E+02  0.45594000000E+02  0.51100000000E-03 0. -1.
    9900012    2    1    2    0    0  0.30194876718E+01  0.20491224347E+01 -0.31676559545E+02  0.59301942967E+02  0.49999998065E+02 0.  0.
        -12    1    1    2    0    0 -0.30194876718E+01 -0.20491224347E+01  0.31676559545E+02  0.31886057033E+02  0.00000000000E+00 0.  1.
         11    1    3    3    0    0  0.11669047279E+02  0.56861811411E+01 -0.60530145066E+01  0.14322650077E+02  0.51100000000E-03 0. -1.
        -11    1    3    3    0    0  0.67022455751E+01  0.42705378150E+01  0.53058698486E+01  0.95556184567E+01  0.51100000000E-03 0.  1.
         12    1    3    3    0    0 -0.15351805182E+02 -0.79075965215E+01 -0.30929414887E+02  0.35423674433E+02  0.00000000000E+00 0. -1.
</event>
<event>
 7    1  0.1202531E-011  0.5930189E+02  0.7816164E-02  0.1266605E+00
        -11   -1    0    0    0    0  0.00000000000E+00  0.00000000000E+00  0.45593999997E+02  0.45594000000E+02  0.51100000000E-03 0.  1.
         11   -1    0    0    0    0 -0.00000000000E+00 -0.00000000000E+00 -0.45593999997E+02  0.45594000000E+02  0.51100000000E-03 0. -1.
    9900012    2    1    2    0    0 -0.11462507323E+02 -0.23512416865E+01 -0.29661536118E+02  0.59301888031E+02  0.49999897875E+02 0.  0.
        -12    1    1    2    0    0  0.11462507323E+02  0.23512416865E+01  0.29661536118E+02  0.31886111969E+02  0.00000000000E+00 0.  1.
         11    1    3    3    0    0  0.30029918296E+01  0.10643329287E+02 -0.39358249764E+01  0.11738361757E+02  0.51100000000E-03 0. -1.
        -11    1    3    3    0    0  0.98558824927E+01  0.35697631708E+01 -0.82461924994E+01  0.13337215594E+02  0.51100000000E-03 0.  1.
         12    1    3    3    0    0 -0.24321381645E+02 -0.16564334144E+02 -0.17479518643E+02  0.34226310680E+02  0.00000000000E+00 0. -1.
</event>
<event>
 7    1  0.1202531E-011  0.5930196E+02  0.7816164E-02  0.1266605E+00
        -11   -1    0    0    0    0  0.00000000000E+00  0.00000000000E+00  0.45593999997E+02  0.45594000000E+02  0.51100000000E-03 0. -1.
         11   -1    0    0    0    0 -0.00000000000E+00 -0.00000000000E+00 -0.45593999997E+02  0.45594000000E+02  0.51100000000E-03 0.  1.
    9900012    2    1    2    0    0 -0.79002687986E+01 -0.14468725428E+01  0.30857925408E+02  0.59301964691E+02  0.50000037685E+02 0.  0.
        -12    1    1    2    0    0  0.79002687986E+01  0.14468725428E+01 -0.30857925408E+02  0.31886035309E+02  0.00000000000E+00 0.  1.
         11    1    3    3    0    0 -0.16214137143E+01  0.76349174512E+01 -0.35133327946E+01  0.85594657839E+01  0.51100000000E-03 0. -1.
        -11    1    3    3    0    0  0.11813220600E+02  0.20189110012E+01  0.24623476759E+02  0.27385101616E+02  0.51100000000E-03 0.  1.
         12    1    3    3    0    0 -0.18092075684E+02 -0.11100700995E+02  0.97477814436E+01  0.23357397291E+02  0.00000000000E+00 0. -1.
</event>
<event>
 7    1  0.1202531E-011  0.5930194E+02  0.7816164E-02  0.1266605E+00
        -11   -1    0    0    0    0  0.00000000000E+00  0.00000000000E+00  0.45593999997E+02  0.45594000000E+02  0.51100000000E-03 0.  1.
         11   -1    0    0    0    0 -0.00000000000E+00 -0.00000000000E+00 -0.45593999997E+02  0.45594000000E+02  0.51100000000E-03 0. -1.
    9900012    2    1    2    0    0  0.14763579526E+02 -0.21933714554E+02 -0.17823289603E+02  0.59301940870E+02  0.49999994242E+02 0.  0.
        -12    1    1    2    0    0 -0.14763579526E+02  0.21933714554E+02  0.17823289603E+02  0.31886059130E+02  0.00000000000E+00 0.  1.
         11    1    3    3    0    0  0.17923169998E+02 -0.10581666944E+02  0.33783260676E-01  0.20813765630E+02  0.51100000000E-03 0. -1.
        -11    1    3    3    0    0  0.97528353502E+01  0.64465836967E+01 -0.91179072777E+01  0.14826074063E+02  0.51100000000E-03 0.  1.
         12    1    3    3    0    0 -0.12912425823E+02 -0.17798631307E+02 -0.87391655858E+01  0.23662101178E+02  0.00000000000E+00 0. -1.
</event>
<event>
 7    1  0.1202531E-011  0.5930198E+02  0.7816164E-02  0.1266605E+00
        -11   -1    0    0    0    0  0.00000000000E+00  0.00000000000E+00  0.45593999997E+02  0.45594000000E+02  0.51100000000E-03 0.  1.
         11   -1    0    0    0    0 -0.00000000000E+00 -0.00000000000E+00 -0.45593999997E+02  0.45594000000E+02  0.51100000000E-03 0. -1.
    9900012    2    1    2    0    0  0.26892262872E+02 -0.61011258965E+01 -0.16009400457E+02  0.59301977316E+02  0.50000060710E+02 0.  0.
        -12    1    1    2    0    0 -0.26892262872E+02  0.61011258965E+01  0.16009400457E+02  0.31886022684E+02  0.00000000000E+00 0.  1.
         11    1    3    3    0    0  0.77749310136E+01 -0.83488443395E+01 -0.21953279538E+02  0.24740639378E+02  0.51100000000E-03 0. -1.
        -11    1    3    3    0    0  0.14870452111E+02  0.11645312536E+02 -0.49855710995E+01  0.19534573697E+02  0.51100000000E-03 0.  1.
        -12    1    3    3    0    0  0.42468797473E+01 -0.93975940930E+01  0.10929450181E+02  0.15026764242E+02  0.00000000000E+00 0.  1.
</event>
<event>
 7    1  0.1202531E-011  0.5930192E+02  0.7816164E-02  0.1266605E+00
        -11   -1    0    0    0    0  0.00000000000E+00  0.00000000000E+00  0.45593999997E+02  0.45594000000E+02  0.51100000000E-03 0. -1.
         11   -1    0    0    0    0 -0.00000000000E+00 -0.00000000000E+00 -0.45593999997E+02  0.45594000000E+02  0.51100000000E-03 0.  1.
    9900012    2    1    2    0    0  0.30733151221E+02  0.84742475348E+01 -0.61841243137E+00  0.59301923270E+02  0.49999962143E+02 0.  0.
        -12    1    1    2    0    0 -0.30733151221E+02 -0.84742475348E+01  0.61841243137E+00  0.31886076730E+02  0.00000000000E+00 0.  1.
         11    1    3    3    0    0  0.90072368693E+00 -0.17599463759E+01  0.14933649173E+02  0.15063950089E+02  0.51100000000E-03 0. -1.
        -11    1    3    3    0    0 -0.22105715685E+01  0.86664139316E+01 -0.59807074538E+01  0.10759285246E+02  0.51100000000E-03 0.  1.
         12    1    3    3    0    0  0.32042999103E+02  0.15677799790E+01 -0.95713541506E+01  0.33478687935E+02  0.00000000000E+00 0. -1.
</event>
<event>
 7    1  0.1202531E-011  0.5930192E+02  0.7816164E-02  0.1266605E+00
        -11   -1    0    0    0    0  0.00000000000E+00  0.00000000000E+00  0.45593999997E+02  0.45594000000E+02  0.51100000000E-03 0.  1.
         11   -1    0    0    0    0 -0.00000000000E+00 -0.00000000000E+00 -0.45593999997E+02  0.45594000000E+02  0.51100000000E-03 0. -1.
    9900012    2    1    2    0    0 -0.17469326779E+02 -0.24019050039E+02  0.11603020536E+02  0.59301917951E+02  0.49999952442E+02 0.  0.
        -12    1    1    2    0    0  0.17469326779E+02  0.24019050039E+02 -0.11603020536E+02  0.31886082049E+02  0.00000000000E+00 0.  1.
         11    1    3    3    0    0 -0.81830635352E+01 -0.26253548205E+02  0.20288035193E+02  0.34173318457E+02  0.51100000000E-03 0.  1.
        -11    1    3    3    0    0  0.34892977731E+01  0.75723866887E+01  0.75362922666E+00  0.83716304496E+01  0.51100000000E-03 0. -1.
         12    1    3    3    0    0 -0.12775561017E+02 -0.53378885229E+01 -0.94386438832E+01  0.16756969044E+02  0.00000000000E+00 0. -1.
</event>
<event>
 7    1  0.1202531E-011  0.5930194E+02  0.7816164E-02  0.1266605E+00
        -11   -1    0    0    0    0  0.00000000000E+00  0.00000000000E+00  0.45593999997E+02  0.45594000000E+02  0.51100000000E-03 0.  1.
         11   -1    0    0    0    0 -0.00000000000E+00 -0.00000000000E+00 -0.45593999997E+02  0.45594000000E+02  0.51100000000E-03 0. -1.
    9900012    2    1    2    0    0  0.16457872668E+02  0.53420024260E+01 -0.26782866736E+02  0.59301944847E+02  0.50000001493E+02 0.  0.
        -12    1    1    2    0    0 -0.16457872668E+02 -0.53420024260E+01  0.26782866736E+02  0.31886055153E+02  0.00000000000E+00 0.  1.
         11    1    3    3    0    0 -0.23545612296E+01 -0.55686502474E+01 -0.76260760804E+01  0.97319505140E+01  0.51100000000E-03 0. -1.
        -11    1    3    3    0    0  0.16198035666E+02 -0.11358524773E+02  0.44369833336E+00  0.19788615741E+02  0.51100000000E-03 0.  1.
         12    1    3    3    0    0  0.26143982311E+01  0.22269177446E+02 -0.19600488989E+02  0.29781378592E+02  0.00000000000E+00 0. -1.
</event>
<event>
 7    1  0.1202531E-011  0.5930200E+02  0.7816164E-02  0.1266605E+00
        -11   -1    0    0    0    0  0.00000000000E+00  0.00000000000E+00  0.45593999997E+02  0.45594000000E+02  0.51100000000E-03 0.  1.
         11   -1    0    0    0    0 -0.00000000000E+00 -0.00000000000E+00 -0.45593999997E+02  0.45594000000E+02  0.51100000000E-03 0. -1.
    9900012    2    1    2    0    0  0.20033513933E+02  0.14268854353E+02 -0.20292234846E+02  0.59302004954E+02  0.50000111115E+02 0.  0.
        -12    1    1    2    0    0 -0.20033513933E+02 -0.14268854353E+02  0.20292234846E+02  0.31885995046E+02  0.00000000000E+00 0.  1.
         11    1    3    3    0    0 -0.41062893956E+01 -0.89003059955E+01 -0.43820654910E+01  0.10736831825E+02  0.51100000000E-03 0. -1.
        -11    1    3    3    0    0  0.74552398921E+01 -0.33639904548E+00  0.81264404420E+01  0.11033258843E+02  0.51100000000E-03 0.  1.
        -12    1    3    3    0    0  0.16684563436E+02  0.23505559394E+02 -0.24036609797E+02  0.37531914286E+02  0.00000000000E+00 0.  1.
</event>
<event>
 7    1  0.1202531E-011  0.5930194E+02  0.7816164E-02  0.1266605E+00
        -11   -1    0    0    0    0  0.00000000000E+00  0.00000000000E+00  0.45593999997E+02  0.45594000000E+02  0.51100000000E-03 0.  1.
         11   -1    0    0    0    0 -0.00000000000E+00 -0.00000000000E+00 -0.45593999997E+02  0.45594000000E+02  0.51100000000E-03 0. -1.
    9900012    2    1    2    0    0  0.22423309644E+02 -0.17280842164E+02 -0.14672720853E+02  0.59301936296E+02  0.49999985900E+02 0.  0.
        -12    1    1    2    0    0 -0.22423309644E+02  0.17280842164E+02  0.14672720853E+02  0.31886063704E+02  0.00000000000E+00 0.  1.
         11    1    3    3    0    0  0.83651836234E+01 -0.10972801746E+02  0.27446652752E+01  0.14068115117E+02  0.51100000000E-03 0. -1.
        -11    1    3    3    0    0  0.22115881848E+02 -0.17326805202E+02 -0.11811107953E+02  0.30476756385E+02  0.51100000000E-03 0.  1.
         12    1    3    3    0    0 -0.80577558280E+01  0.11018764784E+02 -0.56062781760E+01  0.14757064794E+02  0.00000000000E+00 0. -1.
</event>
<event>
 7    1  0.1202531E-011  0.5930184E+02  0.7816164E-02  0.1266605E+00
        -11   -1    0    0    0    0  0.00000000000E+00  0.00000000000E+00  0.45593999997E+02  0.45594000000E+02  0.51100000000E-03 0.  1.
         11   -1    0    0    0    0 -0.00000000000E+00 -0.00000000000E+00 -0.45593999997E+02  0.45594000000E+02  0.51100000000E-03 0. -1.
    9900012    2    1    2    0    0  0.25985918471E+02 -0.42233648141E+01 -0.17989502109E+02  0.59301843831E+02  0.49999817264E+02 0.  0.
        -12    1    1    2    0    0 -0.25985918471E+02  0.42233648141E+01  0.17989502109E+02  0.31886156169E+02  0.00000000000E+00 0.  1.
         11    1    3    3    0    0  0.12054275945E+02  0.23186244913E+01 -0.17833359197E+02  0.21649717979E+02  0.51100000000E-03 0. -1.
        -11    1    3    3    0    0 -0.70882729306E+01 -0.91228074948E+01  0.89355975863E+01  0.14605277615E+02  0.51100000000E-03 0.  1.
         12    1    3    3    0    0  0.21019915457E+02  0.25808181893E+01 -0.90917404985E+01  0.23046848236E+02  0.00000000000E+00 0. -1.
</event>
<event>
 7    1  0.1202531E-011  0.5930194E+02  0.7816164E-02  0.1266605E+00
        -11   -1    0    0    0    0  0.00000000000E+00  0.00000000000E+00  0.45593999997E+02  0.45594000000E+02  0.51100000000E-03 0. -1.
         11   -1    0    0    0    0 -0.00000000000E+00 -0.00000000000E+00 -0.45593999997E+02  0.45594000000E+02  0.51100000000E-03 0.  1.
    9900012    2    1    2    0    0 -0.29141907882E+02  0.71353988341E+01 -0.10796118521E+02  0.59301938991E+02  0.49999990814E+02 0.  0.
        -12    1    1    2    0    0  0.29141907882E+02 -0.71353988341E+01  0.10796118521E+02  0.31886061009E+02  0.00000000000E+00 0.  1.
         11    1    3    3    0    0  0.28023810580E+01 -0.40618101481E+01  0.73830064718E+01  0.88803393008E+01  0.51100000000E-03 0. -1.
        -11    1    3    3    0    0  0.49033317375E-01  0.69038150609E+01  0.67351372675E+01  0.96450578502E+01  0.51100000000E-03 0.  1.
         12    1    3    3    0    0 -0.31993322258E+02  0.42933939213E+01 -0.24914262260E+02  0.40776541840E+02  0.00000000000E+00 0. -1.
</event>
<event>
 7    1  0.1202531E-011  0.5930203E+02  0.7816164E-02  0.1266604E+00
        -11   -1    0    0    0    0  0.00000000000E+00  0.00000000000E+00  0.45593999997E+02  0.45594000000E+02  0.51100000000E-03 0. -1.
         11   -1    0    0    0    0 -0.00000000000E+00 -0.00000000000E+00 -0.45593999997E+02  0.45594000000E+02  0.51100000000E-03 0.  1.
    9900012    2    1    2    0    0  0.21081367124E+02  0.22586947054E+02  0.78816591399E+01  0.59302034939E+02  0.50000165801E+02 0.  0.
        -12    1    1    2    0    0 -0.21081367124E+02 -0.22586947054E+02 -0.78816591399E+01  0.31885965061E+02  0.00000000000E+00 0.  1.
         11    1    3    3    0    0  0.17375985947E+02  0.26116240539E+02 -0.14818707725E+01  0.31403484660E+02  0.51100000000E-03 0. -1.
        -11    1    3    3    0    0 -0.44727393107E+01  0.63048916112E+01 -0.45736528275E+01  0.89819460930E+01  0.51100000000E-03 0.  1.
         12    1    3    3    0    0  0.81781204873E+01 -0.98341850963E+01  0.13937182740E+02  0.18916604186E+02  0.00000000000E+00 0. -1.
</event>
<event>
 7    1  0.1202531E-011  0.5930194E+02  0.7816164E-02  0.1266605E+00
        -11   -1    0    0    0    0  0.00000000000E+00  0.00000000000E+00  0.45593999997E+02  0.45594000000E+02  0.51100000000E-03 0.  1.
         11   -1    0    0    0    0 -0.00000000000E+00 -0.00000000000E+00 -0.45593999997E+02  0.45594000000E+02  0.51100000000E-03 0. -1.
    9900012    2    1    2    0    0 -0.18551151011E+02  0.34417767633E+01 -0.25704664706E+02  0.59301940056E+02  0.49999992757E+02 0.  0.
        -12    1    1    2    0    0  0.18551151011E+02 -0.34417767633E+01  0.25704664706E+02  0.31886059944E+02  0.00000000000E+00 0.  1.
         11    1    3    3    0    0 -0.66546932992E+01 -0.53973706904E+01  0.18828516961E+01  0.87727808617E+01  0.51100000000E-03 0. -1.
        -11    1    3    3    0    0 -0.31268597974E+01 -0.15449352800E+02 -0.59815938360E+01  0.16859395577E+02  0.51100000000E-03 0.  1.
         12    1    3    3    0    0 -0.87695979141E+01  0.24288500254E+02 -0.21605922566E+02  0.33669763618E+02  0.00000000000E+00 0. -1.
</event>
<event>
 7    1  0.1202531E-011  0.5930194E+02  0.7816164E-02  0.1266605E+00
        -11   -1    0    0    0    0  0.00000000000E+00  0.00000000000E+00  0.45593999997E+02  0.45594000000E+02  0.51100000000E-03 0.  1.
         11   -1    0    0    0    0 -0.00000000000E+00 -0.00000000000E+00 -0.45593999997E+02  0.45594000000E+02  0.51100000000E-03 0. -1.
    9900012    2    1    2    0    0  0.29570442263E+02 -0.30353599030E+01 -0.11536726126E+02  0.59301944818E+02  0.50000001442E+02 0.  0.
        -12    1    1    2    0    0 -0.29570442263E+02  0.30353599030E+01  0.11536726126E+02  0.31886055182E+02  0.00000000000E+00 0.  1.
         11    1    3    3    0    0  0.74970650170E+01 -0.70482512418E+00 -0.10813995729E+02  0.13177452949E+02  0.51100000000E-03 0. -1.
        -11    1    3    3    0    0 -0.20115360214E+01 -0.16144995541E+02  0.63618514551E+01  0.17469410762E+02  0.51100000000E-03 0.  1.
         12    1    3    3    0    0  0.24084913267E+02  0.13814460762E+02 -0.70845818519E+01  0.28655081107E+02  0.00000000000E+00 0. -1.
</event>
<event>
 7    1  0.1202531E-011  0.5930195E+02  0.7816164E-02  0.1266605E+00
        -11   -1    0    0    0    0  0.00000000000E+00  0.00000000000E+00  0.45593999997E+02  0.45594000000E+02  0.51100000000E-03 0.  1.
         11   -1    0    0    0    0 -0.00000000000E+00 -0.00000000000E+00 -0.45593999997E+02  0.45594000000E+02  0.51100000000E-03 0. -1.
    9900012    2    1    2    0    0  0.29638373949E+02  0.89505514622E+01  0.76272290624E+01  0.59301949680E+02  0.50000010309E+02 0.  0.
        -12    1    1    2    0    0 -0.29638373949E+02 -0.89505514622E+01 -0.76272290624E+01  0.31886050320E+02  0.00000000000E+00 0.  1.
         11    1    3    3    0    0  0.32365193670E+02  0.18744435434E+02  0.37783069913E+00  0.37403240198E+02  0.51100000000E-03 0. -1.
        -11    1    3    3    0    0  0.49113751084E+01 -0.30281742666E+01 -0.37608194941E+01  0.68873222934E+01  0.51100000000E-03 0.  1.
         12    1    3    3    0    0 -0.76381948290E+01 -0.67657097055E+01  0.11010217857E+02  0.15011387189E+02  0.00000000000E+00 0. -1.
</event>
<event>
 7    1  0.1202531E-011  0.5930196E+02  0.7816164E-02  0.1266605E+00
        -11   -1    0    0    0    0  0.00000000000E+00  0.00000000000E+00  0.45593999997E+02  0.45594000000E+02  0.51100000000E-03 0.  1.
         11   -1    0    0    0    0 -0.00000000000E+00 -0.00000000000E+00 -0.45593999997E+02  0.45594000000E+02  0.51100000000E-03 0. -1.
    9900012    2    1    2    0    0 -0.45921291172E+01  0.27219570141E+02 -0.15960166865E+02  0.59301959562E+02  0.50000028331E+02 0.  0.
        -12    1    1    2    0    0  0.45921291172E+01 -0.27219570141E+02  0.15960166865E+02  0.31886040438E+02  0.00000000000E+00 0.  1.
         11    1    3    3    0    0  0.94089966759E+00 -0.40457993915E+00 -0.51503755638E+01  0.52512232690E+01  0.51100000000E-03 0. -1.
        -11    1    3    3    0    0 -0.17718597439E+02  0.13320364219E+02 -0.22768802153E+02  0.31777337048E+02  0.51100000000E-03 0.  1.
        -12    1    3    3    0    0  0.12185568654E+02  0.14303785860E+02  0.11959010852E+02  0.22273399245E+02  0.00000000000E+00 0.  1.
</event>
<event>
 7    1  0.1202531E-011  0.5930195E+02  0.7816164E-02  0.1266605E+00
        -11   -1    0    0    0    0  0.00000000000E+00  0.00000000000E+00  0.45593999997E+02  0.45594000000E+02  0.51100000000E-03 0.  1.
         11   -1    0    0    0    0 -0.00000000000E+00 -0.00000000000E+00 -0.45593999997E+02  0.45594000000E+02  0.51100000000E-03 0. -1.
    9900012    2    1    2    0    0  0.15103601734E+02 -0.21806383441E+02 -0.17694158770E+02  0.59301946642E+02  0.50000004769E+02 0.  0.
        -12    1    1    2    0    0 -0.15103601734E+02  0.21806383441E+02  0.17694158770E+02  0.31886053358E+02  0.00000000000E+00 0.  1.
         11    1    3    3    0    0  0.90568298792E+01 -0.19476851990E+02 -0.15762752875E+02  0.26642790945E+02  0.51100000000E-03 0. -1.
        -11    1    3    3    0    0  0.11566760028E+02  0.69114442309E+01 -0.11908394942E+02  0.17982432240E+02  0.51100000000E-03 0.  1.
        -12    1    3    3    0    0 -0.55199881732E+01 -0.92409756824E+01  0.99769890468E+01  0.14676723457E+02  0.00000000000E+00 0.  1.
</event>
<event>
 7    1  0.1202531E-011  0.5930186E+02  0.7816164E-02  0.1266605E+00
        -11   -1    0    0    0    0  0.00000000000E+00  0.00000000000E+00  0.45593999997E+02  0.45594000000E+02  0.51100000000E-03 0.  1.
         11   -1    0    0    0    0 -0.00000000000E+00 -0.00000000000E+00 -0.45593999997E+02  0.45594000000E+02  0.51100000000E-03 0. -1.
    9900012    2    1    2    0    0 -0.11214729530E+01 -0.31061106814E+02  0.71187206481E+01  0.59301855018E+02  0.49999837668E+02 0.  0.
        -12    1    1    2    0    0  0.11214729530E+01  0.31061106814E+02 -0.71187206481E+01  0.31886144982E+02  0.00000000000E+00 0.  1.
         11    1    3    3    0    0  0.13900379514E+02 -0.20084547948E+02  0.10479981808E+02  0.26578932181E+02  0.51100000000E-03 0. -1.
        -11    1    3    3    0    0  0.54623475737E+01 -0.35700780672E+01 -0.81300062913E+01  0.10424955682E+02  0.51100000000E-03 0.  1.
        -12    1    3    3    0    0 -0.20484200040E+02 -0.74064807988E+01  0.47687451312E+01  0.22297967155E+02  0.00000000000E+00 0.  1.
</event>
<event>
 7    1  0.1202531E-011  0.5930193E+02  0.7816164E-02  0.1266605E+00
        -11   -1    0    0    0    0  0.00000000000E+00  0.00000000000E+00  0.45593999997E+02  0.45594000000E+02  0.51100000000E-03 0.  1.
         11   -1    0    0    0    0 -0.00000000000E+00 -0.00000000000E+00 -0.45593999997E+02  0.45594000000E+02  0.51100000000E-03 0. -1.
    9900012    2    1    2    0    0  0.51384607999E+01  0.24364860155E+02  0.19916614080E+02  0.59301926141E+02  0.49999967379E+02 0.  0.
        -12    1    1    2    0    0 -0.51384607999E+01 -0.24364860155E+02 -0.19916614080E+02  0.31886073859E+02  0.00000000000E+00 0.  1.
         11    1    3    3    0    0  0.20349419959E-01  0.77674499229E+01 -0.15055001773E+02  0.16940683902E+02  0.51100000000E-03 0. -1.
        -11    1    3    3    0    0  0.59290722528E+01  0.68537562685E+00  0.30919533240E+01  0.67218905932E+01  0.51100000000E-03 0.  1.
        -12    1    3    3    0    0 -0.81096087290E+00  0.15912034605E+02  0.31879662529E+02  0.35639351646E+02  0.00000000000E+00 0.  1.
</event>
<event>
 7    1  0.1202531E-011  0.5930190E+02  0.7816164E-02  0.1266605E+00
        -11   -1    0    0    0    0  0.00000000000E+00  0.00000000000E+00  0.45593999997E+02  0.45594000000E+02  0.51100000000E-03 0.  1.
         11   -1    0    0    0    0 -0.00000000000E+00 -0.00000000000E+00 -0.45593999997E+02  0.45594000000E+02  0.51100000000E-03 0. -1.
    9900012    2    1    2    0    0  0.21677629183E+02 -0.20106439799E+02  0.11938806153E+02  0.59301896119E+02  0.49999912626E+02 0.  0.
        -12    1    1    2    0    0 -0.21677629183E+02  0.20106439799E+02 -0.11938806153E+02  0.31886103881E+02  0.00000000000E+00 0.  1.
         11    1    3    3    0    0  0.14251801255E+01 -0.21906142358E+02 -0.41583063610E+01  0.22342822638E+02  0.51100000000E-03 0. -1.
        -11    1    3    3    0    0  0.13500541757E+01 -0.14314723196E+01 -0.68077714994E+01  0.70864315652E+01  0.51100000000E-03 0.  1.
        -12    1    3    3    0    0  0.18902394882E+02  0.32311748785E+01  0.22904884013E+02  0.29872641915E+02  0.00000000000E+00 0.  1.
</event>
<event>
 7    1  0.1202531E-011  0.5930195E+02  0.7816164E-02  0.1266605E+00
        -11   -1    0    0    0    0  0.00000000000E+00  0.00000000000E+00  0.45593999997E+02  0.45594000000E+02  0.51100000000E-03 0. -1.
         11   -1    0    0    0    0 -0.00000000000E+00 -0.00000000000E+00 -0.45593999997E+02  0.45594000000E+02  0.51100000000E-03 0.  1.
    9900012    2    1    2    0    0  0.20999839281E+01  0.28515490926E+02  0.14113018761E+02  0.59301945778E+02  0.50000003193E+02 0.  0.
        -12    1    1    2    0    0 -0.20999839281E+01 -0.28515490926E+02 -0.14113018761E+02  0.31886054222E+02  0.00000000000E+00 0.  1.
         11    1    3    3    0    0  0.54021500819E+01  0.10926980922E+02  0.17730825872E+02  0.21516605772E+02  0.51100000000E-03 0. -1.
        -11    1    3    3    0    0  0.17476462197E+01  0.14120037716E+02  0.13494505703E+02  0.19609472630E+02  0.51100000000E-03 0.  1.
        -12    1    3    3    0    0 -0.50498123735E+01  0.34684722882E+01 -0.17112312814E+02  0.18175867376E+02  0.00000000000E+00 0.  1.
</event>
<event>
 7    1  0.1202531E-011  0.5930195E+02  0.7816164E-02  0.1266605E+00
        -11   -1    0    0    0    0  0.00000000000E+00  0.00000000000E+00  0.45593999997E+02  0.45594000000E+02  0.51100000000E-03 0. -1.
         11   -1    0    0    0    0 -0.00000000000E+00 -0.00000000000E+00 -0.45593999997E+02  0.45594000000E+02  0.51100000000E-03 0.  1.
    9900012    2    1    2    0    0 -0.67041256466E+01 -0.14758180739E+02  0.27458533655E+02  0.59301948662E+02  0.50000008452E+02 0.  0.
        -12    1    1    2    0    0  0.67041256466E+01  0.14758180739E+02 -0.27458533655E+02  0.31886051338E+02  0.00000000000E+00 0.  1.
         11    1    3    3    0    0 -0.68091404959E+01 -0.33896865254E+01  0.78714355533E+01  0.10945952081E+02  0.51100000000E-03 0.  1.
        -11    1    3    3    0    0 -0.15515660586E+02 -0.22316047771E+01 -0.61963750823E+01  0.16855588027E+02  0.51100000000E-03 0. -1.
         12    1    3    3    0    0  0.15620675436E+02 -0.91368894365E+01  0.25783473184E+02  0.31500408554E+02  0.00000000000E+00 0. -1.
</event>
<event>
 7    1  0.1202531E-011  0.5930194E+02  0.7816164E-02  0.1266605E+00
        -11   -1    0    0    0    0  0.00000000000E+00  0.00000000000E+00  0.45593999997E+02  0.45594000000E+02  0.51100000000E-03 0. -1.
         11   -1    0    0    0    0 -0.00000000000E+00 -0.00000000000E+00 -0.45593999997E+02  0.45594000000E+02  0.51100000000E-03 0.  1.
    9900012    2    1    2    0    0 -0.31859574651E+02 -0.64561308849E+00 -0.11277380569E+01  0.59301935546E+02  0.49999984532E+02 0.  0.
        -12    1    1    2    0    0  0.31859574651E+02  0.64561308849E+00  0.11277380569E+01  0.31886064454E+02  0.00000000000E+00 0.  1.
         11    1    3    3    0    0 -0.63276789132E+01 -0.53215498372E+01  0.23119486216E+01  0.85850754096E+01  0.51100000000E-03 0. -1.
        -11    1    3    3    0    0 -0.18680198613E+02 -0.12193791401E+02 -0.16972578976E+02  0.28030462113E+02  0.51100000000E-03 0.  1.
        -12    1    3    3    0    0 -0.68516971255E+01  0.16869728149E+02  0.13532892298E+02  0.22686398023E+02  0.00000000000E+00 0.  1.
</event>
<event>
 7    1  0.1202531E-011  0.5930195E+02  0.7816164E-02  0.1266605E+00
        -11   -1    0    0    0    0  0.00000000000E+00  0.00000000000E+00  0.45593999997E+02  0.45594000000E+02  0.51100000000E-03 0.  1.
         11   -1    0    0    0    0 -0.00000000000E+00 -0.00000000000E+00 -0.45593999997E+02  0.45594000000E+02  0.51100000000E-03 0. -1.
    9900012    2    1    2    0    0  0.17218253188E+02 -0.30706978052E+00 -0.26835750515E+02  0.59301952261E+02  0.50000015016E+02 0.  0.
        -12    1    1    2    0    0 -0.17218253188E+02  0.30706978052E+00  0.26835750515E+02  0.31886047739E+02  0.00000000000E+00 0.  1.
         11    1    3    3    0    0 -0.11848841151E+01  0.12501188965E+02 -0.39522603221E+01  0.13164499148E+02  0.51100000000E-03 0. -1.
        -11    1    3    3    0    0  0.25030703500E+02 -0.24654258301E+01 -0.70955911202E+01  0.26133538908E+02  0.51100000000E-03 0.  1.
         12    1    3    3    0    0 -0.66275661969E+01 -0.10342832916E+02 -0.15787899073E+02  0.20003914206E+02  0.00000000000E+00 0. -1.
</event>
<event>
 7    1  0.1202531E-011  0.5930194E+02  0.7816164E-02  0.1266605E+00
        -11   -1    0    0    0    0  0.00000000000E+00  0.00000000000E+00  0.45593999997E+02  0.45594000000E+02  0.51100000000E-03 0. -1.
         11   -1    0    0    0    0 -0.00000000000E+00 -0.00000000000E+00 -0.45593999997E+02  0.45594000000E+02  0.51100000000E-03 0.  1.
    9900012    2    1    2    0    0  0.17059795887E+02  0.18933411178E+02  0.19162728239E+02  0.59301939596E+02  0.49999991917E+02 0.  0.
        -12    1    1    2    0    0 -0.17059795887E+02 -0.18933411178E+02 -0.19162728239E+02  0.31886060404E+02  0.00000000000E+00 0.  1.
         11    1    3    3    0    0 -0.83811915579E+00  0.74945266917E+01  0.82425249896E+01  0.11171821361E+02  0.51100000000E-03 0. -1.
        -11    1    3    3    0    0  0.12673842966E+02  0.26197071381E+02  0.10465990961E+00  0.29101955233E+02  0.51100000000E-03 0.  1.
         12    1    3    3    0    0  0.52240720766E+01 -0.14758186894E+02  0.10815543340E+02  0.19028163002E+02  0.00000000000E+00 0. -1.
</event>
<event>
 7    1  0.1202531E-011  0.5930196E+02  0.7816164E-02  0.1266605E+00
        -11   -1    0    0    0    0  0.00000000000E+00  0.00000000000E+00  0.45593999997E+02  0.45594000000E+02  0.51100000000E-03 0. -1.
         11   -1    0    0    0    0 -0.00000000000E+00 -0.00000000000E+00 -0.45593999997E+02  0.45594000000E+02  0.51100000000E-03 0.  1.
    9900012    2    1    2    0    0  0.14936146783E+02  0.21705041589E+02  0.17958898964E+02  0.59301962882E+02  0.50000034386E+02 0.  0.
        -12    1    1    2    0    0 -0.14936146783E+02 -0.21705041589E+02 -0.17958898964E+02  0.31886037118E+02  0.00000000000E+00 0.  1.
         11    1    3    3    0    0  0.11249769628E+02  0.19328261704E+02  0.47084454992E+01  0.22854069145E+02  0.51100000000E-03 0. -1.
        -11    1    3    3    0    0 -0.11175662512E+02  0.11237825262E+02  0.10282231455E+02  0.18892020357E+02  0.51100000000E-03 0.  1.
        -12    1    3    3    0    0  0.14862039667E+02 -0.88610453780E+01  0.29682220099E+01  0.17555873380E+02  0.00000000000E+00 0.  1.
</event>
<event>
 7    1  0.1202531E-011  0.5930195E+02  0.7816164E-02  0.1266605E+00
        -11   -1    0    0    0    0  0.00000000000E+00  0.00000000000E+00  0.45593999997E+02  0.45594000000E+02  0.51100000000E-03 0.  1.
         11   -1    0    0    0    0 -0.00000000000E+00 -0.00000000000E+00 -0.45593999997E+02  0.45594000000E+02  0.51100000000E-03 0. -1.
    9900012    2    1    2    0    0 -0.54133978499E+01  0.87886703543E+01 -0.30169098357E+02  0.59301951349E+02  0.50000013353E+02 0.  0.
        -12    1    1    2    0    0  0.54133978499E+01 -0.87886703543E+01  0.30169098357E+02  0.31886048651E+02  0.00000000000E+00 0.  1.
         11    1    3    3    0    0 -0.21183388610E+02  0.13183613046E+02 -0.30060732248E+02  0.39066497533E+02  0.51100000000E-03 0. -1.
        -11    1    3    3    0    0  0.11216591264E+01 -0.33282328732E+00  0.42610902552E+01  0.44187985879E+01  0.51100000000E-03 0.  1.
        -12    1    3    3    0    0  0.14648331634E+02 -0.40621194049E+01 -0.43694563646E+01  0.15816655229E+02  0.00000000000E+00 0.  1.
</event>
<event>
 7    1  0.1202531E-011  0.5930205E+02  0.7816164E-02  0.1266604E+00
        -11   -1    0    0    0    0  0.00000000000E+00  0.00000000000E+00  0.45593999997E+02  0.45594000000E+02  0.51100000000E-03 0. -1.
         11   -1    0    0    0    0 -0.00000000000E+00 -0.00000000000E+00 -0.45593999997E+02  0.45594000000E+02  0.51100000000E-03 0.  1.
    9900012    2    1    2    0    0 -0.17374364272E+01 -0.25123957654E+01  0.31739298436E+02  0.59302048815E+02  0.50000191106E+02 0.  0.
        -12    1    1    2    0    0  0.17374364272E+01  0.25123957654E+01 -0.31739298436E+02  0.31885951185E+02  0.00000000000E+00 0.  1.
         11    1    3    3    0    0 -0.74534299656E+01  0.90017939462E+01 -0.35659617715E+01  0.12218919597E+02  0.51100000000E-03 0. -1.
        -11    1    3    3    0    0  0.97482862761E+01 -0.25669706434E+01 -0.36525718390E+00  0.10087211541E+02  0.51100000000E-03 0.  1.
         12    1    3    3    0    0 -0.40322927377E+01 -0.89472190681E+01  0.35670517391E+02  0.36995917676E+02  0.00000000000E+00 0. -1.
</event>
<event>
 7    1  0.1202531E-011  0.5930192E+02  0.7816164E-02  0.1266605E+00
        -11   -1    0    0    0    0  0.00000000000E+00  0.00000000000E+00  0.45593999997E+02  0.45594000000E+02  0.51100000000E-03 0.  1.
         11   -1    0    0    0    0 -0.00000000000E+00 -0.00000000000E+00 -0.45593999997E+02  0.45594000000E+02  0.51100000000E-03 0. -1.
    9900012    2    1    2    0    0 -0.86099769374E+01 -0.32824055352E+00 -0.30699876863E+02  0.59301923350E+02  0.49999962289E+02 0.  0.
        -12    1    1    2    0    0  0.86099769374E+01  0.32824055352E+00  0.30699876863E+02  0.31886076650E+02  0.00000000000E+00 0.  1.
         11    1    3    3    0    0 -0.28442875699E+01  0.16061946320E+02 -0.24463319216E+02  0.29402892353E+02  0.51100000000E-03 0. -1.
        -11    1    3    3    0    0  0.32322929652E+01 -0.67100111337E+01 -0.13053058818E+02  0.15028450086E+02  0.51100000000E-03 0.  1.
        -12    1    3    3    0    0 -0.89979823327E+01 -0.96801757398E+01  0.68165011714E+01  0.14870580911E+02  0.00000000000E+00 0.  1.
</event>
<event>
 7    1  0.1202531E-011  0.5930191E+02  0.7816164E-02  0.1266605E+00
        -11   -1    0    0    0    0  0.00000000000E+00  0.00000000000E+00  0.45593999997E+02  0.45594000000E+02  0.51100000000E-03 0. -1.
         11   -1    0    0    0    0 -0.00000000000E+00 -0.00000000000E+00 -0.45593999997E+02  0.45594000000E+02  0.51100000000E-03 0.  1.
    9900012    2    1    2    0    0 -0.28012871613E+02 -0.15114213926E+02 -0.18874023153E+01  0.59301910147E+02  0.49999938210E+02 0.  0.
        -12    1    1    2    0    0  0.28012871613E+02  0.15114213926E+02  0.18874023153E+01  0.31886089853E+02  0.00000000000E+00 0.  1.
         11    1    3    3    0    0 -0.35481367495E+01  0.20107722975E+01  0.14410445634E+02  0.14976428922E+02  0.51100000000E-03 0. -1.
        -11    1    3    3    0    0 -0.58654813416E+01  0.48782333207E+01 -0.13334326836E+02  0.15362464129E+02  0.51100000000E-03 0.  1.
         12    1    3    3    0    0 -0.18599253522E+02 -0.22003219545E+02 -0.29635211135E+01  0.28963017096E+02  0.00000000000E+00 0. -1.
</event>
<event>
 7    1  0.1202531E-011  0.5930197E+02  0.7816164E-02  0.1266605E+00
        -11   -1    0    0    0    0  0.00000000000E+00  0.00000000000E+00  0.45593999997E+02  0.45594000000E+02  0.51100000000E-03 0.  1.
         11   -1    0    0    0    0 -0.00000000000E+00 -0.00000000000E+00 -0.45593999997E+02  0.45594000000E+02  0.51100000000E-03 0. -1.
    9900012    2    1    2    0    0  0.75528202440E+00 -0.29398256977E+02 -0.12324415131E+02  0.59301965870E+02  0.50000039836E+02 0.  0.
        -12    1    1    2    0    0 -0.75528202440E+00  0.29398256977E+02  0.12324415131E+02  0.31886034130E+02  0.00000000000E+00 0.  1.
         11    1    3    3    0    0 -0.46616686229E+01  0.19615947206E+01 -0.85705020993E+01  0.99515081617E+01  0.51100000000E-03 0. -1.
        -11    1    3    3    0    0 -0.86539012293E+01 -0.26042744233E+02  0.97626815649E+01  0.29127727087E+02  0.51100000000E-03 0.  1.
         12    1    3    3    0    0  0.14070851877E+02 -0.53171074645E+01 -0.13516594596E+02  0.20222730622E+02  0.00000000000E+00 0. -1.
</event>
<event>
 7    1  0.1202531E-011  0.5930197E+02  0.7816164E-02  0.1266605E+00
        -11   -1    0    0    0    0  0.00000000000E+00  0.00000000000E+00  0.45593999997E+02  0.45594000000E+02  0.51100000000E-03 0.  1.
         11   -1    0    0    0    0 -0.00000000000E+00 -0.00000000000E+00 -0.45593999997E+02  0.45594000000E+02  0.51100000000E-03 0. -1.
    9900012    2    1    2    0    0  0.98872024975E+01 -0.22351153547E+02 -0.20478968997E+02  0.59301968430E+02  0.50000044504E+02 0.  0.
        -12    1    1    2    0    0 -0.98872024975E+01  0.22351153547E+02  0.20478968997E+02  0.31886031570E+02  0.00000000000E+00 0.  1.
         11    1    3    3    0    0 -0.13931788005E+02 -0.13095003707E+01  0.32267055151E+01  0.14360401700E+02  0.51100000000E-03 0. -1.
        -11    1    3    3    0    0  0.54216841923E+00 -0.68962226129E+01  0.22927826050E+01  0.72875706004E+01  0.51100000000E-03 0.  1.
        -12    1    3    3    0    0  0.23276822083E+02 -0.14145430563E+02 -0.25998457117E+02  0.37653996130E+02  0.00000000000E+00 0.  1.
</event>
<event>
 7    1  0.1202531E-011  0.5930191E+02  0.7816164E-02  0.1266605E+00
        -11   -1    0    0    0    0  0.00000000000E+00  0.00000000000E+00  0.45593999997E+02  0.45594000000E+02  0.51100000000E-03 0.  1.
         11   -1    0    0    0    0 -0.00000000000E+00 -0.00000000000E+00 -0.45593999997E+02  0.45594000000E+02  0.51100000000E-03 0. -1.
    9900012    2    1    2    0    0 -0.31799012863E+02 -0.18621100991E+01 -0.14416046759E+01  0.59301907466E+02  0.49999933320E+02 0.  0.
        -12    1    1    2    0    0  0.31799012863E+02  0.18621100991E+01  0.14416046759E+01  0.31886092534E+02  0.00000000000E+00 0.  1.
         11    1    3    3    0    0 -0.32272638964E+01 -0.10271274632E+02 -0.59115448155E+01  0.12282535454E+02  0.51100000000E-03 0. -1.
        -11    1    3    3    0    0  0.63068706243E+01  0.97283572638E+01  0.34680281863E+01  0.12101436770E+02  0.51100000000E-03 0.  1.
        -12    1    3    3    0    0 -0.34878619591E+02 -0.13191927312E+01  0.10019119532E+01  0.34917935242E+02  0.00000000000E+00 0.  1.
</event>
<event>
 7    1  0.1202531E-011  0.5930201E+02  0.7816164E-02  0.1266605E+00
        -11   -1    0    0    0    0  0.00000000000E+00  0.00000000000E+00  0.45593999997E+02  0.45594000000E+02  0.51100000000E-03 0.  1.
         11   -1    0    0    0    0 -0.00000000000E+00 -0.00000000000E+00 -0.45593999997E+02  0.45594000000E+02  0.51100000000E-03 0. -1.
    9900012    2    1    2    0    0 -0.10110697107E+02  0.12502348553E+02 -0.27535092648E+02  0.59302011816E+02  0.50000123629E+02 0.  0.
        -12    1    1    2    0    0  0.10110697107E+02 -0.12502348553E+02  0.27535092648E+02  0.31885988184E+02  0.00000000000E+00 0.  1.
         11    1    3    3    0    0  0.98792583296E+01  0.75946199415E+00 -0.12998578594E+02  0.16344404957E+02  0.51100000000E-03 0. -1.
        -11    1    3    3    0    0 -0.36531653945E+01 -0.77087373100E+01 -0.15329650821E+02  0.17543330438E+02  0.51100000000E-03 0.  1.
        -12    1    3    3    0    0 -0.16336790042E+02  0.19451623869E+02  0.79313676747E+00  0.25414276420E+02  0.00000000000E+00 0.  1.
</event>
<event>
 7    1  0.1202531E-011  0.5930195E+02  0.7816164E-02  0.1266605E+00
        -11   -1    0    0    0    0  0.00000000000E+00  0.00000000000E+00  0.45593999997E+02  0.45594000000E+02  0.51100000000E-03 0. -1.
         11   -1    0    0    0    0 -0.00000000000E+00 -0.00000000000E+00 -0.45593999997E+02  0.45594000000E+02  0.51100000000E-03 0.  1.
    9900012    2    1    2    0    0  0.93404750292E+01 -0.29945779227E+02 -0.57206609351E+01  0.59301950875E+02  0.50000012487E+02 0.  0.
        -12    1    1    2    0    0 -0.93404750292E+01  0.29945779227E+02  0.57206609351E+01  0.31886049125E+02  0.00000000000E+00 0.  1.
         11    1    3    3    0    0  0.13876901846E+01 -0.53040585516E+01  0.57509509081E+01  0.79455747291E+01  0.51100000000E-03 0. -1.
        -11    1    3    3    0    0 -0.15396807332E+02 -0.14000440277E+02 -0.14721776032E+02  0.25491267010E+02  0.51100000000E-03 0.  1.
         12    1    3    3    0    0  0.23349592177E+02 -0.10641280398E+02  0.32501641890E+01  0.25865109135E+02  0.00000000000E+00 0. -1.
</event>
<event>
 7    1  0.1202531E-011  0.5930192E+02  0.7816164E-02  0.1266605E+00
        -11   -1    0    0    0    0  0.00000000000E+00  0.00000000000E+00  0.45593999997E+02  0.45594000000E+02  0.51100000000E-03 0.  1.
         11   -1    0    0    0    0 -0.00000000000E+00 -0.00000000000E+00 -0.45593999997E+02  0.45594000000E+02  0.51100000000E-03 0. -1.
    9900012    2    1    2    0    0 -0.53984702737E-01 -0.28789659892E+02 -0.13706734230E+02  0.59301921622E+02  0.49999959138E+02 0.  0.
        -12    1    1    2    0    0  0.53984702737E-01  0.28789659892E+02  0.13706734230E+02  0.31886078378E+02  0.00000000000E+00 0.  1.
         11    1    3    3    0    0  0.97463125904E+01 -0.14049201160E+02 -0.23896384928E+01  0.17265023450E+02  0.51100000000E-03 0. -1.
        -11    1    3    3    0    0  0.51820557053E+01  0.99488346943E+01 -0.60237124180E+00  0.11233693270E+02  0.51100000000E-03 0.  1.
         12    1    3    3    0    0 -0.14982352998E+02 -0.24689293426E+02 -0.10714724496E+02  0.30803204903E+02  0.00000000000E+00 0. -1.
</event>
<event>
 7    1  0.1202531E-011  0.5930195E+02  0.7816164E-02  0.1266605E+00
        -11   -1    0    0    0    0  0.00000000000E+00  0.00000000000E+00  0.45593999997E+02  0.45594000000E+02  0.51100000000E-03 0.  1.
         11   -1    0    0    0    0 -0.00000000000E+00 -0.00000000000E+00 -0.45593999997E+02  0.45594000000E+02  0.51100000000E-03 0. -1.
    9900012    2    1    2    0    0  0.47705980662E+01  0.30744357432E+02 -0.69818478056E+01  0.59301947898E+02  0.50000007059E+02 0.  0.
        -12    1    1    2    0    0 -0.47705980662E+01 -0.30744357432E+02  0.69818478056E+01  0.31886052102E+02  0.00000000000E+00 0.  1.
         11    1    3    3    0    0  0.14184333462E+02  0.10077574331E+02 -0.10310314972E+02  0.20225118423E+02  0.51100000000E-03 0. -1.
        -11    1    3    3    0    0  0.60750354952E+01  0.14358518176E+02  0.12517949344E+02  0.19994303101E+02  0.51100000000E-03 0.  1.
        -12    1    3    3    0    0 -0.15488770891E+02  0.63082649258E+01 -0.91894821778E+01  0.19082526374E+02  0.00000000000E+00 0.  1.
</event>
<event>
 7    1  0.1202531E-011  0.5930195E+02  0.7816164E-02  0.1266605E+00
        -11   -1    0    0    0    0  0.00000000000E+00  0.00000000000E+00  0.45593999997E+02  0.45594000000E+02  0.51100000000E-03 0.  1.
         11   -1    0    0    0    0 -0.00000000000E+00 -0.00000000000E+00 -0.45593999997E+02  0.45594000000E+02  0.51100000000E-03 0. -1.
    9900012    2    1    2    0    0 -0.96415400132E+01  0.13819267496E+02 -0.27070075045E+02  0.59301946451E+02  0.50000004420E+02 0.  0.
        -12    1    1    2    0    0  0.96415400132E+01 -0.13819267496E+02  0.27070075045E+02  0.31886053549E+02  0.00000000000E+00 0.  1.
         11    1    3    3    0    0 -0.11049507997E+02 -0.10993491948E+02 -0.10212453504E+02  0.18634449255E+02  0.51100000000E-03 0. -1.
        -11    1    3    3    0    0  0.19408230315E+01 -0.52822188299E+01  0.93144275639E+00  0.57040525660E+01  0.51100000000E-03 0.  1.
         12    1    3    3    0    0 -0.53285504731E+00  0.30094978274E+02 -0.17789064298E+02  0.34963444630E+02  0.00000000000E+00 0. -1.
</event>
<event>
 7    1  0.1202531E-011  0.5930195E+02  0.7816164E-02  0.1266605E+00
        -11   -1    0    0    0    0  0.00000000000E+00  0.00000000000E+00  0.45593999997E+02  0.45594000000E+02  0.51100000000E-03 0. -1.
         11   -1    0    0    0    0 -0.00000000000E+00 -0.00000000000E+00 -0.45593999997E+02  0.45594000000E+02  0.51100000000E-03 0.  1.
    9900012    2    1    2    0    0  0.21764193217E+02 -0.22102144953E+02  0.73847838416E+01  0.59301953674E+02  0.50000017593E+02 0.  0.
        -12    1    1    2    0    0 -0.21764193217E+02  0.22102144953E+02 -0.73847838416E+01  0.31886046326E+02  0.00000000000E+00 0.  1.
         11    1    3    3    0    0  0.17142892822E+01 -0.28923148694E+02  0.42805065634E+01  0.29288394541E+02  0.51100000000E-03 0. -1.
        -11    1    3    3    0    0 -0.32638783726E+01  0.53949277707E+01 -0.71569955581E+00  0.63458942473E+01  0.51100000000E-03 0.  1.
        -12    1    3    3    0    0  0.23313782307E+02  0.14260759703E+01  0.38199768341E+01  0.23667664886E+02  0.00000000000E+00 0.  1.
</event>
<event>
 7    1  0.1202531E-011  0.5930199E+02  0.7816164E-02  0.1266605E+00
        -11   -1    0    0    0    0  0.00000000000E+00  0.00000000000E+00  0.45593999997E+02  0.45594000000E+02  0.51100000000E-03 0.  1.
         11   -1    0    0    0    0 -0.00000000000E+00 -0.00000000000E+00 -0.45593999997E+02  0.45594000000E+02  0.51100000000E-03 0. -1.
    9900012    2    1    2    0    0 -0.15195294570E+02 -0.23941677849E+02 -0.14581393225E+02  0.59301985139E+02  0.50000074978E+02 0.  0.
        -12    1    1    2    0    0  0.15195294570E+02  0.23941677849E+02  0.14581393225E+02  0.31886014861E+02  0.00000000000E+00 0.  1.
         11    1    3    3    0    0 -0.12153348543E+02  0.45875218975E+01  0.30470550428E+00  0.12993924875E+02  0.51100000000E-03 0. -1.
        -11    1    3    3    0    0  0.25726220803E+01 -0.13303873413E+01  0.91384553637E+01  0.95864321591E+01  0.51100000000E-03 0.  1.
        -12    1    3    3    0    0 -0.56145681082E+01 -0.27198812405E+02 -0.24024554093E+02  0.36721628105E+02  0.00000000000E+00 0.  1.
</event>
<event>
 7    1  0.1202531E-011  0.5930190E+02  0.7816164E-02  0.1266605E+00
        -11   -1    0    0    0    0  0.00000000000E+00  0.00000000000E+00  0.45593999997E+02  0.45594000000E+02  0.51100000000E-03 0.  1.
         11   -1    0    0    0    0 -0.00000000000E+00 -0.00000000000E+00 -0.45593999997E+02  0.45594000000E+02  0.51100000000E-03 0. -1.
    9900012    2    1    2    0    0 -0.58991267100E+01 -0.29106317976E+02 -0.11608007564E+02  0.59301901436E+02  0.49999922322E+02 0.  0.
        -12    1    1    2    0    0  0.58991267100E+01  0.29106317976E+02  0.11608007564E+02  0.31886098564E+02  0.00000000000E+00 0.  1.
         11    1    3    3    0    0 -0.47768579304E+01 -0.21840637195E+02 -0.46198927668E+01  0.22829262236E+02  0.51100000000E-03 0. -1.
        -11    1    3    3    0    0 -0.11808950806E+02  0.99433770301E+01 -0.16619884577E+01  0.15526888671E+02  0.51100000000E-03 0.  1.
         12    1    3    3    0    0  0.10686682026E+02 -0.17209057811E+02 -0.53261263391E+01  0.20945750529E+02  0.00000000000E+00 0. -1.
</event>
<event>
 7    1  0.1202531E-011  0.5930194E+02  0.7816164E-02  0.1266605E+00
        -11   -1    0    0    0    0  0.00000000000E+00  0.00000000000E+00  0.45593999997E+02  0.45594000000E+02  0.51100000000E-03 0.  1.
         11   -1    0    0    0    0 -0.00000000000E+00 -0.00000000000E+00 -0.45593999997E+02  0.45594000000E+02  0.51100000000E-03 0. -1.
    9900012    2    1    2    0    0 -0.65789841075E+01 -0.31053642148E+02 -0.30181023389E+01  0.59301942479E+02  0.49999997175E+02 0.  0.
        -12    1    1    2    0    0  0.65789841075E+01  0.31053642148E+02  0.30181023389E+01  0.31886057521E+02  0.00000000000E+00 0.  1.
         11    1    3    3    0    0 -0.57289387122E+01 -0.19227407509E+02 -0.10343438395E+02  0.22572121220E+02  0.51100000000E-03 0. -1.
        -11    1    3    3    0    0 -0.11030405634E+02 -0.81448728498E+01 -0.95294972036E+01  0.16697907636E+02  0.51100000000E-03 0.  1.
        -12    1    3    3    0    0  0.10180360239E+02 -0.36813617894E+01  0.16854833259E+02  0.20031913623E+02  0.00000000000E+00 0.  1.
</event>
<event>
 7    1  0.1202531E-011  0.5930196E+02  0.7816164E-02  0.1266605E+00
        -11   -1    0    0    0    0  0.00000000000E+00  0.00000000000E+00  0.45593999997E+02  0.45594000000E+02  0.51100000000E-03 0. -1.
         11   -1    0    0    0    0 -0.00000000000E+00 -0.00000000000E+00 -0.45593999997E+02  0.45594000000E+02  0.51100000000E-03 0.  1.
    9900012    2    1    2    0    0  0.23527072696E+02 -0.81379814928E+00 -0.21506602651E+02  0.59301962701E+02  0.50000034056E+02 0.  0.
        -12    1    1    2    0    0 -0.23527072696E+02  0.81379814928E+00  0.21506602651E+02  0.31886037299E+02  0.00000000000E+00 0.  1.
         11    1    3    3    0    0  0.13122989352E+02 -0.38182357664E+01  0.49272519390E+01  0.14528234092E+02  0.51100000000E-03 0. -1.
        -11    1    3    3    0    0  0.60716462398E+01 -0.15715261273E+02 -0.10906140917E+02  0.20069335687E+02  0.51100000000E-03 0.  1.
        -12    1    3    3    0    0  0.43324371042E+01  0.18719698890E+02 -0.15527713672E+02  0.24704392923E+02  0.00000000000E+00 0.  1.
</event>
<event>
 7    1  0.1202531E-011  0.5930198E+02  0.7816164E-02  0.1266605E+00
        -11   -1    0    0    0    0  0.00000000000E+00  0.00000000000E+00  0.45593999997E+02  0.45594000000E+02  0.51100000000E-03 0.  1.
         11   -1    0    0    0    0 -0.00000000000E+00 -0.00000000000E+00 -0.45593999997E+02  0.45594000000E+02  0.51100000000E-03 0. -1.
    9900012    2    1    2    0    0  0.36167582423E+01 -0.20280403499E+02 -0.24338087313E+02  0.59301981116E+02  0.50000067639E+02 0.  0.
        -12    1    1    2    0    0 -0.36167582423E+01  0.20280403499E+02  0.24338087313E+02  0.31886018884E+02  0.00000000000E+00 0.  1.
         11    1    3    3    0    0 -0.56389728454E+00 -0.11090988464E+01  0.90622631274E+01  0.91472779366E+01  0.51100000000E-03 0. -1.
        -11    1    3    3    0    0  0.74894721348E+01  0.62836354410E+01 -0.27105227374E+01  0.10145107244E+02  0.51100000000E-03 0.  1.
         12    1    3    3    0    0 -0.33088166079E+01 -0.25454940093E+02 -0.30689827703E+02  0.40009595935E+02  0.00000000000E+00 0. -1.
</event>
<event>
 7    1  0.1202531E-011  0.5930193E+02  0.7816164E-02  0.1266605E+00
        -11   -1    0    0    0    0  0.00000000000E+00  0.00000000000E+00  0.45593999997E+02  0.45594000000E+02  0.51100000000E-03 0.  1.
         11   -1    0    0    0    0 -0.00000000000E+00 -0.00000000000E+00 -0.45593999997E+02  0.45594000000E+02  0.51100000000E-03 0. -1.
    9900012    2    1    2    0    0 -0.20090544317E+01 -0.35073003993E+01 -0.31628847563E+02  0.59301930095E+02  0.49999974590E+02 0.  0.
        -12    1    1    2    0    0  0.20090544317E+01  0.35073003993E+01  0.31628847563E+02  0.31886069905E+02  0.00000000000E+00 0.  1.
         11    1    3    3    0    0  0.64608724441E+01 -0.67858983999E+01 -0.68346566651E+01  0.11597578274E+02  0.51100000000E-03 0. -1.
        -11    1    3    3    0    0  0.14986026967E+02  0.77217911489E+01 -0.11058561366E+02  0.20161816449E+02  0.51100000000E-03 0.  1.
         12    1    3    3    0    0 -0.23455953843E+02 -0.44431931482E+01 -0.13735629533E+02  0.27542535371E+02  0.00000000000E+00 0. -1.
</event>
<event>
 7    1  0.1202531E-011  0.5930196E+02  0.7816164E-02  0.1266605E+00
        -11   -1    0    0    0    0  0.00000000000E+00  0.00000000000E+00  0.45593999997E+02  0.45594000000E+02  0.51100000000E-03 0. -1.
         11   -1    0    0    0    0 -0.00000000000E+00 -0.00000000000E+00 -0.45593999997E+02  0.45594000000E+02  0.51100000000E-03 0.  1.
    9900012    2    1    2    0    0  0.66978277035E+00  0.14388559306E+01  0.31846520878E+02  0.59301955915E+02  0.50000021680E+02 0.  0.
        -12    1    1    2    0    0 -0.66978277035E+00 -0.14388559306E+01 -0.31846520878E+02  0.31886044085E+02  0.00000000000E+00 0.  1.
         11    1    3    3    0    0 -0.91959001209E+01 -0.33519552935E+01 -0.26981756735E+01  0.10152848642E+02  0.51100000000E-03 0. -1.
        -11    1    3    3    0    0  0.21512632042E+02  0.95768661057E+00  0.15632372065E+02  0.26609801909E+02  0.51100000000E-03 0.  1.
         12    1    3    3    0    0 -0.11646949150E+02  0.38331246135E+01  0.18912324487E+02  0.22539305364E+02  0.00000000000E+00 0. -1.
</event>
<event>
 7    1  0.1202531E-011  0.5930195E+02  0.7816164E-02  0.1266605E+00
        -11   -1    0    0    0    0  0.00000000000E+00  0.00000000000E+00  0.45593999997E+02  0.45594000000E+02  0.51100000000E-03 0.  1.
         11   -1    0    0    0    0 -0.00000000000E+00 -0.00000000000E+00 -0.45593999997E+02  0.45594000000E+02  0.51100000000E-03 0. -1.
    9900012    2    1    2    0    0 -0.57664887981E+01 -0.26881274241E+02  0.16151309284E+02  0.59301951492E+02  0.50000013613E+02 0.  0.
        -12    1    1    2    0    0  0.57664887981E+01  0.26881274241E+02 -0.16151309284E+02  0.31886048508E+02  0.00000000000E+00 0.  1.
         11    1    3    3    0    0 -0.25002915530E+01 -0.20125185986E+02  0.94697898402E+01  0.22381945597E+02  0.51100000000E-03 0. -1.
        -11    1    3    3    0    0  0.77020979078E+01 -0.52391782076E+01  0.18507445629E+02  0.20719479830E+02  0.51100000000E-03 0.  1.
        -12    1    3    3    0    0 -0.10968295153E+02 -0.15169100479E+01 -0.11825926185E+02  0.16200526065E+02  0.00000000000E+00 0.  1.
</event>
<event>
 7    1  0.1202531E-011  0.5930195E+02  0.7816164E-02  0.1266605E+00
        -11   -1    0    0    0    0  0.00000000000E+00  0.00000000000E+00  0.45593999997E+02  0.45594000000E+02  0.51100000000E-03 0.  1.
         11   -1    0    0    0    0 -0.00000000000E+00 -0.00000000000E+00 -0.45593999997E+02  0.45594000000E+02  0.51100000000E-03 0. -1.
    9900012    2    1    2    0    0 -0.14512080764E+02 -0.27315467852E+02  0.77449956719E+01  0.59301949288E+02  0.50000009593E+02 0.  0.
        -12    1    1    2    0    0  0.14512080764E+02  0.27315467852E+02 -0.77449956719E+01  0.31886050712E+02  0.00000000000E+00 0.  1.
         11    1    3    3    0    0  0.29865881904E+01 -0.21592947392E+02 -0.11963035540E+02  0.24865423899E+02  0.51100000000E-03 0. -1.
        -11    1    3    3    0    0 -0.39408318668E+01 -0.12173365948E+02  0.61079887634E+01  0.14178452712E+02  0.51100000000E-03 0.  1.
         12    1    3    3    0    0 -0.13557837087E+02  0.64508454877E+01  0.13600042448E+02  0.20258072677E+02  0.00000000000E+00 0. -1.
</event>
<event>
 7    1  0.1202531E-011  0.5930193E+02  0.7816164E-02  0.1266605E+00
        -11   -1    0    0    0    0  0.00000000000E+00  0.00000000000E+00  0.45593999997E+02  0.45594000000E+02  0.51100000000E-03 0.  1.
         11   -1    0    0    0    0 -0.00000000000E+00 -0.00000000000E+00 -0.45593999997E+02  0.45594000000E+02  0.51100000000E-03 0. -1.
    9900012    2    1    2    0    0  0.72004060290E+01 -0.11582503365E+02 -0.28822238843E+02  0.59301926502E+02  0.49999968038E+02 0.  0.
        -12    1    1    2    0    0 -0.72004060290E+01  0.11582503365E+02  0.28822238843E+02  0.31886073498E+02  0.00000000000E+00 0.  1.
         11    1    3    3    0    0  0.19714438970E+02  0.13022110350E+01 -0.28434330743E+02  0.34624644728E+02  0.51100000000E-03 0. -1.
        -11    1    3    3    0    0 -0.36149784175E+01  0.16124966878E+01 -0.56255036498E+01  0.68785540706E+01  0.51100000000E-03 0.  1.
        -12    1    3    3    0    0 -0.88990545235E+01 -0.14497211088E+02  0.52375955495E+01  0.17798727704E+02  0.00000000000E+00 0.  1.
</event>
<event>
 7    1  0.1202531E-011  0.5930195E+02  0.7816164E-02  0.1266605E+00
        -11   -1    0    0    0    0  0.00000000000E+00  0.00000000000E+00  0.45593999997E+02  0.45594000000E+02  0.51100000000E-03 0.  1.
         11   -1    0    0    0    0 -0.00000000000E+00 -0.00000000000E+00 -0.45593999997E+02  0.45594000000E+02  0.51100000000E-03 0. -1.
    9900012    2    1    2    0    0 -0.50334398734E+01  0.91431075979E+01 -0.30129529480E+02  0.59301945365E+02  0.50000002439E+02 0.  0.
        -12    1    1    2    0    0  0.50334398734E+01 -0.91431075979E+01  0.30129529480E+02  0.31886054635E+02  0.00000000000E+00 0.  1.
         11    1    3    3    0    0  0.11326833089E+02  0.89253780692E+01 -0.13845876740E+02  0.19991693887E+02  0.51100000000E-03 0. -1.
        -11    1    3    3    0    0 -0.56780548486E+01 -0.15293351040E+02 -0.11247470963E+02  0.19814956376E+02  0.51100000000E-03 0.  1.
         12    1    3    3    0    0 -0.10682218113E+02  0.15511080568E+02 -0.50361817773E+01  0.19495295102E+02  0.00000000000E+00 0. -1.
</event>
<event>
 7    1  0.1202531E-011  0.5930195E+02  0.7816164E-02  0.1266605E+00
        -11   -1    0    0    0    0  0.00000000000E+00  0.00000000000E+00  0.45593999997E+02  0.45594000000E+02  0.51100000000E-03 0.  1.
         11   -1    0    0    0    0 -0.00000000000E+00 -0.00000000000E+00 -0.45593999997E+02  0.45594000000E+02  0.51100000000E-03 0. -1.
    9900012    2    1    2    0    0  0.36861520698E+01  0.30250552444E+02 -0.93827735183E+01  0.59301951653E+02  0.50000013907E+02 0.  0.
        -12    1    1    2    0    0 -0.36861520698E+01 -0.30250552444E+02  0.93827735183E+01  0.31886048347E+02  0.00000000000E+00 0.  1.
         11    1    3    3    0    0  0.15366363166E+02  0.16705027951E+02  0.26196806274E+00  0.22699156445E+02  0.51100000000E-03 0. -1.
        -11    1    3    3    0    0 -0.70775123599E+00  0.27626377582E+01 -0.18589815172E+02  0.18807293999E+02  0.51100000000E-03 0.  1.
        -12    1    3    3    0    0 -0.10972459860E+02  0.10782886735E+02  0.89450735907E+01  0.17795501209E+02  0.00000000000E+00 0.  1.
</event>
<event>
 7    1  0.1202531E-011  0.5930187E+02  0.7816164E-02  0.1266605E+00
        -11   -1    0    0    0    0  0.00000000000E+00  0.00000000000E+00  0.45593999997E+02  0.45594000000E+02  0.51100000000E-03 0.  1.
         11   -1    0    0    0    0 -0.00000000000E+00 -0.00000000000E+00 -0.45593999997E+02  0.45594000000E+02  0.51100000000E-03 0. -1.
    9900012    2    1    2    0    0 -0.60930542977E+01 -0.11958493490E+02 -0.28923942058E+02  0.59301869764E+02  0.49999864561E+02 0.  0.
        -12    1    1    2    0    0  0.60930542977E+01  0.11958493490E+02  0.28923942058E+02  0.31886130236E+02  0.00000000000E+00 0.  1.
         11    1    3    3    0    0  0.11041735174E+01 -0.14591943454E+02  0.30107504753E+00  0.14636757133E+02  0.51100000000E-03 0. -1.
        -11    1    3    3    0    0  0.10774131756E+02 -0.73488085089E+01 -0.91493186748E+01  0.15931005432E+02  0.51100000000E-03 0.  1.
         12    1    3    3    0    0 -0.17971359571E+02  0.99822584732E+01 -0.20075698431E+02  0.28734107199E+02  0.00000000000E+00 0. -1.
</event>
<event>
 7    1  0.1202531E-011  0.5930195E+02  0.7816164E-02  0.1266605E+00
        -11   -1    0    0    0    0  0.00000000000E+00  0.00000000000E+00  0.45593999997E+02  0.45594000000E+02  0.51100000000E-03 0. -1.
         11   -1    0    0    0    0 -0.00000000000E+00 -0.00000000000E+00 -0.45593999997E+02  0.45594000000E+02  0.51100000000E-03 0.  1.
    9900012    2    1    2    0    0  0.24610078667E+02  0.10489616633E+02  0.17350283403E+02  0.59301947199E+02  0.50000005783E+02 0.  0.
        -12    1    1    2    0    0 -0.24610078667E+02 -0.10489616633E+02 -0.17350283403E+02  0.31886052801E+02  0.00000000000E+00 0.  1.
         11    1    3    3    0    0 -0.31018596270E+01 -0.26706224078E-01  0.10272647294E+02  0.10730774859E+02  0.51100000000E-03 0. -1.
        -11    1    3    3    0    0  0.73799236913E+01 -0.14187541974E+02  0.11649062218E+01  0.16034544824E+02  0.51100000000E-03 0.  1.
         12    1    3    3    0    0  0.20332014602E+02  0.24703864831E+02  0.59127298869E+01  0.32536627516E+02  0.00000000000E+00 0. -1.
</event>
<event>
 7    1  0.1202531E-011  0.5930194E+02  0.7816164E-02  0.1266605E+00
        -11   -1    0    0    0    0  0.00000000000E+00  0.00000000000E+00  0.45593999997E+02  0.45594000000E+02  0.51100000000E-03 0.  1.
         11   -1    0    0    0    0 -0.00000000000E+00 -0.00000000000E+00 -0.45593999997E+02  0.45594000000E+02  0.51100000000E-03 0. -1.
    9900012    2    1    2    0    0  0.15136344616E+02  0.17505159501E+02 -0.21935845629E+02  0.59301939394E+02  0.49999991550E+02 0.  0.
        -12    1    1    2    0    0 -0.15136344616E+02 -0.17505159501E+02  0.21935845629E+02  0.31886060606E+02  0.00000000000E+00 0.  1.
         11    1    3    3    0    0 -0.15949303016E+01 -0.29237093385E+01 -0.19060175378E+02  0.19348957715E+02  0.51100000000E-03 0. -1.
        -11    1    3    3    0    0  0.73707701499E+01  0.32074305692E+01 -0.14919739977E+02  0.16947404070E+02  0.51100000000E-03 0.  1.
        -12    1    3    3    0    0  0.93605047673E+01  0.17221438271E+02  0.12044069725E+02  0.23005577610E+02  0.00000000000E+00 0.  1.
</event>
<event>
 7    1  0.1202531E-011  0.5930195E+02  0.7816164E-02  0.1266605E+00
        -11   -1    0    0    0    0  0.00000000000E+00  0.00000000000E+00  0.45593999997E+02  0.45594000000E+02  0.51100000000E-03 0.  1.
         11   -1    0    0    0    0 -0.00000000000E+00 -0.00000000000E+00 -0.45593999997E+02  0.45594000000E+02  0.51100000000E-03 0. -1.
    9900012    2    1    2    0    0  0.12811699641E+02  0.29198135448E+02  0.22244232406E+00  0.59301949101E+02  0.50000009252E+02 0.  0.
        -12    1    1    2    0    0 -0.12811699641E+02 -0.29198135448E+02 -0.22244232406E+00  0.31886050899E+02  0.00000000000E+00 0.  1.
         11    1    3    3    0    0  0.19594712178E+02  0.25535057435E+01  0.35316774478E+01  0.20073511969E+02  0.51100000000E-03 0. -1.
        -11    1    3    3    0    0  0.70079556234E+00  0.41704906079E+01 -0.12973523308E+02  0.13645380670E+02  0.51100000000E-03 0.  1.
        -12    1    3    3    0    0 -0.74838080993E+01  0.22474139097E+02  0.96642881847E+01  0.25583056462E+02  0.00000000000E+00 0.  1.
</event>
<event>
 7    1  0.1202531E-011  0.5930194E+02  0.7816164E-02  0.1266605E+00
        -11   -1    0    0    0    0  0.00000000000E+00  0.00000000000E+00  0.45593999997E+02  0.45594000000E+02  0.51100000000E-03 0.  1.
         11   -1    0    0    0    0 -0.00000000000E+00 -0.00000000000E+00 -0.45593999997E+02  0.45594000000E+02  0.51100000000E-03 0. -1.
    9900012    2    1    2    0    0  0.36463441192E+00 -0.74752721138E+01 -0.30995294612E+02  0.59301938163E+02  0.49999989304E+02 0.  0.
        -12    1    1    2    0    0 -0.36463441192E+00  0.74752721138E+01  0.30995294612E+02  0.31886061837E+02  0.00000000000E+00 0.  1.
         11    1    3    3    0    0  0.49494546420E+01 -0.15782564652E+02 -0.33386379687E+02  0.37259049868E+02  0.51100000000E-03 0. -1.
        -11    1    3    3    0    0  0.48068303700E+01  0.11305255884E+01 -0.58337004763E+01  0.76430208570E+01  0.51100000000E-03 0.  1.
        -12    1    3    3    0    0 -0.93916506001E+01  0.71767669496E+01  0.82247855515E+01  0.14399867437E+02  0.00000000000E+00 0.  1.
</event>
<event>
 7    1  0.1202531E-011  0.5930194E+02  0.7816164E-02  0.1266605E+00
        -11   -1    0    0    0    0  0.00000000000E+00  0.00000000000E+00  0.45593999997E+02  0.45594000000E+02  0.51100000000E-03 0. -1.
         11   -1    0    0    0    0 -0.00000000000E+00 -0.00000000000E+00 -0.45593999997E+02  0.45594000000E+02  0.51100000000E-03 0.  1.
    9900012    2    1    2    0    0  0.13966172641E+02  0.18931877641E+02  0.21523261513E+02  0.59301941050E+02  0.49999994569E+02 0.  0.
        -12    1    1    2    0    0 -0.13966172641E+02 -0.18931877641E+02 -0.21523261513E+02  0.31886058950E+02  0.00000000000E+00 0.  1.
         11    1    3    3    0    0  0.14013223350E+02  0.19522960690E+02  0.24751035141E+02  0.34498263196E+02  0.51100000000E-03 0. -1.
        -11    1    3    3    0    0 -0.65156006169E+01  0.68784552155E+01  0.60567123821E+01  0.11244997230E+02  0.51100000000E-03 0.  1.
        -12    1    3    3    0    0  0.64685499074E+01 -0.74695382643E+01 -0.92844860103E+01  0.13558680624E+02  0.00000000000E+00 0.  1.
</event>
<event>
 7    1  0.1202531E-011  0.5930223E+02  0.7816164E-02  0.1266604E+00
        -11   -1    0    0    0    0  0.00000000000E+00  0.00000000000E+00  0.45593999997E+02  0.45594000000E+02  0.51100000000E-03 0.  1.
         11   -1    0    0    0    0 -0.00000000000E+00 -0.00000000000E+00 -0.45593999997E+02  0.45594000000E+02  0.51100000000E-03 0. -1.
    9900012    2    1    2    0    0  0.19793003507E+02  0.99299459867E+01 -0.22942000252E+02  0.59302232161E+02  0.50000525484E+02 0.  0.
        -12    1    1    2    0    0 -0.19793003507E+02 -0.99299459867E+01  0.22942000252E+02  0.31885767839E+02  0.00000000000E+00 0.  1.
         11    1    3    3    0    0  0.11545342121E+01  0.16045559393E+02 -0.10894005457E+02  0.19428645877E+02  0.51100000000E-03 0. -1.
        -11    1    3    3    0    0  0.78190921081E+01  0.10963699258E+02  0.40143220599E+01  0.14051892565E+02  0.51100000000E-03 0.  1.
        -12    1    3    3    0    0  0.10819377186E+02 -0.17079312664E+02 -0.16062316855E+02  0.25821693719E+02  0.00000000000E+00 0.  1.
</event>
<event>
 7    1  0.1202531E-011  0.5930193E+02  0.7816164E-02  0.1266605E+00
        -11   -1    0    0    0    0  0.00000000000E+00  0.00000000000E+00  0.45593999997E+02  0.45594000000E+02  0.51100000000E-03 0.  1.
         11   -1    0    0    0    0 -0.00000000000E+00 -0.00000000000E+00 -0.45593999997E+02  0.45594000000E+02  0.51100000000E-03 0. -1.
    9900012    2    1    2    0    0  0.25022614917E+02  0.18908315473E+02  0.57502912810E+01  0.59301929356E+02  0.49999973243E+02 0.  0.
        -12    1    1    2    0    0 -0.25022614917E+02 -0.18908315473E+02 -0.57502912810E+01  0.31886070644E+02  0.00000000000E+00 0.  1.
         11    1    3    3    0    0  0.31178741709E+01  0.11340447201E+01  0.12078094087E+02  0.12525476190E+02  0.51100000000E-03 0.  1.
        -11    1    3    3    0    0 -0.78039928966E+01  0.14104651679E+02 -0.47301399421E+01  0.16799337137E+02  0.51100000000E-03 0. -1.
         12    1    3    3    0    0  0.29708733642E+02  0.36696190736E+01 -0.15976628634E+01  0.29977116029E+02  0.00000000000E+00 0. -1.
</event>
<event>
 7    1  0.1202531E-011  0.5930194E+02  0.7816164E-02  0.1266605E+00
        -11   -1    0    0    0    0  0.00000000000E+00  0.00000000000E+00  0.45593999997E+02  0.45594000000E+02  0.51100000000E-03 0.  1.
         11   -1    0    0    0    0 -0.00000000000E+00 -0.00000000000E+00 -0.45593999997E+02  0.45594000000E+02  0.51100000000E-03 0. -1.
    9900012    2    1    2    0    0 -0.52713893277E+01  0.30432629745E+02 -0.79239129614E+01  0.59301938856E+02  0.49999990569E+02 0.  0.
        -12    1    1    2    0    0  0.52713893277E+01 -0.30432629745E+02  0.79239129614E+01  0.31886061144E+02  0.00000000000E+00 0.  1.
         11    1    3    3    0    0 -0.14993718896E+01  0.28696589955E+02  0.10048083431E+02  0.30441852309E+02  0.51100000000E-03 0. -1.
        -11    1    3    3    0    0  0.51627811775E+01  0.88858221885E+00  0.30081264940E+01  0.60409198895E+01  0.51100000000E-03 0.  1.
         12    1    3    3    0    0 -0.89347986155E+01  0.84745757112E+00 -0.20980122886E+02  0.22819166658E+02  0.00000000000E+00 0. -1.
</event>
<event>
 7    1  0.1202531E-011  0.5930195E+02  0.7816164E-02  0.1266605E+00
        -11   -1    0    0    0    0  0.00000000000E+00  0.00000000000E+00  0.45593999997E+02  0.45594000000E+02  0.51100000000E-03 0. -1.
         11   -1    0    0    0    0 -0.00000000000E+00 -0.00000000000E+00 -0.45593999997E+02  0.45594000000E+02  0.51100000000E-03 0.  1.
    9900012    2    1    2    0    0 -0.23940188675E+02  0.20520025201E+02  0.47451295929E+01  0.59301947831E+02  0.50000006937E+02 0.  0.
        -12    1    1    2    0    0  0.23940188675E+02 -0.20520025201E+02 -0.47451295929E+01  0.31886052169E+02  0.00000000000E+00 0.  1.
         11    1    3    3    0    0 -0.11179131015E+01  0.53089344816E+01 -0.66782005832E+01  0.86042360685E+01  0.51100000000E-03 0.  1.
        -11    1    3    3    0    0 -0.26953062285E+02  0.23201400321E+02 -0.73808088513E+00  0.35571298923E+02  0.51100000000E-03 0. -1.
        -12    1    3    3    0    0  0.41307867121E+01 -0.79903096016E+01  0.12161411061E+02  0.15126412839E+02  0.00000000000E+00 0.  1.
</event>
<event>
 7    1  0.1202531E-011  0.5930197E+02  0.7816164E-02  0.1266605E+00
        -11   -1    0    0    0    0  0.00000000000E+00  0.00000000000E+00  0.45593999997E+02  0.45594000000E+02  0.51100000000E-03 0.  1.
         11   -1    0    0    0    0 -0.00000000000E+00 -0.00000000000E+00 -0.45593999997E+02  0.45594000000E+02  0.51100000000E-03 0. -1.
    9900012    2    1    2    0    0 -0.20551412053E+02 -0.21069354351E+02 -0.12265437583E+02  0.59301965608E+02  0.50000039357E+02 0.  0.
        -12    1    1    2    0    0  0.20551412053E+02  0.21069354351E+02  0.12265437583E+02  0.31886034392E+02  0.00000000000E+00 0.  1.
         11    1    3    3    0    0  0.69525758947E+01 -0.53475542065E+01 -0.23632318496E+00  0.87744228569E+01  0.51100000000E-03 0. -1.
        -11    1    3    3    0    0 -0.14033677952E+02 -0.21758818926E+02 -0.20927279141E+02  0.33291760699E+02  0.51100000000E-03 0.  1.
        -12    1    3    3    0    0 -0.13470309996E+02  0.60370187814E+01  0.88981647426E+01  0.17235782052E+02  0.00000000000E+00 0.  1.
</event>
<event>
 7    1  0.1202531E-011  0.5930194E+02  0.7816164E-02  0.1266605E+00
        -11   -1    0    0    0    0  0.00000000000E+00  0.00000000000E+00  0.45593999997E+02  0.45594000000E+02  0.51100000000E-03 0.  1.
         11   -1    0    0    0    0 -0.00000000000E+00 -0.00000000000E+00 -0.45593999997E+02  0.45594000000E+02  0.51100000000E-03 0. -1.
    9900012    2    1    2    0    0  0.29194136046E+02 -0.12723243516E+02  0.15944088121E+01  0.59301942789E+02  0.49999997740E+02 0.  0.
        -12    1    1    2    0    0 -0.29194136046E+02  0.12723243516E+02 -0.15944088121E+01  0.31886057211E+02  0.00000000000E+00 0.  1.
         11    1    3    3    0    0  0.30217029690E+02  0.79664630263E+01 -0.36847021679E+01  0.31466020510E+02  0.51100000000E-03 0. -1.
        -11    1    3    3    0    0  0.74083112886E+01 -0.36863079261E+01  0.25693458781E+01  0.86644954139E+01  0.51100000000E-03 0.  1.
        -12    1    3    3    0    0 -0.84312049326E+01 -0.17003398617E+02  0.27097651019E+01  0.19171426865E+02  0.00000000000E+00 0.  1.
</event>
<event>
 7    1  0.1202531E-011  0.5930196E+02  0.7816164E-02  0.1266605E+00
        -11   -1    0    0    0    0  0.00000000000E+00  0.00000000000E+00  0.45593999997E+02  0.45594000000E+02  0.51100000000E-03 0. -1.
         11   -1    0    0    0    0 -0.00000000000E+00 -0.00000000000E+00 -0.45593999997E+02  0.45594000000E+02  0.51100000000E-03 0.  1.
    9900012    2    1    2    0    0 -0.31185611907E+02  0.89345839572E+00  0.65862693052E+01  0.59301959147E+02  0.50000027574E+02 0.  0.
        -12    1    1    2    0    0  0.31185611907E+02 -0.89345839572E+00 -0.65862693052E+01  0.31886040853E+02  0.00000000000E+00 0.  1.
         11    1    3    3    0    0 -0.98036454161E+01 -0.16846370916E+02  0.15048430801E+02  0.24624519210E+02  0.51100000000E-03 0. -1.
        -11    1    3    3    0    0 -0.15991573348E+02  0.13019723655E+01 -0.63275163634E+01  0.17247116100E+02  0.51100000000E-03 0.  1.
        -12    1    3    3    0    0 -0.53903931428E+01  0.16437856947E+02 -0.21346451323E+01  0.17430323837E+02  0.00000000000E+00 0.  1.
</event>
<event>
 7    1  0.1202531E-011  0.5930197E+02  0.7816164E-02  0.1266605E+00
        -11   -1    0    0    0    0  0.00000000000E+00  0.00000000000E+00  0.45593999997E+02  0.45594000000E+02  0.51100000000E-03 0.  1.
         11   -1    0    0    0    0 -0.00000000000E+00 -0.00000000000E+00 -0.45593999997E+02  0.45594000000E+02  0.51100000000E-03 0. -1.
    9900012    2    1    2    0    0  0.29672409420E+02  0.54418121970E+01 -0.10327325154E+02  0.59301970996E+02  0.50000049184E+02 0.  0.
        -12    1    1    2    0    0 -0.29672409420E+02 -0.54418121970E+01  0.10327325154E+02  0.31886029004E+02  0.00000000000E+00 0.  1.
         11    1    3    3    0    0  0.20204916261E+02  0.11356735798E+02  0.32758520629E+00  0.23180194163E+02  0.51100000000E-03 0. -1.
        -11    1    3    3    0    0 -0.68203053871E+01  0.39462300442E+01  0.67119412964E+01  0.10350818971E+02  0.51100000000E-03 0.  1.
         12    1    3    3    0    0  0.16287798546E+02 -0.98611536451E+01 -0.17366851657E+02  0.25770957863E+02  0.00000000000E+00 0. -1.
</event>
<event>
 7    1  0.1202531E-011  0.5930208E+02  0.7816164E-02  0.1266604E+00
        -11   -1    0    0    0    0  0.00000000000E+00  0.00000000000E+00  0.45593999997E+02  0.45594000000E+02  0.51100000000E-03 0.  1.
         11   -1    0    0    0    0 -0.00000000000E+00 -0.00000000000E+00 -0.45593999997E+02  0.45594000000E+02  0.51100000000E-03 0. -1.
    9900012    2    1    2    0    0 -0.21112231016E+02 -0.16560641846E+02 -0.17225867692E+02  0.59302083445E+02  0.50000254262E+02 0.  0.
        -12    1    1    2    0    0  0.21112231016E+02  0.16560641846E+02  0.17225867692E+02  0.31885916555E+02  0.00000000000E+00 0.  1.
         11    1    3    3    0    0 -0.13912496887E+01  0.68470393901E+01 -0.16274637048E+02  0.17711051222E+02  0.51100000000E-03 0. -1.
        -11    1    3    3    0    0 -0.97811475493E+01  0.51286058737E+01 -0.25361722929E+01  0.11331620173E+02  0.51100000000E-03 0.  1.
         12    1    3    3    0    0 -0.99398337784E+01 -0.28536287109E+02  0.15849416484E+01  0.30259412049E+02  0.00000000000E+00 0. -1.
</event>
<event>
 7    1  0.1202531E-011  0.5930197E+02  0.7816164E-02  0.1266605E+00
        -11   -1    0    0    0    0  0.00000000000E+00  0.00000000000E+00  0.45593999997E+02  0.45594000000E+02  0.51100000000E-03 0.  1.
         11   -1    0    0    0    0 -0.00000000000E+00 -0.00000000000E+00 -0.45593999997E+02  0.45594000000E+02  0.51100000000E-03 0. -1.
    9900012    2    1    2    0    0  0.10629710164E+02  0.85309742946E+01 -0.28826212873E+02  0.59301971568E+02  0.50000050227E+02 0.  0.
        -12    1    1    2    0    0 -0.10629710164E+02 -0.85309742946E+01  0.28826212873E+02  0.31886028432E+02  0.00000000000E+00 0.  1.
         11    1    3    3    0    0  0.67116951461E+01  0.37204376540E+01 -0.21861141692E+02  0.23168902098E+02  0.51100000000E-03 0. -1.
        -11    1    3    3    0    0  0.24538881451E+00 -0.14441696451E+02  0.19981976782E+01  0.14581344461E+02  0.51100000000E-03 0.  1.
         12    1    3    3    0    0  0.36726262034E+01  0.19252233092E+02 -0.89632688589E+01  0.21551725010E+02  0.00000000000E+00 0. -1.
</event>
<event>
 7    1  0.1202531E-011  0.5930195E+02  0.7816164E-02  0.1266605E+00
        -11   -1    0    0    0    0  0.00000000000E+00  0.00000000000E+00  0.45593999997E+02  0.45594000000E+02  0.51100000000E-03 0. -1.
         11   -1    0    0    0    0 -0.00000000000E+00 -0.00000000000E+00 -0.45593999997E+02  0.45594000000E+02  0.51100000000E-03 0.  1.
    9900012    2    1    2    0    0 -0.30061080442E+02 -0.29621177968E+01  0.10211632280E+02  0.59301950809E+02  0.50000012368E+02 0.  0.
        -12    1    1    2    0    0  0.30061080442E+02  0.29621177968E+01 -0.10211632280E+02  0.31886049191E+02  0.00000000000E+00 0.  1.
         11    1    3    3    0    0 -0.36267087925E-01  0.72327841997E+01  0.30558981431E+01  0.78519421994E+01  0.51100000000E-03 0.  1.
        -11    1    3    3    0    0 -0.10076011545E+02 -0.22309396360E+02  0.12530510802E+02  0.27499979560E+02  0.51100000000E-03 0. -1.
         12    1    3    3    0    0 -0.19948801808E+02  0.12114494363E+02 -0.53747766653E+01  0.23950029049E+02  0.00000000000E+00 0. -1.
</event>
<event>
 7    1  0.1202531E-011  0.5930193E+02  0.7816164E-02  0.1266605E+00
        -11   -1    0    0    0    0  0.00000000000E+00  0.00000000000E+00  0.45593999997E+02  0.45594000000E+02  0.51100000000E-03 0.  1.
         11   -1    0    0    0    0 -0.00000000000E+00 -0.00000000000E+00 -0.45593999997E+02  0.45594000000E+02  0.51100000000E-03 0. -1.
    9900012    2    1    2    0    0  0.48783205142E+01 -0.25610933093E+02  0.18357661605E+02  0.59301927107E+02  0.49999969141E+02 0.  0.
        -12    1    1    2    0    0 -0.48783205142E+01  0.25610933093E+02 -0.18357661605E+02  0.31886072893E+02  0.00000000000E+00 0.  1.
         11    1    3    3    0    0  0.68956394549E+01 -0.80765169369E+01  0.11415456969E+02  0.15591428010E+02  0.51100000000E-03 0. -1.
        -11    1    3    3    0    0  0.20402340688E+01  0.45704981034E+01  0.17985971087E+02  0.18669417885E+02  0.51100000000E-03 0.  1.
         12    1    3    3    0    0 -0.40575530094E+01 -0.22104914260E+02 -0.11043766451E+02  0.25041081212E+02  0.00000000000E+00 0. -1.
</event>
<event>
 7    1  0.1202531E-011  0.5930198E+02  0.7816164E-02  0.1266605E+00
        -11   -1    0    0    0    0  0.00000000000E+00  0.00000000000E+00  0.45593999997E+02  0.45594000000E+02  0.51100000000E-03 0.  1.
         11   -1    0    0    0    0 -0.00000000000E+00 -0.00000000000E+00 -0.45593999997E+02  0.45594000000E+02  0.51100000000E-03 0. -1.
    9900012    2    1    2    0    0  0.16148551020E+02 -0.97732121260E+01 -0.25698770168E+02  0.59301981693E+02  0.50000068693E+02 0.  0.
        -12    1    1    2    0    0 -0.16148551020E+02  0.97732121260E+01  0.25698770168E+02  0.31886018307E+02  0.00000000000E+00 0.  1.
         11    1    3    3    0    0  0.15730582658E+02 -0.73263462184E+01  0.73939950744E+01  0.18862601706E+02  0.51100000000E-03 0.  1.
        -11    1    3    3    0    0  0.52679023490E+01 -0.86622826200E+01 -0.50828715066E+01  0.11341142727E+02  0.51100000000E-03 0. -1.
        -12    1    3    3    0    0 -0.48499339871E+01  0.62154167125E+01 -0.28009893735E+02  0.29098237260E+02  0.00000000000E+00 0.  1.
</event>
<event>
 7    1  0.1202531E-011  0.5930208E+02  0.7816164E-02  0.1266604E+00
        -11   -1    0    0    0    0  0.00000000000E+00  0.00000000000E+00  0.45593999997E+02  0.45594000000E+02  0.51100000000E-03 0.  1.
         11   -1    0    0    0    0 -0.00000000000E+00 -0.00000000000E+00 -0.45593999997E+02  0.45594000000E+02  0.51100000000E-03 0. -1.
    9900012    2    1    2    0    0  0.26819654559E+02 -0.11493776058E+01  0.17207471160E+02  0.59302078291E+02  0.50000244863E+02 0.  0.
        -12    1    1    2    0    0 -0.26819654559E+02  0.11493776058E+01 -0.17207471160E+02  0.31885921709E+02  0.00000000000E+00 0.  1.
         11    1    3    3    0    0 -0.18289796261E+00 -0.10336853860E+02 -0.62542958918E+01  0.12083054943E+02  0.51100000000E-03 0. -1.
        -11    1    3    3    0    0  0.17858309104E+02  0.18409856625E+01  0.29109440468E+02  0.34200408724E+02  0.51100000000E-03 0.  1.
         12    1    3    3    0    0  0.91442434177E+01  0.73464905919E+01 -0.56476734170E+01  0.13018614624E+02  0.00000000000E+00 0. -1.
</event>
<event>
 7    1  0.1202531E-011  0.5930192E+02  0.7816164E-02  0.1266605E+00
        -11   -1    0    0    0    0  0.00000000000E+00  0.00000000000E+00  0.45593999997E+02  0.45594000000E+02  0.51100000000E-03 0. -1.
         11   -1    0    0    0    0 -0.00000000000E+00 -0.00000000000E+00 -0.45593999997E+02  0.45594000000E+02  0.51100000000E-03 0.  1.
    9900012    2    1    2    0    0 -0.11938122920E+02  0.16880444903E+02  0.24274558165E+02  0.59301915683E+02  0.49999948306E+02 0.  0.
        -12    1    1    2    0    0  0.11938122920E+02 -0.16880444903E+02 -0.24274558165E+02  0.31886084317E+02  0.00000000000E+00 0.  1.
         11    1    3    3    0    0  0.31101056716E+01  0.76714913500E+01  0.13466554891E+01  0.83867763824E+01  0.51100000000E-03 0.  1.
        -11    1    3    3    0    0 -0.22297296567E+02 -0.77886573002E+01  0.31160893272E+01  0.23823153227E+02  0.51100000000E-03 0. -1.
         12    1    3    3    0    0  0.72490679749E+01  0.16997610854E+02  0.19811813348E+02  0.27091986073E+02  0.00000000000E+00 0. -1.
</event>
<event>
 7    1  0.1202531E-011  0.5930192E+02  0.7816164E-02  0.1266605E+00
        -11   -1    0    0    0    0  0.00000000000E+00  0.00000000000E+00  0.45593999997E+02  0.45594000000E+02  0.51100000000E-03 0.  1.
         11   -1    0    0    0    0 -0.00000000000E+00 -0.00000000000E+00 -0.45593999997E+02  0.45594000000E+02  0.51100000000E-03 0. -1.
    9900012    2    1    2    0    0  0.13392864372E+02  0.20778083398E+02 -0.20140130235E+02  0.59301915078E+02  0.49999947203E+02 0.  0.
        -12    1    1    2    0    0 -0.13392864372E+02 -0.20778083398E+02  0.20140130235E+02  0.31886084922E+02  0.00000000000E+00 0.  1.
         11    1    3    3    0    0  0.73767227439E+01 -0.43554454086E+01 -0.94779377664E+01  0.12775650579E+02  0.51100000000E-03 0. -1.
        -11    1    3    3    0    0  0.78605918241E+01  0.18566895979E+02 -0.24120935385E+02  0.31437844300E+02  0.51100000000E-03 0.  1.
        -12    1    3    3    0    0 -0.18444501960E+01  0.65666328274E+01  0.13458742917E+02  0.15088420199E+02  0.00000000000E+00 0.  1.
</event>
<event>
 7    1  0.1202531E-011  0.5930195E+02  0.7816164E-02  0.1266605E+00
        -11   -1    0    0    0    0  0.00000000000E+00  0.00000000000E+00  0.45593999997E+02  0.45594000000E+02  0.51100000000E-03 0.  1.
         11   -1    0    0    0    0 -0.00000000000E+00 -0.00000000000E+00 -0.45593999997E+02  0.45594000000E+02  0.51100000000E-03 0. -1.
    9900012    2    1    2    0    0  0.23312826648E+02 -0.48423551280E+01 -0.21208102046E+02  0.59301954747E+02  0.50000019550E+02 0.  0.
        -12    1    1    2    0    0 -0.23312826648E+02  0.48423551280E+01  0.21208102046E+02  0.31886045253E+02  0.00000000000E+00 0.  1.
         11    1    3    3    0    0  0.14719135494E+02 -0.49552774966E+01  0.63011513559E+00  0.15543640825E+02  0.51100000000E-03 0. -1.
        -11    1    3    3    0    0  0.32277685543E+01  0.43883861706E+01  0.98930638707E+01  0.11293765361E+02  0.51100000000E-03 0.  1.
         12    1    3    3    0    0  0.53659225996E+01 -0.42754638020E+01 -0.31731281052E+02  0.32464548561E+02  0.00000000000E+00 0. -1.
</event>
<event>
 7    1  0.1202531E-011  0.5930203E+02  0.7816164E-02  0.1266604E+00
        -11   -1    0    0    0    0  0.00000000000E+00  0.00000000000E+00  0.45593999997E+02  0.45594000000E+02  0.51100000000E-03 0.  1.
         11   -1    0    0    0    0 -0.00000000000E+00 -0.00000000000E+00 -0.45593999997E+02  0.45594000000E+02  0.51100000000E-03 0. -1.
    9900012    2    1    2    0    0 -0.22341679671E+02  0.20638094639E+02  0.95725351192E+01  0.59302030837E+02  0.50000158320E+02 0.  0.
        -12    1    1    2    0    0  0.22341679671E+02 -0.20638094639E+02 -0.95725351192E+01  0.31885969163E+02  0.00000000000E+00 0.  1.
         11    1    3    3    0    0 -0.42665978030E+01  0.12745932287E+02  0.66171598748E+01  0.14981637152E+02  0.51100000000E-03 0. -1.
        -11    1    3    3    0    0 -0.16146776535E+02  0.16504694885E+02  0.16341049432E+02  0.28286980089E+02  0.51100000000E-03 0.  1.
         12    1    3    3    0    0 -0.19283053330E+01 -0.86125325340E+01 -0.13385674188E+02  0.16033413597E+02  0.00000000000E+00 0. -1.
</event>
<event>
 7    1  0.1202531E-011  0.5930198E+02  0.7816164E-02  0.1266605E+00
        -11   -1    0    0    0    0  0.00000000000E+00  0.00000000000E+00  0.45593999997E+02  0.45594000000E+02  0.51100000000E-03 0.  1.
         11   -1    0    0    0    0 -0.00000000000E+00 -0.00000000000E+00 -0.45593999997E+02  0.45594000000E+02  0.51100000000E-03 0. -1.
    9900012    2    1    2    0    0  0.19893492645E+00  0.51447484790E+01 -0.31467606998E+02  0.59301979518E+02  0.50000064726E+02 0.  0.
        -12    1    1    2    0    0 -0.19893492645E+00 -0.51447484790E+01  0.31467606998E+02  0.31886020482E+02  0.00000000000E+00 0.  1.
         11    1    3    3    0    0  0.44446741590E+01 -0.31510091715E+01 -0.17937500863E+02  0.18746677696E+02  0.51100000000E-03 0. -1.
        -11    1    3    3    0    0 -0.18453769118E+02  0.39726330389E+01 -0.16888943850E+02  0.25329031418E+02  0.51100000000E-03 0.  1.
         12    1    3    3    0    0  0.14208029885E+02  0.43231246115E+01  0.33588377161E+01  0.15226270404E+02  0.00000000000E+00 0. -1.
</event>
<event>
 7    1  0.1202531E-011  0.5930193E+02  0.7816164E-02  0.1266605E+00
        -11   -1    0    0    0    0  0.00000000000E+00  0.00000000000E+00  0.45593999997E+02  0.45594000000E+02  0.51100000000E-03 0. -1.
         11   -1    0    0    0    0 -0.00000000000E+00 -0.00000000000E+00 -0.45593999997E+02  0.45594000000E+02  0.51100000000E-03 0.  1.
    9900012    2    1    2    0    0  0.30673155367E+02  0.42663009622E+01  0.75945914044E+01  0.59301927764E+02  0.49999970338E+02 0.  0.
        -12    1    1    2    0    0 -0.30673155367E+02 -0.42663009622E+01 -0.75945914044E+01  0.31886072236E+02  0.00000000000E+00 0.  1.
         11    1    3    3    0    0  0.62598850262E+01 -0.22728046970E+01  0.52366423107E+01  0.84719669901E+01  0.51100000000E-03 0. -1.
        -11    1    3    3    0    0  0.25100052442E+02  0.16713435139E+02  0.15731396674E+02  0.34012179999E+02  0.51100000000E-03 0.  1.
         12    1    3    3    0    0 -0.68678210106E+00 -0.10174329480E+02 -0.13373447580E+02  0.16817780775E+02  0.00000000000E+00 0. -1.
</event>
<event>
 7    1  0.1202531E-011  0.5930195E+02  0.7816164E-02  0.1266605E+00
        -11   -1    0    0    0    0  0.00000000000E+00  0.00000000000E+00  0.45593999997E+02  0.45594000000E+02  0.51100000000E-03 0. -1.
         11   -1    0    0    0    0 -0.00000000000E+00 -0.00000000000E+00 -0.45593999997E+02  0.45594000000E+02  0.51100000000E-03 0.  1.
    9900012    2    1    2    0    0  0.15770731616E+02  0.27201491263E+02 -0.52993317982E+01  0.59301952579E+02  0.50000015596E+02 0.  0.
        -12    1    1    2    0    0 -0.15770731616E+02 -0.27201491263E+02  0.52993317982E+01  0.31886047421E+02  0.00000000000E+00 0.  1.
         11    1    3    3    0    0  0.14447639683E+02  0.20533251955E+02  0.89323016875E+01  0.26648353457E+02  0.51100000000E-03 0. -1.
        -11    1    3    3    0    0  0.66019436220E+01 -0.95717388244E+01 -0.92709547670E+01  0.14871262430E+02  0.51100000000E-03 0.  1.
         12    1    3    3    0    0 -0.52788516891E+01  0.16239978132E+02 -0.49606787187E+01  0.17782336692E+02  0.00000000000E+00 0. -1.
</event>
<event>
 7    1  0.1202531E-011  0.5930193E+02  0.7816164E-02  0.1266605E+00
        -11   -1    0    0    0    0  0.00000000000E+00  0.00000000000E+00  0.45593999997E+02  0.45594000000E+02  0.51100000000E-03 0.  1.
         11   -1    0    0    0    0 -0.00000000000E+00 -0.00000000000E+00 -0.45593999997E+02  0.45594000000E+02  0.51100000000E-03 0. -1.
    9900012    2    1    2    0    0 -0.26260611990E+01 -0.18869236576E+02 -0.25569068423E+02  0.59301928646E+02  0.49999971947E+02 0.  0.
        -12    1    1    2    0    0  0.26260611990E+01  0.18869236576E+02  0.25569068423E+02  0.31886071354E+02  0.00000000000E+00 0.  1.
         11    1    3    3    0    0 -0.15710019731E+02 -0.37255843922E+01  0.82967755244E+00  0.16167036343E+02  0.51100000000E-03 0. -1.
        -11    1    3    3    0    0  0.13140964070E+02  0.23155990708E+01 -0.25606418576E+01  0.13586898937E+02  0.51100000000E-03 0.  1.
        -12    1    3    3    0    0 -0.57005538224E-01 -0.17459251255E+02 -0.23838104118E+02  0.29547993366E+02  0.00000000000E+00 0.  1.
</event>
<event>
 7    1  0.1202531E-011  0.5930196E+02  0.7816164E-02  0.1266605E+00
        -11   -1    0    0    0    0  0.00000000000E+00  0.00000000000E+00  0.45593999997E+02  0.45594000000E+02  0.51100000000E-03 0.  1.
         11   -1    0    0    0    0 -0.00000000000E+00 -0.00000000000E+00 -0.45593999997E+02  0.45594000000E+02  0.51100000000E-03 0. -1.
    9900012    2    1    2    0    0 -0.23622304260E+02  0.54634418144E+01 -0.20708867629E+02  0.59301958328E+02  0.50000026081E+02 0.  0.
        -12    1    1    2    0    0  0.23622304260E+02 -0.54634418144E+01  0.20708867629E+02  0.31886041672E+02  0.00000000000E+00 0.  1.
         11    1    3    3    0    0 -0.23746129457E+02 -0.98473379734E+01 -0.20215138602E+02  0.32703219388E+02  0.51100000000E-03 0. -1.
        -11    1    3    3    0    0 -0.10758177482E+02  0.80126330412E+01 -0.12626422850E+01  0.13473490149E+02  0.51100000000E-03 0.  1.
        -12    1    3    3    0    0  0.10882002679E+02  0.72981467466E+01  0.76891325828E+00  0.13125248792E+02  0.00000000000E+00 0.  1.
</event>
<event>
 7    1  0.1202531E-011  0.5930180E+02  0.7816164E-02  0.1266605E+00
        -11   -1    0    0    0    0  0.00000000000E+00  0.00000000000E+00  0.45593999997E+02  0.45594000000E+02  0.51100000000E-03 0. -1.
         11   -1    0    0    0    0 -0.00000000000E+00 -0.00000000000E+00 -0.45593999997E+02  0.45594000000E+02  0.51100000000E-03 0.  1.
    9900012    2    1    2    0    0  0.20877805890E+02  0.10863031268E+02  0.21513753310E+02  0.59301799088E+02  0.49999735664E+02 0.  0.
        -12    1    1    2    0    0 -0.20877805890E+02 -0.10863031268E+02 -0.21513753310E+02  0.31886200912E+02  0.00000000000E+00 0.  1.
         11    1    3    3    0    0  0.22784277455E+02  0.22760274236E+01  0.19243173949E+02  0.29909920493E+02  0.51100000000E-03 0. -1.
        -11    1    3    3    0    0  0.44954097244E+01 -0.66002412321E+01  0.86009004130E+01  0.11736583024E+02  0.51100000000E-03 0.  1.
        -12    1    3    3    0    0 -0.64018812896E+01  0.15187245077E+02 -0.63303210519E+01  0.17655295571E+02  0.00000000000E+00 0.  1.
</event>
<event>
 7    1  0.1202531E-011  0.5930195E+02  0.7816164E-02  0.1266605E+00
        -11   -1    0    0    0    0  0.00000000000E+00  0.00000000000E+00  0.45593999997E+02  0.45594000000E+02  0.51100000000E-03 0. -1.
         11   -1    0    0    0    0 -0.00000000000E+00 -0.00000000000E+00 -0.45593999997E+02  0.45594000000E+02  0.51100000000E-03 0.  1.
    9900012    2    1    2    0    0  0.28215692509E+02  0.11836875245E+01  0.14805183223E+02  0.59301954930E+02  0.50000019883E+02 0.  0.
        -12    1    1    2    0    0 -0.28215692509E+02 -0.11836875245E+01 -0.14805183223E+02  0.31886045070E+02  0.00000000000E+00 0.  1.
         11    1    3    3    0    0  0.33242354815E+02  0.29728435994E+01  0.85587553607E+01  0.34454959676E+02  0.51100000000E-03 0. -1.
        -11    1    3    3    0    0  0.92824078128E+01 -0.23374187555E+01  0.11201472567E+01  0.96374971533E+01  0.51100000000E-03 0.  1.
        -12    1    3    3    0    0 -0.14309070118E+02  0.54826268060E+00  0.51262806057E+01  0.15209498100E+02  0.00000000000E+00 0.  1.
</event>
<event>
 7    1  0.1202531E-011  0.5930195E+02  0.7816164E-02  0.1266605E+00
        -11   -1    0    0    0    0  0.00000000000E+00  0.00000000000E+00  0.45593999997E+02  0.45594000000E+02  0.51100000000E-03 0. -1.
         11   -1    0    0    0    0 -0.00000000000E+00 -0.00000000000E+00 -0.45593999997E+02  0.45594000000E+02  0.51100000000E-03 0.  1.
    9900012    2    1    2    0    0 -0.24232127229E+02  0.11922228109E+02 -0.16952421031E+02  0.59301951453E+02  0.50000013542E+02 0.  0.
        -12    1    1    2    0    0  0.24232127229E+02 -0.11922228109E+02  0.16952421031E+02  0.31886048547E+02  0.00000000000E+00 0.  1.
         11    1    3    3    0    0  0.82994152297E+01 -0.21560511590E+01 -0.89501006536E+01  0.12394884095E+02  0.51100000000E-03 0.  1.
        -11    1    3    3    0    0 -0.72480368650E+01  0.19110892319E+02 -0.34067765169E+01  0.20721157548E+02  0.51100000000E-03 0. -1.
        -12    1    3    3    0    0 -0.25283505594E+02 -0.50326130507E+01 -0.45955438608E+01  0.26185909810E+02  0.00000000000E+00 0.  1.
</event>
<event>
 7    1  0.1202531E-011  0.5930191E+02  0.7816164E-02  0.1266605E+00
        -11   -1    0    0    0    0  0.00000000000E+00  0.00000000000E+00  0.45593999997E+02  0.45594000000E+02  0.51100000000E-03 0.  1.
         11   -1    0    0    0    0 -0.00000000000E+00 -0.00000000000E+00 -0.45593999997E+02  0.45594000000E+02  0.51100000000E-03 0. -1.
    9900012    2    1    2    0    0 -0.18772245338E+02  0.24855358772E+02 -0.68217705258E+01  0.59301912002E+02  0.49999941592E+02 0.  0.
        -12    1    1    2    0    0  0.18772245338E+02 -0.24855358772E+02  0.68217705258E+01  0.31886087998E+02  0.00000000000E+00 0.  1.
         11    1    3    3    0    0 -0.12768480008E+02 -0.42072430876E+01 -0.16274741853E+02  0.21109291764E+02  0.51100000000E-03 0. -1.
        -11    1    3    3    0    0 -0.65389475105E+01  0.19693867621E+02 -0.46378670117E+01  0.21263021119E+02  0.51100000000E-03 0.  1.
        -12    1    3    3    0    0  0.53518218051E+00  0.93687342385E+01  0.14090838339E+02  0.16929599118E+02  0.00000000000E+00 0.  1.
</event>
<event>
 7    1  0.1202531E-011  0.5930193E+02  0.7816164E-02  0.1266605E+00
        -11   -1    0    0    0    0  0.00000000000E+00  0.00000000000E+00  0.45593999997E+02  0.45594000000E+02  0.51100000000E-03 0. -1.
         11   -1    0    0    0    0 -0.00000000000E+00 -0.00000000000E+00 -0.45593999997E+02  0.45594000000E+02  0.51100000000E-03 0.  1.
    9900012    2    1    2    0    0 -0.25737313176E+01  0.25485657798E+02  0.18988903518E+02  0.59301932461E+02  0.49999978905E+02 0.  0.
        -12    1    1    2    0    0  0.25737313176E+01 -0.25485657798E+02 -0.18988903518E+02  0.31886067539E+02  0.00000000000E+00 0.  1.
         11    1    3    3    0    0  0.26796415087E+01  0.23347890869E+02  0.58563127688E+01  0.24219844883E+02  0.51100000000E-03 0. -1.
        -11    1    3    3    0    0 -0.15365978182E+02  0.11080994530E+02  0.64000591132E+01  0.19996561759E+02  0.51100000000E-03 0.  1.
        -12    1    3    3    0    0  0.10112605355E+02 -0.89432276016E+01  0.67325316358E+01  0.15085525819E+02  0.00000000000E+00 0.  1.
</event>
<event>
 7    1  0.1202531E-011  0.5930195E+02  0.7816164E-02  0.1266605E+00
        -11   -1    0    0    0    0  0.00000000000E+00  0.00000000000E+00  0.45593999997E+02  0.45594000000E+02  0.51100000000E-03 0.  1.
         11   -1    0    0    0    0 -0.00000000000E+00 -0.00000000000E+00 -0.45593999997E+02  0.45594000000E+02  0.51100000000E-03 0. -1.
    9900012    2    1    2    0    0 -0.23882907468E+02  0.32923521236E+01 -0.20868333111E+02  0.59301950096E+02  0.50000011068E+02 0.  0.
        -12    1    1    2    0    0  0.23882907468E+02 -0.32923521236E+01  0.20868333111E+02  0.31886049904E+02  0.00000000000E+00 0.  1.
         11    1    3    3    0    0  0.88352122202E+01  0.13128188435E+01  0.10868817652E-01  0.89322218224E+01  0.51100000000E-03 0. -1.
        -11    1    3    3    0    0 -0.10964277553E+02  0.10031603654E+02 -0.22667469184E+02  0.27104660367E+02  0.51100000000E-03 0.  1.
         12    1    3    3    0    0 -0.21753842135E+02 -0.80520703736E+01  0.17882672555E+01  0.23265067907E+02  0.00000000000E+00 0. -1.
</event>
<event>
 7    1  0.1202531E-011  0.5930195E+02  0.7816164E-02  0.1266605E+00
        -11   -1    0    0    0    0  0.00000000000E+00  0.00000000000E+00  0.45593999997E+02  0.45594000000E+02  0.51100000000E-03 0. -1.
         11   -1    0    0    0    0 -0.00000000000E+00 -0.00000000000E+00 -0.45593999997E+02  0.45594000000E+02  0.51100000000E-03 0.  1.
    9900012    2    1    2    0    0 -0.23756005629E+02 -0.19229913479E+02 -0.90875138411E+01  0.59301948447E+02  0.50000008060E+02 0.  0.
        -12    1    1    2    0    0  0.23756005629E+02  0.19229913479E+02  0.90875138411E+01  0.31886051553E+02  0.00000000000E+00 0.  1.
         11    1    3    3    0    0 -0.77896707509E+00 -0.78357169730E+01 -0.78640721121E+01  0.11128741197E+02  0.51100000000E-03 0. -1.
        -11    1    3    3    0    0 -0.58674771744E+01  0.14169339295E+02 -0.70274368827E+01  0.16869568277E+02  0.51100000000E-03 0.  1.
         12    1    3    3    0    0 -0.17109561379E+02 -0.25563535801E+02  0.58039951537E+01  0.31303638973E+02  0.00000000000E+00 0. -1.
</event>
<event>
 7    1  0.1202531E-011  0.5930192E+02  0.7816164E-02  0.1266605E+00
        -11   -1    0    0    0    0  0.00000000000E+00  0.00000000000E+00  0.45593999997E+02  0.45594000000E+02  0.51100000000E-03 0. -1.
         11   -1    0    0    0    0 -0.00000000000E+00 -0.00000000000E+00 -0.45593999997E+02  0.45594000000E+02  0.51100000000E-03 0.  1.
    9900012    2    1    2    0    0 -0.17846323623E+02  0.60741353124E+01  0.25716445502E+02  0.59301922224E+02  0.49999960236E+02 0.  0.
        -12    1    1    2    0    0  0.17846323623E+02 -0.60741353124E+01 -0.25716445502E+02  0.31886077776E+02  0.00000000000E+00 0.  1.
         11    1    3    3    0    0 -0.64545127819E+01  0.30017523150E+01  0.56175080072E+01  0.90679462220E+01  0.51100000000E-03 0. -1.
        -11    1    3    3    0    0  0.16928591334E+01  0.18978372566E+02 -0.29974098165E+01  0.19288049750E+02  0.51100000000E-03 0.  1.
        -12    1    3    3    0    0 -0.13084669975E+02 -0.15905989568E+02  0.23096347311E+02  0.30945926252E+02  0.00000000000E+00 0.  1.
</event>
<event>
 7    1  0.1202531E-011  0.5930195E+02  0.7816164E-02  0.1266605E+00
        -11   -1    0    0    0    0  0.00000000000E+00  0.00000000000E+00  0.45593999997E+02  0.45594000000E+02  0.51100000000E-03 0. -1.
         11   -1    0    0    0    0 -0.00000000000E+00 -0.00000000000E+00 -0.45593999997E+02  0.45594000000E+02  0.51100000000E-03 0.  1.
    9900012    2    1    2    0    0  0.17629352626E+02  0.45962900364E+01  0.26168690204E+02  0.59301948142E+02  0.50000007503E+02 0.  0.
        -12    1    1    2    0    0 -0.17629352626E+02 -0.45962900364E+01 -0.26168690204E+02  0.31886051858E+02  0.00000000000E+00 0.  1.
         11    1    3    3    0    0  0.11952818191E+02  0.17437396063E+02  0.77714256099E+01  0.22523936166E+02  0.51100000000E-03 0. -1.
        -11    1    3    3    0    0 -0.10244360876E+02 -0.44712957758E+01  0.18258445018E+00  0.11179121299E+02  0.51100000000E-03 0.  1.
        -12    1    3    3    0    0  0.15920895311E+02 -0.83698102503E+01  0.18214680144E+02  0.25598890676E+02  0.00000000000E+00 0.  1.
</event>
<event>
 7    1  0.1202531E-011  0.5930194E+02  0.7816164E-02  0.1266605E+00
        -11   -1    0    0    0    0  0.00000000000E+00  0.00000000000E+00  0.45593999997E+02  0.45594000000E+02  0.51100000000E-03 0.  1.
         11   -1    0    0    0    0 -0.00000000000E+00 -0.00000000000E+00 -0.45593999997E+02  0.45594000000E+02  0.51100000000E-03 0. -1.
    9900012    2    1    2    0    0 -0.13261416185E+02  0.22822091592E+01 -0.28907562685E+02  0.59301940064E+02  0.49999992770E+02 0.  0.
        -12    1    1    2    0    0  0.13261416185E+02 -0.22822091592E+01  0.28907562685E+02  0.31886059936E+02  0.00000000000E+00 0.  1.
         11    1    3    3    0    0  0.28789431976E+01  0.33898776892E+01 -0.15763107952E+01  0.47185104289E+01  0.51100000000E-03 0.  1.
        -11    1    3    3    0    0 -0.28046616954E+02 -0.10900760520E+02 -0.24730698560E+02  0.38949284384E+02  0.51100000000E-03 0. -1.
         12    1    3    3    0    0  0.11906257572E+02  0.97930919903E+01 -0.26005533297E+01  0.15634145251E+02  0.00000000000E+00 0. -1.
</event>
<event>
 7    1  0.1202531E-011  0.5930196E+02  0.7816164E-02  0.1266605E+00
        -11   -1    0    0    0    0  0.00000000000E+00  0.00000000000E+00  0.45593999997E+02  0.45594000000E+02  0.51100000000E-03 0. -1.
         11   -1    0    0    0    0 -0.00000000000E+00 -0.00000000000E+00 -0.45593999997E+02  0.45594000000E+02  0.51100000000E-03 0.  1.
    9900012    2    1    2    0    0 -0.89388948224E+01  0.85541630973E+01  0.29387784902E+02  0.59301961544E+02  0.50000031946E+02 0.  0.
        -12    1    1    2    0    0  0.89388948224E+01 -0.85541630973E+01 -0.29387784902E+02  0.31886038456E+02  0.00000000000E+00 0.  1.
         11    1    3    3    0    0  0.87417412429E+01  0.11019740387E+01 -0.29141970955E+01  0.92803519175E+01  0.51100000000E-03 0. -1.
        -11    1    3    3    0    0 -0.11170863128E+02  0.11166665280E+02 -0.10576504788E+01  0.15830389171E+02  0.51100000000E-03 0.  1.
         12    1    3    3    0    0 -0.65097729375E+01 -0.37144762218E+01  0.33359632476E+02  0.34191220456E+02  0.00000000000E+00 0. -1.
</event>
<event>
 7    1  0.1202531E-011  0.5930201E+02  0.7816164E-02  0.1266605E+00
        -11   -1    0    0    0    0  0.00000000000E+00  0.00000000000E+00  0.45593999997E+02  0.45594000000E+02  0.51100000000E-03 0. -1.
         11   -1    0    0    0    0 -0.00000000000E+00 -0.00000000000E+00 -0.45593999997E+02  0.45594000000E+02  0.51100000000E-03 0.  1.
    9900012    2    1    2    0    0  0.27287075711E+02 -0.16271741270E+02 -0.27133410710E+01  0.59302011156E+02  0.50000122426E+02 0.  0.
        -12    1    1    2    0    0 -0.27287075711E+02  0.16271741270E+02  0.27133410710E+01  0.31885988844E+02  0.00000000000E+00 0.  1.
         11    1    3    3    0    0  0.50867115951E+01  0.73876574058E+01 -0.63869189700E+01  0.11011123966E+02  0.51100000000E-03 0.  1.
        -11    1    3    3    0    0  0.26163075694E+01 -0.11294240328E+02  0.17740518720E+02  0.21192709469E+02  0.51100000000E-03 0. -1.
         12    1    3    3    0    0  0.19584056546E+02 -0.12365158347E+02 -0.14066940822E+02  0.27098177722E+02  0.00000000000E+00 0. -1.
</event>
<event>
 7    1  0.1202531E-011  0.5930164E+02  0.7816164E-02  0.1266606E+00
        -11   -1    0    0    0    0  0.00000000000E+00  0.00000000000E+00  0.45593999997E+02  0.45594000000E+02  0.51100000000E-03 0.  1.
         11   -1    0    0    0    0 -0.00000000000E+00 -0.00000000000E+00 -0.45593999997E+02  0.45594000000E+02  0.51100000000E-03 0. -1.
    9900012    2    1    2    0    0  0.15677861323E+02  0.15997644214E+02 -0.22694048739E+02  0.59301642349E+02  0.49999449808E+02 0.  0.
        -12    1    1    2    0    0 -0.15677861323E+02 -0.15997644214E+02  0.22694048739E+02  0.31886357651E+02  0.00000000000E+00 0.  1.
         11    1    3    3    0    0  0.13123172380E+02  0.67710300546E+01 -0.12464091839E+02  0.19324028745E+02  0.51100000000E-03 0. -1.
        -11    1    3    3    0    0 -0.16094637976E+01  0.35856558081E+01 -0.24109427420E+02  0.24427684951E+02  0.51100000000E-03 0.  1.
        -12    1    3    3    0    0  0.41641527411E+01  0.56409583510E+01  0.13879470521E+02  0.15549928653E+02  0.00000000000E+00 0.  1.
</event>
<event>
 7    1  0.1202531E-011  0.5930194E+02  0.7816164E-02  0.1266605E+00
        -11   -1    0    0    0    0  0.00000000000E+00  0.00000000000E+00  0.45593999997E+02  0.45594000000E+02  0.51100000000E-03 0. -1.
         11   -1    0    0    0    0 -0.00000000000E+00 -0.00000000000E+00 -0.45593999997E+02  0.45594000000E+02  0.51100000000E-03 0.  1.
    9900012    2    1    2    0    0  0.36828535606E+01 -0.30772811854E+02 -0.74961066877E+01  0.59301937602E+02  0.49999988281E+02 0.  0.
        -12    1    1    2    0    0 -0.36828535606E+01  0.30772811854E+02  0.74961066877E+01  0.31886062398E+02  0.00000000000E+00 0.  1.
         11    1    3    3    0    0  0.58741322734E+01 -0.13234691072E+01 -0.63048246429E+01  0.87182460668E+01  0.51100000000E-03 0. -1.
        -11    1    3    3    0    0  0.10664734140E+01 -0.71310814419E+00  0.16586589993E+02  0.16636131059E+02  0.51100000000E-03 0.  1.
         12    1    3    3    0    0 -0.32577521268E+01 -0.28736234603E+02 -0.17777872038E+02  0.33947560476E+02  0.00000000000E+00 0. -1.
</event>
<event>
 7    1  0.1202531E-011  0.5930198E+02  0.7816164E-02  0.1266605E+00
        -11   -1    0    0    0    0  0.00000000000E+00  0.00000000000E+00  0.45593999997E+02  0.45594000000E+02  0.51100000000E-03 0.  1.
         11   -1    0    0    0    0 -0.00000000000E+00 -0.00000000000E+00 -0.45593999997E+02  0.45594000000E+02  0.51100000000E-03 0. -1.
    9900012    2    1    2    0    0  0.12889303878E+02  0.19380511811E+02 -0.21794029561E+02  0.59301982421E+02  0.50000070020E+02 0.  0.
        -12    1    1    2    0    0 -0.12889303878E+02 -0.19380511811E+02  0.21794029561E+02  0.31886017579E+02  0.00000000000E+00 0.  1.
         11    1    3    3    0    0 -0.10380063244E+02  0.88697169485E+01 -0.14636425125E+02  0.20016056864E+02  0.51100000000E-03 0. -1.
        -11    1    3    3    0    0 -0.26759228580E+01  0.49061695947E+01  0.71949500385E+01  0.91103440962E+01  0.51100000000E-03 0.  1.
         12    1    3    3    0    0  0.25945289980E+02  0.56046252679E+01 -0.14352554475E+02  0.30175581460E+02  0.00000000000E+00 0. -1.
</event>
<event>
 7    1  0.1202531E-011  0.5930196E+02  0.7816164E-02  0.1266605E+00
        -11   -1    0    0    0    0  0.00000000000E+00  0.00000000000E+00  0.45593999997E+02  0.45594000000E+02  0.51100000000E-03 0. -1.
         11   -1    0    0    0    0 -0.00000000000E+00 -0.00000000000E+00 -0.45593999997E+02  0.45594000000E+02  0.51100000000E-03 0.  1.
    9900012    2    1    2    0    0 -0.65209678404E+01 -0.15049320688E+02  0.27344372435E+02  0.59301956366E+02  0.50000022502E+02 0.  0.
        -12    1    1    2    0    0  0.65209678404E+01  0.15049320688E+02 -0.27344372435E+02  0.31886043634E+02  0.00000000000E+00 0.  1.
         11    1    3    3    0    0 -0.87801649242E+01  0.36470803394E+01 -0.70235544816E+01  0.11820440301E+02  0.51100000000E-03 0.  1.
        -11    1    3    3    0    0 -0.73804276747E+01  0.12368147819E+01  0.19297534559E+02  0.20697711559E+02  0.51100000000E-03 0. -1.
         12    1    3    3    0    0  0.96396247585E+01 -0.19933215809E+02  0.15070392358E+02  0.26783804506E+02  0.00000000000E+00 0. -1.
</event>
<event>
 7    1  0.1202531E-011  0.5930176E+02  0.7816164E-02  0.1266605E+00
        -11   -1    0    0    0    0  0.00000000000E+00  0.00000000000E+00  0.45593999997E+02  0.45594000000E+02  0.51100000000E-03 0.  1.
         11   -1    0    0    0    0 -0.00000000000E+00 -0.00000000000E+00 -0.45593999997E+02  0.45594000000E+02  0.51100000000E-03 0. -1.
    9900012    2    1    2    0    0  0.27367274457E+02 -0.27255094423E+01 -0.16134929141E+02  0.59301763921E+02  0.49999671527E+02 0.  0.
        -12    1    1    2    0    0 -0.27367274457E+02  0.27255094423E+01  0.16134929141E+02  0.31886236079E+02  0.00000000000E+00 0.  1.
         11    1    3    3    0    0 -0.61466443318E+01 -0.58566045188E+01 -0.13354702307E+02  0.15824952670E+02  0.51100000000E-03 0. -1.
        -11    1    3    3    0    0  0.48224020106E+01  0.12190169644E+01 -0.12234762572E+02  0.13207232071E+02  0.51100000000E-03 0.  1.
        -12    1    3    3    0    0  0.28691516778E+02  0.19120781121E+01  0.94545357379E+01  0.30269579180E+02  0.00000000000E+00 0.  1.
</event>
<event>
 7    1  0.1202531E-011  0.5930195E+02  0.7816164E-02  0.1266605E+00
        -11   -1    0    0    0    0  0.00000000000E+00  0.00000000000E+00  0.45593999997E+02  0.45594000000E+02  0.51100000000E-03 0. -1.
         11   -1    0    0    0    0 -0.00000000000E+00 -0.00000000000E+00 -0.45593999997E+02  0.45594000000E+02  0.51100000000E-03 0.  1.
    9900012    2    1    2    0    0 -0.78951736489E+01 -0.35700097907E+01  0.30686178775E+02  0.59301948118E+02  0.50000007459E+02 0.  0.
        -12    1    1    2    0    0  0.78951736489E+01  0.35700097907E+01 -0.30686178775E+02  0.31886051882E+02  0.00000000000E+00 0.  1.
         11    1    3    3    0    0 -0.54050846584E+01  0.52615976276E+01 -0.10056476484E+02  0.12571080674E+02  0.51100000000E-03 0. -1.
        -11    1    3    3    0    0  0.49975464677E+01 -0.22451933521E+01  0.76939393177E+00  0.55324796582E+01  0.51100000000E-03 0.  1.
         12    1    3    3    0    0 -0.74876354581E+01 -0.65864140662E+01  0.39973261327E+02  0.41198387786E+02  0.00000000000E+00 0. -1.
</event>
<event>
 7    1  0.1202531E-011  0.5930190E+02  0.7816164E-02  0.1266605E+00
        -11   -1    0    0    0    0  0.00000000000E+00  0.00000000000E+00  0.45593999997E+02  0.45594000000E+02  0.51100000000E-03 0.  1.
         11   -1    0    0    0    0 -0.00000000000E+00 -0.00000000000E+00 -0.45593999997E+02  0.45594000000E+02  0.51100000000E-03 0. -1.
    9900012    2    1    2    0    0  0.10175593367E+02 -0.27314683915E+02 -0.12926285302E+02  0.59301897863E+02  0.49999915807E+02 0.  0.
        -12    1    1    2    0    0 -0.10175593367E+02  0.27314683915E+02  0.12926285302E+02  0.31886102137E+02  0.00000000000E+00 0.  1.
         11    1    3    3    0    0 -0.89368703142E+01 -0.11934880634E+02  0.79066633344E+00  0.14930980553E+02  0.51100000000E-03 0. -1.
        -11    1    3    3    0    0  0.10437443554E+02  0.10020888811E+02 -0.92158976801E+01  0.17154917978E+02  0.51100000000E-03 0.  1.
        -12    1    3    3    0    0  0.86750201269E+01 -0.25400692092E+02 -0.45010539554E+01  0.27215999333E+02  0.00000000000E+00 0.  1.
</event>
<event>
 7    1  0.1202531E-011  0.5930192E+02  0.7816164E-02  0.1266605E+00
        -11   -1    0    0    0    0  0.00000000000E+00  0.00000000000E+00  0.45593999997E+02  0.45594000000E+02  0.51100000000E-03 0.  1.
         11   -1    0    0    0    0 -0.00000000000E+00 -0.00000000000E+00 -0.45593999997E+02  0.45594000000E+02  0.51100000000E-03 0. -1.
    9900012    2    1    2    0    0 -0.20809853487E+02  0.12907102594E+02 -0.20422510057E+02  0.59301918137E+02  0.49999952782E+02 0.  0.
        -12    1    1    2    0    0  0.20809853487E+02 -0.12907102594E+02  0.20422510057E+02  0.31886081863E+02  0.00000000000E+00 0.  1.
         11    1    3    3    0    0 -0.31839367277E+01 -0.59686956575E+00 -0.10428410217E+02  0.10919956331E+02  0.51100000000E-03 0. -1.
        -11    1    3    3    0    0  0.10658665033E+02  0.10745717493E+02 -0.12803865817E+02  0.19824645390E+02  0.51100000000E-03 0.  1.
         12    1    3    3    0    0 -0.28284581793E+02  0.27582546671E+01  0.28097659773E+01  0.28557316415E+02  0.00000000000E+00 0. -1.
</event>
<event>
 7    1  0.1202531E-011  0.5930198E+02  0.7816164E-02  0.1266605E+00
        -11   -1    0    0    0    0  0.00000000000E+00  0.00000000000E+00  0.45593999997E+02  0.45594000000E+02  0.51100000000E-03 0.  1.
         11   -1    0    0    0    0 -0.00000000000E+00 -0.00000000000E+00 -0.45593999997E+02  0.45594000000E+02  0.51100000000E-03 0. -1.
    9900012    2    1    2    0    0  0.14926305176E+02 -0.63199016750E+01 -0.27458741894E+02  0.59301980339E+02  0.50000066224E+02 0.  0.
        -12    1    1    2    0    0 -0.14926305176E+02  0.63199016750E+01  0.27458741894E+02  0.31886019661E+02  0.00000000000E+00 0.  1.
         11    1    3    3    0    0 -0.49135778602E+01 -0.19805722518E+01  0.39186629690E+01  0.65895245321E+01  0.51100000000E-03 0. -1.
        -11    1    3    3    0    0 -0.71205718764E+01  0.32453180397E+01  0.29911746166E+01  0.83774553937E+01  0.51100000000E-03 0.  1.
         12    1    3    3    0    0  0.26960454913E+02 -0.75846474630E+01 -0.34368579480E+02  0.44335000414E+02  0.00000000000E+00 0. -1.
</event>
<event>
 7    1  0.1202531E-011  0.5930204E+02  0.7816164E-02  0.1266604E+00
        -11   -1    0    0    0    0  0.00000000000E+00  0.00000000000E+00  0.45593999997E+02  0.45594000000E+02  0.51100000000E-03 0. -1.
         11   -1    0    0    0    0 -0.00000000000E+00 -0.00000000000E+00 -0.45593999997E+02  0.45594000000E+02  0.51100000000E-03 0.  1.
    9900012    2    1    2    0    0 -0.23860361402E+02 -0.26672645091E+01  0.20982932067E+02  0.59302037817E+02  0.50000171049E+02 0.  0.
        -12    1    1    2    0    0  0.23860361402E+02  0.26672645091E+01 -0.20982932067E+02  0.31885962183E+02  0.00000000000E+00 0.  1.
         11    1    3    3    0    0 -0.28882215302E+02 -0.55847942304E+01  0.76752557140E+01  0.30402003846E+02  0.51100000000E-03 0. -1.
        -11    1    3    3    0    0  0.60922737955E+01 -0.52265691735E+01 -0.45620445217E+01  0.92328259922E+01  0.51100000000E-03 0.  1.
         12    1    3    3    0    0 -0.10704198960E+01  0.81440988948E+01  0.17869720874E+02  0.19667207979E+02  0.00000000000E+00 0. -1.
</event>
<event>
 7    1  0.1202531E-011  0.5930197E+02  0.7816164E-02  0.1266605E+00
        -11   -1    0    0    0    0  0.00000000000E+00  0.00000000000E+00  0.45593999997E+02  0.45594000000E+02  0.51100000000E-03 0.  1.
         11   -1    0    0    0    0 -0.00000000000E+00 -0.00000000000E+00 -0.45593999997E+02  0.45594000000E+02  0.51100000000E-03 0. -1.
    9900012    2    1    2    0    0  0.19981916232E+02 -0.23663896945E+02  0.75803521015E+01  0.59301972764E+02  0.50000052408E+02 0.  0.
        -12    1    1    2    0    0 -0.19981916232E+02  0.23663896945E+02 -0.75803521015E+01  0.31886027236E+02  0.00000000000E+00 0.  1.
         11    1    3    3    0    0 -0.10080867166E+02 -0.20105335739E+01  0.10505157250E+01  0.10332943028E+02  0.51100000000E-03 0. -1.
        -11    1    3    3    0    0  0.35156872186E+01 -0.54318755857E+01  0.15328291638E+02  0.16637964233E+02  0.51100000000E-03 0.  1.
         12    1    3    3    0    0  0.26547096180E+02 -0.16221487785E+02 -0.87984552619E+01  0.32331065503E+02  0.00000000000E+00 0. -1.
</event>
<event>
 7    1  0.1202531E-011  0.5930195E+02  0.7816164E-02  0.1266605E+00
        -11   -1    0    0    0    0  0.00000000000E+00  0.00000000000E+00  0.45593999997E+02  0.45594000000E+02  0.51100000000E-03 0. -1.
         11   -1    0    0    0    0 -0.00000000000E+00 -0.00000000000E+00 -0.45593999997E+02  0.45594000000E+02  0.51100000000E-03 0.  1.
    9900012    2    1    2    0    0 -0.27696889705E+02 -0.60031956070E+01 -0.14613838090E+02  0.59301947869E+02  0.50000007005E+02 0.  0.
        -12    1    1    2    0    0  0.27696889705E+02  0.60031956070E+01  0.14613838090E+02  0.31886052131E+02  0.00000000000E+00 0.  1.
         11    1    3    3    0    0 -0.13072005596E+02 -0.86135316220E+01 -0.15068664371E+02  0.21728665479E+02  0.51100000000E-03 0. -1.
        -11    1    3    3    0    0 -0.20964189501E+02 -0.49655468831E+01 -0.95029256992E+01  0.23546963592E+02  0.51100000000E-03 0.  1.
        -12    1    3    3    0    0  0.63393053920E+01  0.75758828982E+01  0.99577519800E+01  0.14026318798E+02  0.00000000000E+00 0.  1.
</event>
<event>
 7    1  0.1202531E-011  0.5930194E+02  0.7816164E-02  0.1266605E+00
        -11   -1    0    0    0    0  0.00000000000E+00  0.00000000000E+00  0.45593999997E+02  0.45594000000E+02  0.51100000000E-03 0.  1.
         11   -1    0    0    0    0 -0.00000000000E+00 -0.00000000000E+00 -0.45593999997E+02  0.45594000000E+02  0.51100000000E-03 0. -1.
    9900012    2    1    2    0    0 -0.15929031323E+02 -0.22253642943E+02 -0.16363445741E+02  0.59301936906E+02  0.49999987011E+02 0.  0.
        -12    1    1    2    0    0  0.15929031323E+02  0.22253642943E+02  0.16363445741E+02  0.31886063094E+02  0.00000000000E+00 0.  1.
         11    1    3    3    0    0  0.95780791571E+01  0.94912054944E+00 -0.15687551613E+02  0.18404882668E+02  0.51100000000E-03 0.  1.
        -11    1    3    3    0    0  0.34308315380E+01  0.50257915524E+00 -0.37821006576E+00  0.34880128963E+01  0.51100000000E-03 0. -1.
        -12    1    3    3    0    0 -0.28937942018E+02 -0.23705342648E+02 -0.29768406291E+00  0.37409041341E+02  0.00000000000E+00 0.  1.
</event>
<event>
 7    1  0.1202531E-011  0.5930202E+02  0.7816164E-02  0.1266604E+00
        -11   -1    0    0    0    0  0.00000000000E+00  0.00000000000E+00  0.45593999997E+02  0.45594000000E+02  0.51100000000E-03 0.  1.
         11   -1    0    0    0    0 -0.00000000000E+00 -0.00000000000E+00 -0.45593999997E+02  0.45594000000E+02  0.51100000000E-03 0. -1.
    9900012    2    1    2    0    0 -0.13690244860E+02 -0.28175025449E+02  0.59548858257E+01  0.59302023010E+02  0.50000144045E+02 0.  0.
        -12    1    1    2    0    0  0.13690244860E+02  0.28175025449E+02 -0.59548858257E+01  0.31885976990E+02  0.00000000000E+00 0.  1.
         11    1    3    3    0    0 -0.11767827964E+02 -0.30744873926E+02  0.19976294773E+02  0.38506900691E+02  0.51100000000E-03 0. -1.
        -11    1    3    3    0    0  0.46717904401E+01 -0.26951783938E+01 -0.13308820476E+01  0.55552551495E+01  0.51100000000E-03 0.  1.
        -12    1    3    3    0    0 -0.65942073368E+01  0.52650268711E+01 -0.12690526900E+02  0.15239867170E+02  0.00000000000E+00 0.  1.
</event>
<event>
 7    1  0.1202531E-011  0.5930196E+02  0.7816164E-02  0.1266605E+00
        -11   -1    0    0    0    0  0.00000000000E+00  0.00000000000E+00  0.45593999997E+02  0.45594000000E+02  0.51100000000E-03 0.  1.
         11   -1    0    0    0    0 -0.00000000000E+00 -0.00000000000E+00 -0.45593999997E+02  0.45594000000E+02  0.51100000000E-03 0. -1.
    9900012    2    1    2    0    0  0.45994136562E+01 -0.31530660682E+02  0.11758068695E+01  0.59301957743E+02  0.50000025013E+02 0.  0.
        -12    1    1    2    0    0 -0.45994136562E+01  0.31530660682E+02 -0.11758068695E+01  0.31886042257E+02  0.00000000000E+00 0.  1.
         11    1    3    3    0    0  0.35158327249E+01  0.37102726668E+01 -0.94794512401E+01  0.10769735330E+02  0.51100000000E-03 0.  1.
        -11    1    3    3    0    0  0.16102877279E+02 -0.22277430860E+02  0.68838912424E+01  0.28336805417E+02  0.51100000000E-03 0. -1.
         12    1    3    3    0    0 -0.15019296347E+02 -0.12963502489E+02  0.37713668671E+01  0.20195416995E+02  0.00000000000E+00 0. -1.
</event>
<event>
 7    1  0.1202531E-011  0.5930194E+02  0.7816164E-02  0.1266605E+00
        -11   -1    0    0    0    0  0.00000000000E+00  0.00000000000E+00  0.45593999997E+02  0.45594000000E+02  0.51100000000E-03 0.  1.
         11   -1    0    0    0    0 -0.00000000000E+00 -0.00000000000E+00 -0.45593999997E+02  0.45594000000E+02  0.51100000000E-03 0. -1.
    9900012    2    1    2    0    0 -0.82220342393E+01  0.30719838468E+01 -0.30654233647E+02  0.59301937649E+02  0.49999988366E+02 0.  0.
        -12    1    1    2    0    0  0.82220342393E+01 -0.30719838468E+01  0.30654233647E+02  0.31886062351E+02  0.00000000000E+00 0.  1.
         11    1    3    3    0    0  0.85790076824E+01 -0.36980552386E+01 -0.23881728144E+01  0.96425284554E+01  0.51100000000E-03 0. -1.
        -11    1    3    3    0    0  0.98519141500E+00 -0.75871242579E+01  0.51144099945E+01  0.92028390446E+01  0.51100000000E-03 0.  1.
        -12    1    3    3    0    0 -0.17786233337E+02  0.14357163343E+02 -0.33380470827E+02  0.40456570149E+02  0.00000000000E+00 0.  1.
</event>
<event>
 7    1  0.1202531E-011  0.5930195E+02  0.7816164E-02  0.1266605E+00
        -11   -1    0    0    0    0  0.00000000000E+00  0.00000000000E+00  0.45593999997E+02  0.45594000000E+02  0.51100000000E-03 0. -1.
         11   -1    0    0    0    0 -0.00000000000E+00 -0.00000000000E+00 -0.45593999997E+02  0.45594000000E+02  0.51100000000E-03 0.  1.
    9900012    2    1    2    0    0 -0.12801216726E+02 -0.29159256253E+02  0.16084326621E+01  0.59301946143E+02  0.50000003858E+02 0.  0.
        -12    1    1    2    0    0  0.12801216726E+02  0.29159256253E+02 -0.16084326621E+01  0.31886053857E+02  0.00000000000E+00 0.  1.
         11    1    3    3    0    0 -0.11295185816E+01  0.71805592883E+00 -0.57190279537E+01  0.58735591884E+01  0.51100000000E-03 0. -1.
        -11    1    3    3    0    0 -0.95692160364E+01 -0.35189569550E+02 -0.77700437632E+01  0.37286046733E+02  0.51100000000E-03 0.  1.
         12    1    3    3    0    0 -0.21024821082E+01  0.53122573677E+01  0.15097504379E+02  0.16142340222E+02  0.00000000000E+00 0. -1.
</event>
<event>
 7    1  0.1202531E-011  0.5930194E+02  0.7816164E-02  0.1266605E+00
        -11   -1    0    0    0    0  0.00000000000E+00  0.00000000000E+00  0.45593999997E+02  0.45594000000E+02  0.51100000000E-03 0. -1.
         11   -1    0    0    0    0 -0.00000000000E+00 -0.00000000000E+00 -0.45593999997E+02  0.45594000000E+02  0.51100000000E-03 0.  1.
    9900012    2    1    2    0    0 -0.24524707555E+01  0.93194297861E+01  0.30394972766E+02  0.59301941074E+02  0.49999994614E+02 0.  0.
        -12    1    1    2    0    0  0.24524707555E+01 -0.93194297861E+01 -0.30394972766E+02  0.31886058926E+02  0.00000000000E+00 0.  1.
         11    1    3    3    0    0 -0.77951226479E+00  0.19680094172E+02  0.46734536306E+00  0.19701069969E+02  0.51100000000E-03 0. -1.
        -11    1    3    3    0    0 -0.12037175261E+02 -0.37828855707E+01  0.96003718362E+01  0.15854682310E+02  0.51100000000E-03 0.  1.
         12    1    3    3    0    0  0.10364216770E+02 -0.65777788148E+01  0.20327255567E+02  0.23746188795E+02  0.00000000000E+00 0. -1.
</event>
<event>
 7    1  0.1202531E-011  0.5930195E+02  0.7816164E-02  0.1266605E+00
        -11   -1    0    0    0    0  0.00000000000E+00  0.00000000000E+00  0.45593999997E+02  0.45594000000E+02  0.51100000000E-03 0. -1.
         11   -1    0    0    0    0 -0.00000000000E+00 -0.00000000000E+00 -0.45593999997E+02  0.45594000000E+02  0.51100000000E-03 0.  1.
    9900012    2    1    2    0    0 -0.11756425717E+02 -0.24410859709E+01  0.29538917228E+02  0.59301951682E+02  0.50000013959E+02 0.  0.
        -12    1    1    2    0    0  0.11756425717E+02  0.24410859709E+01 -0.29538917228E+02  0.31886048318E+02  0.00000000000E+00 0.  1.
         11    1    3    3    0    0 -0.96335551256E+01  0.77987464570E+01  0.21249164268E+01  0.12575416524E+02  0.51100000000E-03 0. -1.
        -11    1    3    3    0    0 -0.12683932106E+02 -0.18880742478E+01 -0.32565338949E+01  0.13230720740E+02  0.51100000000E-03 0.  1.
         12    1    3    3    0    0  0.10561061514E+02 -0.83517581802E+01  0.30670534696E+02  0.33495814418E+02  0.00000000000E+00 0. -1.
</event>
<event>
 7    1  0.1202531E-011  0.5930186E+02  0.7816164E-02  0.1266605E+00
        -11   -1    0    0    0    0  0.00000000000E+00  0.00000000000E+00  0.45593999997E+02  0.45594000000E+02  0.51100000000E-03 0. -1.
         11   -1    0    0    0    0 -0.00000000000E+00 -0.00000000000E+00 -0.45593999997E+02  0.45594000000E+02  0.51100000000E-03 0.  1.
    9900012    2    1    2    0    0  0.27158858640E+01  0.17349625349E+02  0.26614670121E+02  0.59301855651E+02  0.49999838822E+02 0.  0.
        -12    1    1    2    0    0 -0.27158858640E+01 -0.17349625349E+02 -0.26614670121E+02  0.31886144349E+02  0.00000000000E+00 0.  1.
         11    1    3    3    0    0  0.33676793198E+01 -0.23630288776E+01  0.21193571708E+02  0.21589179037E+02  0.51100000000E-03 0. -1.
        -11    1    3    3    0    0  0.41314062335E+01 -0.80868718047E+01  0.65322418991E+00  0.91045436544E+01  0.51100000000E-03 0.  1.
         12    1    3    3    0    0 -0.47831996892E+01  0.27799526031E+02  0.47678742228E+01  0.28608132960E+02  0.00000000000E+00 0. -1.
</event>
<event>
 7    1  0.1202531E-011  0.5930194E+02  0.7816164E-02  0.1266605E+00
        -11   -1    0    0    0    0  0.00000000000E+00  0.00000000000E+00  0.45593999997E+02  0.45594000000E+02  0.51100000000E-03 0.  1.
         11   -1    0    0    0    0 -0.00000000000E+00 -0.00000000000E+00 -0.45593999997E+02  0.45594000000E+02  0.51100000000E-03 0. -1.
    9900012    2    1    2    0    0 -0.25184597410E+02 -0.31004291911E+01  0.19309174768E+02  0.59301939753E+02  0.49999992204E+02 0.  0.
        -12    1    1    2    0    0  0.25184597410E+02  0.31004291911E+01 -0.19309174768E+02  0.31886060247E+02  0.00000000000E+00 0.  1.
         11    1    3    3    0    0 -0.13335085687E+02 -0.28244296643E+01  0.34589892516E-01  0.13630961445E+02  0.51100000000E-03 0. -1.
        -11    1    3    3    0    0 -0.13837712913E+02  0.90857696223E+01  0.28125220486E+02  0.32635280540E+02  0.51100000000E-03 0.  1.
         12    1    3    3    0    0  0.19882011902E+01 -0.93617691491E+01 -0.88506356109E+01  0.13035697768E+02  0.00000000000E+00 0. -1.
</event>
<event>
 7    1  0.1202531E-011  0.5930193E+02  0.7816164E-02  0.1266605E+00
        -11   -1    0    0    0    0  0.00000000000E+00  0.00000000000E+00  0.45593999997E+02  0.45594000000E+02  0.51100000000E-03 0. -1.
         11   -1    0    0    0    0 -0.00000000000E+00 -0.00000000000E+00 -0.45593999997E+02  0.45594000000E+02  0.51100000000E-03 0.  1.
    9900012    2    1    2    0    0  0.15442482229E+02  0.86619120509E+01  0.26518341681E+02  0.59301930576E+02  0.49999975467E+02 0.  0.
        -12    1    1    2    0    0 -0.15442482229E+02 -0.86619120509E+01 -0.26518341681E+02  0.31886069424E+02  0.00000000000E+00 0.  1.
         11    1    3    3    0    0  0.23927149096E+01  0.52028011994E+01  0.17543440456E+02  0.18454444674E+02  0.51100000000E-03 0. -1.
        -11    1    3    3    0    0  0.36775117582E+00 -0.48076412692E+01  0.20979812777E+02  0.21526755443E+02  0.51100000000E-03 0.  1.
        -12    1    3    3    0    0  0.12682016144E+02  0.82667521207E+01 -0.12004911551E+02  0.19320730458E+02  0.00000000000E+00 0.  1.
</event>
<event>
 7    1  0.1202531E-011  0.5930190E+02  0.7816164E-02  0.1266605E+00
        -11   -1    0    0    0    0  0.00000000000E+00  0.00000000000E+00  0.45593999997E+02  0.45594000000E+02  0.51100000000E-03 0.  1.
         11   -1    0    0    0    0 -0.00000000000E+00 -0.00000000000E+00 -0.45593999997E+02  0.45594000000E+02  0.51100000000E-03 0. -1.
    9900012    2    1    2    0    0  0.59964248813E+01  0.24241104367E+02 -0.19827631759E+02  0.59301902191E+02  0.49999923700E+02 0.  0.
        -12    1    1    2    0    0 -0.59964248813E+01 -0.24241104367E+02  0.19827631759E+02  0.31886097809E+02  0.00000000000E+00 0.  1.
         11    1    3    3    0    0 -0.21087436439E+01  0.69029793968E+01  0.19376509556E+01  0.74734473836E+01  0.51100000000E-03 0. -1.
        -11    1    3    3    0    0 -0.37638155096E+01  0.67775524347E+01  0.12129362948E+02  0.14395241227E+02  0.51100000000E-03 0.  1.
         12    1    3    3    0    0  0.11868984035E+02  0.10560572536E+02 -0.33894645663E+02  0.37433213580E+02  0.00000000000E+00 0. -1.
</event>
<event>
 7    1  0.1202531E-011  0.5930186E+02  0.7816164E-02  0.1266605E+00
        -11   -1    0    0    0    0  0.00000000000E+00  0.00000000000E+00  0.45593999997E+02  0.45594000000E+02  0.51100000000E-03 0. -1.
         11   -1    0    0    0    0 -0.00000000000E+00 -0.00000000000E+00 -0.45593999997E+02  0.45594000000E+02  0.51100000000E-03 0.  1.
    9900012    2    1    2    0    0  0.31272002292E+02 -0.35324905481E+01 -0.51292564385E+01  0.59301860560E+02  0.49999847774E+02 0.  0.
        -12    1    1    2    0    0 -0.31272002292E+02  0.35324905481E+01  0.51292564385E+01  0.31886139440E+02  0.00000000000E+00 0.  1.
         11    1    3    3    0    0  0.25428563228E+02 -0.86794427275E+01  0.14835062856E+02  0.30692403687E+02  0.51100000000E-03 0. -1.
        -11    1    3    3    0    0  0.57623399268E+01 -0.56429089803E+01 -0.32084862490E+01  0.86799405219E+01  0.51100000000E-03 0.  1.
         12    1    3    3    0    0  0.81099137080E-01  0.10789861160E+02 -0.16755833046E+02  0.19929516351E+02  0.00000000000E+00 0. -1.
</event>
<event>
 7    1  0.1202531E-011  0.5930195E+02  0.7816164E-02  0.1266605E+00
        -11   -1    0    0    0    0  0.00000000000E+00  0.00000000000E+00  0.45593999997E+02  0.45594000000E+02  0.51100000000E-03 0.  1.
         11   -1    0    0    0    0 -0.00000000000E+00 -0.00000000000E+00 -0.45593999997E+02  0.45594000000E+02  0.51100000000E-03 0. -1.
    9900012    2    1    2    0    0 -0.80710312669E+01  0.11583849718E+01 -0.30825914319E+02  0.59301946700E+02  0.50000004873E+02 0.  0.
        -12    1    1    2    0    0  0.80710312669E+01 -0.11583849718E+01  0.30825914319E+02  0.31886053300E+02  0.00000000000E+00 0.  1.
         11    1    3    3    0    0 -0.22474274305E-01 -0.18401144044E+02 -0.21805399886E+02  0.28532053408E+02  0.51100000000E-03 0. -1.
        -11    1    3    3    0    0 -0.93796531906E+01 -0.37614389116E+00 -0.20466082560E+01  0.96077043990E+01  0.51100000000E-03 0.  1.
        -12    1    3    3    0    0  0.13310961980E+01  0.19935672907E+02 -0.69739061771E+01  0.21162188893E+02  0.00000000000E+00 0.  1.
</event>
<event>
 7    1  0.1202531E-011  0.5930185E+02  0.7816164E-02  0.1266605E+00
        -11   -1    0    0    0    0  0.00000000000E+00  0.00000000000E+00  0.45593999997E+02  0.45594000000E+02  0.51100000000E-03 0. -1.
         11   -1    0    0    0    0 -0.00000000000E+00 -0.00000000000E+00 -0.45593999997E+02  0.45594000000E+02  0.51100000000E-03 0.  1.
    9900012    2    1    2    0    0 -0.26232807009E+02  0.15011043475E+02  0.10160450538E+02  0.59301853401E+02  0.49999834719E+02 0.  0.
        -12    1    1    2    0    0  0.26232807009E+02 -0.15011043475E+02 -0.10160450538E+02  0.31886146599E+02  0.00000000000E+00 0.  1.
         11    1    3    3    0    0 -0.31982887392E+01  0.19797132737E+02  0.78283382437E-02  0.20053817018E+02  0.51100000000E-03 0. -1.
        -11    1    3    3    0    0 -0.12752917244E+01  0.46475781059E+01  0.14372806009E+02  0.15159284418E+02  0.51100000000E-03 0.  1.
         12    1    3    3    0    0 -0.21759226546E+02 -0.94336673671E+01 -0.42201838096E+01  0.24088751965E+02  0.00000000000E+00 0. -1.
</event>
<event>
 7    1  0.1202531E-011  0.5930193E+02  0.7816164E-02  0.1266605E+00
        -11   -1    0    0    0    0  0.00000000000E+00  0.00000000000E+00  0.45593999997E+02  0.45594000000E+02  0.51100000000E-03 0.  1.
         11   -1    0    0    0    0 -0.00000000000E+00 -0.00000000000E+00 -0.45593999997E+02  0.45594000000E+02  0.51100000000E-03 0. -1.
    9900012    2    1    2    0    0 -0.23767718378E+02 -0.15924106811E+02 -0.14079768610E+02  0.59301929393E+02  0.49999973310E+02 0.  0.
        -12    1    1    2    0    0  0.23767718378E+02  0.15924106811E+02  0.14079768610E+02  0.31886070607E+02  0.00000000000E+00 0.  1.
         11    1    3    3    0    0 -0.13037344664E+02 -0.46010812759E+01 -0.20232062373E+02  0.24504665942E+02  0.51100000000E-03 0. -1.
        -11    1    3    3    0    0 -0.89039765978E+01  0.34326621330E+01 -0.93200534497E+01  0.13338941680E+02  0.51100000000E-03 0.  1.
        -12    1    3    3    0    0 -0.18263971161E+01 -0.14755687668E+02  0.15472347212E+02  0.21458321771E+02  0.00000000000E+00 0.  1.
</event>
<event>
 7    1  0.1202531E-011  0.5930198E+02  0.7816164E-02  0.1266605E+00
        -11   -1    0    0    0    0  0.00000000000E+00  0.00000000000E+00  0.45593999997E+02  0.45594000000E+02  0.51100000000E-03 0.  1.
         11   -1    0    0    0    0 -0.00000000000E+00 -0.00000000000E+00 -0.45593999997E+02  0.45594000000E+02  0.51100000000E-03 0. -1.
    9900012    2    1    2    0    0 -0.14830623472E+02 -0.14421379160E+02 -0.24265094529E+02  0.59301978267E+02  0.50000062444E+02 0.  0.
        -12    1    1    2    0    0  0.14830623472E+02  0.14421379160E+02  0.24265094529E+02  0.31886021733E+02  0.00000000000E+00 0.  1.
         11    1    3    3    0    0 -0.13704733976E+02 -0.11368796595E+02 -0.35760688662E+02  0.39948668604E+02  0.51100000000E-03 0. -1.
        -11    1    3    3    0    0 -0.44742479770E+01  0.20631352692E+01 -0.13656284362E+01  0.51127647497E+01  0.51100000000E-03 0.  1.
         12    1    3    3    0    0  0.33483584804E+01 -0.51157178334E+01  0.12861222569E+02  0.14240544914E+02  0.00000000000E+00 0. -1.
</event>
<event>
 7    1  0.1202531E-011  0.5930197E+02  0.7816164E-02  0.1266605E+00
        -11   -1    0    0    0    0  0.00000000000E+00  0.00000000000E+00  0.45593999997E+02  0.45594000000E+02  0.51100000000E-03 0. -1.
         11   -1    0    0    0    0 -0.00000000000E+00 -0.00000000000E+00 -0.45593999997E+02  0.45594000000E+02  0.51100000000E-03 0.  1.
    9900012    2    1    2    0    0  0.15662736148E+02  0.26386795093E+02 -0.86680182600E+01  0.59301971720E+02  0.50000050504E+02 0.  0.
        -12    1    1    2    0    0 -0.15662736148E+02 -0.26386795093E+02  0.86680182600E+01  0.31886028280E+02  0.00000000000E+00 0.  1.
         11    1    3    3    0    0  0.35306759657E+01  0.14036650616E+02 -0.11854038210E+01  0.14522341952E+02  0.51100000000E-03 0. -1.
        -11    1    3    3    0    0  0.86333594273E+01  0.20071320115E+02  0.10988026276E+02  0.24456686363E+02  0.51100000000E-03 0.  1.
        -12    1    3    3    0    0  0.34987007545E+01 -0.77211756384E+01 -0.18470640715E+02  0.20322943404E+02  0.00000000000E+00 0.  1.
</event>
<event>
 7    1  0.1202531E-011  0.5930194E+02  0.7816164E-02  0.1266605E+00
        -11   -1    0    0    0    0  0.00000000000E+00  0.00000000000E+00  0.45593999997E+02  0.45594000000E+02  0.51100000000E-03 0.  1.
         11   -1    0    0    0    0 -0.00000000000E+00 -0.00000000000E+00 -0.45593999997E+02  0.45594000000E+02  0.51100000000E-03 0. -1.
    9900012    2    1    2    0    0  0.30256699157E+02  0.47020112942E+01 -0.88963056550E+01  0.59301937082E+02  0.49999987333E+02 0.  0.
        -12    1    1    2    0    0 -0.30256699157E+02 -0.47020112942E+01  0.88963056550E+01  0.31886062918E+02  0.00000000000E+00 0.  1.
         11    1    3    3    0    0 -0.55636530377E+01 -0.17713016505E+01 -0.98444668528E+00  0.59212228634E+01  0.51100000000E-03 0. -1.
        -11    1    3    3    0    0  0.20588084463E+01 -0.11997784435E+02 -0.85763487036E+01  0.14890912696E+02  0.51100000000E-03 0.  1.
        -12    1    3    3    0    0  0.33761543749E+02  0.18471097379E+02  0.66448973382E+00  0.38489801523E+02  0.00000000000E+00 0.  1.
</event>
<event>
 7    1  0.1202531E-011  0.5930197E+02  0.7816164E-02  0.1266605E+00
        -11   -1    0    0    0    0  0.00000000000E+00  0.00000000000E+00  0.45593999997E+02  0.45594000000E+02  0.51100000000E-03 0.  1.
         11   -1    0    0    0    0 -0.00000000000E+00 -0.00000000000E+00 -0.45593999997E+02  0.45594000000E+02  0.51100000000E-03 0. -1.
    9900012    2    1    2    0    0  0.23453021405E+02 -0.19439225999E+02  0.94229118229E+01  0.59301968768E+02  0.50000045121E+02 0.  0.
        -12    1    1    2    0    0 -0.23453021405E+02  0.19439225999E+02 -0.94229118229E+01  0.31886031232E+02  0.00000000000E+00 0.  1.
         11    1    3    3    0    0  0.33648958331E+01 -0.16231331444E+02  0.68316059187E+01  0.17929012357E+02  0.51100000000E-03 0. -1.
        -11    1    3    3    0    0  0.10345374755E+02 -0.12549342962E+02  0.15665563455E+02  0.22581467318E+02  0.51100000000E-03 0.  1.
        -12    1    3    3    0    0  0.97427508168E+01  0.93414484071E+01 -0.13074257551E+02  0.18791489093E+02  0.00000000000E+00 0.  1.
</event>
<event>
 7    1  0.1202531E-011  0.5930197E+02  0.7816164E-02  0.1266605E+00
        -11   -1    0    0    0    0  0.00000000000E+00  0.00000000000E+00  0.45593999997E+02  0.45594000000E+02  0.51100000000E-03 0.  1.
         11   -1    0    0    0    0 -0.00000000000E+00 -0.00000000000E+00 -0.45593999997E+02  0.45594000000E+02  0.51100000000E-03 0. -1.
    9900012    2    1    2    0    0 -0.18812780827E+02  0.11139316419E+02 -0.23210206012E+02  0.59301972404E+02  0.50000051752E+02 0.  0.
        -12    1    1    2    0    0  0.18812780827E+02 -0.11139316419E+02  0.23210206012E+02  0.31886027596E+02  0.00000000000E+00 0.  1.
         11    1    3    3    0    0 -0.29024897576E+02  0.10126984704E+02 -0.18144214128E+02  0.35696120308E+02  0.51100000000E-03 0. -1.
        -11    1    3    3    0    0 -0.24919812796E+01  0.59456850630E+01  0.36696918073E+01  0.74180711636E+01  0.51100000000E-03 0.  1.
         12    1    3    3    0    0  0.12704098028E+02 -0.49333533475E+01 -0.87356836918E+01  0.16187780933E+02  0.00000000000E+00 0. -1.
</event>
<event>
 7    1  0.1202531E-011  0.5930196E+02  0.7816164E-02  0.1266605E+00
        -11   -1    0    0    0    0  0.00000000000E+00  0.00000000000E+00  0.45593999997E+02  0.45594000000E+02  0.51100000000E-03 0. -1.
         11   -1    0    0    0    0 -0.00000000000E+00 -0.00000000000E+00 -0.45593999997E+02  0.45594000000E+02  0.51100000000E-03 0.  1.
    9900012    2    1    2    0    0 -0.80580863626E+01 -0.60008090705E+01  0.30261806305E+02  0.59301962520E+02  0.50000033725E+02 0.  0.
        -12    1    1    2    0    0  0.80580863626E+01  0.60008090705E+01 -0.30261806305E+02  0.31886037480E+02  0.00000000000E+00 0.  1.
         11    1    3    3    0    0 -0.29640654878E+01 -0.10015400998E+02  0.41107154085E+02  0.42413347647E+02  0.51100000000E-03 0. -1.
        -11    1    3    3    0    0 -0.48298340198E+01 -0.31075469668E+01 -0.39382188816E+01  0.69637427459E+01  0.51100000000E-03 0.  1.
        -12    1    3    3    0    0 -0.26418685500E+00  0.71221388947E+01 -0.69071288978E+01  0.99248721272E+01  0.00000000000E+00 0.  1.
</event>
<event>
 7    1  0.1233781E-011  0.5930197E+02  0.7816164E-02  0.1266605E+00
        -11   -1    0    0    0    0  0.00000000000E+00  0.00000000000E+00  0.45593999997E+02  0.45594000000E+02  0.51100000000E-03 0.  1.
         11   -1    0    0    0    0 -0.00000000000E+00 -0.00000000000E+00 -0.45593999997E+02  0.45594000000E+02  0.51100000000E-03 0. -1.
    9900012    2    1    2    0    0  0.31778841054E+02 -0.21553225795E+01 -0.14759590241E+01  0.59301974704E+02  0.50000055946E+02 0.  0.
        -12    1    1    2    0    0 -0.31778841054E+02  0.21553225795E+01  0.14759590241E+01  0.31886025296E+02  0.00000000000E+00 0.  1.
         11    1    3    3    0    0  0.25035062171E+02 -0.11298472309E+02  0.93366090730E+00  0.27482385948E+02  0.51100000000E-03 0. -1.
        -11    1    3    3    0    0  0.54623940483E+01  0.31382183651E+01 -0.15842953861E+02  0.17049497076E+02  0.51100000000E-03 0.  1.
        -12    1    3    3    0    0  0.12813848346E+01  0.60049313646E+01  0.13433333929E+02  0.14770091680E+02  0.00000000000E+00 0.  1.
</event>
<event>
 7    1  0.1202531E-011  0.5930197E+02  0.7816164E-02  0.1266605E+00
        -11   -1    0    0    0    0  0.00000000000E+00  0.00000000000E+00  0.45593999997E+02  0.45594000000E+02  0.51100000000E-03 0.  1.
         11   -1    0    0    0    0 -0.00000000000E+00 -0.00000000000E+00 -0.45593999997E+02  0.45594000000E+02  0.51100000000E-03 0. -1.
    9900012    2    1    2    0    0  0.24022733516E+02  0.97393846386E+01 -0.18568032915E+02  0.59301965673E+02  0.50000039477E+02 0.  0.
        -12    1    1    2    0    0 -0.24022733516E+02 -0.97393846386E+01  0.18568032915E+02  0.31886034327E+02  0.00000000000E+00 0.  1.
         11    1    3    3    0    0  0.16169821697E+02 -0.87589940448E+00 -0.20645329280E+02  0.26238520439E+02  0.51100000000E-03 0. -1.
        -11    1    3    3    0    0  0.25275319745E+01 -0.72514684324E+01 -0.86396104569E+01  0.11559198995E+02  0.51100000000E-03 0.  1.
        -12    1    3    3    0    0  0.53253798447E+01  0.17866752475E+02  0.10716906821E+02  0.21504246239E+02  0.00000000000E+00 0.  1.
</event>
<event>
 7    1  0.1202531E-011  0.5930196E+02  0.7816164E-02  0.1266605E+00
        -11   -1    0    0    0    0  0.00000000000E+00  0.00000000000E+00  0.45593999997E+02  0.45594000000E+02  0.51100000000E-03 0.  1.
         11   -1    0    0    0    0 -0.00000000000E+00 -0.00000000000E+00 -0.45593999997E+02  0.45594000000E+02  0.51100000000E-03 0. -1.
    9900012    2    1    2    0    0  0.18310307238E+02  0.25874942752E+02 -0.34553671860E+01  0.59301959544E+02  0.50000028298E+02 0.  0.
        -12    1    1    2    0    0 -0.18310307238E+02 -0.25874942752E+02  0.34553671860E+01  0.31886040456E+02  0.00000000000E+00 0.  1.
         11    1    3    3    0    0  0.47627744287E+01  0.71224027342E+01 -0.21988082388E+01  0.88457559823E+01  0.51100000000E-03 0. -1.
        -11    1    3    3    0    0  0.29587762719E+02  0.72807801561E+01  0.16887719117E+01  0.30517165878E+02  0.51100000000E-03 0.  1.
        -12    1    3    3    0    0 -0.16040229910E+02  0.11471759861E+02 -0.29453308588E+01  0.19939037684E+02  0.00000000000E+00 0.  1.
</event>
<event>
 7    1  0.1202531E-011  0.5930187E+02  0.7816164E-02  0.1266605E+00
        -11   -1    0    0    0    0  0.00000000000E+00  0.00000000000E+00  0.45593999997E+02  0.45594000000E+02  0.51100000000E-03 0. -1.
         11   -1    0    0    0    0 -0.00000000000E+00 -0.00000000000E+00 -0.45593999997E+02  0.45594000000E+02  0.51100000000E-03 0.  1.
    9900012    2    1    2    0    0  0.10528472396E+02 -0.21917010349E+02  0.20628171708E+02  0.59301865997E+02  0.49999857691E+02 0.  0.
        -12    1    1    2    0    0 -0.10528472396E+02  0.21917010349E+02 -0.20628171708E+02  0.31886134003E+02  0.00000000000E+00 0.  1.
         11    1    3    3    0    0  0.51363903859E+01 -0.23929642518E+02 -0.50536520453E+01  0.24990992307E+02  0.51100000000E-03 0. -1.
        -11    1    3    3    0    0  0.69804242134E+01 -0.44601010530E+01  0.54061531867E+00  0.83012703116E+01  0.51100000000E-03 0.  1.
         12    1    3    3    0    0 -0.15883422034E+01  0.64727332228E+01  0.25141208435E+02  0.26009603378E+02  0.00000000000E+00 0. -1.
</event>
<event>
 7    1  0.1202531E-011  0.5930192E+02  0.7816164E-02  0.1266605E+00
        -11   -1    0    0    0    0  0.00000000000E+00  0.00000000000E+00  0.45593999997E+02  0.45594000000E+02  0.51100000000E-03 0. -1.
         11   -1    0    0    0    0 -0.00000000000E+00 -0.00000000000E+00 -0.45593999997E+02  0.45594000000E+02  0.51100000000E-03 0.  1.
    9900012    2    1    2    0    0  0.15919497812E+02  0.18636999098E+02  0.20394942808E+02  0.59301924072E+02  0.49999963606E+02 0.  0.
        -12    1    1    2    0    0 -0.15919497812E+02 -0.18636999098E+02 -0.20394942808E+02  0.31886075928E+02  0.00000000000E+00 0.  1.
         11    1    3    3    0    0  0.16069878541E+02  0.85362174520E+01  0.18026172584E+02  0.25613490644E+02  0.51100000000E-03 0. -1.
        -11    1    3    3    0    0 -0.23333433504E+01  0.10479901949E+02  0.16335022211E+02  0.19547526364E+02  0.51100000000E-03 0.  1.
        -12    1    3    3    0    0  0.21829626212E+01 -0.37912030335E+00 -0.13966251987E+02  0.14140907064E+02  0.00000000000E+00 0.  1.
</event>
<event>
 7    1  0.1202531E-011  0.5930194E+02  0.7816164E-02  0.1266605E+00
        -11   -1    0    0    0    0  0.00000000000E+00  0.00000000000E+00  0.45593999997E+02  0.45594000000E+02  0.51100000000E-03 0.  1.
         11   -1    0    0    0    0 -0.00000000000E+00 -0.00000000000E+00 -0.45593999997E+02  0.45594000000E+02  0.51100000000E-03 0. -1.
    9900012    2    1    2    0    0  0.29292066609E+02 -0.27012798864E+01 -0.12304421772E+02  0.59301939184E+02  0.49999991165E+02 0.  0.
        -12    1    1    2    0    0 -0.29292066609E+02  0.27012798864E+01  0.12304421772E+02  0.31886060816E+02  0.00000000000E+00 0.  1.
         11    1    3    3    0    0  0.23642952605E+02 -0.10601486259E+02 -0.99946402767E+01  0.27771812208E+02  0.51100000000E-03 0. -1.
        -11    1    3    3    0    0  0.13149545359E+02 -0.60340426864E+01  0.31187903284E+01  0.14800238770E+02  0.51100000000E-03 0.  1.
        -12    1    3    3    0    0 -0.75004313543E+01  0.13934249059E+02 -0.54285718233E+01  0.16729888206E+02  0.00000000000E+00 0.  1.
</event>
<event>
 7    1  0.1202531E-011  0.5930200E+02  0.7816164E-02  0.1266605E+00
        -11   -1    0    0    0    0  0.00000000000E+00  0.00000000000E+00  0.45593999997E+02  0.45594000000E+02  0.51100000000E-03 0.  1.
         11   -1    0    0    0    0 -0.00000000000E+00 -0.00000000000E+00 -0.45593999997E+02  0.45594000000E+02  0.51100000000E-03 0. -1.
    9900012    2    1    2    0    0 -0.25858102446E+02  0.17477674364E+02  0.65273663936E+01  0.59301998757E+02  0.50000099812E+02 0.  0.
        -12    1    1    2    0    0  0.25858102446E+02 -0.17477674364E+02 -0.65273663936E+01  0.31886001243E+02  0.00000000000E+00 0.  1.
         11    1    3    3    0    0  0.40053932136E+01 -0.34513933670E+01 -0.10505381496E+02  0.11760881413E+02  0.51100000000E-03 0.  1.
        -11    1    3    3    0    0 -0.90709484185E+01  0.83592582599E+01 -0.63036073901E+01  0.13852608789E+02  0.51100000000E-03 0. -1.
        -12    1    3    3    0    0 -0.20792547241E+02  0.12569809471E+02  0.23336355280E+02  0.33688508555E+02  0.00000000000E+00 0.  1.
</event>
<event>
 7    1  0.1202531E-011  0.5930196E+02  0.7816164E-02  0.1266605E+00
        -11   -1    0    0    0    0  0.00000000000E+00  0.00000000000E+00  0.45593999997E+02  0.45594000000E+02  0.51100000000E-03 0. -1.
         11   -1    0    0    0    0 -0.00000000000E+00 -0.00000000000E+00 -0.45593999997E+02  0.45594000000E+02  0.51100000000E-03 0.  1.
    9900012    2    1    2    0    0  0.29173918264E+01  0.22519455898E+02  0.22384870037E+02  0.59301961118E+02  0.50000031169E+02 0.  0.
        -12    1    1    2    0    0 -0.29173918264E+01 -0.22519455898E+02 -0.22384870037E+02  0.31886038882E+02  0.00000000000E+00 0.  1.
         11    1    3    3    0    0  0.62343509322E+01 -0.20436782736E+01  0.49691475379E+01  0.82301992653E+01  0.51100000000E-03 0. -1.
        -11    1    3    3    0    0  0.14018846170E+02  0.22103695932E+02 -0.28234860326E+00  0.26175964983E+02  0.51100000000E-03 0.  1.
        -12    1    3    3    0    0 -0.17335805276E+02  0.24594382388E+01  0.17698071102E+02  0.24895796870E+02  0.00000000000E+00 0.  1.
</event>
<event>
 7    1  0.1202531E-011  0.5930194E+02  0.7816164E-02  0.1266605E+00
        -11   -1    0    0    0    0  0.00000000000E+00  0.00000000000E+00  0.45593999997E+02  0.45594000000E+02  0.51100000000E-03 0. -1.
         11   -1    0    0    0    0 -0.00000000000E+00 -0.00000000000E+00 -0.45593999997E+02  0.45594000000E+02  0.51100000000E-03 0.  1.
    9900012    2    1    2    0    0 -0.15260651600E+01  0.17972045283E+02  0.26294440670E+02  0.59301938835E+02  0.49999990529E+02 0.  0.
        -12    1    1    2    0    0  0.15260651600E+01 -0.17972045283E+02 -0.26294440670E+02  0.31886061165E+02  0.00000000000E+00 0.  1.
         11    1    3    3    0    0  0.17605516325E+01 -0.42844049004E+01 -0.28386743858E+01  0.54326549615E+01  0.51100000000E-03 0. -1.
        -11    1    3    3    0    0 -0.12420629776E+02  0.23903955672E+02  0.41987847887E+01  0.27263545895E+02  0.51100000000E-03 0.  1.
         12    1    3    3    0    0  0.91340129831E+01 -0.16475054889E+01  0.24934330267E+02  0.26605737978E+02  0.00000000000E+00 0. -1.
</event>
<event>
 7    1  0.1202531E-011  0.5930196E+02  0.7816164E-02  0.1266605E+00
        -11   -1    0    0    0    0  0.00000000000E+00  0.00000000000E+00  0.45593999997E+02  0.45594000000E+02  0.51100000000E-03 0.  1.
         11   -1    0    0    0    0 -0.00000000000E+00 -0.00000000000E+00 -0.45593999997E+02  0.45594000000E+02  0.51100000000E-03 0. -1.
    9900012    2    1    2    0    0  0.88704436819E+01  0.25516885928E+02 -0.16938809730E+02  0.59301960521E+02  0.50000030080E+02 0.  0.
        -12    1    1    2    0    0 -0.88704436819E+01 -0.25516885928E+02  0.16938809730E+02  0.31886039479E+02  0.00000000000E+00 0.  1.
         11    1    3    3    0    0 -0.17905309853E+01  0.19006941511E+02 -0.11008710128E+02  0.22037729597E+02  0.51100000000E-03 0. -1.
        -11    1    3    3    0    0 -0.33871093744E+00  0.84798766544E+01 -0.18555279109E+02  0.20403955897E+02  0.51100000000E-03 0.  1.
        -12    1    3    3    0    0  0.10999685605E+02 -0.19699322379E+01  0.12625179507E+02  0.16860275028E+02  0.00000000000E+00 0.  1.
</event>
<event>
 7    1  0.1202531E-011  0.5930193E+02  0.7816164E-02  0.1266605E+00
        -11   -1    0    0    0    0  0.00000000000E+00  0.00000000000E+00  0.45593999997E+02  0.45594000000E+02  0.51100000000E-03 0.  1.
         11   -1    0    0    0    0 -0.00000000000E+00 -0.00000000000E+00 -0.45593999997E+02  0.45594000000E+02  0.51100000000E-03 0. -1.
    9900012    2    1    2    0    0 -0.70879986426E+01 -0.13458538715E+02 -0.28024090438E+02  0.59301927273E+02  0.49999969443E+02 0.  0.
        -12    1    1    2    0    0  0.70879986426E+01  0.13458538715E+02  0.28024090438E+02  0.31886072727E+02  0.00000000000E+00 0.  1.
         11    1    3    3    0    0 -0.43946105021E+01 -0.19188720589E+02 -0.27252005919E+02  0.33618319800E+02  0.51100000000E-03 0. -1.
        -11    1    3    3    0    0  0.32787252660E+01 -0.90432996560E+01  0.89930392437E+00  0.96612657477E+01  0.51100000000E-03 0.  1.
         12    1    3    3    0    0 -0.59721134065E+01  0.14773481530E+02 -0.16713884433E+01  0.16022341726E+02  0.00000000000E+00 0. -1.
</event>
<event>
 7    1  0.1202531E-011  0.5930193E+02  0.7816164E-02  0.1266605E+00
        -11   -1    0    0    0    0  0.00000000000E+00  0.00000000000E+00  0.45593999997E+02  0.45594000000E+02  0.51100000000E-03 0.  1.
         11   -1    0    0    0    0 -0.00000000000E+00 -0.00000000000E+00 -0.45593999997E+02  0.45594000000E+02  0.51100000000E-03 0. -1.
    9900012    2    1    2    0    0  0.73095752550E+01  0.25027167541E+02 -0.18355718616E+02  0.59301930762E+02  0.49999975806E+02 0.  0.
        -12    1    1    2    0    0 -0.73095752550E+01 -0.25027167541E+02  0.18355718616E+02  0.31886069238E+02  0.00000000000E+00 0.  1.
         11    1    3    3    0    0  0.68796150671E+01 -0.40236952036E+01  0.20687384031E+01  0.82340090724E+01  0.51100000000E-03 0.  1.
        -11    1    3    3    0    0  0.24260321379E+01  0.31681364535E+02 -0.14488359657E+01  0.31807131537E+02  0.51100000000E-03 0. -1.
         12    1    3    3    0    0 -0.19960719500E+01 -0.26305017900E+01 -0.18975621054E+02  0.19260790152E+02  0.00000000000E+00 0. -1.
</event>
<event>
 7    1  0.1202531E-011  0.5930198E+02  0.7816164E-02  0.1266605E+00
        -11   -1    0    0    0    0  0.00000000000E+00  0.00000000000E+00  0.45593999997E+02  0.45594000000E+02  0.51100000000E-03 0.  1.
         11   -1    0    0    0    0 -0.00000000000E+00 -0.00000000000E+00 -0.45593999997E+02  0.45594000000E+02  0.51100000000E-03 0. -1.
    9900012    2    1    2    0    0  0.23485132675E+02 -0.74257276755E+01 -0.20249089090E+02  0.59301976459E+02  0.50000059146E+02 0.  0.
        -12    1    1    2    0    0 -0.23485132675E+02  0.74257276755E+01  0.20249089090E+02  0.31886023541E+02  0.00000000000E+00 0.  1.
         11    1    3    3    0    0  0.77711990669E+01 -0.10865087782E+02 -0.20569457574E+02  0.24526399095E+02  0.51100000000E-03 0.  1.
        -11    1    3    3    0    0 -0.56040585668E+01  0.10747983563E+02  0.14710640820E+01  0.12210186439E+02  0.51100000000E-03 0. -1.
         12    1    3    3    0    0  0.21317992175E+02 -0.73086234561E+01 -0.11506955987E+01  0.22565390924E+02  0.00000000000E+00 0. -1.
</event>
<event>
 7    1  0.1202531E-011  0.5930194E+02  0.7816164E-02  0.1266605E+00
        -11   -1    0    0    0    0  0.00000000000E+00  0.00000000000E+00  0.45593999997E+02  0.45594000000E+02  0.51100000000E-03 0. -1.
         11   -1    0    0    0    0 -0.00000000000E+00 -0.00000000000E+00 -0.45593999997E+02  0.45594000000E+02  0.51100000000E-03 0.  1.
    9900012    2    1    2    0    0  0.95494640104E+00 -0.90342582551E+01  0.30564538228E+02  0.59301941260E+02  0.49999994953E+02 0.  0.
        -12    1    1    2    0    0 -0.95494640104E+00  0.90342582551E+01 -0.30564538228E+02  0.31886058740E+02  0.00000000000E+00 0.  1.
         11    1    3    3    0    0 -0.58441471186E+01 -0.13746232499E+02  0.60050259058E+01  0.16098860204E+02  0.51100000000E-03 0. -1.
        -11    1    3    3    0    0  0.66569501387E+01  0.12718726851E+02  0.30179499313E+02  0.33419802168E+02  0.51100000000E-03 0.  1.
         12    1    3    3    0    0  0.14214338097E+00 -0.80067526065E+01 -0.56199869913E+01  0.97832788893E+01  0.00000000000E+00 0. -1.
</event>
<event>
 7    1  0.1202531E-011  0.5930194E+02  0.7816164E-02  0.1266605E+00
        -11   -1    0    0    0    0  0.00000000000E+00  0.00000000000E+00  0.45593999997E+02  0.45594000000E+02  0.51100000000E-03 0. -1.
         11   -1    0    0    0    0 -0.00000000000E+00 -0.00000000000E+00 -0.45593999997E+02  0.45594000000E+02  0.51100000000E-03 0.  1.
    9900012    2    1    2    0    0  0.12436652541E+02  0.26728872720E+02  0.12149811026E+02  0.59301939232E+02  0.49999991254E+02 0.  0.
        -12    1    1    2    0    0 -0.12436652541E+02 -0.26728872720E+02 -0.12149811026E+02  0.31886060768E+02  0.00000000000E+00 0.  1.
         11    1    3    3    0    0  0.20466993960E+02  0.26145953736E+02  0.19979036147E+01  0.33264100133E+02  0.51100000000E-03 0. -1.
        -11    1    3    3    0    0  0.63761811762E+01  0.58180739039E+01  0.41346011290E+01  0.95708200850E+01  0.51100000000E-03 0.  1.
        -12    1    3    3    0    0 -0.14406522596E+02 -0.52351549193E+01  0.60173062818E+01  0.16467019014E+02  0.00000000000E+00 0.  1.
</event>
<event>
 7    1  0.1202531E-011  0.5930194E+02  0.7816164E-02  0.1266605E+00
        -11   -1    0    0    0    0  0.00000000000E+00  0.00000000000E+00  0.45593999997E+02  0.45594000000E+02  0.51100000000E-03 0. -1.
         11   -1    0    0    0    0 -0.00000000000E+00 -0.00000000000E+00 -0.45593999997E+02  0.45594000000E+02  0.51100000000E-03 0.  1.
    9900012    2    1    2    0    0  0.12885426826E+02 -0.20660522381E+02  0.20587117758E+02  0.59301939925E+02  0.49999992517E+02 0.  0.
        -12    1    1    2    0    0 -0.12885426826E+02  0.20660522381E+02 -0.20587117758E+02  0.31886060075E+02  0.00000000000E+00 0.  1.
         11    1    3    3    0    0 -0.36266841893E+01 -0.17246163578E+02 -0.48517861318E+01  0.18279026924E+02  0.51100000000E-03 0. -1.
        -11    1    3    3    0    0  0.75320651617E+01 -0.94906065056E+01 -0.12840265182E+01  0.12184102011E+02  0.51100000000E-03 0.  1.
         12    1    3    3    0    0  0.89800458534E+01  0.60762477031E+01  0.26722930409E+02  0.28838810990E+02  0.00000000000E+00 0. -1.
</event>
<event>
 7    1  0.1202531E-011  0.5930178E+02  0.7816164E-02  0.1266605E+00
        -11   -1    0    0    0    0  0.00000000000E+00  0.00000000000E+00  0.45593999997E+02  0.45594000000E+02  0.51100000000E-03 0. -1.
         11   -1    0    0    0    0 -0.00000000000E+00 -0.00000000000E+00 -0.45593999997E+02  0.45594000000E+02  0.51100000000E-03 0.  1.
    9900012    2    1    2    0    0 -0.18755251505E+02  0.13378321118E+01  0.25752321657E+02  0.59301775317E+02  0.49999692312E+02 0.  0.
        -12    1    1    2    0    0  0.18755251505E+02 -0.13378321118E+01 -0.25752321657E+02  0.31886224683E+02  0.00000000000E+00 0.  1.
         11    1    3    3    0    0  0.40872380118E+00 -0.73171385087E+01 -0.28935105424E-01  0.73286020906E+01  0.51100000000E-03 0. -1.
        -11    1    3    3    0    0 -0.10435180695E+01  0.28773719807E+01 -0.10539013284E+02  0.10974470408E+02  0.51100000000E-03 0.  1.
         12    1    3    3    0    0 -0.18120457237E+02  0.57775986398E+01  0.36320270047E+02  0.40998702818E+02  0.00000000000E+00 0. -1.
</event>
<event>
 7    1  0.1202531E-011  0.5930202E+02  0.7816164E-02  0.1266605E+00
        -11   -1    0    0    0    0  0.00000000000E+00  0.00000000000E+00  0.45593999997E+02  0.45594000000E+02  0.51100000000E-03 0. -1.
         11   -1    0    0    0    0 -0.00000000000E+00 -0.00000000000E+00 -0.45593999997E+02  0.45594000000E+02  0.51100000000E-03 0.  1.
    9900012    2    1    2    0    0 -0.29935010556E+02  0.10627645797E+02 -0.27684466350E+01  0.59302015478E+02  0.50000130308E+02 0.  0.
        -12    1    1    2    0    0  0.29935010556E+02 -0.10627645797E+02  0.27684466350E+01  0.31885984522E+02  0.00000000000E+00 0.  1.
         11    1    3    3    0    0 -0.10901088484E+02 -0.85815447649E+01 -0.94657487054E+01  0.16795149285E+02  0.51100000000E-03 0. -1.
        -11    1    3    3    0    0  0.74773156349E+01  0.10914821480E+02 -0.20399322625E+01  0.13386743477E+02  0.51100000000E-03 0.  1.
         12    1    3    3    0    0 -0.26511237706E+02  0.82943690821E+01  0.87372343329E+01  0.29120122716E+02  0.00000000000E+00 0. -1.
</event>
<event>
 7    1  0.1202531E-011  0.5930194E+02  0.7816164E-02  0.1266605E+00
        -11   -1    0    0    0    0  0.00000000000E+00  0.00000000000E+00  0.45593999997E+02  0.45594000000E+02  0.51100000000E-03 0. -1.
         11   -1    0    0    0    0 -0.00000000000E+00 -0.00000000000E+00 -0.45593999997E+02  0.45594000000E+02  0.51100000000E-03 0.  1.
    9900012    2    1    2    0    0 -0.27621251305E+02  0.82380533786E+01  0.13635305953E+02  0.59301943242E+02  0.49999998568E+02 0.  0.
        -12    1    1    2    0    0  0.27621251305E+02 -0.82380533786E+01 -0.13635305953E+02  0.31886056758E+02  0.00000000000E+00 0.  1.
         11    1    3    3    0    0 -0.17060608793E+02  0.11438801211E+01  0.13878320265E+02  0.22022275263E+02  0.51100000000E-03 0. -1.
        -11    1    3    3    0    0 -0.13338594287E+02  0.18549460097E+02  0.64295655046E+01  0.23734782078E+02  0.51100000000E-03 0.  1.
        -12    1    3    3    0    0  0.27779517754E+01 -0.11455286840E+02 -0.66725798169E+01  0.13544885901E+02  0.00000000000E+00 0.  1.
</event>
<event>
 7    1  0.1202531E-011  0.5930194E+02  0.7816164E-02  0.1266605E+00
        -11   -1    0    0    0    0  0.00000000000E+00  0.00000000000E+00  0.45593999997E+02  0.45594000000E+02  0.51100000000E-03 0.  1.
         11   -1    0    0    0    0 -0.00000000000E+00 -0.00000000000E+00 -0.45593999997E+02  0.45594000000E+02  0.51100000000E-03 0. -1.
    9900012    2    1    2    0    0  0.45301774099E+00 -0.20986358873E+02 -0.24001844152E+02  0.59301937112E+02  0.49999987387E+02 0.  0.
        -12    1    1    2    0    0 -0.45301774099E+00  0.20986358873E+02  0.24001844152E+02  0.31886062888E+02  0.00000000000E+00 0.  1.
         11    1    3    3    0    0  0.16632536011E+01 -0.13290877608E+02 -0.12186832892E+02  0.18108913174E+02  0.51100000000E-03 0. -1.
        -11    1    3    3    0    0  0.51252723761E+01 -0.16074949133E+02  0.80706632757E+01  0.18703155149E+02  0.51100000000E-03 0.  1.
         12    1    3    3    0    0 -0.63355082362E+01  0.83794678692E+01 -0.19885674536E+02  0.22489868789E+02  0.00000000000E+00 0. -1.
</event>
<event>
 7    1  0.1202531E-011  0.5930193E+02  0.7816164E-02  0.1266605E+00
        -11   -1    0    0    0    0  0.00000000000E+00  0.00000000000E+00  0.45593999997E+02  0.45594000000E+02  0.51100000000E-03 0. -1.
         11   -1    0    0    0    0 -0.00000000000E+00 -0.00000000000E+00 -0.45593999997E+02  0.45594000000E+02  0.51100000000E-03 0.  1.
    9900012    2    1    2    0    0  0.30846820111E+02 -0.54227558880E+01  0.59823622861E+01  0.59301933280E+02  0.49999980398E+02 0.  0.
        -12    1    1    2    0    0 -0.30846820111E+02  0.54227558880E+01 -0.59823622861E+01  0.31886066720E+02  0.00000000000E+00 0.  1.
         11    1    3    3    0    0  0.22543473821E+02  0.54089759130E+00 -0.83530784073E+00  0.22565427573E+02  0.51100000000E-03 0. -1.
        -11    1    3    3    0    0  0.13235728264E+02 -0.56302319070E+01  0.18860049485E+02  0.23718884477E+02  0.51100000000E-03 0.  1.
        -12    1    3    3    0    0 -0.49323819736E+01 -0.33342157238E+00 -0.12042379358E+02  0.13017621230E+02  0.00000000000E+00 0.  1.
</event>
<event>
 7    1  0.1202531E-011  0.5930192E+02  0.7816164E-02  0.1266605E+00
        -11   -1    0    0    0    0  0.00000000000E+00  0.00000000000E+00  0.45593999997E+02  0.45594000000E+02  0.51100000000E-03 0.  1.
         11   -1    0    0    0    0 -0.00000000000E+00 -0.00000000000E+00 -0.45593999997E+02  0.45594000000E+02  0.51100000000E-03 0. -1.
    9900012    2    1    2    0    0 -0.17229462788E+02 -0.16741864191E+02  0.20966103936E+02  0.59301922806E+02  0.49999961297E+02 0.  0.
        -12    1    1    2    0    0  0.17229462788E+02  0.16741864191E+02 -0.20966103936E+02  0.31886077194E+02  0.00000000000E+00 0.  1.
         11    1    3    3    0    0 -0.21844845245E+02 -0.17231458720E+02 -0.36140617185E+01  0.28056761676E+02  0.51100000000E-03 0. -1.
        -11    1    3    3    0    0 -0.35151739515E+01  0.17035220202E+01 -0.12793874884E+01  0.41103853578E+01  0.51100000000E-03 0.  1.
        -12    1    3    3    0    0  0.81305564084E+01 -0.12139274909E+01  0.25859553143E+02  0.27134775772E+02  0.00000000000E+00 0.  1.
</event>
<event>
 7    1  0.1202531E-011  0.5930196E+02  0.7816164E-02  0.1266605E+00
        -11   -1    0    0    0    0  0.00000000000E+00  0.00000000000E+00  0.45593999997E+02  0.45594000000E+02  0.51100000000E-03 0.  1.
         11   -1    0    0    0    0 -0.00000000000E+00 -0.00000000000E+00 -0.45593999997E+02  0.45594000000E+02  0.51100000000E-03 0. -1.
    9900012    2    1    2    0    0 -0.15142792877E+02 -0.20023008830E+02 -0.19659464214E+02  0.59301959294E+02  0.50000027842E+02 0.  0.
        -12    1    1    2    0    0  0.15142792877E+02  0.20023008830E+02  0.19659464214E+02  0.31886040706E+02  0.00000000000E+00 0.  1.
         11    1    3    3    0    0  0.84494340660E+01  0.66429232701E+01 -0.14774436575E+02  0.18270340499E+02  0.51100000000E-03 0.  1.
        -11    1    3    3    0    0 -0.42194540313E+01 -0.15901547287E+02 -0.85934646248E+01  0.18560997629E+02  0.51100000000E-03 0. -1.
        -12    1    3    3    0    0 -0.19372772912E+02 -0.10764384813E+02  0.37084369859E+01  0.22470621166E+02  0.00000000000E+00 0.  1.
</event>
<event>
 7    1  0.1202531E-011  0.5930224E+02  0.7816164E-02  0.1266604E+00
        -11   -1    0    0    0    0  0.00000000000E+00  0.00000000000E+00  0.45593999997E+02  0.45594000000E+02  0.51100000000E-03 0. -1.
         11   -1    0    0    0    0 -0.00000000000E+00 -0.00000000000E+00 -0.45593999997E+02  0.45594000000E+02  0.51100000000E-03 0.  1.
    9900012    2    1    2    0    0 -0.29135578587E+02 -0.82716881913E+01  0.99698982208E+01  0.59302240864E+02  0.50000541355E+02 0.  0.
        -12    1    1    2    0    0  0.29135578587E+02  0.82716881913E+01 -0.99698982208E+01  0.31885759136E+02  0.00000000000E+00 0.  1.
         11    1    3    3    0    0 -0.91992858751E+01  0.15147200402E+01  0.18463450679E+02  0.20683816105E+02  0.51100000000E-03 0. -1.
        -11    1    3    3    0    0  0.94300714097E+00 -0.14534340525E+02  0.21227244201E+01  0.14718772917E+02  0.51100000000E-03 0.  1.
        -12    1    3    3    0    0 -0.20879299853E+02  0.47479322935E+01 -0.10616276879E+02  0.23899651842E+02  0.00000000000E+00 0.  1.
</event>
<event>
 7    1  0.1202531E-011  0.5930196E+02  0.7816164E-02  0.1266605E+00
        -11   -1    0    0    0    0  0.00000000000E+00  0.00000000000E+00  0.45593999997E+02  0.45594000000E+02  0.51100000000E-03 0.  1.
         11   -1    0    0    0    0 -0.00000000000E+00 -0.00000000000E+00 -0.45593999997E+02  0.45594000000E+02  0.51100000000E-03 0. -1.
    9900012    2    1    2    0    0  0.19678676601E+02 -0.63194877704E+01 -0.24280312929E+02  0.59301955492E+02  0.50000020908E+02 0.  0.
        -12    1    1    2    0    0 -0.19678676601E+02  0.63194877704E+01  0.24280312929E+02  0.31886044508E+02  0.00000000000E+00 0.  1.
         11    1    3    3    0    0 -0.14377712301E+01 -0.44721635047E+01 -0.15988676669E+02  0.16664489624E+02  0.51100000000E-03 0. -1.
        -11    1    3    3    0    0  0.52960369620E+01 -0.17680649587E+02  0.81130391541E+00  0.18474620203E+02  0.51100000000E-03 0.  1.
         12    1    3    3    0    0  0.15820410869E+02  0.15833325322E+02 -0.91029401748E+01  0.24162845665E+02  0.00000000000E+00 0. -1.
</event>
<event>
 7    1  0.1202531E-011  0.5930198E+02  0.7816164E-02  0.1266605E+00
        -11   -1    0    0    0    0  0.00000000000E+00  0.00000000000E+00  0.45593999997E+02  0.45594000000E+02  0.51100000000E-03 0.  1.
         11   -1    0    0    0    0 -0.00000000000E+00 -0.00000000000E+00 -0.45593999997E+02  0.45594000000E+02  0.51100000000E-03 0. -1.
    9900012    2    1    2    0    0  0.87870873062E+01  0.27226343436E+02 -0.14079475676E+02  0.59301979309E+02  0.50000064344E+02 0.  0.
        -12    1    1    2    0    0 -0.87870873062E+01 -0.27226343436E+02  0.14079475676E+02  0.31886020691E+02  0.00000000000E+00 0.  1.
         11    1    3    3    0    0  0.12850665195E+02  0.18662476469E+01  0.98892311052E+01  0.16322357929E+02  0.51100000000E-03 0. -1.
        -11    1    3    3    0    0  0.61139137096E+01 -0.16679164675E+01 -0.71676157420E+01  0.95674762543E+01  0.51100000000E-03 0.  1.
         12    1    3    3    0    0 -0.10177491599E+02  0.27028012257E+02 -0.16801091039E+02  0.33412145126E+02  0.00000000000E+00 0. -1.
</event>
<event>
 7    1  0.1202531E-011  0.5930192E+02  0.7816164E-02  0.1266605E+00
        -11   -1    0    0    0    0  0.00000000000E+00  0.00000000000E+00  0.45593999997E+02  0.45594000000E+02  0.51100000000E-03 0.  1.
         11   -1    0    0    0    0 -0.00000000000E+00 -0.00000000000E+00 -0.45593999997E+02  0.45594000000E+02  0.51100000000E-03 0. -1.
    9900012    2    1    2    0    0  0.28063664585E+02 -0.50067676784E+01 -0.14285845357E+02  0.59301915730E+02  0.49999948392E+02 0.  0.
        -12    1    1    2    0    0 -0.28063664585E+02  0.50067676784E+01  0.14285845357E+02  0.31886084270E+02  0.00000000000E+00 0.  1.
         11    1    3    3    0    0 -0.84784177078E+01  0.58000244879E+01 -0.53773493870E+01  0.11594815116E+02  0.51100000000E-03 0. -1.
        -11    1    3    3    0    0 -0.34152211462E+01 -0.33815000595E+01  0.26045843888E+01  0.54664557283E+01  0.51100000000E-03 0.  1.
         12    1    3    3    0    0  0.39957303439E+02 -0.74252921068E+01 -0.11513080358E+02  0.42240644885E+02  0.00000000000E+00 0. -1.
</event>
<event>
 7    1  0.1202531E-011  0.5930158E+02  0.7816164E-02  0.1266606E+00
        -11   -1    0    0    0    0  0.00000000000E+00  0.00000000000E+00  0.45593999997E+02  0.45594000000E+02  0.51100000000E-03 0.  1.
         11   -1    0    0    0    0 -0.00000000000E+00 -0.00000000000E+00 -0.45593999997E+02  0.45594000000E+02  0.51100000000E-03 0. -1.
    9900012    2    1    2    0    0 -0.16092307866E+02  0.28408272347E+01 -0.27380852638E+02  0.59301580273E+02  0.49999336594E+02 0.  0.
        -12    1    1    2    0    0  0.16092307866E+02 -0.28408272347E+01  0.27380852638E+02  0.31886419727E+02  0.00000000000E+00 0.  1.
         11    1    3    3    0    0  0.92573961411E+01  0.67692563123E+00 -0.19875845997E+01  0.94925288741E+01  0.51100000000E-03 0. -1.
        -11    1    3    3    0    0 -0.79238420223E+01 -0.14237700649E+02 -0.19018342785E+02  0.25043896556E+02  0.51100000000E-03 0.  1.
        -12    1    3    3    0    0 -0.17425861985E+02  0.16401602253E+02 -0.63749252539E+01  0.24765154842E+02  0.00000000000E+00 0.  1.
</event>
<event>
 7    1  0.1202531E-011  0.5930195E+02  0.7816164E-02  0.1266605E+00
        -11   -1    0    0    0    0  0.00000000000E+00  0.00000000000E+00  0.45593999997E+02  0.45594000000E+02  0.51100000000E-03 0. -1.
         11   -1    0    0    0    0 -0.00000000000E+00 -0.00000000000E+00 -0.45593999997E+02  0.45594000000E+02  0.51100000000E-03 0.  1.
    9900012    2    1    2    0    0 -0.10844984253E+02 -0.28811573164E+02  0.83065988178E+01  0.59301952651E+02  0.50000015727E+02 0.  0.
        -12    1    1    2    0    0  0.10844984253E+02  0.28811573164E+02 -0.83065988178E+01  0.31886047349E+02  0.00000000000E+00 0.  1.
         11    1    3    3    0    0 -0.87322602641E+00  0.30581072876E+01  0.96896803221E+01  0.10198257149E+02  0.51100000000E-03 0. -1.
        -11    1    3    3    0    0  0.13520082128E+02 -0.11237695127E+02  0.18187671820E+01  0.17674454075E+02  0.51100000000E-03 0.  1.
         12    1    3    3    0    0 -0.23491840354E+02 -0.20631985325E+02 -0.32018486862E+01  0.31429241427E+02  0.00000000000E+00 0. -1.
</event>
<event>
 7    1  0.1202531E-011  0.5930194E+02  0.7816164E-02  0.1266605E+00
        -11   -1    0    0    0    0  0.00000000000E+00  0.00000000000E+00  0.45593999997E+02  0.45594000000E+02  0.51100000000E-03 0.  1.
         11   -1    0    0    0    0 -0.00000000000E+00 -0.00000000000E+00 -0.45593999997E+02  0.45594000000E+02  0.51100000000E-03 0. -1.
    9900012    2    1    2    0    0  0.22528194797E+02  0.21189466244E+02  0.77593534327E+01  0.59301943389E+02  0.49999998835E+02 0.  0.
        -12    1    1    2    0    0 -0.22528194797E+02 -0.21189466244E+02 -0.77593534327E+01  0.31886056611E+02  0.00000000000E+00 0.  1.
         11    1    3    3    0    0  0.92590372099E+01  0.84474848006E+01  0.22146912348E+01  0.12727710990E+02  0.51100000000E-03 0. -1.
        -11    1    3    3    0    0  0.16771320276E+02 -0.11151286136E+02  0.92151548362E+01  0.22148305696E+02  0.51100000000E-03 0.  1.
         12    1    3    3    0    0 -0.35021626888E+01  0.23893267580E+02 -0.36704926382E+01  0.24425926704E+02  0.00000000000E+00 0. -1.
</event>
<event>
 7    1  0.1202531E-011  0.5930194E+02  0.7816164E-02  0.1266605E+00
        -11   -1    0    0    0    0  0.00000000000E+00  0.00000000000E+00  0.45593999997E+02  0.45594000000E+02  0.51100000000E-03 0.  1.
         11   -1    0    0    0    0 -0.00000000000E+00 -0.00000000000E+00 -0.45593999997E+02  0.45594000000E+02  0.51100000000E-03 0. -1.
    9900012    2    1    2    0    0 -0.12300535016E+02  0.29861534213E+01 -0.29266031056E+02  0.59301939602E+02  0.49999991929E+02 0.  0.
        -12    1    1    2    0    0  0.12300535016E+02 -0.29861534213E+01  0.29266031056E+02  0.31886060398E+02  0.00000000000E+00 0.  1.
         11    1    3    3    0    0  0.28869305653E+01 -0.15462908456E+01 -0.21464195100E+02  0.21712601296E+02  0.51100000000E-03 0.  1.
        -11    1    3    3    0    0 -0.75255465906E+01 -0.19855100496E+01 -0.20186023346E+02  0.21634501159E+02  0.51100000000E-03 0. -1.
        -12    1    3    3    0    0 -0.76619189903E+01  0.65179543165E+01  0.12384187390E+02  0.15954837147E+02  0.00000000000E+00 0.  1.
</event>
<event>
 7    1  0.1202531E-011  0.5930196E+02  0.7816164E-02  0.1266605E+00
        -11   -1    0    0    0    0  0.00000000000E+00  0.00000000000E+00  0.45593999997E+02  0.45594000000E+02  0.51100000000E-03 0.  1.
         11   -1    0    0    0    0 -0.00000000000E+00 -0.00000000000E+00 -0.45593999997E+02  0.45594000000E+02  0.51100000000E-03 0. -1.
    9900012    2    1    2    0    0 -0.21490627601E+02 -0.20831583024E+02 -0.10996267935E+02  0.59301955491E+02  0.50000020905E+02 0.  0.
        -12    1    1    2    0    0  0.21490627601E+02  0.20831583024E+02  0.10996267935E+02  0.31886044509E+02  0.00000000000E+00 0.  1.
         11    1    3    3    0    0  0.11286690434E+01  0.56695725740E+01  0.23373603534E+00  0.57855492200E+01  0.51100000000E-03 0.  1.
        -11    1    3    3    0    0 -0.10855193062E+02 -0.31925082526E+02  0.34990281790E+01  0.33901169732E+02  0.51100000000E-03 0. -1.
         12    1    3    3    0    0 -0.11764103582E+02  0.54239269284E+01 -0.14729032149E+02  0.19615236539E+02  0.00000000000E+00 0. -1.
</event>
<event>
 7    1  0.1202531E-011  0.5930194E+02  0.7816164E-02  0.1266605E+00
        -11   -1    0    0    0    0  0.00000000000E+00  0.00000000000E+00  0.45593999997E+02  0.45594000000E+02  0.51100000000E-03 0. -1.
         11   -1    0    0    0    0 -0.00000000000E+00 -0.00000000000E+00 -0.45593999997E+02  0.45594000000E+02  0.51100000000E-03 0.  1.
    9900012    2    1    2    0    0 -0.48870353866E+01  0.25849807730E+02  0.18017363032E+02  0.59301936506E+02  0.49999986282E+02 0.  0.
        -12    1    1    2    0    0  0.48870353866E+01 -0.25849807730E+02 -0.18017363032E+02  0.31886063494E+02  0.00000000000E+00 0.  1.
         11    1    3    3    0    0 -0.69084056094E+01  0.40929116187E+01  0.12164938087E+01  0.81214439005E+01  0.51100000000E-03 0. -1.
        -11    1    3    3    0    0 -0.27422085603E+01 -0.47743822379E+01  0.22892434488E+02  0.23545232863E+02  0.51100000000E-03 0.  1.
         12    1    3    3    0    0  0.47635787831E+01  0.26531278349E+02 -0.60915652646E+01  0.27635259742E+02  0.00000000000E+00 0. -1.
</event>
<event>
 7    1  0.1202531E-011  0.5930211E+02  0.7816164E-02  0.1266604E+00
        -11   -1    0    0    0    0  0.00000000000E+00  0.00000000000E+00  0.45593999997E+02  0.45594000000E+02  0.51100000000E-03 0.  1.
         11   -1    0    0    0    0 -0.00000000000E+00 -0.00000000000E+00 -0.45593999997E+02  0.45594000000E+02  0.51100000000E-03 0. -1.
    9900012    2    1    2    0    0  0.53224028621E+01  0.12190113916E+02 -0.28979014280E+02  0.59302107850E+02  0.50000298772E+02 0.  0.
        -12    1    1    2    0    0 -0.53224028621E+01 -0.12190113916E+02  0.28979014280E+02  0.31885892150E+02  0.00000000000E+00 0.  1.
         11    1    3    3    0    0  0.12676283779E+02 -0.55663837039E+01 -0.24858095274E+01  0.14065989025E+02  0.51100000000E-03 0. -1.
        -11    1    3    3    0    0  0.10363406800E+01 -0.74829275399E+01 -0.13872969543E+02  0.15796439180E+02  0.51100000000E-03 0.  1.
        -12    1    3    3    0    0 -0.83902215972E+01  0.25239425160E+02 -0.12620235210E+02  0.29439679645E+02  0.00000000000E+00 0.  1.
</event>
<event>
 7    1  0.1202531E-011  0.5930194E+02  0.7816164E-02  0.1266605E+00
        -11   -1    0    0    0    0  0.00000000000E+00  0.00000000000E+00  0.45593999997E+02  0.45594000000E+02  0.51100000000E-03 0. -1.
         11   -1    0    0    0    0 -0.00000000000E+00 -0.00000000000E+00 -0.45593999997E+02  0.45594000000E+02  0.51100000000E-03 0.  1.
    9900012    2    1    2    0    0  0.62442856551E+01  0.17199381443E+02  0.26113429417E+02  0.59301936880E+02  0.49999986964E+02 0.  0.
        -12    1    1    2    0    0 -0.62442856551E+01 -0.17199381443E+02 -0.26113429417E+02  0.31886063120E+02  0.00000000000E+00 0.  1.
         11    1    3    3    0    0 -0.11267454614E+02 -0.12684104942E+01 -0.13706004056E+01  0.11421162129E+02  0.51100000000E-03 0.  1.
        -11    1    3    3    0    0  0.84910249038E+01 -0.66814951333E+01  0.14748083559E+02  0.18282391803E+02  0.51100000000E-03 0. -1.
        -12    1    3    3    0    0  0.90207153649E+01  0.25149287071E+02  0.12735946264E+02  0.29598382947E+02  0.00000000000E+00 0.  1.
</event>
<event>
 7    1  0.1202531E-011  0.5930197E+02  0.7816164E-02  0.1266605E+00
        -11   -1    0    0    0    0  0.00000000000E+00  0.00000000000E+00  0.45593999997E+02  0.45594000000E+02  0.51100000000E-03 0. -1.
         11   -1    0    0    0    0 -0.00000000000E+00 -0.00000000000E+00 -0.45593999997E+02  0.45594000000E+02  0.51100000000E-03 0.  1.
    9900012    2    1    2    0    0  0.83107336532E+01 -0.27168601560E+00  0.30782740527E+02  0.59301965103E+02  0.50000038435E+02 0.  0.
        -12    1    1    2    0    0 -0.83107336532E+01  0.27168601560E+00 -0.30782740527E+02  0.31886034897E+02  0.00000000000E+00 0.  1.
         11    1    3    3    0    0  0.17631149977E+02 -0.39717219127E+01  0.28554483206E+02  0.33793350469E+02  0.51100000000E-03 0. -1.
        -11    1    3    3    0    0  0.62577349315E+01  0.44343026412E+01  0.56700299442E+01  0.95378994656E+01  0.51100000000E-03 0.  1.
         12    1    3    3    0    0 -0.15578151255E+02 -0.73426674411E+00 -0.34417726236E+01  0.15970715168E+02  0.00000000000E+00 0. -1.
</event>
<event>
 7    1  0.1244762E-011  0.5930195E+02  0.7816164E-02  0.1266605E+00
        -11   -1    0    0    0    0  0.00000000000E+00  0.00000000000E+00  0.45593999997E+02  0.45594000000E+02  0.51100000000E-03 0. -1.
         11   -1    0    0    0    0 -0.00000000000E+00 -0.00000000000E+00 -0.45593999997E+02  0.45594000000E+02  0.51100000000E-03 0.  1.
    9900012    2    1    2    0    0 -0.54865848043E+01 -0.11630629486E+02  0.29177833095E+02  0.59301951339E+02  0.50000013334E+02 0.  0.
        -12    1    1    2    0    0  0.54865848043E+01  0.11630629486E+02 -0.29177833095E+02  0.31886048661E+02  0.00000000000E+00 0.  1.
         11    1    3    3    0    0 -0.49324932382E+01 -0.11269843439E+02  0.21989471826E+02  0.25196740506E+02  0.51100000000E-03 0. -1.
        -11    1    3    3    0    0  0.12516002947E+02 -0.17453373898E+01  0.14363256128E+02  0.19131117563E+02  0.51100000000E-03 0.  1.
        -12    1    3    3    0    0 -0.13070094513E+02  0.13845513425E+01 -0.71748948589E+01  0.14974093269E+02  0.00000000000E+00 0.  1.
</event>
<event>
 7    1  0.1202531E-011  0.5930194E+02  0.7816164E-02  0.1266605E+00
        -11   -1    0    0    0    0  0.00000000000E+00  0.00000000000E+00  0.45593999997E+02  0.45594000000E+02  0.51100000000E-03 0. -1.
         11   -1    0    0    0    0 -0.00000000000E+00 -0.00000000000E+00 -0.45593999997E+02  0.45594000000E+02  0.51100000000E-03 0.  1.
    9900012    2    1    2    0    0 -0.54103191523E+01  0.24421640745E+02  0.19774544741E+02  0.59301941766E+02  0.49999995875E+02 0.  0.
        -12    1    1    2    0    0  0.54103191523E+01 -0.24421640745E+02 -0.19774544741E+02  0.31886058234E+02  0.00000000000E+00 0.  1.
         11    1    3    3    0    0 -0.82078236480E+01 -0.29938497532E+01 -0.34708836469E+00  0.87436820605E+01  0.51100000000E-03 0. -1.
        -11    1    3    3    0    0  0.40589172742E+01  0.39922400296E+01 -0.10524195336E+02  0.11965428434E+02  0.51100000000E-03 0.  1.
         12    1    3    3    0    0 -0.12614127784E+01  0.23423250469E+02  0.30645828441E+02  0.38592831271E+02  0.00000000000E+00 0. -1.
</event>
<event>
 7    1  0.1202531E-011  0.5930192E+02  0.7816164E-02  0.1266605E+00
        -11   -1    0    0    0    0  0.00000000000E+00  0.00000000000E+00  0.45593999997E+02  0.45594000000E+02  0.51100000000E-03 0. -1.
         11   -1    0    0    0    0 -0.00000000000E+00 -0.00000000000E+00 -0.45593999997E+02  0.45594000000E+02  0.51100000000E-03 0.  1.
    9900012    2    1    2    0    0 -0.27215650774E+02 -0.52063110909E+01  0.15777348730E+02  0.59301920668E+02  0.49999957398E+02 0.  0.
        -12    1    1    2    0    0  0.27215650774E+02  0.52063110909E+01 -0.15777348730E+02  0.31886079332E+02  0.00000000000E+00 0.  1.
         11    1    3    3    0    0  0.44841536460E+01 -0.77465268097E+01 -0.27667721348E+01  0.93686359648E+01  0.51100000000E-03 0. -1.
        -11    1    3    3    0    0 -0.92060550919E-01  0.21328897421E+01 -0.82333665903E+01  0.85056463286E+01  0.51100000000E-03 0.  1.
         12    1    3    3    0    0 -0.31607743869E+02  0.40732597672E+00  0.26777487455E+02  0.41427638375E+02  0.00000000000E+00 0. -1.
</event>
<event>
 7    1  0.1202531E-011  0.5930192E+02  0.7816164E-02  0.1266605E+00
        -11   -1    0    0    0    0  0.00000000000E+00  0.00000000000E+00  0.45593999997E+02  0.45594000000E+02  0.51100000000E-03 0.  1.
         11   -1    0    0    0    0 -0.00000000000E+00 -0.00000000000E+00 -0.45593999997E+02  0.45594000000E+02  0.51100000000E-03 0. -1.
    9900012    2    1    2    0    0 -0.16009250856E+02 -0.29137758694E+01 -0.27421446686E+02  0.59301922456E+02  0.49999960658E+02 0.  0.
        -12    1    1    2    0    0  0.16009250856E+02  0.29137758694E+01  0.27421446686E+02  0.31886077544E+02  0.00000000000E+00 0.  1.
         11    1    3    3    0    0  0.10451746765E+02 -0.12221298341E+02 -0.11831670304E+02  0.19964657924E+02  0.51100000000E-03 0. -1.
        -11    1    3    3    0    0 -0.58197638797E+01 -0.74461179851E+01 -0.52633306221E+01  0.10817438429E+02  0.51100000000E-03 0.  1.
         12    1    3    3    0    0 -0.20641233741E+02  0.16753640457E+02 -0.10326445759E+02  0.28519826103E+02  0.00000000000E+00 0. -1.
</event>
<event>
 7    1  0.1202531E-011  0.5930192E+02  0.7816164E-02  0.1266605E+00
        -11   -1    0    0    0    0  0.00000000000E+00  0.00000000000E+00  0.45593999997E+02  0.45594000000E+02  0.51100000000E-03 0. -1.
         11   -1    0    0    0    0 -0.00000000000E+00 -0.00000000000E+00 -0.45593999997E+02  0.45594000000E+02  0.51100000000E-03 0.  1.
    9900012    2    1    2    0    0 -0.23846416451E+02 -0.17618123629E+02  0.11733380215E+02  0.59301920451E+02  0.49999957001E+02 0.  0.
        -12    1    1    2    0    0  0.23846416451E+02  0.17618123629E+02 -0.11733380215E+02  0.31886079549E+02  0.00000000000E+00 0.  1.
         11    1    3    3    0    0  0.40574671315E+01 -0.11953028882E+02  0.11063430720E+02  0.16785036149E+02  0.51100000000E-03 0. -1.
        -11    1    3    3    0    0 -0.23654142325E+02 -0.17761820613E+02 -0.93584052781E+00  0.29595211072E+02  0.51100000000E-03 0.  1.
        -12    1    3    3    0    0 -0.42497412579E+01  0.12096725867E+02  0.16057900226E+01  0.12921673230E+02  0.00000000000E+00 0.  1.
</event>
<event>
 7    1  0.1202531E-011  0.5930164E+02  0.7816164E-02  0.1266606E+00
        -11   -1    0    0    0    0  0.00000000000E+00  0.00000000000E+00  0.45593999997E+02  0.45594000000E+02  0.51100000000E-03 0.  1.
         11   -1    0    0    0    0 -0.00000000000E+00 -0.00000000000E+00 -0.45593999997E+02  0.45594000000E+02  0.51100000000E-03 0. -1.
    9900012    2    1    2    0    0 -0.31498845852E+02 -0.37361997645E+01  0.32563004460E+01  0.59301639729E+02  0.49999445030E+02 0.  0.
        -12    1    1    2    0    0  0.31498845852E+02  0.37361997645E+01 -0.32563004460E+01  0.31886360271E+02  0.00000000000E+00 0.  1.
         11    1    3    3    0    0 -0.99222067414E+01 -0.53272351666E+01  0.26348397556E+00  0.11264947634E+02  0.51100000000E-03 0. -1.
        -11    1    3    3    0    0 -0.21908548444E+02  0.18160215403E+02 -0.61441101606E+01  0.29112334299E+02  0.51100000000E-03 0.  1.
         12    1    3    3    0    0  0.33190933320E+00 -0.16569180001E+02  0.91369266311E+01  0.18924357796E+02  0.00000000000E+00 0. -1.
</event>
<event>
 7    1  0.1202531E-011  0.5930191E+02  0.7816164E-02  0.1266605E+00
        -11   -1    0    0    0    0  0.00000000000E+00  0.00000000000E+00  0.45593999997E+02  0.45594000000E+02  0.51100000000E-03 0.  1.
         11   -1    0    0    0    0 -0.00000000000E+00 -0.00000000000E+00 -0.45593999997E+02  0.45594000000E+02  0.51100000000E-03 0. -1.
    9900012    2    1    2    0    0 -0.88960316889E+01 -0.28649730022E+02 -0.10806297438E+02  0.59301914093E+02  0.49999945407E+02 0.  0.
        -12    1    1    2    0    0  0.88960316889E+01  0.28649730022E+02  0.10806297438E+02  0.31886085907E+02  0.00000000000E+00 0.  1.
         11    1    3    3    0    0 -0.12710725935E+02 -0.12703991504E+01 -0.81250424721E+01  0.15139114348E+02  0.51100000000E-03 0. -1.
        -11    1    3    3    0    0  0.95510654674E+01 -0.68454944685E+01 -0.15373967690E+02  0.19350517535E+02  0.51100000000E-03 0.  1.
        -12    1    3    3    0    0 -0.57363712212E+01 -0.20533836403E+02  0.12692712724E+02  0.24812282211E+02  0.00000000000E+00 0.  1.
</event>
<event>
 7    1  0.1202531E-011  0.5930197E+02  0.7816164E-02  0.1266605E+00
        -11   -1    0    0    0    0  0.00000000000E+00  0.00000000000E+00  0.45593999997E+02  0.45594000000E+02  0.51100000000E-03 0.  1.
         11   -1    0    0    0    0 -0.00000000000E+00 -0.00000000000E+00 -0.45593999997E+02  0.45594000000E+02  0.51100000000E-03 0. -1.
    9900012    2    1    2    0    0 -0.25367419926E+02  0.12355306257E+02  0.14851238490E+02  0.59301970597E+02  0.50000048457E+02 0.  0.
        -12    1    1    2    0    0  0.25367419926E+02 -0.12355306257E+02 -0.14851238490E+02  0.31886029403E+02  0.00000000000E+00 0.  1.
         11    1    3    3    0    0  0.63326965756E+01 -0.36885729074E+01  0.20859451950E+01  0.76196970825E+01  0.51100000000E-03 0. -1.
        -11    1    3    3    0    0 -0.30548405117E+01  0.18701281525E+02 -0.25023621955E+01  0.19113654754E+02  0.51100000000E-03 0.  1.
        -12    1    3    3    0    0 -0.28645275989E+02 -0.26574023611E+01  0.15267655490E+02  0.32568618761E+02  0.00000000000E+00 0.  1.
</event>
<event>
 7    1  0.1202531E-011  0.5930193E+02  0.7816164E-02  0.1266605E+00
        -11   -1    0    0    0    0  0.00000000000E+00  0.00000000000E+00  0.45593999997E+02  0.45594000000E+02  0.51100000000E-03 0. -1.
         11   -1    0    0    0    0 -0.00000000000E+00 -0.00000000000E+00 -0.45593999997E+02  0.45594000000E+02  0.51100000000E-03 0.  1.
    9900012    2    1    2    0    0  0.75539612960E+01  0.23137629537E+02  0.20598766673E+02  0.59301930623E+02  0.49999975554E+02 0.  0.
        -12    1    1    2    0    0 -0.75539612960E+01 -0.23137629537E+02 -0.20598766673E+02  0.31886069377E+02  0.00000000000E+00 0.  1.
         11    1    3    3    0    0 -0.67298361805E+01  0.15265771044E+01  0.89844245492E+00  0.69590467579E+01  0.51100000000E-03 0. -1.
        -11    1    3    3    0    0 -0.42988444092E+01  0.36004733370E+01 -0.10905578955E+02  0.12262753529E+02  0.51100000000E-03 0.  1.
        -12    1    3    3    0    0  0.18582641886E+02  0.18010579095E+02  0.30605903173E+02  0.40080130337E+02  0.00000000000E+00 0.  1.
</event>
<event>
 7    1  0.1202531E-011  0.5930194E+02  0.7816164E-02  0.1266605E+00
        -11   -1    0    0    0    0  0.00000000000E+00  0.00000000000E+00  0.45593999997E+02  0.45594000000E+02  0.51100000000E-03 0.  1.
         11   -1    0    0    0    0 -0.00000000000E+00 -0.00000000000E+00 -0.45593999997E+02  0.45594000000E+02  0.51100000000E-03 0. -1.
    9900012    2    1    2    0    0  0.17731125608E+02 -0.16159515996E+02 -0.21004721798E+02  0.59301935483E+02  0.49999984417E+02 0.  0.
        -12    1    1    2    0    0 -0.17731125608E+02  0.16159515996E+02  0.21004721798E+02  0.31886064517E+02  0.00000000000E+00 0.  1.
         11    1    3    3    0    0  0.28167680586E+01 -0.26484326799E+02  0.86325449235E+00  0.26647682016E+02  0.51100000000E-03 0.  1.
        -11    1    3    3    0    0  0.67489951556E+01  0.68114185853E+01 -0.21743835241E+02  0.23764232156E+02  0.51100000000E-03 0. -1.
        -12    1    3    3    0    0  0.81653623942E+01  0.35133922174E+01 -0.12414104938E+00  0.88900213106E+01  0.00000000000E+00 0.  1.
</event>
<event>
 7    1  0.1202531E-011  0.5930168E+02  0.7816164E-02  0.1266606E+00
        -11   -1    0    0    0    0  0.00000000000E+00  0.00000000000E+00  0.45593999997E+02  0.45594000000E+02  0.51100000000E-03 0.  1.
         11   -1    0    0    0    0 -0.00000000000E+00 -0.00000000000E+00 -0.45593999997E+02  0.45594000000E+02  0.51100000000E-03 0. -1.
    9900012    2    1    2    0    0 -0.38267904946E+01  0.12608435012E+02 -0.29036531326E+02  0.59301684591E+02  0.49999526847E+02 0.  0.
        -12    1    1    2    0    0  0.38267904946E+01 -0.12608435012E+02  0.29036531326E+02  0.31886315409E+02  0.00000000000E+00 0.  1.
         11    1    3    3    0    0 -0.44657215742E+01  0.82739208164E+01  0.55263013023E+01  0.10905981900E+02  0.51100000000E-03 0.  1.
        -11    1    3    3    0    0  0.13108651639E+02 -0.58094615817E+01 -0.27129786807E+02  0.30685695758E+02  0.51100000000E-03 0. -1.
         12    1    3    3    0    0 -0.12469720559E+02  0.10143975777E+02 -0.74330458206E+01  0.17710006933E+02  0.00000000000E+00 0. -1.
</event>
<event>
 7    1  0.1202531E-011  0.5930197E+02  0.7816164E-02  0.1266605E+00
        -11   -1    0    0    0    0  0.00000000000E+00  0.00000000000E+00  0.45593999997E+02  0.45594000000E+02  0.51100000000E-03 0.  1.
         11   -1    0    0    0    0 -0.00000000000E+00 -0.00000000000E+00 -0.45593999997E+02  0.45594000000E+02  0.51100000000E-03 0. -1.
    9900012    2    1    2    0    0 -0.29986698567E+02  0.10839567639E+02  0.14267671973E+00  0.59301973685E+02  0.50000054087E+02 0.  0.
        -12    1    1    2    0    0  0.29986698567E+02 -0.10839567639E+02 -0.14267671973E+00  0.31886026315E+02  0.00000000000E+00 0.  1.
         11    1    3    3    0    0  0.41841593782E+01 -0.29698251495E+01  0.15852266697E+01  0.53702881651E+01  0.51100000000E-03 0. -1.
        -11    1    3    3    0    0 -0.72577181529E+01  0.23556843329E+02  0.34592148522E+01  0.24891072859E+02  0.51100000000E-03 0.  1.
         12    1    3    3    0    0 -0.26913139792E+02 -0.97474505407E+01 -0.49017648023E+01  0.29040612660E+02  0.00000000000E+00 0. -1.
</event>
<event>
 7    1  0.1202531E-011  0.5930196E+02  0.7816164E-02  0.1266605E+00
        -11   -1    0    0    0    0  0.00000000000E+00  0.00000000000E+00  0.45593999997E+02  0.45594000000E+02  0.51100000000E-03 0.  1.
         11   -1    0    0    0    0 -0.00000000000E+00 -0.00000000000E+00 -0.45593999997E+02  0.45594000000E+02  0.51100000000E-03 0. -1.
    9900012    2    1    2    0    0 -0.10735090028E+02  0.31222796874E+01 -0.29861829144E+02  0.59301958726E+02  0.50000026805E+02 0.  0.
        -12    1    1    2    0    0  0.10735090028E+02 -0.31222796874E+01  0.29861829144E+02  0.31886041274E+02  0.00000000000E+00 0.  1.
         11    1    3    3    0    0  0.66967224755E+01  0.85845833279E+01 -0.21363865401E+02  0.23978238217E+02  0.51100000000E-03 0. -1.
        -11    1    3    3    0    0 -0.14863714065E+02  0.92086526996E+01 -0.10344040952E+02  0.20315719623E+02  0.51100000000E-03 0.  1.
        -12    1    3    3    0    0 -0.25680984387E+01 -0.14670956340E+02  0.18460772093E+01  0.15008000886E+02  0.00000000000E+00 0.  1.
</event>
<event>
 7    1  0.1202531E-011  0.5930198E+02  0.7816164E-02  0.1266605E+00
        -11   -1    0    0    0    0  0.00000000000E+00  0.00000000000E+00  0.45593999997E+02  0.45594000000E+02  0.51100000000E-03 0. -1.
         11   -1    0    0    0    0 -0.00000000000E+00 -0.00000000000E+00 -0.45593999997E+02  0.45594000000E+02  0.51100000000E-03 0.  1.
    9900012    2    1    2    0    0 -0.58966821559E+01 -0.16308834462E+02  0.26757603369E+02  0.59301979866E+02  0.50000065360E+02 0.  0.
        -12    1    1    2    0    0  0.58966821559E+01  0.16308834462E+02 -0.26757603369E+02  0.31886020134E+02  0.00000000000E+00 0.  1.
         11    1    3    3    0    0  0.14011214028E+01 -0.28605573441E+02  0.10232894851E+02  0.30413058222E+02  0.51100000000E-03 0. -1.
        -11    1    3    3    0    0 -0.96162951337E+01 -0.44124885330E+00  0.28097938414E+01  0.10028099239E+02  0.51100000000E-03 0.  1.
        -12    1    3    3    0    0  0.23184915750E+01  0.12737987833E+02  0.13714914677E+02  0.18860822406E+02  0.00000000000E+00 0.  1.
</event>
<event>
 7    1  0.1202531E-011  0.5930195E+02  0.7816164E-02  0.1266605E+00
        -11   -1    0    0    0    0  0.00000000000E+00  0.00000000000E+00  0.45593999997E+02  0.45594000000E+02  0.51100000000E-03 0.  1.
         11   -1    0    0    0    0 -0.00000000000E+00 -0.00000000000E+00 -0.45593999997E+02  0.45594000000E+02  0.51100000000E-03 0. -1.
    9900012    2    1    2    0    0 -0.31420684545E+02  0.51039055429E+01 -0.18469095003E+01  0.59301947504E+02  0.50000006340E+02 0.  0.
        -12    1    1    2    0    0  0.31420684545E+02 -0.51039055429E+01  0.18469095003E+01  0.31886052496E+02  0.00000000000E+00 0.  1.
         11    1    3    3    0    0 -0.21091360451E+02  0.48730692270E+01 -0.13057180653E+02  0.25280076270E+02  0.51100000000E-03 0. -1.
        -11    1    3    3    0    0 -0.29036201012E+01  0.46322140125E+01 -0.98476238722E+01  0.11263397025E+02  0.51100000000E-03 0.  1.
        -12    1    3    3    0    0 -0.74257039929E+01 -0.44013776966E+01  0.21057895025E+02  0.22758474209E+02  0.00000000000E+00 0.  1.
</event>
<event>
 7    1  0.1202531E-011  0.5930195E+02  0.7816164E-02  0.1266605E+00
        -11   -1    0    0    0    0  0.00000000000E+00  0.00000000000E+00  0.45593999997E+02  0.45594000000E+02  0.51100000000E-03 0.  1.
         11   -1    0    0    0    0 -0.00000000000E+00 -0.00000000000E+00 -0.45593999997E+02  0.45594000000E+02  0.51100000000E-03 0. -1.
    9900012    2    1    2    0    0  0.93317678546E+01  0.15321772351E+02 -0.26360609789E+02  0.59301947443E+02  0.50000006228E+02 0.  0.
        -12    1    1    2    0    0 -0.93317678546E+01 -0.15321772351E+02  0.26360609789E+02  0.31886052557E+02  0.00000000000E+00 0.  1.
         11    1    3    3    0    0  0.14048273833E+02 -0.45257968977E+01 -0.46565007093E+01  0.15476428347E+02  0.51100000000E-03 0. -1.
        -11    1    3    3    0    0 -0.62857530253E+01  0.18783531187E+02 -0.29649502760E+02  0.35657043471E+02  0.51100000000E-03 0.  1.
         12    1    3    3    0    0  0.15692470467E+01  0.10640380612E+01  0.79453936804E+01  0.81684756244E+01  0.00000000000E+00 0. -1.
</event>
<event>
 7    1  0.1202531E-011  0.5930181E+02  0.7816164E-02  0.1266605E+00
        -11   -1    0    0    0    0  0.00000000000E+00  0.00000000000E+00  0.45593999997E+02  0.45594000000E+02  0.51100000000E-03 0.  1.
         11   -1    0    0    0    0 -0.00000000000E+00 -0.00000000000E+00 -0.45593999997E+02  0.45594000000E+02  0.51100000000E-03 0. -1.
    9900012    2    1    2    0    0 -0.10587940319E+02  0.22036745295E+02 -0.20469646425E+02  0.59301811012E+02  0.49999757411E+02 0.  0.
        -12    1    1    2    0    0  0.10587940319E+02 -0.22036745295E+02  0.20469646425E+02  0.31886188988E+02  0.00000000000E+00 0.  1.
         11    1    3    3    0    0  0.35437527706E+01 -0.77681036055E+01  0.35841865794E-01  0.85383196371E+01  0.51100000000E-03 0. -1.
        -11    1    3    3    0    0 -0.92864597949E+01 -0.53368180416E+01 -0.25776849341E+01  0.11016552193E+02  0.51100000000E-03 0.  1.
         12    1    3    3    0    0 -0.48452332946E+01  0.35141666942E+02 -0.17927803357E+02  0.39746939182E+02  0.00000000000E+00 0. -1.
</event>
<event>
 7    1  0.1202531E-011  0.5930193E+02  0.7816164E-02  0.1266605E+00
        -11   -1    0    0    0    0  0.00000000000E+00  0.00000000000E+00  0.45593999997E+02  0.45594000000E+02  0.51100000000E-03 0.  1.
         11   -1    0    0    0    0 -0.00000000000E+00 -0.00000000000E+00 -0.45593999997E+02  0.45594000000E+02  0.51100000000E-03 0. -1.
    9900012    2    1    2    0    0 -0.27865203665E+02  0.15470019592E+02  0.96450165222E+00  0.59301931806E+02  0.49999977710E+02 0.  0.
        -12    1    1    2    0    0  0.27865203665E+02 -0.15470019592E+02 -0.96450165222E+00  0.31886068194E+02  0.00000000000E+00 0.  1.
         11    1    3    3    0    0 -0.28768280616E+01  0.15150220966E+02 -0.55818610379E+01  0.16400076461E+02  0.51100000000E-03 0. -1.
        -11    1    3    3    0    0 -0.89836295146E+01 -0.54027552937E+01 -0.13194416958E+02  0.16851943602E+02  0.51100000000E-03 0.  1.
        -12    1    3    3    0    0 -0.16004746088E+02  0.57225539199E+01  0.19740779648E+02  0.26049911744E+02  0.00000000000E+00 0.  1.
</event>
<event>
 7    1  0.1202531E-011  0.5930194E+02  0.7816164E-02  0.1266605E+00
        -11   -1    0    0    0    0  0.00000000000E+00  0.00000000000E+00  0.45593999997E+02  0.45594000000E+02  0.51100000000E-03 0.  1.
         11   -1    0    0    0    0 -0.00000000000E+00 -0.00000000000E+00 -0.45593999997E+02  0.45594000000E+02  0.51100000000E-03 0. -1.
    9900012    2    1    2    0    0  0.10771815110E+02  0.18742421974E+02 -0.23439501033E+02  0.59301943629E+02  0.49999999272E+02 0.  0.
        -12    1    1    2    0    0 -0.10771815110E+02 -0.18742421974E+02  0.23439501033E+02  0.31886056371E+02  0.00000000000E+00 0.  1.
         11    1    3    3    0    0 -0.14618606476E+01  0.19982166164E+01 -0.17877304337E+01  0.30538314563E+01  0.51100000000E-03 0. -1.
        -11    1    3    3    0    0 -0.30948859331E+01 -0.35085613339E+01  0.12695183108E+02  0.13529818771E+02  0.51100000000E-03 0.  1.
        -12    1    3    3    0    0  0.15328561691E+02  0.20252766692E+02 -0.34346953707E+02  0.42718293402E+02  0.00000000000E+00 0.  1.
</event>
<event>
 7    1  0.1202531E-011  0.5930195E+02  0.7816164E-02  0.1266605E+00
        -11   -1    0    0    0    0  0.00000000000E+00  0.00000000000E+00  0.45593999997E+02  0.45594000000E+02  0.51100000000E-03 0.  1.
         11   -1    0    0    0    0 -0.00000000000E+00 -0.00000000000E+00 -0.45593999997E+02  0.45594000000E+02  0.51100000000E-03 0. -1.
    9900012    2    1    2    0    0 -0.91650000936E+01  0.28254153012E+02  0.11594205340E+02  0.59301953105E+02  0.50000016555E+02 0.  0.
        -12    1    1    2    0    0  0.91650000936E+01 -0.28254153012E+02 -0.11594205340E+02  0.31886046895E+02  0.00000000000E+00 0.  1.
         11    1    3    3    0    0 -0.27577292203E+02  0.16645875017E+02  0.12696603212E+02  0.34623632589E+02  0.51100000000E-03 0.  1.
        -11    1    3    3    0    0  0.71364116605E+01  0.10688807159E+02  0.18536856313E+01  0.12985188507E+02  0.51100000000E-03 0. -1.
        -12    1    3    3    0    0  0.11275880448E+02  0.91947083536E+00 -0.29560835029E+01  0.11693132009E+02  0.00000000000E+00 0.  1.
</event>
<event>
 7    1  0.1202531E-011  0.5930194E+02  0.7816164E-02  0.1266605E+00
        -11   -1    0    0    0    0  0.00000000000E+00  0.00000000000E+00  0.45593999997E+02  0.45594000000E+02  0.51100000000E-03 0. -1.
         11   -1    0    0    0    0 -0.00000000000E+00 -0.00000000000E+00 -0.45593999997E+02  0.45594000000E+02  0.51100000000E-03 0.  1.
    9900012    2    1    2    0    0  0.30232662154E+02  0.87458613053E+01  0.51202556211E+01  0.59301937708E+02  0.49999988474E+02 0.  0.
        -12    1    1    2    0    0 -0.30232662154E+02 -0.87458613053E+01 -0.51202556211E+01  0.31886062292E+02  0.00000000000E+00 0.  1.
         11    1    3    3    0    0  0.87630869643E+00 -0.22965766673E+01  0.10378992313E+02  0.10666098772E+02  0.51100000000E-03 0. -1.
        -11    1    3    3    0    0  0.18622745340E+02 -0.42116880480E+01  0.12549130030E+02  0.22847880098E+02  0.51100000000E-03 0.  1.
        -12    1    3    3    0    0  0.10733608117E+02  0.15254126021E+02 -0.17807866721E+02  0.25787958838E+02  0.00000000000E+00 0.  1.
</event>
<event>
 7    1  0.1202531E-011  0.5930193E+02  0.7816164E-02  0.1266605E+00
        -11   -1    0    0    0    0  0.00000000000E+00  0.00000000000E+00  0.45593999997E+02  0.45594000000E+02  0.51100000000E-03 0. -1.
         11   -1    0    0    0    0 -0.00000000000E+00 -0.00000000000E+00 -0.45593999997E+02  0.45594000000E+02  0.51100000000E-03 0.  1.
    9900012    2    1    2    0    0  0.16024951208E+02 -0.27210920144E+02 -0.44145674529E+01  0.59301927145E+02  0.49999969210E+02 0.  0.
        -12    1    1    2    0    0 -0.16024951208E+02  0.27210920144E+02  0.44145674529E+01  0.31886072855E+02  0.00000000000E+00 0.  1.
         11    1    3    3    0    0 -0.40470291174E+01 -0.18432382861E+02  0.38330785744E+01  0.19256782551E+02  0.51100000000E-03 0. -1.
        -11    1    3    3    0    0  0.17703917657E+02 -0.90482560982E+01  0.95723434844E+01  0.22066476811E+02  0.51100000000E-03 0.  1.
        -12    1    3    3    0    0  0.23680626691E+01  0.26971881525E+00 -0.17819989512E+02  0.17978667783E+02  0.00000000000E+00 0.  1.
</event>
<event>
 7    1  0.1202531E-011  0.5930193E+02  0.7816164E-02  0.1266605E+00
        -11   -1    0    0    0    0  0.00000000000E+00  0.00000000000E+00  0.45593999997E+02  0.45594000000E+02  0.51100000000E-03 0. -1.
         11   -1    0    0    0    0 -0.00000000000E+00 -0.00000000000E+00 -0.45593999997E+02  0.45594000000E+02  0.51100000000E-03 0.  1.
    9900012    2    1    2    0    0 -0.27163320851E+02  0.16471260261E+02 -0.27519615379E+01  0.59301926135E+02  0.49999967367E+02 0.  0.
        -12    1    1    2    0    0  0.27163320851E+02 -0.16471260261E+02  0.27519615379E+01  0.31886073865E+02  0.00000000000E+00 0.  1.
         11    1    3    3    0    0  0.22819618084E+00 -0.16829119126E+01  0.50521464945E+01  0.53299578297E+01  0.51100000000E-03 0. -1.
        -11    1    3    3    0    0 -0.17836063804E+02  0.78130578480E+01 -0.25037416710E+02  0.31718153804E+02  0.51100000000E-03 0.  1.
         12    1    3    3    0    0 -0.95554532279E+01  0.10341114325E+02  0.17233308677E+02  0.22253814501E+02  0.00000000000E+00 0. -1.
</event>
<event>
 7    1  0.1202531E-011  0.5930194E+02  0.7816164E-02  0.1266605E+00
        -11   -1    0    0    0    0  0.00000000000E+00  0.00000000000E+00  0.45593999997E+02  0.45594000000E+02  0.51100000000E-03 0. -1.
         11   -1    0    0    0    0 -0.00000000000E+00 -0.00000000000E+00 -0.45593999997E+02  0.45594000000E+02  0.51100000000E-03 0.  1.
    9900012    2    1    2    0    0 -0.92021761105E+01  0.19824720941E+02  0.23216825688E+02  0.59301943478E+02  0.49999998997E+02 0.  0.
        -12    1    1    2    0    0  0.92021761105E+01 -0.19824720941E+02 -0.23216825688E+02  0.31886056522E+02  0.00000000000E+00 0.  1.
         11    1    3    3    0    0 -0.12452582406E+02  0.91557480294E-01  0.17466635064E+02  0.21451306069E+02  0.51100000000E-03 0. -1.
        -11    1    3    3    0    0  0.32512215900E+01 -0.39219722883E+01 -0.87355961240E+01  0.10112514443E+02  0.51100000000E-03 0.  1.
         12    1    3    3    0    0 -0.81529472805E-03  0.23655135749E+02  0.14485786748E+02  0.27738122966E+02  0.00000000000E+00 0. -1.
</event>
<event>
 7    1  0.1202531E-011  0.5930212E+02  0.7816164E-02  0.1266604E+00
        -11   -1    0    0    0    0  0.00000000000E+00  0.00000000000E+00  0.45593999997E+02  0.45594000000E+02  0.51100000000E-03 0.  1.
         11   -1    0    0    0    0 -0.00000000000E+00 -0.00000000000E+00 -0.45593999997E+02  0.45594000000E+02  0.51100000000E-03 0. -1.
    9900012    2    1    2    0    0  0.14820509128E+02 -0.67840863483E+01 -0.27405070592E+02  0.59302122051E+02  0.50000324671E+02 0.  0.
        -12    1    1    2    0    0 -0.14820509128E+02  0.67840863483E+01  0.27405070592E+02  0.31885877949E+02  0.00000000000E+00 0.  1.
         11    1    3    3    0    0  0.73173677563E+00  0.46335680954E+01 -0.13057258395E+02  0.13874342833E+02  0.51100000000E-03 0. -1.
        -11    1    3    3    0    0 -0.12135227008E+02 -0.15771962297E+01 -0.12288934977E+02  0.17342698913E+02  0.51100000000E-03 0.  1.
         12    1    3    3    0    0  0.26223999360E+02 -0.98404582140E+01 -0.20588772206E+01  0.28085080304E+02  0.00000000000E+00 0. -1.
</event>
<event>
 7    1  0.1202531E-011  0.5930192E+02  0.7816164E-02  0.1266605E+00
        -11   -1    0    0    0    0  0.00000000000E+00  0.00000000000E+00  0.45593999997E+02  0.45594000000E+02  0.51100000000E-03 0.  1.
         11   -1    0    0    0    0 -0.00000000000E+00 -0.00000000000E+00 -0.45593999997E+02  0.45594000000E+02  0.51100000000E-03 0. -1.
    9900012    2    1    2    0    0 -0.14035493917E+02 -0.60053602557E+01 -0.27993974169E+02  0.59301921046E+02  0.49999958087E+02 0.  0.
        -12    1    1    2    0    0  0.14035493917E+02  0.60053602557E+01  0.27993974169E+02  0.31886078954E+02  0.00000000000E+00 0.  1.
         11    1    3    3    0    0 -0.70667333811E+01  0.54336081496E+01 -0.25585866308E+02  0.27094268272E+02  0.51100000000E-03 0. -1.
        -11    1    3    3    0    0 -0.11194429444E+02  0.29972508883E+01  0.78532128228E+01  0.13998989798E+02  0.51100000000E-03 0.  1.
        -12    1    3    3    0    0  0.42256689076E+01 -0.14436219294E+02 -0.10261320684E+02  0.18208662976E+02  0.00000000000E+00 0.  1.
</event>
<event>
 7    1  0.1202531E-011  0.5930196E+02  0.7816164E-02  0.1266605E+00
        -11   -1    0    0    0    0  0.00000000000E+00  0.00000000000E+00  0.45593999997E+02  0.45594000000E+02  0.51100000000E-03 0.  1.
         11   -1    0    0    0    0 -0.00000000000E+00 -0.00000000000E+00 -0.45593999997E+02  0.45594000000E+02  0.51100000000E-03 0. -1.
    9900012    2    1    2    0    0  0.92474138561E+01  0.15284928097E+01 -0.30477345132E+02  0.59301960428E+02  0.50000029909E+02 0.  0.
        -12    1    1    2    0    0 -0.92474138561E+01 -0.15284928097E+01  0.30477345132E+02  0.31886039572E+02  0.00000000000E+00 0.  1.
         11    1    3    3    0    0  0.13898239294E+02  0.13207980254E+01  0.37167337849E+00  0.13965804819E+02  0.51100000000E-03 0. -1.
        -11    1    3    3    0    0  0.95126376130E+01  0.11564629127E+02 -0.12262529190E+02  0.19354600063E+02  0.51100000000E-03 0.  1.
         12    1    3    3    0    0 -0.14163463051E+02 -0.11356934343E+02 -0.18586489321E+02  0.25981555545E+02  0.00000000000E+00 0. -1.
</event>
<event>
 7    1  0.1202531E-011  0.5930192E+02  0.7816164E-02  0.1266605E+00
        -11   -1    0    0    0    0  0.00000000000E+00  0.00000000000E+00  0.45593999997E+02  0.45594000000E+02  0.51100000000E-03 0.  1.
         11   -1    0    0    0    0 -0.00000000000E+00 -0.00000000000E+00 -0.45593999997E+02  0.45594000000E+02  0.51100000000E-03 0. -1.
    9900012    2    1    2    0    0  0.12074101745E+02  0.20244292417E+01 -0.29442143178E+02  0.59301920880E+02  0.49999957785E+02 0.  0.
        -12    1    1    2    0    0 -0.12074101745E+02 -0.20244292417E+01  0.29442143178E+02  0.31886079120E+02  0.00000000000E+00 0.  1.
         11    1    3    3    0    0 -0.37129409836E+01  0.33261795125E+01  0.30394553827E+01  0.58384664238E+01  0.51100000000E-03 0. -1.
        -11    1    3    3    0    0  0.84499108200E+01  0.37188386378E+00  0.83848444267E+01  0.11909865944E+02  0.51100000000E-03 0.  1.
         12    1    3    3    0    0  0.73371319082E+01 -0.16736341346E+01 -0.40866442988E+02  0.41553588513E+02  0.00000000000E+00 0. -1.
</event>
<event>
 7    1  0.1202531E-011  0.5930196E+02  0.7816164E-02  0.1266605E+00
        -11   -1    0    0    0    0  0.00000000000E+00  0.00000000000E+00  0.45593999997E+02  0.45594000000E+02  0.51100000000E-03 0.  1.
         11   -1    0    0    0    0 -0.00000000000E+00 -0.00000000000E+00 -0.45593999997E+02  0.45594000000E+02  0.51100000000E-03 0. -1.
    9900012    2    1    2    0    0  0.21841287078E+02  0.21214537391E+02 -0.94668443819E+01  0.59301959787E+02  0.50000028740E+02 0.  0.
        -12    1    1    2    0    0 -0.21841287078E+02 -0.21214537391E+02  0.94668443819E+01  0.31886040213E+02  0.00000000000E+00 0.  1.
         11    1    3    3    0    0  0.30609597740E+02  0.10034965429E+02 -0.63618998601E+00  0.32218825908E+02  0.51100000000E-03 0. -1.
        -11    1    3    3    0    0  0.91954806894E+00 -0.26492664141E+00  0.59511876980E+01  0.60276355276E+01  0.51100000000E-03 0.  1.
        -12    1    3    3    0    0 -0.96878587314E+01  0.11444498604E+02 -0.14781842094E+02  0.21055498350E+02  0.00000000000E+00 0.  1.
</event>
<event>
 7    1  0.1202531E-011  0.5930190E+02  0.7816164E-02  0.1266605E+00
        -11   -1    0    0    0    0  0.00000000000E+00  0.00000000000E+00  0.45593999997E+02  0.45594000000E+02  0.51100000000E-03 0.  1.
         11   -1    0    0    0    0 -0.00000000000E+00 -0.00000000000E+00 -0.45593999997E+02  0.45594000000E+02  0.51100000000E-03 0. -1.
    9900012    2    1    2    0    0  0.15140811878E+02  0.26559721434E+02 -0.90587224169E+01  0.59301898971E+02  0.49999917827E+02 0.  0.
        -12    1    1    2    0    0 -0.15140811878E+02 -0.26559721434E+02  0.90587224169E+01  0.31886101029E+02  0.00000000000E+00 0.  1.
         11    1    3    3    0    0  0.82361394178E+01 -0.31157498047E+01 -0.80996067973E+01  0.11964343688E+02  0.51100000000E-03 0. -1.
        -11    1    3    3    0    0  0.17567352887E+02  0.74897348180E+01  0.85833702251E+01  0.20937580084E+02  0.51100000000E-03 0.  1.
         12    1    3    3    0    0 -0.10662680426E+02  0.22185736421E+02 -0.95424858446E+01  0.26399975199E+02  0.00000000000E+00 0. -1.
</event>
<event>
 7    1  0.1202531E-011  0.5930194E+02  0.7816164E-02  0.1266605E+00
        -11   -1    0    0    0    0  0.00000000000E+00  0.00000000000E+00  0.45593999997E+02  0.45594000000E+02  0.51100000000E-03 0.  1.
         11   -1    0    0    0    0 -0.00000000000E+00 -0.00000000000E+00 -0.45593999997E+02  0.45594000000E+02  0.51100000000E-03 0. -1.
    9900012    2    1    2    0    0  0.94886434569E+01  0.15897471844E+02 -0.25960677465E+02  0.59301941289E+02  0.49999995005E+02 0.  0.
        -12    1    1    2    0    0 -0.94886434569E+01 -0.15897471844E+02  0.25960677465E+02  0.31886058711E+02  0.00000000000E+00 0.  1.
         11    1    3    3    0    0 -0.12039437431E+02  0.22423265816E+01 -0.23219813576E+02  0.26251396628E+02  0.51100000000E-03 0. -1.
        -11    1    3    3    0    0  0.20544852833E+01  0.87338623983E+01 -0.82863022896E+01  0.12213274257E+02  0.51100000000E-03 0.  1.
        -12    1    3    3    0    0  0.19473595605E+02  0.49212828643E+01  0.55454384007E+01  0.20837270404E+02  0.00000000000E+00 0.  1.
</event>
<event>
 7    1  0.1202531E-011  0.5930196E+02  0.7816164E-02  0.1266605E+00
        -11   -1    0    0    0    0  0.00000000000E+00  0.00000000000E+00  0.45593999997E+02  0.45594000000E+02  0.51100000000E-03 0.  1.
         11   -1    0    0    0    0 -0.00000000000E+00 -0.00000000000E+00 -0.45593999997E+02  0.45594000000E+02  0.51100000000E-03 0. -1.
    9900012    2    1    2    0    0 -0.93053727479E+01 -0.19464746349E+02 -0.23478785457E+02  0.59301957929E+02  0.50000025353E+02 0.  0.
        -12    1    1    2    0    0  0.93053727479E+01  0.19464746349E+02  0.23478785457E+02  0.31886042071E+02  0.00000000000E+00 0.  1.
         11    1    3    3    0    0  0.82300482821E+01 -0.14160223357E+02 -0.58818717494E+01  0.17402357191E+02  0.51100000000E-03 0. -1.
        -11    1    3    3    0    0 -0.17514869546E+02 -0.18066407686E+02 -0.10220333896E+02  0.27159178321E+02  0.51100000000E-03 0.  1.
        -12    1    3    3    0    0 -0.20551484234E-01  0.12761884694E+02 -0.73765798118E+01  0.14740422417E+02  0.00000000000E+00 0.  1.
</event>
<event>
 7    1  0.1202531E-011  0.5930195E+02  0.7816164E-02  0.1266605E+00
        -11   -1    0    0    0    0  0.00000000000E+00  0.00000000000E+00  0.45593999997E+02  0.45594000000E+02  0.51100000000E-03 0.  1.
         11   -1    0    0    0    0 -0.00000000000E+00 -0.00000000000E+00 -0.45593999997E+02  0.45594000000E+02  0.51100000000E-03 0. -1.
    9900012    2    1    2    0    0 -0.27605560136E+02 -0.19015365359E+01  0.15844154174E+02  0.59301952689E+02  0.50000015796E+02 0.  0.
        -12    1    1    2    0    0  0.27605560136E+02  0.19015365359E+01 -0.15844154174E+02  0.31886047311E+02  0.00000000000E+00 0.  1.
         11    1    3    3    0    0  0.11653657484E+02 -0.10760513713E+02  0.75723190240E+01  0.17576586807E+02  0.51100000000E-03 0.  1.
        -11    1    3    3    0    0 -0.19646433385E+02  0.76792996146E+00  0.46242249409E+01  0.20197908746E+02  0.51100000000E-03 0. -1.
        -12    1    3    3    0    0 -0.19612784235E+02  0.80910472157E+01  0.36476102096E+01  0.21527457136E+02  0.00000000000E+00 0.  1.
</event>
<event>
 7    1  0.1202531E-011  0.5930195E+02  0.7816164E-02  0.1266605E+00
        -11   -1    0    0    0    0  0.00000000000E+00  0.00000000000E+00  0.45593999997E+02  0.45594000000E+02  0.51100000000E-03 0.  1.
         11   -1    0    0    0    0 -0.00000000000E+00 -0.00000000000E+00 -0.45593999997E+02  0.45594000000E+02  0.51100000000E-03 0. -1.
    9900012    2    1    2    0    0  0.25723724183E+02 -0.53186244106E+01 -0.18075467900E+02  0.59301948328E+02  0.50000007842E+02 0.  0.
        -12    1    1    2    0    0 -0.25723724183E+02  0.53186244106E+01  0.18075467900E+02  0.31886051672E+02  0.00000000000E+00 0.  1.
         11    1    3    3    0    0  0.36611943212E+00  0.17446128574E+00 -0.23232305805E+02  0.23235845443E+02  0.51100000000E-03 0. -1.
        -11    1    3    3    0    0  0.89240085590E+01  0.97906578872E+01  0.16002370615E+01  0.13343750205E+02  0.51100000000E-03 0.  1.
         12    1    3    3    0    0  0.16433596192E+02 -0.15283743583E+02  0.35566008434E+01  0.22722352679E+02  0.00000000000E+00 0. -1.
</event>
<event>
 7    1  0.1202531E-011  0.5930195E+02  0.7816164E-02  0.1266605E+00
        -11   -1    0    0    0    0  0.00000000000E+00  0.00000000000E+00  0.45593999997E+02  0.45594000000E+02  0.51100000000E-03 0.  1.
         11   -1    0    0    0    0 -0.00000000000E+00 -0.00000000000E+00 -0.45593999997E+02  0.45594000000E+02  0.51100000000E-03 0. -1.
    9900012    2    1    2    0    0 -0.26566478614E+02 -0.17306583202E+02 -0.33799968788E+01  0.59301953099E+02  0.50000016544E+02 0.  0.
        -12    1    1    2    0    0  0.26566478614E+02  0.17306583202E+02  0.33799968788E+01  0.31886046901E+02  0.00000000000E+00 0.  1.
         11    1    3    3    0    0 -0.45096091188E+01  0.16288418237E+02 -0.91950760033E-01  0.16901408174E+02  0.51100000000E-03 0. -1.
        -11    1    3    3    0    0 -0.69326926496E+01 -0.12586353524E+02  0.50084072905E+01  0.15217183256E+02  0.51100000000E-03 0.  1.
        -12    1    3    3    0    0 -0.15124176845E+02 -0.21008647915E+02 -0.82964534092E+01  0.27183361669E+02  0.00000000000E+00 0.  1.
</event>
<event>
 7    1  0.1202531E-011  0.5930209E+02  0.7816164E-02  0.1266604E+00
        -11   -1    0    0    0    0  0.00000000000E+00  0.00000000000E+00  0.45593999997E+02  0.45594000000E+02  0.51100000000E-03 0. -1.
         11   -1    0    0    0    0 -0.00000000000E+00 -0.00000000000E+00 -0.45593999997E+02  0.45594000000E+02  0.51100000000E-03 0.  1.
    9900012    2    1    2    0    0  0.18074567465E+02 -0.13599023927E+01  0.26233029931E+02  0.59302091154E+02  0.50000268322E+02 0.  0.
        -12    1    1    2    0    0 -0.18074567465E+02  0.13599023927E+01 -0.26233029931E+02  0.31885908846E+02  0.00000000000E+00 0.  1.
         11    1    3    3    0    0  0.53988255736E+01 -0.14411408018E+02  0.13517824781E+02  0.20483348987E+02  0.51100000000E-03 0. -1.
        -11    1    3    3    0    0  0.18345279779E+02 -0.29417619134E+01  0.11402601111E+02  0.21799600127E+02  0.51100000000E-03 0.  1.
         12    1    3    3    0    0 -0.56695378875E+01  0.15993267539E+02  0.13126040388E+01  0.17019142040E+02  0.00000000000E+00 0. -1.
</event>
<event>
 7    1  0.1202531E-011  0.5930188E+02  0.7816164E-02  0.1266605E+00
        -11   -1    0    0    0    0  0.00000000000E+00  0.00000000000E+00  0.45593999997E+02  0.45594000000E+02  0.51100000000E-03 0. -1.
         11   -1    0    0    0    0 -0.00000000000E+00 -0.00000000000E+00 -0.45593999997E+02  0.45594000000E+02  0.51100000000E-03 0.  1.
    9900012    2    1    2    0    0 -0.67591816760E+01  0.26474075440E+02  0.16436584409E+02  0.59301882106E+02  0.49999887070E+02 0.  0.
        -12    1    1    2    0    0  0.67591816760E+01 -0.26474075440E+02 -0.16436584409E+02  0.31886117894E+02  0.00000000000E+00 0.  1.
         11    1    3    3    0    0  0.19562885292E+01  0.17206302986E+01 -0.42212717494E+01  0.49605210288E+01  0.51100000000E-03 0. -1.
        -11    1    3    3    0    0 -0.18353319393E+02  0.52027316704E+01 -0.59147923586E+01  0.19972418944E+02  0.51100000000E-03 0.  1.
         12    1    3    3    0    0  0.96378491877E+01  0.19550713471E+02  0.26572648517E+02  0.34368942133E+02  0.00000000000E+00 0. -1.
</event>
<event>
 7    1  0.1202531E-011  0.5930194E+02  0.7816164E-02  0.1266605E+00
        -11   -1    0    0    0    0  0.00000000000E+00  0.00000000000E+00  0.45593999997E+02  0.45594000000E+02  0.51100000000E-03 0.  1.
         11   -1    0    0    0    0 -0.00000000000E+00 -0.00000000000E+00 -0.45593999997E+02  0.45594000000E+02  0.51100000000E-03 0. -1.
    9900012    2    1    2    0    0 -0.13976453746E+02  0.12850699616E+02  0.25617160121E+02  0.59301942975E+02  0.49999998080E+02 0.  0.
        -12    1    1    2    0    0  0.13976453746E+02 -0.12850699616E+02 -0.25617160121E+02  0.31886057025E+02  0.00000000000E+00 0.  1.
         11    1    3    3    0    0 -0.12517784407E+02  0.17260785128E+02 -0.12327211215E+01  0.21357650417E+02  0.51100000000E-03 0. -1.
        -11    1    3    3    0    0 -0.10351930163E+02  0.89863969315E+00  0.14216766004E+01  0.10487667807E+02  0.51100000000E-03 0.  1.
        -12    1    3    3    0    0  0.88932608248E+01 -0.53087252055E+01  0.25428204642E+02  0.27456624751E+02  0.00000000000E+00 0.  1.
</event>
<event>
 7    1  0.1202531E-011  0.5930195E+02  0.7816164E-02  0.1266605E+00
        -11   -1    0    0    0    0  0.00000000000E+00  0.00000000000E+00  0.45593999997E+02  0.45594000000E+02  0.51100000000E-03 0.  1.
         11   -1    0    0    0    0 -0.00000000000E+00 -0.00000000000E+00 -0.45593999997E+02  0.45594000000E+02  0.51100000000E-03 0. -1.
    9900012    2    1    2    0    0  0.51116542843E+01 -0.55275739294E+01 -0.30984469712E+02  0.59301945895E+02  0.50000003405E+02 0.  0.
        -12    1    1    2    0    0 -0.51116542843E+01  0.55275739294E+01  0.30984469712E+02  0.31886054105E+02  0.00000000000E+00 0.  1.
         11    1    3    3    0    0  0.15566212126E+02  0.66333245227E-01 -0.10553726722E+02  0.18806714440E+02  0.51100000000E-03 0. -1.
        -11    1    3    3    0    0 -0.64016777425E+01  0.11810817141E+02 -0.11015172079E+00  0.13434619947E+02  0.51100000000E-03 0.  1.
        -12    1    3    3    0    0 -0.40528800992E+01 -0.17404724316E+02 -0.20320591269E+02  0.27060611507E+02  0.00000000000E+00 0.  1.
</event>
<event>
 7    1  0.1202531E-011  0.5930190E+02  0.7816164E-02  0.1266605E+00
        -11   -1    0    0    0    0  0.00000000000E+00  0.00000000000E+00  0.45593999997E+02  0.45594000000E+02  0.51100000000E-03 0.  1.
         11   -1    0    0    0    0 -0.00000000000E+00 -0.00000000000E+00 -0.45593999997E+02  0.45594000000E+02  0.51100000000E-03 0. -1.
    9900012    2    1    2    0    0 -0.15612958664E+02  0.96092456281E+01 -0.26088724102E+02  0.59301896365E+02  0.49999913074E+02 0.  0.
        -12    1    1    2    0    0  0.15612958664E+02 -0.96092456281E+01  0.26088724102E+02  0.31886103635E+02  0.00000000000E+00 0.  1.
         11    1    3    3    0    0  0.33769404944E+01  0.77475518024E+01 -0.13247785197E+02  0.15714073276E+02  0.51100000000E-03 0. -1.
        -11    1    3    3    0    0  0.10241283549E+02 -0.11504239134E+01 -0.94933140109E+01  0.14011794142E+02  0.51100000000E-03 0.  1.
        -12    1    3    3    0    0 -0.29231182708E+02  0.30121177391E+01 -0.33476248934E+01  0.29576028946E+02  0.00000000000E+00 0.  1.
</event>
<event>
 7    1  0.1202531E-011  0.5930199E+02  0.7816164E-02  0.1266605E+00
        -11   -1    0    0    0    0  0.00000000000E+00  0.00000000000E+00  0.45593999997E+02  0.45594000000E+02  0.51100000000E-03 0.  1.
         11   -1    0    0    0    0 -0.00000000000E+00 -0.00000000000E+00 -0.45593999997E+02  0.45594000000E+02  0.51100000000E-03 0. -1.
    9900012    2    1    2    0    0 -0.16867556035E+02 -0.24851786098E+02  0.10704773992E+02  0.59301985745E+02  0.50000076082E+02 0.  0.
        -12    1    1    2    0    0  0.16867556035E+02  0.24851786098E+02 -0.10704773992E+02  0.31886014255E+02  0.00000000000E+00 0.  1.
         11    1    3    3    0    0  0.41901187046E+00 -0.30063536817E+01 -0.11185940558E+02  0.11590470217E+02  0.51100000000E-03 0. -1.
        -11    1    3    3    0    0 -0.14126717774E+01 -0.81435730206E+01 -0.77985401356E+01  0.11363566852E+02  0.51100000000E-03 0.  1.
        -12    1    3    3    0    0 -0.15873896128E+02 -0.13701859395E+02  0.29689254686E+02  0.36347948676E+02  0.00000000000E+00 0.  1.
</event>
<event>
 7    1  0.1202531E-011  0.5930194E+02  0.7816164E-02  0.1266605E+00
        -11   -1    0    0    0    0  0.00000000000E+00  0.00000000000E+00  0.45593999997E+02  0.45594000000E+02  0.51100000000E-03 0. -1.
         11   -1    0    0    0    0 -0.00000000000E+00 -0.00000000000E+00 -0.45593999997E+02  0.45594000000E+02  0.51100000000E-03 0.  1.
    9900012    2    1    2    0    0  0.27646220358E+02 -0.13313284162E+02  0.86697099250E+01  0.59301938696E+02  0.49999990277E+02 0.  0.
        -12    1    1    2    0    0 -0.27646220358E+02  0.13313284162E+02 -0.86697099250E+01  0.31886061304E+02  0.00000000000E+00 0.  1.
         11    1    3    3    0    0  0.12731537568E+01 -0.11274026667E+01 -0.54625877082E+01  0.57211731308E+01  0.51100000000E-03 0.  1.
        -11    1    3    3    0    0  0.33074155354E+02 -0.16166046575E+02  0.21686691931E+02  0.42726495543E+02  0.51100000000E-03 0. -1.
         12    1    3    3    0    0 -0.67010887521E+01  0.39801650795E+01 -0.75543942976E+01  0.10854270023E+02  0.00000000000E+00 0. -1.
</event>
<event>
 7    1  0.1202531E-011  0.5930192E+02  0.7816164E-02  0.1266605E+00
        -11   -1    0    0    0    0  0.00000000000E+00  0.00000000000E+00  0.45593999997E+02  0.45594000000E+02  0.51100000000E-03 0.  1.
         11   -1    0    0    0    0 -0.00000000000E+00 -0.00000000000E+00 -0.45593999997E+02  0.45594000000E+02  0.51100000000E-03 0. -1.
    9900012    2    1    2    0    0 -0.96719391214E+01 -0.30027404582E+02 -0.46400876334E+01  0.59301923956E+02  0.49999963393E+02 0.  0.
        -12    1    1    2    0    0  0.96719391214E+01  0.30027404582E+02  0.46400876334E+01  0.31886076044E+02  0.00000000000E+00 0.  1.
         11    1    3    3    0    0  0.22926942474E+01  0.14863260036E+00 -0.18371474455E+01  0.29417086123E+01  0.51100000000E-03 0. -1.
        -11    1    3    3    0    0 -0.42663717788E+01 -0.30171627831E+01  0.19623490172E+02  0.20307303272E+02  0.51100000000E-03 0.  1.
         12    1    3    3    0    0 -0.76982615899E+01 -0.27158874399E+02 -0.22426430360E+02  0.36052912071E+02  0.00000000000E+00 0. -1.
</event>
<event>
 7    1  0.1202531E-011  0.5930196E+02  0.7816164E-02  0.1266605E+00
        -11   -1    0    0    0    0  0.00000000000E+00  0.00000000000E+00  0.45593999997E+02  0.45594000000E+02  0.51100000000E-03 0.  1.
         11   -1    0    0    0    0 -0.00000000000E+00 -0.00000000000E+00 -0.45593999997E+02  0.45594000000E+02  0.51100000000E-03 0. -1.
    9900012    2    1    2    0    0 -0.87793418488E+01  0.19742223598E+02 -0.23449678450E+02  0.59301958300E+02  0.50000026028E+02 0.  0.
        -12    1    1    2    0    0  0.87793418488E+01 -0.19742223598E+02  0.23449678450E+02  0.31886041700E+02  0.00000000000E+00 0.  1.
         11    1    3    3    0    0 -0.44452895871E-01 -0.47505141112E+01  0.14185280640E+01  0.49579816972E+01  0.51100000000E-03 0.  1.
        -11    1    3    3    0    0  0.12277775362E+02  0.21169400503E+02 -0.44820726944E+01  0.24879233537E+02  0.51100000000E-03 0. -1.
         12    1    3    3    0    0 -0.21012664315E+02  0.33233372068E+01 -0.20386133820E+02  0.29464743066E+02  0.00000000000E+00 0. -1.
</event>
<event>
 7    1  0.1202531E-011  0.5930185E+02  0.7816164E-02  0.1266605E+00
        -11   -1    0    0    0    0  0.00000000000E+00  0.00000000000E+00  0.45593999997E+02  0.45594000000E+02  0.51100000000E-03 0.  1.
         11   -1    0    0    0    0 -0.00000000000E+00 -0.00000000000E+00 -0.45593999997E+02  0.45594000000E+02  0.51100000000E-03 0. -1.
    9900012    2    1    2    0    0 -0.10922525420E+01  0.30001104034E+02 -0.10745568474E+02  0.59301850959E+02  0.49999830264E+02 0.  0.
        -12    1    1    2    0    0  0.10922525420E+01 -0.30001104034E+02  0.10745568474E+02  0.31886149041E+02  0.00000000000E+00 0.  1.
         11    1    3    3    0    0  0.31144113993E+00 -0.42511289683E+01 -0.12638173531E+02  0.13337635606E+02  0.51100000000E-03 0. -1.
        -11    1    3    3    0    0 -0.70853175105E+01 -0.30116234958E+01  0.29764188332E+01  0.82541304592E+01  0.51100000000E-03 0.  1.
        -12    1    3    3    0    0  0.56816238285E+01  0.37263856498E+02 -0.10838137759E+01  0.37710084894E+02  0.00000000000E+00 0.  1.
</event>
<event>
 7    1  0.1202531E-011  0.5930195E+02  0.7816164E-02  0.1266605E+00
        -11   -1    0    0    0    0  0.00000000000E+00  0.00000000000E+00  0.45593999997E+02  0.45594000000E+02  0.51100000000E-03 0. -1.
         11   -1    0    0    0    0 -0.00000000000E+00 -0.00000000000E+00 -0.45593999997E+02  0.45594000000E+02  0.51100000000E-03 0.  1.
    9900012    2    1    2    0    0 -0.67892564061E+01  0.30374765317E+02 -0.69281770128E+01  0.59301952779E+02  0.50000015961E+02 0.  0.
        -12    1    1    2    0    0  0.67892564061E+01 -0.30374765317E+02  0.69281770128E+01  0.31886047221E+02  0.00000000000E+00 0.  1.
         11    1    3    3    0    0  0.58853882521E+01 -0.44745866648E+01 -0.70381022274E+01  0.10207575810E+02  0.51100000000E-03 0. -1.
        -11    1    3    3    0    0  0.94467953233E+01  0.76683513461E+01 -0.59250560076E+01  0.13533360381E+02  0.51100000000E-03 0.  1.
         12    1    3    3    0    0 -0.22121439982E+02  0.27181000636E+02  0.60349812222E+01  0.35561016588E+02  0.00000000000E+00 0. -1.
</event>
<event>
 7    1  0.1202531E-011  0.5930224E+02  0.7816164E-02  0.1266604E+00
        -11   -1    0    0    0    0  0.00000000000E+00  0.00000000000E+00  0.45593999997E+02  0.45594000000E+02  0.51100000000E-03 0.  1.
         11   -1    0    0    0    0 -0.00000000000E+00 -0.00000000000E+00 -0.45593999997E+02  0.45594000000E+02  0.51100000000E-03 0. -1.
    9900012    2    1    2    0    0  0.98981797731E+01 -0.99239713751E+01 -0.28639873395E+02  0.59302242697E+02  0.50000544699E+02 0.  0.
        -12    1    1    2    0    0 -0.98981797731E+01  0.99239713751E+01  0.28639873395E+02  0.31885757303E+02  0.00000000000E+00 0.  1.
         11    1    3    3    0    0  0.12706319261E+02 -0.91855022402E+01 -0.25597450378E+00  0.15680864892E+02  0.51100000000E-03 0. -1.
        -11    1    3    3    0    0 -0.94323522821E+01  0.11182999472E+02 -0.31908279759E+01  0.14973647859E+02  0.51100000000E-03 0.  1.
         12    1    3    3    0    0  0.66242127944E+01 -0.11921468607E+02 -0.25193070916E+02  0.28647729946E+02  0.00000000000E+00 0. -1.
</event>
<event>
 7    1  0.1202531E-011  0.5930194E+02  0.7816164E-02  0.1266605E+00
        -11   -1    0    0    0    0  0.00000000000E+00  0.00000000000E+00  0.45593999997E+02  0.45594000000E+02  0.51100000000E-03 0. -1.
         11   -1    0    0    0    0 -0.00000000000E+00 -0.00000000000E+00 -0.45593999997E+02  0.45594000000E+02  0.51100000000E-03 0.  1.
    9900012    2    1    2    0    0  0.20510832638E+02 -0.17625611976E+02  0.16892734109E+02  0.59301938489E+02  0.49999989898E+02 0.  0.
        -12    1    1    2    0    0 -0.20510832638E+02  0.17625611976E+02 -0.16892734109E+02  0.31886061511E+02  0.00000000000E+00 0.  1.
         11    1    3    3    0    0  0.96557988383E+01 -0.82577563973E+01  0.61621672682E+01  0.14120810799E+02  0.51100000000E-03 0. -1.
        -11    1    3    3    0    0  0.10964613338E+02 -0.17108272511E+02 -0.10292354766E+02  0.22778241830E+02  0.51100000000E-03 0.  1.
         12    1    3    3    0    0 -0.10957953772E+00  0.77404169326E+01  0.21022921607E+02  0.22402885860E+02  0.00000000000E+00 0. -1.
</event>
<event>
 7    1  0.1202531E-011  0.5930193E+02  0.7816164E-02  0.1266605E+00
        -11   -1    0    0    0    0  0.00000000000E+00  0.00000000000E+00  0.45593999997E+02  0.45594000000E+02  0.51100000000E-03 0. -1.
         11   -1    0    0    0    0 -0.00000000000E+00 -0.00000000000E+00 -0.45593999997E+02  0.45594000000E+02  0.51100000000E-03 0.  1.
    9900012    2    1    2    0    0 -0.37297551345E+01 -0.23333854867E+02  0.21408920059E+02  0.59301926011E+02  0.49999967143E+02 0.  0.
        -12    1    1    2    0    0  0.37297551345E+01  0.23333854867E+02 -0.21408920059E+02  0.31886073989E+02  0.00000000000E+00 0.  1.
         11    1    3    3    0    0  0.53756116254E+01  0.19346433007E+01  0.62698421603E+01  0.84823915274E+01  0.51100000000E-03 0. -1.
        -11    1    3    3    0    0 -0.37430336058E+01  0.98613696063E+01  0.10668846123E+02  0.15002706054E+02  0.51100000000E-03 0.  1.
         12    1    3    3    0    0 -0.53623331541E+01 -0.35129867774E+02  0.44702317758E+01  0.35816828430E+02  0.00000000000E+00 0. -1.
</event>
<event>
 7    1  0.1202531E-011  0.5930195E+02  0.7816164E-02  0.1266605E+00
        -11   -1    0    0    0    0  0.00000000000E+00  0.00000000000E+00  0.45593999997E+02  0.45594000000E+02  0.51100000000E-03 0.  1.
         11   -1    0    0    0    0 -0.00000000000E+00 -0.00000000000E+00 -0.45593999997E+02  0.45594000000E+02  0.51100000000E-03 0. -1.
    9900012    2    1    2    0    0  0.22981260694E+01 -0.17837947835E+01 -0.31753062013E+02  0.59301948904E+02  0.50000008894E+02 0.  0.
        -12    1    1    2    0    0 -0.22981260694E+01  0.17837947835E+01  0.31753062013E+02  0.31886051096E+02  0.00000000000E+00 0.  1.
         11    1    3    3    0    0  0.35847560572E+01 -0.16916902961E+02 -0.93240988375E+01  0.19646142145E+02  0.51100000000E-03 0. -1.
        -11    1    3    3    0    0 -0.65900257855E+01 -0.71845922062E+01 -0.72469951577E+01  0.12147664142E+02  0.51100000000E-03 0.  1.
         12    1    3    3    0    0  0.53033957977E+01  0.22317700383E+02 -0.15181968018E+02  0.27508142618E+02  0.00000000000E+00 0. -1.
</event>
<event>
 7    1  0.1202531E-011  0.5930196E+02  0.7816164E-02  0.1266605E+00
        -11   -1    0    0    0    0  0.00000000000E+00  0.00000000000E+00  0.45593999997E+02  0.45594000000E+02  0.51100000000E-03 0. -1.
         11   -1    0    0    0    0 -0.00000000000E+00 -0.00000000000E+00 -0.45593999997E+02  0.45594000000E+02  0.51100000000E-03 0.  1.
    9900012    2    1    2    0    0 -0.13393611873E+02 -0.52354550536E+01  0.28459103403E+02  0.59301962379E+02  0.50000033469E+02 0.  0.
        -12    1    1    2    0    0  0.13393611873E+02  0.52354550536E+01 -0.28459103403E+02  0.31886037621E+02  0.00000000000E+00 0.  1.
         11    1    3    3    0    0 -0.22324884092E+02 -0.31389939604E+01  0.25411682632E+02  0.33970683644E+02  0.51100000000E-03 0. -1.
        -11    1    3    3    0    0 -0.81637162659E+00 -0.90050244769E+01  0.83057697744E+01  0.12277733515E+02  0.51100000000E-03 0.  1.
        -12    1    3    3    0    0  0.97476438456E+01  0.69085633837E+01 -0.52583490034E+01  0.13053545220E+02  0.00000000000E+00 0.  1.
</event>
<event>
 7    1  0.1202531E-011  0.5930194E+02  0.7816164E-02  0.1266605E+00
        -11   -1    0    0    0    0  0.00000000000E+00  0.00000000000E+00  0.45593999997E+02  0.45594000000E+02  0.51100000000E-03 0.  1.
         11   -1    0    0    0    0 -0.00000000000E+00 -0.00000000000E+00 -0.45593999997E+02  0.45594000000E+02  0.51100000000E-03 0. -1.
    9900012    2    1    2    0    0  0.28649327771E+02 -0.12994652221E+02 -0.52034575587E+01  0.59301938176E+02  0.49999989327E+02 0.  0.
        -12    1    1    2    0    0 -0.28649327771E+02  0.12994652221E+02  0.52034575587E+01  0.31886061824E+02  0.00000000000E+00 0.  1.
         11    1    3    3    0    0  0.26424157853E+02  0.69830164946E+01 -0.95018593977E+01  0.28935859585E+02  0.51100000000E-03 0. -1.
        -11    1    3    3    0    0 -0.28601666492E+01  0.12907074942E+01 -0.55556111529E+01  0.63805403094E+01  0.51100000000E-03 0.  1.
        -12    1    3    3    0    0  0.50853365670E+01 -0.21268376210E+02  0.98540129919E+01  0.23985538282E+02  0.00000000000E+00 0.  1.
</event>
<event>
 7    1  0.1202531E-011  0.5930197E+02  0.7816164E-02  0.1266605E+00
        -11   -1    0    0    0    0  0.00000000000E+00  0.00000000000E+00  0.45593999997E+02  0.45594000000E+02  0.51100000000E-03 0.  1.
         11   -1    0    0    0    0 -0.00000000000E+00 -0.00000000000E+00 -0.45593999997E+02  0.45594000000E+02  0.51100000000E-03 0. -1.
    9900012    2    1    2    0    0 -0.23535546155E+02  0.17221138287E+02 -0.12893003333E+02  0.59301967452E+02  0.50000042720E+02 0.  0.
        -12    1    1    2    0    0  0.23535546155E+02 -0.17221138287E+02  0.12893003333E+02  0.31886032548E+02  0.00000000000E+00 0.  1.
         11    1    3    3    0    0  0.41608956894E+01  0.30331700036E+01 -0.15925875828E+01  0.53897596123E+01  0.51100000000E-03 0. -1.
        -11    1    3    3    0    0 -0.25070911316E+01  0.20176529789E+02 -0.18014592534E+02  0.27164377495E+02  0.51100000000E-03 0.  1.
         12    1    3    3    0    0 -0.25189350713E+02 -0.59885615054E+01  0.67141767836E+01  0.26747830344E+02  0.00000000000E+00 0. -1.
</event>
<event>
 7    1  0.1202531E-011  0.5930225E+02  0.7816164E-02  0.1266604E+00
        -11   -1    0    0    0    0  0.00000000000E+00  0.00000000000E+00  0.45593999997E+02  0.45594000000E+02  0.51100000000E-03 0.  1.
         11   -1    0    0    0    0 -0.00000000000E+00 -0.00000000000E+00 -0.45593999997E+02  0.45594000000E+02  0.51100000000E-03 0. -1.
    9900012    2    1    2    0    0  0.16474507448E+01 -0.13204945364E+02 -0.28976139685E+02  0.59302245390E+02  0.50000549609E+02 0.  0.
        -12    1    1    2    0    0 -0.16474507448E+01  0.13204945364E+02  0.28976139685E+02  0.31885754610E+02  0.00000000000E+00 0.  1.
         11    1    3    3    0    0 -0.44428174223E+01 -0.73486971348E+00 -0.33930534753E+01  0.56383927046E+01  0.51100000000E-03 0. -1.
        -11    1    3    3    0    0  0.32732336607E+01  0.11435886123E+02  0.64994991968E+01  0.13554963670E+02  0.51100000000E-03 0.  1.
         12    1    3    3    0    0  0.28170345064E+01 -0.23905961774E+02 -0.32082585406E+02  0.40108889016E+02  0.00000000000E+00 0. -1.
</event>
<event>
 7    1  0.1202531E-011  0.5930198E+02  0.7816164E-02  0.1266605E+00
        -11   -1    0    0    0    0  0.00000000000E+00  0.00000000000E+00  0.45593999997E+02  0.45594000000E+02  0.51100000000E-03 0.  1.
         11   -1    0    0    0    0 -0.00000000000E+00 -0.00000000000E+00 -0.45593999997E+02  0.45594000000E+02  0.51100000000E-03 0. -1.
    9900012    2    1    2    0    0 -0.20124706601E+02 -0.55363246901E+01 -0.24105264554E+02  0.59301976635E+02  0.50000059467E+02 0.  0.
        -12    1    1    2    0    0  0.20124706601E+02  0.55363246901E+01  0.24105264554E+02  0.31886023365E+02  0.00000000000E+00 0.  1.
         11    1    3    3    0    0 -0.87630378798E+01  0.84769426246E+01  0.52434755076E+01  0.13271903586E+02  0.51100000000E-03 0. -1.
        -11    1    3    3    0    0 -0.36896192644E+01  0.93244487918E+01 -0.41945021638E+01  0.10869796882E+02  0.51100000000E-03 0.  1.
         12    1    3    3    0    0 -0.76720494567E+01 -0.23337716106E+02 -0.25154237897E+02  0.35160276167E+02  0.00000000000E+00 0. -1.
</event>
<event>
 7    1  0.1202531E-011  0.5930195E+02  0.7816164E-02  0.1266605E+00
        -11   -1    0    0    0    0  0.00000000000E+00  0.00000000000E+00  0.45593999997E+02  0.45594000000E+02  0.51100000000E-03 0.  1.
         11   -1    0    0    0    0 -0.00000000000E+00 -0.00000000000E+00 -0.45593999997E+02  0.45594000000E+02  0.51100000000E-03 0. -1.
    9900012    2    1    2    0    0 -0.11860554905E+02 -0.26341056376E+02  0.13498004102E+02  0.59301950882E+02  0.50000012500E+02 0.  0.
        -12    1    1    2    0    0  0.11860554905E+02  0.26341056376E+02 -0.13498004102E+02  0.31886049118E+02  0.00000000000E+00 0.  1.
         11    1    3    3    0    0  0.99045038266E+01  0.39735071024E+01  0.44210025161E+00  0.10680983458E+02  0.51100000000E-03 0. -1.
        -11    1    3    3    0    0 -0.19767652818E+02 -0.36758710987E+01  0.62219319312E+01  0.21047198471E+02  0.51100000000E-03 0.  1.
         12    1    3    3    0    0 -0.19974059137E+01 -0.26638692379E+02  0.68339719190E+01  0.27573768953E+02  0.00000000000E+00 0. -1.
</event>
<event>
 7    1  0.1202531E-011  0.5930195E+02  0.7816164E-02  0.1266605E+00
        -11   -1    0    0    0    0  0.00000000000E+00  0.00000000000E+00  0.45593999997E+02  0.45594000000E+02  0.51100000000E-03 0.  1.
         11   -1    0    0    0    0 -0.00000000000E+00 -0.00000000000E+00 -0.45593999997E+02  0.45594000000E+02  0.51100000000E-03 0. -1.
    9900012    2    1    2    0    0 -0.16106336648E+02  0.25478934780E+02  0.10398551860E+02  0.59301951663E+02  0.50000013925E+02 0.  0.
        -12    1    1    2    0    0  0.16106336648E+02 -0.25478934780E+02 -0.10398551860E+02  0.31886048337E+02  0.00000000000E+00 0.  1.
         11    1    3    3    0    0  0.43146084621E+01  0.44111189043E+00  0.20310227538E+01  0.47891000792E+01  0.51100000000E-03 0. -1.
        -11    1    3    3    0    0 -0.30460822662E+00  0.45747575283E+00  0.20503422252E+02  0.20510787272E+02  0.51100000000E-03 0.  1.
         12    1    3    3    0    0 -0.20116336883E+02  0.24580347137E+02 -0.12135893146E+02  0.34002064311E+02  0.00000000000E+00 0. -1.
</event>
<event>
 7    1  0.1202531E-011  0.5930198E+02  0.7816164E-02  0.1266605E+00
        -11   -1    0    0    0    0  0.00000000000E+00  0.00000000000E+00  0.45593999997E+02  0.45594000000E+02  0.51100000000E-03 0.  1.
         11   -1    0    0    0    0 -0.00000000000E+00 -0.00000000000E+00 -0.45593999997E+02  0.45594000000E+02  0.51100000000E-03 0. -1.
    9900012    2    1    2    0    0 -0.60860039161E+01  0.17962015178E+02 -0.25632886795E+02  0.59301979264E+02  0.50000064263E+02 0.  0.
        -12    1    1    2    0    0  0.60860039161E+01 -0.17962015178E+02  0.25632886795E+02  0.31886020736E+02  0.00000000000E+00 0.  1.
         11    1    3    3    0    0  0.14100561107E+02  0.43259362286E+01 -0.49561616083E+01  0.15559662140E+02  0.51100000000E-03 0. -1.
        -11    1    3    3    0    0 -0.41401633444E+01 -0.67937412424E+01 -0.15254206825E+02  0.17204263969E+02  0.51100000000E-03 0.  1.
        -12    1    3    3    0    0 -0.16046401678E+02  0.20429820191E+02 -0.54225183613E+01  0.26538053155E+02  0.00000000000E+00 0.  1.
</event>
<event>
 7    1  0.1202531E-011  0.5930196E+02  0.7816164E-02  0.1266605E+00
        -11   -1    0    0    0    0  0.00000000000E+00  0.00000000000E+00  0.45593999997E+02  0.45594000000E+02  0.51100000000E-03 0.  1.
         11   -1    0    0    0    0 -0.00000000000E+00 -0.00000000000E+00 -0.45593999997E+02  0.45594000000E+02  0.51100000000E-03 0. -1.
    9900012    2    1    2    0    0  0.20417281999E+02 -0.17264427580E+02 -0.17372217037E+02  0.59301956209E+02  0.50000022215E+02 0.  0.
        -12    1    1    2    0    0 -0.20417281999E+02  0.17264427580E+02  0.17372217037E+02  0.31886043791E+02  0.00000000000E+00 0.  1.
         11    1    3    3    0    0 -0.31417700824E+01 -0.10410569367E+01  0.46645203052E+01  0.57194640252E+01  0.51100000000E-03 0. -1.
        -11    1    3    3    0    0  0.96087943157E+01 -0.17086471074E+02  0.74340845580E+01  0.20965257819E+02  0.51100000000E-03 0.  1.
         12    1    3    3    0    0  0.13950257766E+02  0.86310043085E+00 -0.29470821900E+02  0.32617234364E+02  0.00000000000E+00 0. -1.
</event>
<event>
 7    1  0.1202531E-011  0.5930192E+02  0.7816164E-02  0.1266605E+00
        -11   -1    0    0    0    0  0.00000000000E+00  0.00000000000E+00  0.45593999997E+02  0.45594000000E+02  0.51100000000E-03 0. -1.
         11   -1    0    0    0    0 -0.00000000000E+00 -0.00000000000E+00 -0.45593999997E+02  0.45594000000E+02  0.51100000000E-03 0.  1.
    9900012    2    1    2    0    0  0.67555536190E+01 -0.31162025337E+02  0.11246282173E+00  0.59301921914E+02  0.49999959671E+02 0.  0.
        -12    1    1    2    0    0 -0.67555536190E+01  0.31162025337E+02 -0.11246282173E+00  0.31886078086E+02  0.00000000000E+00 0.  1.
         11    1    3    3    0    0 -0.45232354915E+00 -0.25907759699E+02 -0.12515254036E+02  0.28775826540E+02  0.51100000000E-03 0. -1.
        -11    1    3    3    0    0  0.13168589824E+02 -0.22443860330E+01 -0.28590943545E+01  0.13661019267E+02  0.51100000000E-03 0.  1.
         12    1    3    3    0    0 -0.59607126561E+01 -0.30098796049E+01  0.15486811212E+02  0.16865076108E+02  0.00000000000E+00 0. -1.
</event>
<event>
 7    1  0.1202531E-011  0.5930191E+02  0.7816164E-02  0.1266605E+00
        -11   -1    0    0    0    0  0.00000000000E+00  0.00000000000E+00  0.45593999997E+02  0.45594000000E+02  0.51100000000E-03 0.  1.
         11   -1    0    0    0    0 -0.00000000000E+00 -0.00000000000E+00 -0.45593999997E+02  0.45594000000E+02  0.51100000000E-03 0. -1.
    9900012    2    1    2    0    0 -0.28806176684E+02  0.13502728885E+02 -0.21454942476E+01  0.59301911371E+02  0.49999940442E+02 0.  0.
        -12    1    1    2    0    0  0.28806176684E+02 -0.13502728885E+02  0.21454942476E+01  0.31886088629E+02  0.00000000000E+00 0.  1.
         11    1    3    3    0    0 -0.14485189948E+02 -0.11550459372E+02 -0.65636916083E+00  0.18538194633E+02  0.51100000000E-03 0. -1.
        -11    1    3    3    0    0 -0.31052810727E+01  0.64702502642E+01  0.12872026373E+02  0.14737570093E+02  0.51100000000E-03 0.  1.
        -12    1    3    3    0    0 -0.11215705664E+02  0.18582937992E+02 -0.14361151460E+02  0.26026146645E+02  0.00000000000E+00 0.  1.
</event>
<event>
 7    1  0.1202531E-011  0.5930194E+02  0.7816164E-02  0.1266605E+00
        -11   -1    0    0    0    0  0.00000000000E+00  0.00000000000E+00  0.45593999997E+02  0.45594000000E+02  0.51100000000E-03 0.  1.
         11   -1    0    0    0    0 -0.00000000000E+00 -0.00000000000E+00 -0.45593999997E+02  0.45594000000E+02  0.51100000000E-03 0. -1.
    9900012    2    1    2    0    0  0.17668933041E+02  0.36760726502E+01 -0.26287188593E+02  0.59301937385E+02  0.49999987885E+02 0.  0.
        -12    1    1    2    0    0 -0.17668933041E+02 -0.36760726502E+01  0.26287188593E+02  0.31886062615E+02  0.00000000000E+00 0.  1.
         11    1    3    3    0    0  0.11379648959E+02 -0.92657892779E+00 -0.25201396291E+02  0.27667044190E+02  0.51100000000E-03 0. -1.
        -11    1    3    3    0    0 -0.10065196854E+02  0.28838345718E+01 -0.86052754874E+01  0.13552691837E+02  0.51100000000E-03 0.  1.
        -12    1    3    3    0    0  0.16354480936E+02  0.17188170063E+01  0.75194831853E+01  0.18082201358E+02  0.00000000000E+00 0.  1.
</event>
<event>
 7    1  0.1202531E-011  0.5930192E+02  0.7816164E-02  0.1266605E+00
        -11   -1    0    0    0    0  0.00000000000E+00  0.00000000000E+00  0.45593999997E+02  0.45594000000E+02  0.51100000000E-03 0. -1.
         11   -1    0    0    0    0 -0.00000000000E+00 -0.00000000000E+00 -0.45593999997E+02  0.45594000000E+02  0.51100000000E-03 0.  1.
    9900012    2    1    2    0    0  0.75469576055E+01 -0.29573584895E+02 -0.92286669006E+01  0.59301924898E+02  0.49999965113E+02 0.  0.
        -12    1    1    2    0    0 -0.75469576055E+01  0.29573584895E+02  0.92286669006E+01  0.31886075102E+02  0.00000000000E+00 0.  1.
         11    1    3    3    0    0  0.45466520882E+01 -0.81935208271E+01  0.19932926952E+02  0.22025607957E+02  0.51100000000E-03 0. -1.
        -11    1    3    3    0    0  0.25993559902E+01 -0.60509490835E+01 -0.15088074770E+02  0.16462704423E+02  0.51100000000E-03 0.  1.
        -12    1    3    3    0    0  0.40094952701E+00 -0.15329114984E+02 -0.14073519082E+02  0.20813612519E+02  0.00000000000E+00 0.  1.
</event>
<event>
 7    1  0.1202531E-011  0.5930196E+02  0.7816164E-02  0.1266605E+00
        -11   -1    0    0    0    0  0.00000000000E+00  0.00000000000E+00  0.45593999997E+02  0.45594000000E+02  0.51100000000E-03 0.  1.
         11   -1    0    0    0    0 -0.00000000000E+00 -0.00000000000E+00 -0.45593999997E+02  0.45594000000E+02  0.51100000000E-03 0. -1.
    9900012    2    1    2    0    0 -0.19983249804E+02 -0.55201150256E+01 -0.24226384266E+02  0.59301958583E+02  0.50000026546E+02 0.  0.
        -12    1    1    2    0    0  0.19983249804E+02  0.55201150256E+01  0.24226384266E+02  0.31886041417E+02  0.00000000000E+00 0.  1.
         11    1    3    3    0    0 -0.72787362180E+01 -0.73719050719E+01 -0.22409010259E+02  0.24687825468E+02  0.51100000000E-03 0. -1.
        -11    1    3    3    0    0 -0.17591306390E+02  0.13328920104E+02 -0.57387083142E+00  0.22078122648E+02  0.51100000000E-03 0.  1.
         12    1    3    3    0    0  0.48867928046E+01 -0.11477130058E+02 -0.12435031759E+01  0.12536010467E+02  0.00000000000E+00 0. -1.
</event>
<event>
 7    1  0.1202531E-011  0.5930189E+02  0.7816164E-02  0.1266605E+00
        -11   -1    0    0    0    0  0.00000000000E+00  0.00000000000E+00  0.45593999997E+02  0.45594000000E+02  0.51100000000E-03 0. -1.
         11   -1    0    0    0    0 -0.00000000000E+00 -0.00000000000E+00 -0.45593999997E+02  0.45594000000E+02  0.51100000000E-03 0.  1.
    9900012    2    1    2    0    0 -0.13227409219E+02 -0.80882510424E+01  0.27862871448E+02  0.59301893858E+02  0.49999908502E+02 0.  0.
        -12    1    1    2    0    0  0.13227409219E+02  0.80882510424E+01 -0.27862871448E+02  0.31886106142E+02  0.00000000000E+00 0.  1.
         11    1    3    3    0    0 -0.96961888614E+01  0.34030724358E+01 -0.17673362264E+01  0.10426910282E+02  0.51100000000E-03 0. -1.
        -11    1    3    3    0    0  0.31807309129E+01  0.10583723790E+02  0.21919379112E+02  0.24547737967E+02  0.51100000000E-03 0.  1.
         12    1    3    3    0    0 -0.67119512707E+01 -0.22075047268E+02  0.77108285624E+01  0.24327245608E+02  0.00000000000E+00 0. -1.
</event>
<event>
 7    1  0.1202531E-011  0.5930200E+02  0.7816164E-02  0.1266605E+00
        -11   -1    0    0    0    0  0.00000000000E+00  0.00000000000E+00  0.45593999997E+02  0.45594000000E+02  0.51100000000E-03 0.  1.
         11   -1    0    0    0    0 -0.00000000000E+00 -0.00000000000E+00 -0.45593999997E+02  0.45594000000E+02  0.51100000000E-03 0. -1.
    9900012    2    1    2    0    0 -0.19062282527E+02 -0.21901434432E+02 -0.13178517031E+02  0.59302003757E+02  0.50000108931E+02 0.  0.
        -12    1    1    2    0    0  0.19062282527E+02  0.21901434432E+02  0.13178517031E+02  0.31885996243E+02  0.00000000000E+00 0.  1.
         11    1    3    3    0    0 -0.52726525107E+01 -0.20033884105E+02 -0.22399644513E+01  0.20836861996E+02  0.51100000000E-03 0. -1.
        -11    1    3    3    0    0 -0.57441184998E+01 -0.14921294069E+02 -0.15700678682E+02  0.22408731008E+02  0.51100000000E-03 0.  1.
        -12    1    3    3    0    0 -0.80455115161E+01  0.13053743743E+02  0.47621261025E+01  0.16056410753E+02  0.00000000000E+00 0.  1.
</event>
<event>
 7    1  0.1202531E-011  0.5930190E+02  0.7816164E-02  0.1266605E+00
        -11   -1    0    0    0    0  0.00000000000E+00  0.00000000000E+00  0.45593999997E+02  0.45594000000E+02  0.51100000000E-03 0. -1.
         11   -1    0    0    0    0 -0.00000000000E+00 -0.00000000000E+00 -0.45593999997E+02  0.45594000000E+02  0.51100000000E-03 0.  1.
    9900012    2    1    2    0    0 -0.26844634824E+02  0.12704533824E+00  0.17206761132E+02  0.59301902904E+02  0.49999925000E+02 0.  0.
        -12    1    1    2    0    0  0.26844634824E+02 -0.12704533824E+00 -0.17206761132E+02  0.31886097096E+02  0.00000000000E+00 0.  1.
         11    1    3    3    0    0 -0.21216728568E+02 -0.73699382145E+01  0.13295858760E+02  0.26100678551E+02  0.51100000000E-03 0. -1.
        -11    1    3    3    0    0  0.56234643653E+01 -0.71538277555E+01  0.10217169879E+02  0.13681782180E+02  0.51100000000E-03 0.  1.
         12    1    3    3    0    0 -0.11251370622E+02  0.14650811308E+02 -0.63062675067E+01  0.19519442172E+02  0.00000000000E+00 0. -1.
</event>
<event>
 7    1  0.1202531E-011  0.5930196E+02  0.7816164E-02  0.1266605E+00
        -11   -1    0    0    0    0  0.00000000000E+00  0.00000000000E+00  0.45593999997E+02  0.45594000000E+02  0.51100000000E-03 0. -1.
         11   -1    0    0    0    0 -0.00000000000E+00 -0.00000000000E+00 -0.45593999997E+02  0.45594000000E+02  0.51100000000E-03 0.  1.
    9900012    2    1    2    0    0  0.56563094081E+01 -0.31321775384E+02  0.19162143307E+01  0.59301963452E+02  0.50000035426E+02 0.  0.
        -12    1    1    2    0    0 -0.56563094081E+01  0.31321775384E+02 -0.19162143307E+01  0.31886036548E+02  0.00000000000E+00 0.  1.
         11    1    3    3    0    0  0.97462866758E+01 -0.20265327861E+02  0.17326717628E+02  0.28388179958E+02  0.51100000000E-03 0. -1.
        -11    1    3    3    0    0 -0.29693233635E+00 -0.14326059480E+02  0.39433932832E+00  0.14334561480E+02  0.51100000000E-03 0.  1.
         12    1    3    3    0    0 -0.37930449313E+01  0.32696119574E+01 -0.15804842626E+02  0.16579222015E+02  0.00000000000E+00 0. -1.
</event>
<event>
 7    1  0.1202531E-011  0.5930197E+02  0.7816164E-02  0.1266605E+00
        -11   -1    0    0    0    0  0.00000000000E+00  0.00000000000E+00  0.45593999997E+02  0.45594000000E+02  0.51100000000E-03 0.  1.
         11   -1    0    0    0    0 -0.00000000000E+00 -0.00000000000E+00 -0.45593999997E+02  0.45594000000E+02  0.51100000000E-03 0. -1.
    9900012    2    1    2    0    0  0.29125805638E+02 -0.98351569038E+01 -0.84661869908E+01  0.59301965635E+02  0.50000039406E+02 0.  0.
        -12    1    1    2    0    0 -0.29125805638E+02  0.98351569038E+01  0.84661869908E+01  0.31886034365E+02  0.00000000000E+00 0.  1.
         11    1    3    3    0    0  0.32007576954E+01  0.19539038796E+01  0.13847470014E+01  0.39975135666E+01  0.51100000000E-03 0. -1.
        -11    1    3    3    0    0 -0.21567438276E+01 -0.12703573330E+02  0.13579699175E+02  0.18720057405E+02  0.51100000000E-03 0.  1.
         12    1    3    3    0    0  0.28081791770E+02  0.91451254685E+00 -0.23430633168E+02  0.36584394663E+02  0.00000000000E+00 0. -1.
</event>
<event>
 7    1  0.1202531E-011  0.5930194E+02  0.7816164E-02  0.1266605E+00
        -11   -1    0    0    0    0  0.00000000000E+00  0.00000000000E+00  0.45593999997E+02  0.45594000000E+02  0.51100000000E-03 0. -1.
         11   -1    0    0    0    0 -0.00000000000E+00 -0.00000000000E+00 -0.45593999997E+02  0.45594000000E+02  0.51100000000E-03 0.  1.
    9900012    2    1    2    0    0  0.26338778826E+02  0.58327929496E+01  0.16999070468E+02  0.59301935013E+02  0.49999983559E+02 0.  0.
        -12    1    1    2    0    0 -0.26338778826E+02 -0.58327929496E+01 -0.16999070468E+02  0.31886064987E+02  0.00000000000E+00 0.  1.
         11    1    3    3    0    0 -0.13707479653E+01  0.62926537811E+01  0.49191735703E+01  0.81039934890E+01  0.51100000000E-03 0. -1.
        -11    1    3    3    0    0  0.56124365221E+01 -0.17509693664E+02 -0.42356852856E+01  0.18868753165E+02  0.51100000000E-03 0.  1.
         12    1    3    3    0    0  0.22097090269E+02  0.17049832832E+02  0.16315582183E+02  0.32329188358E+02  0.00000000000E+00 0. -1.
</event>
<event>
 7    1  0.1202531E-011  0.5930188E+02  0.7816164E-02  0.1266605E+00
        -11   -1    0    0    0    0  0.00000000000E+00  0.00000000000E+00  0.45593999997E+02  0.45594000000E+02  0.51100000000E-03 0.  1.
         11   -1    0    0    0    0 -0.00000000000E+00 -0.00000000000E+00 -0.45593999997E+02  0.45594000000E+02  0.51100000000E-03 0. -1.
    9900012    2    1    2    0    0  0.25081180716E+02  0.97955268699E+01 -0.17079414046E+02  0.59301884574E+02  0.49999891571E+02 0.  0.
        -12    1    1    2    0    0 -0.25081180716E+02 -0.97955268699E+01  0.17079414046E+02  0.31886115426E+02  0.00000000000E+00 0.  1.
         11    1    3    3    0    0  0.35796513123E+01 -0.44586163047E+01  0.47598280506E+01  0.74396993355E+01  0.51100000000E-03 0. -1.
        -11    1    3    3    0    0 -0.34090546155E+01  0.78241683428E+01  0.85259380699E+01  0.12063618191E+02  0.51100000000E-03 0.  1.
         12    1    3    3    0    0  0.24910584019E+02  0.64299748318E+01 -0.30365180167E+02  0.39798567048E+02  0.00000000000E+00 0. -1.
</event>
<event>
 7    1  0.1202531E-011  0.5930198E+02  0.7816164E-02  0.1266605E+00
        -11   -1    0    0    0    0  0.00000000000E+00  0.00000000000E+00  0.45593999997E+02  0.45594000000E+02  0.51100000000E-03 0. -1.
         11   -1    0    0    0    0 -0.00000000000E+00 -0.00000000000E+00 -0.45593999997E+02  0.45594000000E+02  0.51100000000E-03 0.  1.
    9900012    2    1    2    0    0  0.90811217427E+01 -0.26908295972E+02  0.14498097936E+02  0.59301984131E+02  0.50000073139E+02 0.  0.
        -12    1    1    2    0    0 -0.90811217427E+01  0.26908295972E+02 -0.14498097936E+02  0.31886015869E+02  0.00000000000E+00 0.  1.
         11    1    3    3    0    0 -0.60119545448E+01 -0.80627271741E+01  0.10041789697E+02  0.14212273130E+02  0.51100000000E-03 0. -1.
        -11    1    3    3    0    0 -0.71043350969E+01  0.41976586097E+01  0.96264448570E+01  0.12679130720E+02  0.51100000000E-03 0.  1.
        -12    1    3    3    0    0  0.22197411384E+02 -0.23043227408E+02 -0.51701366180E+01  0.32410580281E+02  0.00000000000E+00 0.  1.
</event>
<event>
 7    1  0.1202531E-011  0.5930191E+02  0.7816164E-02  0.1266605E+00
        -11   -1    0    0    0    0  0.00000000000E+00  0.00000000000E+00  0.45593999997E+02  0.45594000000E+02  0.51100000000E-03 0.  1.
         11   -1    0    0    0    0 -0.00000000000E+00 -0.00000000000E+00 -0.45593999997E+02  0.45594000000E+02  0.51100000000E-03 0. -1.
    9900012    2    1    2    0    0  0.64939859380E+01 -0.30992413192E+02  0.37444644573E+01  0.59301913020E+02  0.49999943449E+02 0.  0.
        -12    1    1    2    0    0 -0.64939859380E+01  0.30992413192E+02 -0.37444644573E+01  0.31886086980E+02  0.00000000000E+00 0.  1.
         11    1    3    3    0    0  0.64271019365E+01 -0.77568992085E+01  0.24191395093E+02  0.26204975128E+02  0.51100000000E-03 0.  1.
        -11    1    3    3    0    0  0.50194893738E+01 -0.17512395190E+02 -0.12324361924E+02  0.21994752919E+02  0.51100000000E-03 0. -1.
        -12    1    3    3    0    0 -0.49526053723E+01 -0.57231187933E+01 -0.81225687122E+01  0.11102184973E+02  0.00000000000E+00 0.  1.
</event>
<event>
 7    1  0.1202531E-011  0.5930194E+02  0.7816164E-02  0.1266605E+00
        -11   -1    0    0    0    0  0.00000000000E+00  0.00000000000E+00  0.45593999997E+02  0.45594000000E+02  0.51100000000E-03 0.  1.
         11   -1    0    0    0    0 -0.00000000000E+00 -0.00000000000E+00 -0.45593999997E+02  0.45594000000E+02  0.51100000000E-03 0. -1.
    9900012    2    1    2    0    0  0.16397726379E+02 -0.23971605833E+02  0.13160445058E+02  0.59301943005E+02  0.49999998134E+02 0.  0.
        -12    1    1    2    0    0 -0.16397726379E+02  0.23971605833E+02 -0.13160445058E+02  0.31886056995E+02  0.00000000000E+00 0.  1.
         11    1    3    3    0    0  0.21168132625E+02 -0.57283833783E+01 -0.94653781132E+01  0.23885091543E+02  0.51100000000E-03 0. -1.
        -11    1    3    3    0    0  0.41157149587E+01 -0.71184814527E+01 -0.52361129627E+00  0.82392995372E+01  0.51100000000E-03 0.  1.
        -12    1    3    3    0    0 -0.88861212050E+01 -0.11124741002E+02  0.23149434467E+02  0.27177551924E+02  0.00000000000E+00 0.  1.
</event>
<event>
 7    1  0.1202531E-011  0.5930195E+02  0.7816164E-02  0.1266605E+00
        -11   -1    0    0    0    0  0.00000000000E+00  0.00000000000E+00  0.45593999997E+02  0.45594000000E+02  0.51100000000E-03 0.  1.
         11   -1    0    0    0    0 -0.00000000000E+00 -0.00000000000E+00 -0.45593999997E+02  0.45594000000E+02  0.51100000000E-03 0. -1.
    9900012    2    1    2    0    0  0.10306495666E+02  0.27043269279E+02 -0.13384997603E+02  0.59301946199E+02  0.50000003959E+02 0.  0.
        -12    1    1    2    0    0 -0.10306495666E+02 -0.27043269279E+02  0.13384997603E+02  0.31886053801E+02  0.00000000000E+00 0.  1.
         11    1    3    3    0    0 -0.15909716421E+01  0.20084200809E+01 -0.12776780057E+02  0.13031156928E+02  0.51100000000E-03 0. -1.
        -11    1    3    3    0    0  0.20254794773E+01 -0.90886965412E+01 -0.48440756564E+01  0.10496287018E+02  0.51100000000E-03 0.  1.
         12    1    3    3    0    0  0.98719878307E+01  0.34123545739E+02  0.42358581106E+01  0.35774502253E+02  0.00000000000E+00 0. -1.
</event>
<event>
 7    1  0.1202531E-011  0.5930186E+02  0.7816164E-02  0.1266605E+00
        -11   -1    0    0    0    0  0.00000000000E+00  0.00000000000E+00  0.45593999997E+02  0.45594000000E+02  0.51100000000E-03 0.  1.
         11   -1    0    0    0    0 -0.00000000000E+00 -0.00000000000E+00 -0.45593999997E+02  0.45594000000E+02  0.51100000000E-03 0. -1.
    9900012    2    1    2    0    0 -0.27796474651E+02  0.67301584705E+01  0.14099171845E+02  0.59301863785E+02  0.49999853655E+02 0.  0.
        -12    1    1    2    0    0  0.27796474651E+02 -0.67301584705E+01 -0.14099171845E+02  0.31886136215E+02  0.00000000000E+00 0.  1.
         11    1    3    3    0    0 -0.31477185054E+01  0.13239693847E+02  0.23874862864E+01  0.13816573959E+02  0.51100000000E-03 0. -1.
        -11    1    3    3    0    0  0.63742611160E+01  0.54775569657E+01  0.86910538663E+01  0.12090047670E+02  0.51100000000E-03 0.  1.
         12    1    3    3    0    0 -0.31023017261E+02 -0.11987092342E+02  0.30206316922E+01  0.33395242155E+02  0.00000000000E+00 0. -1.
</event>
<event>
 7    1  0.1202531E-011  0.5930194E+02  0.7816164E-02  0.1266605E+00
        -11   -1    0    0    0    0  0.00000000000E+00  0.00000000000E+00  0.45593999997E+02  0.45594000000E+02  0.51100000000E-03 0. -1.
         11   -1    0    0    0    0 -0.00000000000E+00 -0.00000000000E+00 -0.45593999997E+02  0.45594000000E+02  0.51100000000E-03 0.  1.
    9900012    2    1    2    0    0  0.14923524879E+02  0.20747228191E+02  0.19067292892E+02  0.59301941437E+02  0.49999995276E+02 0.  0.
        -12    1    1    2    0    0 -0.14923524879E+02 -0.20747228191E+02 -0.19067292892E+02  0.31886058563E+02  0.00000000000E+00 0.  1.
         11    1    3    3    0    0  0.23823427620E+02  0.56809554428E+01  0.14963489539E+01  0.24537074373E+02  0.51100000000E-03 0. -1.
        -11    1    3    3    0    0  0.16746036370E+01  0.93915597996E+01 -0.37888824067E+01  0.10264566380E+02  0.51100000000E-03 0.  1.
         12    1    3    3    0    0 -0.10574506378E+02  0.56747129484E+01  0.21359826345E+02  0.24500300685E+02  0.00000000000E+00 0. -1.
</event>
<event>
 7    1  0.1202531E-011  0.5930193E+02  0.7816164E-02  0.1266605E+00
        -11   -1    0    0    0    0  0.00000000000E+00  0.00000000000E+00  0.45593999997E+02  0.45594000000E+02  0.51100000000E-03 0.  1.
         11   -1    0    0    0    0 -0.00000000000E+00 -0.00000000000E+00 -0.45593999997E+02  0.45594000000E+02  0.51100000000E-03 0. -1.
    9900012    2    1    2    0    0 -0.14461021263E+02 -0.27474129413E+02 -0.72644492217E+01  0.59301934933E+02  0.49999983413E+02 0.  0.
        -12    1    1    2    0    0  0.14461021263E+02  0.27474129413E+02  0.72644492217E+01  0.31886065067E+02  0.00000000000E+00 0.  1.
         11    1    3    3    0    0  0.33404801801E+01 -0.11529974378E+02  0.33398003347E+01  0.12460071570E+02  0.51100000000E-03 0.  1.
        -11    1    3    3    0    0 -0.11546815476E+02 -0.28513805114E+01  0.13943079621E+02  0.18326723331E+02  0.51100000000E-03 0. -1.
         12    1    3    3    0    0 -0.62546859671E+01 -0.13092774524E+02 -0.24547329178E+02  0.28515140032E+02  0.00000000000E+00 0. -1.
</event>
<event>
 7    1  0.1202531E-011  0.5930191E+02  0.7816164E-02  0.1266605E+00
        -11   -1    0    0    0    0  0.00000000000E+00  0.00000000000E+00  0.45593999997E+02  0.45594000000E+02  0.51100000000E-03 0.  1.
         11   -1    0    0    0    0 -0.00000000000E+00 -0.00000000000E+00 -0.45593999997E+02  0.45594000000E+02  0.51100000000E-03 0. -1.
    9900012    2    1    2    0    0 -0.96489422856E+01  0.20559104457E+02 -0.22381771940E+02  0.59301912462E+02  0.49999942431E+02 0.  0.
        -12    1    1    2    0    0  0.96489422856E+01 -0.20559104457E+02  0.22381771940E+02  0.31886087538E+02  0.00000000000E+00 0.  1.
         11    1    3    3    0    0  0.82804527384E+01  0.10649999361E+02 -0.10438258422E+02  0.17057128220E+02  0.51100000000E-03 0. -1.
        -11    1    3    3    0    0 -0.50829352678E+01 -0.13164709770E+02 -0.40665930436E+01  0.14686149717E+02  0.51100000000E-03 0.  1.
         12    1    3    3    0    0 -0.12846459756E+02  0.23073814866E+02 -0.78769204745E+01  0.27558634525E+02  0.00000000000E+00 0. -1.
</event>
<event>
 7    1  0.1202531E-011  0.5930193E+02  0.7816164E-02  0.1266605E+00
        -11   -1    0    0    0    0  0.00000000000E+00  0.00000000000E+00  0.45593999997E+02  0.45594000000E+02  0.51100000000E-03 0.  1.
         11   -1    0    0    0    0 -0.00000000000E+00 -0.00000000000E+00 -0.45593999997E+02  0.45594000000E+02  0.51100000000E-03 0. -1.
    9900012    2    1    2    0    0 -0.78168740643E+01 -0.30907732565E+02  0.57453579875E+00  0.59301928686E+02  0.49999972021E+02 0.  0.
        -12    1    1    2    0    0  0.78168740643E+01  0.30907732565E+02 -0.57453579875E+00  0.31886071314E+02  0.00000000000E+00 0.  1.
         11    1    3    3    0    0  0.34719553994E+01 -0.87075360230E+01  0.24789326361E+01  0.96964305372E+01  0.51100000000E-03 0. -1.
        -11    1    3    3    0    0 -0.14582143470E+02 -0.16956302996E+02  0.18032882086E+02  0.28728730498E+02  0.51100000000E-03 0.  1.
        -12    1    3    3    0    0  0.32933140063E+01 -0.52438935463E+01 -0.19937278924E+02  0.20876767651E+02  0.00000000000E+00 0.  1.
</event>
<event>
 7    1  0.1202531E-011  0.5930196E+02  0.7816164E-02  0.1266605E+00
        -11   -1    0    0    0    0  0.00000000000E+00  0.00000000000E+00  0.45593999997E+02  0.45594000000E+02  0.51100000000E-03 0.  1.
         11   -1    0    0    0    0 -0.00000000000E+00 -0.00000000000E+00 -0.45593999997E+02  0.45594000000E+02  0.51100000000E-03 0. -1.
    9900012    2    1    2    0    0  0.23508218042E+02  0.19700056278E+02 -0.87172952309E+01  0.59301956517E+02  0.50000022777E+02 0.  0.
        -12    1    1    2    0    0 -0.23508218042E+02 -0.19700056278E+02  0.87172952309E+01  0.31886043483E+02  0.00000000000E+00 0.  1.
         11    1    3    3    0    0 -0.88516571350E+00  0.10747334835E+02 -0.91418573190E+01  0.14137265645E+02  0.51100000000E-03 0. -1.
        -11    1    3    3    0    0 -0.89657260119E+01  0.30405418164E+01 -0.52319433565E+01  0.10816763333E+02  0.51100000000E-03 0.  1.
        -12    1    3    3    0    0  0.33359109767E+02  0.59121796267E+01  0.56565054446E+01  0.34347927539E+02  0.00000000000E+00 0.  1.
</event>
<event>
 7    1  0.1202531E-011  0.5930194E+02  0.7816164E-02  0.1266605E+00
        -11   -1    0    0    0    0  0.00000000000E+00  0.00000000000E+00  0.45593999997E+02  0.45594000000E+02  0.51100000000E-03 0.  1.
         11   -1    0    0    0    0 -0.00000000000E+00 -0.00000000000E+00 -0.45593999997E+02  0.45594000000E+02  0.51100000000E-03 0. -1.
    9900012    2    1    2    0    0 -0.25183133203E+02  0.12560823816E+02 -0.14991886035E+02  0.59301935023E+02  0.49999983577E+02 0.  0.
        -12    1    1    2    0    0  0.25183133203E+02 -0.12560823816E+02  0.14991886035E+02  0.31886064977E+02  0.00000000000E+00 0.  1.
         11    1    3    3    0    0 -0.26438827856E+01  0.24204768209E+02 -0.95024590857E+01  0.26137284655E+02  0.51100000000E-03 0. -1.
        -11    1    3    3    0    0 -0.10460637592E+02  0.50510289492E+01  0.73324598077E+00  0.11639393550E+02  0.51100000000E-03 0.  1.
         12    1    3    3    0    0 -0.12078612825E+02 -0.16694973342E+02 -0.62226729297E+01  0.21525256817E+02  0.00000000000E+00 0. -1.
</event>
<event>
 7    1  0.1202531E-011  0.5930195E+02  0.7816164E-02  0.1266605E+00
        -11   -1    0    0    0    0  0.00000000000E+00  0.00000000000E+00  0.45593999997E+02  0.45594000000E+02  0.51100000000E-03 0. -1.
         11   -1    0    0    0    0 -0.00000000000E+00 -0.00000000000E+00 -0.45593999997E+02  0.45594000000E+02  0.51100000000E-03 0.  1.
    9900012    2    1    2    0    0  0.25346563308E+02 -0.11273397470E+02  0.15722032853E+02  0.59301951654E+02  0.50000013909E+02 0.  0.
        -12    1    1    2    0    0 -0.25346563308E+02  0.11273397470E+02 -0.15722032853E+02  0.31886048346E+02  0.00000000000E+00 0.  1.
         11    1    3    3    0    0  0.11424750959E+02  0.14784300092E+02  0.19553020298E+02  0.27044797405E+02  0.51100000000E-03 0. -1.
        -11    1    3    3    0    0 -0.10059877805E+00  0.60627137119E+00 -0.19809405745E+01  0.20740807387E+01  0.51100000000E-03 0.  1.
         12    1    3    3    0    0  0.14022411127E+02 -0.26663968933E+02 -0.18500468699E+01  0.30183073510E+02  0.00000000000E+00 0. -1.
</event>
<event>
 7    1  0.1202531E-011  0.5930196E+02  0.7816164E-02  0.1266605E+00
        -11   -1    0    0    0    0  0.00000000000E+00  0.00000000000E+00  0.45593999997E+02  0.45594000000E+02  0.51100000000E-03 0. -1.
         11   -1    0    0    0    0 -0.00000000000E+00 -0.00000000000E+00 -0.45593999997E+02  0.45594000000E+02  0.51100000000E-03 0.  1.
    9900012    2    1    2    0    0  0.44398566933E+01 -0.22544614138E+02  0.22107635843E+02  0.59301960474E+02  0.50000029994E+02 0.  0.
        -12    1    1    2    0    0 -0.44398566933E+01  0.22544614138E+02 -0.22107635843E+02  0.31886039526E+02  0.00000000000E+00 0.  1.
         11    1    3    3    0    0 -0.36701704901E+01  0.51809922300E+00  0.84252535133E+01  0.92045355807E+01  0.51100000000E-03 0. -1.
        -11    1    3    3    0    0  0.68041008624E+01 -0.24468267792E+02  0.26752343880E+02  0.36887393790E+02  0.51100000000E-03 0.  1.
        -12    1    3    3    0    0  0.13059263210E+01  0.14055544301E+01 -0.13069961551E+02  0.13210031103E+02  0.00000000000E+00 0.  1.
</event>
<event>
 7    1  0.1202531E-011  0.5930192E+02  0.7816164E-02  0.1266605E+00
        -11   -1    0    0    0    0  0.00000000000E+00  0.00000000000E+00  0.45593999997E+02  0.45594000000E+02  0.51100000000E-03 0. -1.
         11   -1    0    0    0    0 -0.00000000000E+00 -0.00000000000E+00 -0.45593999997E+02  0.45594000000E+02  0.51100000000E-03 0.  1.
    9900012    2    1    2    0    0 -0.30697226374E+02  0.50551535224E+01 -0.69891248196E+01  0.59301919181E+02  0.49999954686E+02 0.  0.
        -12    1    1    2    0    0  0.30697226374E+02 -0.50551535224E+01  0.69891248196E+01  0.31886080819E+02  0.00000000000E+00 0.  1.
         11    1    3    3    0    0 -0.25107427480E+02  0.68356763319E+01  0.14976037860E+02  0.30023175978E+02  0.51100000000E-03 0. -1.
        -11    1    3    3    0    0 -0.60349265110E+01 -0.52914498767E+01 -0.10831380428E+01  0.80989485781E+01  0.51100000000E-03 0.  1.
        -12    1    3    3    0    0  0.44512761626E+00  0.35109270672E+01 -0.20882024636E+02  0.21179794626E+02  0.00000000000E+00 0.  1.
</event>
<event>
 7    1  0.1202531E-011  0.5930194E+02  0.7816164E-02  0.1266605E+00
        -11   -1    0    0    0    0  0.00000000000E+00  0.00000000000E+00  0.45593999997E+02  0.45594000000E+02  0.51100000000E-03 0.  1.
         11   -1    0    0    0    0 -0.00000000000E+00 -0.00000000000E+00 -0.45593999997E+02  0.45594000000E+02  0.51100000000E-03 0. -1.
    9900012    2    1    2    0    0  0.22534700918E+02  0.22487664529E+02  0.17924830489E+01  0.59301940398E+02  0.49999993381E+02 0.  0.
        -12    1    1    2    0    0 -0.22534700918E+02 -0.22487664529E+02 -0.17924830489E+01  0.31886059602E+02  0.00000000000E+00 0.  1.
         11    1    3    3    0    0  0.75174975372E-01 -0.90882419512E+01 -0.57910111434E+01  0.10776715797E+02  0.51100000000E-03 0. -1.
        -11    1    3    3    0    0  0.14955408231E+02  0.38343769731E+00 -0.18755293980E+01  0.15077429178E+02  0.51100000000E-03 0.  1.
         12    1    3    3    0    0  0.75041177117E+01  0.31192468783E+02  0.94590235903E+01  0.33447795423E+02  0.00000000000E+00 0. -1.
</event>
<event>
 7    1  0.1202531E-011  0.5930195E+02  0.7816164E-02  0.1266605E+00
        -11   -1    0    0    0    0  0.00000000000E+00  0.00000000000E+00  0.45593999997E+02  0.45594000000E+02  0.51100000000E-03 0. -1.
         11   -1    0    0    0    0 -0.00000000000E+00 -0.00000000000E+00 -0.45593999997E+02  0.45594000000E+02  0.51100000000E-03 0.  1.
    9900012    2    1    2    0    0  0.25153654976E+02  0.10900280388E+02  0.16284894043E+02  0.59301949050E+02  0.50000009160E+02 0.  0.
        -12    1    1    2    0    0 -0.25153654976E+02 -0.10900280388E+02 -0.16284894043E+02  0.31886050950E+02  0.00000000000E+00 0.  1.
         11    1    3    3    0    0  0.24151937463E+02  0.11964664305E+02  0.23462591439E+02  0.35734611687E+02  0.51100000000E-03 0. -1.
        -11    1    3    3    0    0 -0.11671573919E+01  0.51358160872E+01  0.65168001401E+01  0.83789944257E+01  0.51100000000E-03 0.  1.
        -12    1    3    3    0    0  0.21688749046E+01 -0.62002000038E+01 -0.13694497536E+02  0.15188342938E+02  0.00000000000E+00 0.  1.
</event>
<event>
 7    1  0.1202531E-011  0.5930193E+02  0.7816164E-02  0.1266605E+00
        -11   -1    0    0    0    0  0.00000000000E+00  0.00000000000E+00  0.45593999997E+02  0.45594000000E+02  0.51100000000E-03 0.  1.
         11   -1    0    0    0    0 -0.00000000000E+00 -0.00000000000E+00 -0.45593999997E+02  0.45594000000E+02  0.51100000000E-03 0. -1.
    9900012    2    1    2    0    0 -0.85865485743E+01 -0.19922854447E+02 -0.23368195988E+02  0.59301928912E+02  0.49999972432E+02 0.  0.
        -12    1    1    2    0    0  0.85865485743E+01  0.19922854447E+02  0.23368195988E+02  0.31886071088E+02  0.00000000000E+00 0.  1.
         11    1    3    3    0    0  0.60822285408E+01 -0.10221828668E+02  0.13187330962E+01  0.11967386623E+02  0.51100000000E-03 0. -1.
        -11    1    3    3    0    0 -0.11323027647E+02 -0.15519530290E+02  0.24620228368E+01  0.19368229971E+02  0.51100000000E-03 0.  1.
        -12    1    3    3    0    0 -0.33457494682E+01  0.58185045109E+01 -0.27148951921E+02  0.27966312318E+02  0.00000000000E+00 0.  1.
</event>
<event>
 7    1  0.1202531E-011  0.5930195E+02  0.7816164E-02  0.1266605E+00
        -11   -1    0    0    0    0  0.00000000000E+00  0.00000000000E+00  0.45593999997E+02  0.45594000000E+02  0.51100000000E-03 0.  1.
         11   -1    0    0    0    0 -0.00000000000E+00 -0.00000000000E+00 -0.45593999997E+02  0.45594000000E+02  0.51100000000E-03 0. -1.
    9900012    2    1    2    0    0  0.11863535488E+02  0.16543870395E+01 -0.29550631174E+02  0.59301948605E+02  0.50000008348E+02 0.  0.
        -12    1    1    2    0    0 -0.11863535488E+02 -0.16543870395E+01  0.29550631174E+02  0.31886051395E+02  0.00000000000E+00 0.  1.
         11    1    3    3    0    0 -0.66950414031E+01  0.55726392950E+01 -0.16808018996E+02  0.18931122284E+02  0.51100000000E-03 0. -1.
        -11    1    3    3    0    0 -0.73730630606E+01  0.19233718274E+01  0.43442665706E+01  0.87712068941E+01  0.51100000000E-03 0.  1.
         12    1    3    3    0    0  0.25931639952E+02 -0.58416240828E+01 -0.17086878749E+02  0.31599619427E+02  0.00000000000E+00 0. -1.
</event>
<event>
 7    1  0.1202531E-011  0.5930196E+02  0.7816164E-02  0.1266605E+00
        -11   -1    0    0    0    0  0.00000000000E+00  0.00000000000E+00  0.45593999997E+02  0.45594000000E+02  0.51100000000E-03 0. -1.
         11   -1    0    0    0    0 -0.00000000000E+00 -0.00000000000E+00 -0.45593999997E+02  0.45594000000E+02  0.51100000000E-03 0.  1.
    9900012    2    1    2    0    0  0.55682229702E+01 -0.31049990311E+02  0.46489469710E+01  0.59301957391E+02  0.50000024371E+02 0.  0.
        -12    1    1    2    0    0 -0.55682229702E+01  0.31049990311E+02 -0.46489469710E+01  0.31886042609E+02  0.00000000000E+00 0.  1.
         11    1    3    3    0    0 -0.30197811637E+01 -0.34620598139E+01 -0.97155407671E+01  0.10746937661E+02  0.51100000000E-03 0. -1.
        -11    1    3    3    0    0  0.11900371271E+02 -0.32478080677E+01 -0.85124783992E+01  0.14987640988E+02  0.51100000000E-03 0.  1.
         12    1    3    3    0    0 -0.33123671375E+01 -0.24340122429E+02  0.22876966137E+02  0.33567378741E+02  0.00000000000E+00 0. -1.
</event>
<event>
 7    1  0.1202531E-011  0.5930191E+02  0.7816164E-02  0.1266605E+00
        -11   -1    0    0    0    0  0.00000000000E+00  0.00000000000E+00  0.45593999997E+02  0.45594000000E+02  0.51100000000E-03 0. -1.
         11   -1    0    0    0    0 -0.00000000000E+00 -0.00000000000E+00 -0.45593999997E+02  0.45594000000E+02  0.51100000000E-03 0.  1.
    9900012    2    1    2    0    0 -0.24426678224E+02 -0.15905791294E+02  0.12925390033E+02  0.59301913485E+02  0.49999944298E+02 0.  0.
        -12    1    1    2    0    0  0.24426678224E+02  0.15905791294E+02 -0.12925390033E+02  0.31886086515E+02  0.00000000000E+00 0.  1.
         11    1    3    3    0    0  0.76837205353E+01 -0.17828758119E+02  0.16725478439E+00  0.19414740579E+02  0.51100000000E-03 0. -1.
        -11    1    3    3    0    0 -0.41566633903E+01 -0.51238584474E+00  0.11002533052E+02  0.11772685488E+02  0.51100000000E-03 0.  1.
        -12    1    3    3    0    0 -0.27953735369E+02  0.24353526704E+01  0.17556021972E+01  0.28114487418E+02  0.00000000000E+00 0.  1.
</event>
<event>
 7    1  0.1202531E-011  0.5930192E+02  0.7816164E-02  0.1266605E+00
        -11   -1    0    0    0    0  0.00000000000E+00  0.00000000000E+00  0.45593999997E+02  0.45594000000E+02  0.51100000000E-03 0.  1.
         11   -1    0    0    0    0 -0.00000000000E+00 -0.00000000000E+00 -0.45593999997E+02  0.45594000000E+02  0.51100000000E-03 0. -1.
    9900012    2    1    2    0    0  0.94057802556E+01  0.25695908448E+02 -0.16369897134E+02  0.59301922390E+02  0.49999960537E+02 0.  0.
        -12    1    1    2    0    0 -0.94057802556E+01 -0.25695908448E+02  0.16369897134E+02  0.31886077610E+02  0.00000000000E+00 0.  1.
         11    1    3    3    0    0 -0.10293393338E+02  0.28541399657E+02 -0.11147398899E+01  0.30361292563E+02  0.51100000000E-03 0. -1.
        -11    1    3    3    0    0  0.89282400438E+00  0.39773622173E+00  0.26176793843E+01  0.27942037193E+01  0.51100000000E-03 0.  1.
         12    1    3    3    0    0  0.18806349589E+02 -0.32432274305E+01 -0.17872836629E+02  0.26146426108E+02  0.00000000000E+00 0. -1.
</event>
<event>
 7    1  0.1202531E-011  0.5930235E+02  0.7816164E-02  0.1266603E+00
        -11   -1    0    0    0    0  0.00000000000E+00  0.00000000000E+00  0.45593999997E+02  0.45594000000E+02  0.51100000000E-03 0.  1.
         11   -1    0    0    0    0 -0.00000000000E+00 -0.00000000000E+00 -0.45593999997E+02  0.45594000000E+02  0.51100000000E-03 0. -1.
    9900012    2    1    2    0    0  0.77189811590E+01 -0.30834909626E+02 -0.25139827048E+01  0.59302353844E+02  0.50000747401E+02 0.  0.
        -12    1    1    2    0    0 -0.77189811590E+01  0.30834909626E+02  0.25139827048E+01  0.31885646156E+02  0.00000000000E+00 0.  1.
         11    1    3    3    0    0 -0.15094955868E+02 -0.22344721222E+02 -0.56312462501E+00  0.26971491778E+02  0.51100000000E-03 0. -1.
        -11    1    3    3    0    0  0.68631140499E+01 -0.13800152308E+02 -0.52989468383E-01  0.15412635931E+02  0.51100000000E-03 0.  1.
         12    1    3    3    0    0  0.15950822977E+02  0.53099639038E+01 -0.18978686114E+01  0.16918226135E+02  0.00000000000E+00 0. -1.
</event>
<event>
 7    1  0.1202531E-011  0.5930193E+02  0.7816164E-02  0.1266605E+00
        -11   -1    0    0    0    0  0.00000000000E+00  0.00000000000E+00  0.45593999997E+02  0.45594000000E+02  0.51100000000E-03 0. -1.
         11   -1    0    0    0    0 -0.00000000000E+00 -0.00000000000E+00 -0.45593999997E+02  0.45594000000E+02  0.51100000000E-03 0.  1.
    9900012    2    1    2    0    0  0.48248876804E+01 -0.24267314645E+02  0.20113164196E+02  0.59301929763E+02  0.49999973984E+02 0.  0.
        -12    1    1    2    0    0 -0.48248876804E+01  0.24267314645E+02 -0.20113164196E+02  0.31886070237E+02  0.00000000000E+00 0.  1.
         11    1    3    3    0    0  0.93837184642E+01 -0.49280307982E+01  0.19586193091E+02  0.22270128419E+02  0.51100000000E-03 0. -1.
        -11    1    3    3    0    0  0.13001873256E+02 -0.12789767911E+02  0.11990815740E+01  0.18277436042E+02  0.51100000000E-03 0.  1.
        -12    1    3    3    0    0 -0.17560704040E+02 -0.65495159354E+01 -0.67211046841E+00  0.18754365301E+02  0.00000000000E+00 0.  1.
</event>
<event>
 7    1  0.1202531E-011  0.5930196E+02  0.7816164E-02  0.1266605E+00
        -11   -1    0    0    0    0  0.00000000000E+00  0.00000000000E+00  0.45593999997E+02  0.45594000000E+02  0.51100000000E-03 0. -1.
         11   -1    0    0    0    0 -0.00000000000E+00 -0.00000000000E+00 -0.45593999997E+02  0.45594000000E+02  0.51100000000E-03 0.  1.
    9900012    2    1    2    0    0  0.30235383948E+02  0.96389205548E+01 -0.31036390995E+01  0.59301955911E+02  0.50000021673E+02 0.  0.
        -12    1    1    2    0    0 -0.30235383948E+02 -0.96389205548E+01  0.31036390995E+01  0.31886044089E+02  0.00000000000E+00 0.  1.
         11    1    3    3    0    0 -0.27820053219E+00  0.12610937905E+02  0.18219657164E+01  0.12744909168E+02  0.51100000000E-03 0. -1.
        -11    1    3    3    0    0  0.12765046754E+02 -0.98959400615E+01 -0.17434390376E+02  0.23766236899E+02  0.51100000000E-03 0.  1.
         12    1    3    3    0    0  0.17748537727E+02  0.69239227118E+01  0.12508785560E+02  0.22790809844E+02  0.00000000000E+00 0. -1.
</event>
<event>
 7    1  0.1202531E-011  0.5930196E+02  0.7816164E-02  0.1266605E+00
        -11   -1    0    0    0    0  0.00000000000E+00  0.00000000000E+00  0.45593999997E+02  0.45594000000E+02  0.51100000000E-03 0.  1.
         11   -1    0    0    0    0 -0.00000000000E+00 -0.00000000000E+00 -0.45593999997E+02  0.45594000000E+02  0.51100000000E-03 0. -1.
    9900012    2    1    2    0    0 -0.12669416124E+02 -0.26019539853E+02  0.13386145295E+02  0.59301961599E+02  0.50000032046E+02 0.  0.
        -12    1    1    2    0    0  0.12669416124E+02  0.26019539853E+02 -0.13386145295E+02  0.31886038401E+02  0.00000000000E+00 0.  1.
         11    1    3    3    0    0 -0.26567929545E+02 -0.23376378605E+02 -0.17279514942E+01  0.35430153452E+02  0.51100000000E-03 0. -1.
        -11    1    3    3    0    0  0.26809836933E+01 -0.32215822273E+01  0.11230264757E+02  0.11986872503E+02  0.51100000000E-03 0.  1.
        -12    1    3    3    0    0  0.11217529728E+02  0.57842098017E+00  0.38838320316E+01  0.11884935644E+02  0.00000000000E+00 0.  1.
</event>
<event>
 7    1  0.1202531E-011  0.5930194E+02  0.7816164E-02  0.1266605E+00
        -11   -1    0    0    0    0  0.00000000000E+00  0.00000000000E+00  0.45593999997E+02  0.45594000000E+02  0.51100000000E-03 0.  1.
         11   -1    0    0    0    0 -0.00000000000E+00 -0.00000000000E+00 -0.45593999997E+02  0.45594000000E+02  0.51100000000E-03 0. -1.
    9900012    2    1    2    0    0  0.22239907491E+02 -0.83613733959E+01 -0.21264867606E+02  0.59301942787E+02  0.49999997738E+02 0.  0.
        -12    1    1    2    0    0 -0.22239907491E+02  0.83613733959E+01  0.21264867606E+02  0.31886057213E+02  0.00000000000E+00 0.  1.
         11    1    3    3    0    0 -0.61373555777E+01 -0.93847086658E-01  0.48604699043E+01  0.78294385951E+01  0.51100000000E-03 0.  1.
        -11    1    3    3    0    0  0.10776128033E+02 -0.20298908028E+02 -0.14739620380E+02  0.27302509257E+02  0.51100000000E-03 0. -1.
        -12    1    3    3    0    0  0.17601135037E+02  0.12031381718E+02 -0.11385717129E+02  0.24169994936E+02  0.00000000000E+00 0.  1.
</event>
<event>
 7    1  0.1202531E-011  0.5930195E+02  0.7816164E-02  0.1266605E+00
        -11   -1    0    0    0    0  0.00000000000E+00  0.00000000000E+00  0.45593999997E+02  0.45594000000E+02  0.51100000000E-03 0.  1.
         11   -1    0    0    0    0 -0.00000000000E+00 -0.00000000000E+00 -0.45593999997E+02  0.45594000000E+02  0.51100000000E-03 0. -1.
    9900012    2    1    2    0    0  0.16859916380E+02 -0.11953896589E+02 -0.24281021287E+02  0.59301946328E+02  0.50000004196E+02 0.  0.
        -12    1    1    2    0    0 -0.16859916380E+02  0.11953896589E+02  0.24281021287E+02  0.31886053672E+02  0.00000000000E+00 0.  1.
         11    1    3    3    0    0  0.19723559201E+01 -0.14010400681E+02  0.37907399816E+01  0.14647567203E+02  0.51100000000E-03 0. -1.
        -11    1    3    3    0    0  0.83297307412E+01  0.21548083633E+00  0.57691533960E+01  0.10134790446E+02  0.51100000000E-03 0.  1.
        -12    1    3    3    0    0  0.65578297190E+01  0.18410232551E+01 -0.33840914665E+02  0.34519588679E+02  0.00000000000E+00 0.  1.
</event>
<event>
 7    1  0.1202531E-011  0.5930191E+02  0.7816164E-02  0.1266605E+00
        -11   -1    0    0    0    0  0.00000000000E+00  0.00000000000E+00  0.45593999997E+02  0.45594000000E+02  0.51100000000E-03 0.  1.
         11   -1    0    0    0    0 -0.00000000000E+00 -0.00000000000E+00 -0.45593999997E+02  0.45594000000E+02  0.51100000000E-03 0. -1.
    9900012    2    1    2    0    0  0.18307772540E+02 -0.17380266044E+02 -0.19480106229E+02  0.59301910214E+02  0.49999938332E+02 0.  0.
        -12    1    1    2    0    0 -0.18307772540E+02  0.17380266044E+02  0.19480106229E+02  0.31886089786E+02  0.00000000000E+00 0.  1.
         11    1    3    3    0    0 -0.38812893415E+00  0.27021889276E+00  0.81739846614E+00  0.94435312944E+00  0.51100000000E-03 0. -1.
        -11    1    3    3    0    0 -0.98040345817E+01  0.97241827409E+01 -0.11265843340E+02  0.17821280832E+02  0.51100000000E-03 0.  1.
         12    1    3    3    0    0  0.28499936056E+02 -0.27374667677E+02 -0.90316613546E+01  0.40536276253E+02  0.00000000000E+00 0. -1.
</event>
<event>
 7    1  0.1202531E-011  0.5930194E+02  0.7816164E-02  0.1266605E+00
        -11   -1    0    0    0    0  0.00000000000E+00  0.00000000000E+00  0.45593999997E+02  0.45594000000E+02  0.51100000000E-03 0.  1.
         11   -1    0    0    0    0 -0.00000000000E+00 -0.00000000000E+00 -0.45593999997E+02  0.45594000000E+02  0.51100000000E-03 0. -1.
    9900012    2    1    2    0    0 -0.97268571674E+01 -0.72836892203E+01 -0.29479769663E+02  0.59301941943E+02  0.49999996198E+02 0.  0.
        -12    1    1    2    0    0  0.97268571674E+01  0.72836892203E+01  0.29479769663E+02  0.31886058057E+02  0.00000000000E+00 0.  1.
         11    1    3    3    0    0  0.23813145553E+01 -0.41751054988E+01  0.11546993140E+02  0.12507406436E+02  0.51100000000E-03 0.  1.
        -11    1    3    3    0    0 -0.19397134478E+01 -0.97197845636E+01 -0.23248536936E+02  0.25273131388E+02  0.51100000000E-03 0. -1.
        -12    1    3    3    0    0 -0.10168458275E+02  0.66112008421E+01 -0.17778225867E+02  0.21521404118E+02  0.00000000000E+00 0.  1.
</event>
<event>
 7    1  0.1202531E-011  0.5930183E+02  0.7816164E-02  0.1266605E+00
        -11   -1    0    0    0    0  0.00000000000E+00  0.00000000000E+00  0.45593999997E+02  0.45594000000E+02  0.51100000000E-03 0.  1.
         11   -1    0    0    0    0 -0.00000000000E+00 -0.00000000000E+00 -0.45593999997E+02  0.45594000000E+02  0.51100000000E-03 0. -1.
    9900012    2    1    2    0    0  0.28626317755E+02  0.14044271855E+02 -0.14266659698E+00  0.59301827544E+02  0.49999787561E+02 0.  0.
        -12    1    1    2    0    0 -0.28626317755E+02 -0.14044271855E+02  0.14266659698E+00  0.31886172456E+02  0.00000000000E+00 0.  1.
         11    1    3    3    0    0  0.10041649924E+02 -0.23948182377E+01  0.34747624024E+01  0.10892376307E+02  0.51100000000E-03 0. -1.
        -11    1    3    3    0    0  0.56425100588E+01 -0.64745152618E+01  0.14223968700E+02  0.16615611739E+02  0.51100000000E-03 0.  1.
        -12    1    3    3    0    0  0.12942157772E+02  0.22913605355E+02 -0.17841397699E+02  0.31793839498E+02  0.00000000000E+00 0.  1.
</event>
<event>
 7    1  0.1202531E-011  0.5930194E+02  0.7816164E-02  0.1266605E+00
        -11   -1    0    0    0    0  0.00000000000E+00  0.00000000000E+00  0.45593999997E+02  0.45594000000E+02  0.51100000000E-03 0.  1.
         11   -1    0    0    0    0 -0.00000000000E+00 -0.00000000000E+00 -0.45593999997E+02  0.45594000000E+02  0.51100000000E-03 0. -1.
    9900012    2    1    2    0    0 -0.13411464732E+02 -0.87738544651E+01 -0.27565790514E+02  0.59301941681E+02  0.49999995721E+02 0.  0.
        -12    1    1    2    0    0  0.13411464732E+02  0.87738544651E+01  0.27565790514E+02  0.31886058319E+02  0.00000000000E+00 0.  1.
         11    1    3    3    0    0 -0.14198612173E+02 -0.84310722764E+01 -0.97042047530E+01  0.19153463330E+02  0.51100000000E-03 0. -1.
        -11    1    3    3    0    0  0.69727920149E+01  0.22536521732E+01  0.94878832775E+01  0.11988273685E+02  0.51100000000E-03 0.  1.
         12    1    3    3    0    0 -0.61856445743E+01 -0.25964343619E+01 -0.27349469038E+02  0.28160204667E+02  0.00000000000E+00 0. -1.
</event>
<event>
 7    1  0.1202531E-011  0.5930228E+02  0.7816164E-02  0.1266604E+00
        -11   -1    0    0    0    0  0.00000000000E+00  0.00000000000E+00  0.45593999997E+02  0.45594000000E+02  0.51100000000E-03 0. -1.
         11   -1    0    0    0    0 -0.00000000000E+00 -0.00000000000E+00 -0.45593999997E+02  0.45594000000E+02  0.51100000000E-03 0.  1.
    9900012    2    1    2    0    0 -0.28227524388E+02  0.77929804859E+01  0.12616469169E+02  0.59302282629E+02  0.50000617524E+02 0.  0.
        -12    1    1    2    0    0  0.28227524388E+02 -0.77929804859E+01 -0.12616469169E+02  0.31885717371E+02  0.00000000000E+00 0.  1.
         11    1    3    3    0    0 -0.81016647611E+01  0.97708696225E+01  0.18873991680E+02  0.22744986861E+02  0.51100000000E-03 0. -1.
        -11    1    3    3    0    0  0.16771140798E+01  0.31439456963E+01 -0.12750139558E+02  0.13238699528E+02  0.51100000000E-03 0.  1.
         12    1    3    3    0    0 -0.21802973707E+02 -0.51218348329E+01  0.64926170469E+01  0.23318596241E+02  0.00000000000E+00 0. -1.
</event>
<event>
 7    1  0.1202531E-011  0.5930196E+02  0.7816164E-02  0.1266605E+00
        -11   -1    0    0    0    0  0.00000000000E+00  0.00000000000E+00  0.45593999997E+02  0.45594000000E+02  0.51100000000E-03 0.  1.
         11   -1    0    0    0    0 -0.00000000000E+00 -0.00000000000E+00 -0.45593999997E+02  0.45594000000E+02  0.51100000000E-03 0. -1.
    9900012    2    1    2    0    0 -0.21668742902E+02  0.17907213611E+02 -0.15050484570E+02  0.59301955967E+02  0.50000021775E+02 0.  0.
        -12    1    1    2    0    0  0.21668742902E+02 -0.17907213611E+02  0.15050484570E+02  0.31886044033E+02  0.00000000000E+00 0.  1.
         11    1    3    3    0    0 -0.23525567494E+01 -0.56872378877E+01  0.24448087154E+00  0.61594617628E+01  0.51100000000E-03 0. -1.
        -11    1    3    3    0    0 -0.31844137344E+02  0.17162491013E+02 -0.71509845806E+01  0.36874608631E+02  0.51100000000E-03 0.  1.
         12    1    3    3    0    0  0.12527951192E+02  0.64319604857E+01 -0.81439808610E+01  0.16267885573E+02  0.00000000000E+00 0. -1.
</event>
<event>
 7    1  0.1202531E-011  0.5930193E+02  0.7816164E-02  0.1266605E+00
        -11   -1    0    0    0    0  0.00000000000E+00  0.00000000000E+00  0.45593999997E+02  0.45594000000E+02  0.51100000000E-03 0. -1.
         11   -1    0    0    0    0 -0.00000000000E+00 -0.00000000000E+00 -0.45593999997E+02  0.45594000000E+02  0.51100000000E-03 0.  1.
    9900012    2    1    2    0    0  0.13911669789E+02 -0.14029816666E+02  0.25027002133E+02  0.59301934897E+02  0.49999983347E+02 0.  0.
        -12    1    1    2    0    0 -0.13911669789E+02  0.14029816666E+02 -0.25027002133E+02  0.31886065103E+02  0.00000000000E+00 0.  1.
         11    1    3    3    0    0 -0.67155482989E+01 -0.21589445165E+02  0.11240866806E+02  0.25249946897E+02  0.51100000000E-03 0. -1.
        -11    1    3    3    0    0  0.15546860156E+02 -0.39964790452E+01  0.99870704687E+00  0.16083349200E+02  0.51100000000E-03 0.  1.
        -12    1    3    3    0    0  0.50803579316E+01  0.11556107544E+02  0.12787428281E+02  0.17968638800E+02  0.00000000000E+00 0.  1.
</event>
<event>
 7    1  0.1202531E-011  0.5930192E+02  0.7816164E-02  0.1266605E+00
        -11   -1    0    0    0    0  0.00000000000E+00  0.00000000000E+00  0.45593999997E+02  0.45594000000E+02  0.51100000000E-03 0.  1.
         11   -1    0    0    0    0 -0.00000000000E+00 -0.00000000000E+00 -0.45593999997E+02  0.45594000000E+02  0.51100000000E-03 0. -1.
    9900012    2    1    2    0    0  0.25523953175E+02  0.11806672588E+02 -0.15028387500E+02  0.59301919430E+02  0.49999955139E+02 0.  0.
        -12    1    1    2    0    0 -0.25523953175E+02 -0.11806672588E+02  0.15028387500E+02  0.31886080570E+02  0.00000000000E+00 0.  1.
         11    1    3    3    0    0  0.93105369396E+01  0.50774516709E+01  0.90185696574E+01  0.13921250393E+02  0.51100000000E-03 0. -1.
        -11    1    3    3    0    0  0.16334405464E+02  0.18094293241E+02 -0.78804502050E+01  0.25618699136E+02  0.51100000000E-03 0.  1.
         12    1    3    3    0    0 -0.12098922873E+00 -0.11365072324E+02 -0.16166506952E+02  0.19761969901E+02  0.00000000000E+00 0. -1.
</event>
<event>
 7    1  0.1202531E-011  0.5930195E+02  0.7816164E-02  0.1266605E+00
        -11   -1    0    0    0    0  0.00000000000E+00  0.00000000000E+00  0.45593999997E+02  0.45594000000E+02  0.51100000000E-03 0.  1.
         11   -1    0    0    0    0 -0.00000000000E+00 -0.00000000000E+00 -0.45593999997E+02  0.45594000000E+02  0.51100000000E-03 0. -1.
    9900012    2    1    2    0    0 -0.24539143642E+02  0.12187291491E+02 -0.16310144922E+02  0.59301945494E+02  0.50000002674E+02 0.  0.
        -12    1    1    2    0    0  0.24539143642E+02 -0.12187291491E+02  0.16310144922E+02  0.31886054506E+02  0.00000000000E+00 0.  1.
         11    1    3    3    0    0  0.31392891872E+01  0.21748026120E+01 -0.20201298774E+02  0.20559119033E+02  0.51100000000E-03 0.  1.
        -11    1    3    3    0    0 -0.24087483873E+02  0.71084921743E+01 -0.76976706664E+01  0.26267692595E+02  0.51100000000E-03 0. -1.
        -12    1    3    3    0    0 -0.35909489564E+01  0.29039967046E+01  0.11588824518E+02  0.12475133866E+02  0.00000000000E+00 0.  1.
</event>
<event>
 7    1  0.1202531E-011  0.5930191E+02  0.7816164E-02  0.1266605E+00
        -11   -1    0    0    0    0  0.00000000000E+00  0.00000000000E+00  0.45593999997E+02  0.45594000000E+02  0.51100000000E-03 0.  1.
         11   -1    0    0    0    0 -0.00000000000E+00 -0.00000000000E+00 -0.45593999997E+02  0.45594000000E+02  0.51100000000E-03 0. -1.
    9900012    2    1    2    0    0  0.28835433045E+02 -0.97099611785E+01 -0.95371401620E+01  0.59301912321E+02  0.49999942175E+02 0.  0.
        -12    1    1    2    0    0 -0.28835433045E+02  0.97099611785E+01  0.95371401620E+01  0.31886087679E+02  0.00000000000E+00 0.  1.
         11    1    3    3    0    0  0.10063825438E+02 -0.23765733867E+02  0.30989375015E+01  0.25994116691E+02  0.51100000000E-03 0.  1.
        -11    1    3    3    0    0  0.27071778303E+01  0.33919571890E+01  0.53847355715E+01  0.69158920475E+01  0.51100000000E-03 0. -1.
         12    1    3    3    0    0  0.16064429777E+02  0.10663815499E+02 -0.18020813235E+02  0.26391903583E+02  0.00000000000E+00 0. -1.
</event>
<event>
 7    1  0.1202531E-011  0.5930195E+02  0.7816164E-02  0.1266605E+00
        -11   -1    0    0    0    0  0.00000000000E+00  0.00000000000E+00  0.45593999997E+02  0.45594000000E+02  0.51100000000E-03 0.  1.
         11   -1    0    0    0    0 -0.00000000000E+00 -0.00000000000E+00 -0.45593999997E+02  0.45594000000E+02  0.51100000000E-03 0. -1.
    9900012    2    1    2    0    0  0.18387919134E+01  0.28951590647E+02 -0.13234220705E+02  0.59301947338E+02  0.50000006038E+02 0.  0.
        -12    1    1    2    0    0 -0.18387919134E+01 -0.28951590647E+02  0.13234220705E+02  0.31886052662E+02  0.00000000000E+00 0.  1.
         11    1    3    3    0    0  0.13598567811E+01 -0.28364881786E+01  0.53809390631E+01  0.62329271706E+01  0.51100000000E-03 0. -1.
        -11    1    3    3    0    0  0.13609400405E+02 -0.11992770506E+01 -0.87331312796E+01  0.16214858218E+02  0.51100000000E-03 0.  1.
         12    1    3    3    0    0 -0.13130465273E+02  0.32987355876E+02 -0.98820284882E+01  0.36854161950E+02  0.00000000000E+00 0. -1.
</event>
<event>
 7    1  0.1202531E-011  0.5930194E+02  0.7816164E-02  0.1266605E+00
        -11   -1    0    0    0    0  0.00000000000E+00  0.00000000000E+00  0.45593999997E+02  0.45594000000E+02  0.51100000000E-03 0.  1.
         11   -1    0    0    0    0 -0.00000000000E+00 -0.00000000000E+00 -0.45593999997E+02  0.45594000000E+02  0.51100000000E-03 0. -1.
    9900012    2    1    2    0    0 -0.67152327544E+01 -0.31150861923E+02  0.11180832142E+01  0.59301942552E+02  0.49999997308E+02 0.  0.
        -12    1    1    2    0    0  0.67152327544E+01  0.31150861923E+02 -0.11180832142E+01  0.31886057448E+02  0.00000000000E+00 0.  1.
         11    1    3    3    0    0  0.86387271007E+01 -0.85442633142E+01 -0.95550383255E+01  0.15457386557E+02  0.51100000000E-03 0. -1.
        -11    1    3    3    0    0 -0.20235113883E+01 -0.15638690736E+02 -0.97050646330E+01  0.18516250324E+02  0.51100000000E-03 0.  1.
        -12    1    3    3    0    0 -0.13330448467E+02 -0.69679078729E+01  0.20378186173E+02  0.25328305671E+02  0.00000000000E+00 0.  1.
</event>
<event>
 7    1  0.1202531E-011  0.5930195E+02  0.7816164E-02  0.1266605E+00
        -11   -1    0    0    0    0  0.00000000000E+00  0.00000000000E+00  0.45593999997E+02  0.45594000000E+02  0.51100000000E-03 0.  1.
         11   -1    0    0    0    0 -0.00000000000E+00 -0.00000000000E+00 -0.45593999997E+02  0.45594000000E+02  0.51100000000E-03 0. -1.
    9900012    2    1    2    0    0  0.23424530702E+02  0.21625552069E+02  0.58916682137E+00  0.59301948842E+02  0.50000008779E+02 0.  0.
        -12    1    1    2    0    0 -0.23424530702E+02 -0.21625552069E+02 -0.58916682137E+00  0.31886051158E+02  0.00000000000E+00 0.  1.
         11    1    3    3    0    0 -0.21494190438E+01 -0.50620843338E+00  0.14343930273E+02  0.14512910981E+02  0.51100000000E-03 0. -1.
        -11    1    3    3    0    0 -0.45517033357E+01  0.67600456958E+01 -0.59193836778E+01  0.10072503386E+02  0.51100000000E-03 0.  1.
         12    1    3    3    0    0  0.30125653082E+02  0.15371714807E+02 -0.78353797743E+01  0.34716534475E+02  0.00000000000E+00 0. -1.
</event>
<event>
 7    1  0.1202531E-011  0.5930194E+02  0.7816164E-02  0.1266605E+00
        -11   -1    0    0    0    0  0.00000000000E+00  0.00000000000E+00  0.45593999997E+02  0.45594000000E+02  0.51100000000E-03 0.  1.
         11   -1    0    0    0    0 -0.00000000000E+00 -0.00000000000E+00 -0.45593999997E+02  0.45594000000E+02  0.51100000000E-03 0. -1.
    9900012    2    1    2    0    0  0.19310006441E+01 -0.26541393374E+02 -0.17565489065E+02  0.59301941419E+02  0.49999995243E+02 0.  0.
        -12    1    1    2    0    0 -0.19310006441E+01  0.26541393374E+02  0.17565489065E+02  0.31886058581E+02  0.00000000000E+00 0.  1.
         11    1    3    3    0    0 -0.19972570926E+01  0.85350247915E+00  0.71913998924E+00  0.22879390204E+01  0.51100000000E-03 0. -1.
        -11    1    3    3    0    0 -0.12269568363E+02 -0.43369713653E+01 -0.24876341975E+02  0.28074615203E+02  0.51100000000E-03 0.  1.
         12    1    3    3    0    0  0.16197826100E+02 -0.23057924488E+02  0.65917129209E+01  0.28939387196E+02  0.00000000000E+00 0. -1.
</event>
<event>
 7    1  0.1202531E-011  0.5930196E+02  0.7816164E-02  0.1266605E+00
        -11   -1    0    0    0    0  0.00000000000E+00  0.00000000000E+00  0.45593999997E+02  0.45594000000E+02  0.51100000000E-03 0.  1.
         11   -1    0    0    0    0 -0.00000000000E+00 -0.00000000000E+00 -0.45593999997E+02  0.45594000000E+02  0.51100000000E-03 0. -1.
    9900012    2    1    2    0    0 -0.24907355039E+02  0.54911255752E+01 -0.19136107622E+02  0.59301962146E+02  0.50000033044E+02 0.  0.
        -12    1    1    2    0    0  0.24907355039E+02 -0.54911255752E+01  0.19136107622E+02  0.31886037854E+02  0.00000000000E+00 0.  1.
         11    1    3    3    0    0  0.81660468515E+01 -0.13030383087E+01 -0.10816866231E+02  0.13615683065E+02  0.51100000000E-03 0. -1.
        -11    1    3    3    0    0 -0.46624926394E+01 -0.67887033676E+01  0.68688691256E+01  0.10724117416E+02  0.51100000000E-03 0.  1.
         12    1    3    3    0    0 -0.28410909251E+02  0.13582867251E+02 -0.15188110517E+02  0.34962161665E+02  0.00000000000E+00 0. -1.
</event>
<event>
 7    1  0.1202531E-011  0.5930194E+02  0.7816164E-02  0.1266605E+00
        -11   -1    0    0    0    0  0.00000000000E+00  0.00000000000E+00  0.45593999997E+02  0.45594000000E+02  0.51100000000E-03 0. -1.
         11   -1    0    0    0    0 -0.00000000000E+00 -0.00000000000E+00 -0.45593999997E+02  0.45594000000E+02  0.51100000000E-03 0.  1.
    9900012    2    1    2    0    0  0.53826571991E+00 -0.25723176305E+02  0.18834788987E+02  0.59301940266E+02  0.49999993139E+02 0.  0.
        -12    1    1    2    0    0 -0.53826571991E+00  0.25723176305E+02 -0.18834788987E+02  0.31886059734E+02  0.00000000000E+00 0.  1.
         11    1    3    3    0    0 -0.28716834284E+01  0.46917677544E+01  0.22059833544E+02  0.22735336079E+02  0.51100000000E-03 0. -1.
        -11    1    3    3    0    0 -0.55275555112E+01 -0.21887154742E+02  0.29320951775E+01  0.22763975818E+02  0.51100000000E-03 0.  1.
        -12    1    3    3    0    0  0.89375046595E+01 -0.85277893170E+01 -0.61571397345E+01  0.13802628369E+02  0.00000000000E+00 0.  1.
</event>
<event>
 7    1  0.1202531E-011  0.5930192E+02  0.7816164E-02  0.1266605E+00
        -11   -1    0    0    0    0  0.00000000000E+00  0.00000000000E+00  0.45593999997E+02  0.45594000000E+02  0.51100000000E-03 0. -1.
         11   -1    0    0    0    0 -0.00000000000E+00 -0.00000000000E+00 -0.45593999997E+02  0.45594000000E+02  0.51100000000E-03 0.  1.
    9900012    2    1    2    0    0  0.47917107951E+01 -0.18755911844E+02  0.25337277796E+02  0.59301915770E+02  0.49999948464E+02 0.  0.
        -12    1    1    2    0    0 -0.47917107951E+01  0.18755911844E+02 -0.25337277796E+02  0.31886084230E+02  0.00000000000E+00 0.  1.
         11    1    3    3    0    0  0.17081551418E+01  0.50972387947E+01  0.18277109881E+01  0.56780423594E+01  0.51100000000E-03 0. -1.
        -11    1    3    3    0    0  0.18635227535E+02 -0.18513395180E+01  0.14158387385E+01  0.18780409018E+02  0.51100000000E-03 0.  1.
         12    1    3    3    0    0 -0.15551671881E+02 -0.22001811120E+02  0.22093728069E+02  0.34843464393E+02  0.00000000000E+00 0. -1.
</event>
<event>
 7    1  0.1202531E-011  0.5930196E+02  0.7816164E-02  0.1266605E+00
        -11   -1    0    0    0    0  0.00000000000E+00  0.00000000000E+00  0.45593999997E+02  0.45594000000E+02  0.51100000000E-03 0.  1.
         11   -1    0    0    0    0 -0.00000000000E+00 -0.00000000000E+00 -0.45593999997E+02  0.45594000000E+02  0.51100000000E-03 0. -1.
    9900012    2    1    2    0    0 -0.11375561701E+02 -0.29588877864E+02 -0.34372052708E+01  0.59301961090E+02  0.50000031118E+02 0.  0.
        -12    1    1    2    0    0  0.11375561701E+02  0.29588877864E+02  0.34372052708E+01  0.31886038910E+02  0.00000000000E+00 0.  1.
         11    1    3    3    0    0 -0.32202163486E+01 -0.64678460764E+01 -0.39809042976E+00  0.72361110032E+01  0.51100000000E-03 0. -1.
        -11    1    3    3    0    0 -0.24446765607E+02 -0.50880954357E+01 -0.98250227448E+01  0.26834010807E+02  0.51100000000E-03 0.  1.
         12    1    3    3    0    0  0.16291420255E+02 -0.18032936352E+02  0.67859079038E+01  0.25231839280E+02  0.00000000000E+00 0. -1.
</event>
<event>
 7    1  0.1202531E-011  0.5930194E+02  0.7816164E-02  0.1266605E+00
        -11   -1    0    0    0    0  0.00000000000E+00  0.00000000000E+00  0.45593999997E+02  0.45594000000E+02  0.51100000000E-03 0. -1.
         11   -1    0    0    0    0 -0.00000000000E+00 -0.00000000000E+00 -0.45593999997E+02  0.45594000000E+02  0.51100000000E-03 0.  1.
    9900012    2    1    2    0    0  0.21153831623E+02  0.21718822194E+02 -0.98756735503E+01  0.59301941010E+02  0.49999994496E+02 0.  0.
        -12    1    1    2    0    0 -0.21153831623E+02 -0.21718822194E+02  0.98756735503E+01  0.31886058990E+02  0.00000000000E+00 0.  1.
         11    1    3    3    0    0 -0.51653179062E+01 -0.81651531499E+00  0.13079123623E+02  0.14085832646E+02  0.51100000000E-03 0. -1.
        -11    1    3    3    0    0  0.95963835246E+01  0.65610264669E+01  0.13068493485E+01  0.11698098159E+02  0.51100000000E-03 0.  1.
        -12    1    3    3    0    0  0.16722766005E+02  0.15974311042E+02 -0.24261646522E+02  0.33518010205E+02  0.00000000000E+00 0.  1.
</event>
<event>
 7    1  0.1202531E-011  0.5930195E+02  0.7816164E-02  0.1266605E+00
        -11   -1    0    0    0    0  0.00000000000E+00  0.00000000000E+00  0.45593999997E+02  0.45594000000E+02  0.51100000000E-03 0.  1.
         11   -1    0    0    0    0 -0.00000000000E+00 -0.00000000000E+00 -0.45593999997E+02  0.45594000000E+02  0.51100000000E-03 0. -1.
    9900012    2    1    2    0    0 -0.24808078355E+02 -0.31984832107E+01 -0.19774967884E+02  0.59301946602E+02  0.50000004694E+02 0.  0.
        -12    1    1    2    0    0  0.24808078355E+02  0.31984832107E+01  0.19774967884E+02  0.31886053398E+02  0.00000000000E+00 0.  1.
         11    1    3    3    0    0 -0.67615387660E+01  0.40421099852E+01 -0.75672005986E+01  0.10923350437E+02  0.51100000000E-03 0. -1.
        -11    1    3    3    0    0 -0.72575202522E+01  0.17169925254E+02  0.86405520130E+00  0.18660775040E+02  0.51100000000E-03 0.  1.
        -12    1    3    3    0    0 -0.10789019336E+02 -0.24410518450E+02 -0.13071822487E+02  0.29717821124E+02  0.00000000000E+00 0.  1.
</event>
<event>
 7    1  0.1202531E-011  0.5930196E+02  0.7816164E-02  0.1266605E+00
        -11   -1    0    0    0    0  0.00000000000E+00  0.00000000000E+00  0.45593999997E+02  0.45594000000E+02  0.51100000000E-03 0. -1.
         11   -1    0    0    0    0 -0.00000000000E+00 -0.00000000000E+00 -0.45593999997E+02  0.45594000000E+02  0.51100000000E-03 0.  1.
    9900012    2    1    2    0    0 -0.14835355974E+02 -0.95352977880E+01  0.26565202970E+02  0.59301957605E+02  0.50000024761E+02 0.  0.
        -12    1    1    2    0    0  0.14835355974E+02  0.95352977880E+01 -0.26565202970E+02  0.31886042395E+02  0.00000000000E+00 0.  1.
         11    1    3    3    0    0 -0.79109115228E+01 -0.77047991209E+01  0.11768298578E+01  0.11105466194E+02  0.51100000000E-03 0. -1.
        -11    1    3    3    0    0 -0.23240760880E+02  0.38486081817E+01  0.12711146690E+02  0.26767853886E+02  0.51100000000E-03 0.  1.
        -12    1    3    3    0    0  0.16316316429E+02 -0.56791068488E+01  0.12677226422E+02  0.21428637525E+02  0.00000000000E+00 0.  1.
</event>
<event>
 7    1  0.1202531E-011  0.5930196E+02  0.7816164E-02  0.1266605E+00
        -11   -1    0    0    0    0  0.00000000000E+00  0.00000000000E+00  0.45593999997E+02  0.45594000000E+02  0.51100000000E-03 0. -1.
         11   -1    0    0    0    0 -0.00000000000E+00 -0.00000000000E+00 -0.45593999997E+02  0.45594000000E+02  0.51100000000E-03 0.  1.
    9900012    2    1    2    0    0  0.15775984392E+02  0.18784111544E+02  0.20371422663E+02  0.59301962439E+02  0.50000033578E+02 0.  0.
        -12    1    1    2    0    0 -0.15775984392E+02 -0.18784111544E+02 -0.20371422663E+02  0.31886037561E+02  0.00000000000E+00 0.  1.
         11    1    3    3    0    0 -0.71349024758E+01 -0.53409556945E+00  0.51981154355E+01  0.88437828873E+01  0.51100000000E-03 0. -1.
        -11    1    3    3    0    0 -0.41856475321E+01 -0.73544918988E+01 -0.20660377486E+01  0.87107237697E+01  0.51100000000E-03 0.  1.
        -12    1    3    3    0    0  0.27096534400E+02  0.26672699012E+02  0.17239344976E+02  0.41747455782E+02  0.00000000000E+00 0.  1.
</event>
<event>
 7    1  0.1202531E-011  0.5930194E+02  0.7816164E-02  0.1266605E+00
        -11   -1    0    0    0    0  0.00000000000E+00  0.00000000000E+00  0.45593999997E+02  0.45594000000E+02  0.51100000000E-03 0.  1.
         11   -1    0    0    0    0 -0.00000000000E+00 -0.00000000000E+00 -0.45593999997E+02  0.45594000000E+02  0.51100000000E-03 0. -1.
    9900012    2    1    2    0    0  0.36089566100E+00  0.11778514146E+02 -0.29628657860E+02  0.59301937093E+02  0.49999987352E+02 0.  0.
        -12    1    1    2    0    0 -0.36089566100E+00 -0.11778514146E+02  0.29628657860E+02  0.31886062907E+02  0.00000000000E+00 0.  1.
         11    1    3    3    0    0  0.10973507123E+02 -0.68483830458E+01 -0.39336553603E+01  0.13520053760E+02  0.51100000000E-03 0. -1.
        -11    1    3    3    0    0 -0.12469319746E+02 -0.53392962139E+01 -0.66120074494E+01  0.15090084883E+02  0.51100000000E-03 0.  1.
        -12    1    3    3    0    0  0.18567082843E+01  0.23966193406E+02 -0.19082995050E+02  0.30691798450E+02  0.00000000000E+00 0.  1.
</event>
<event>
 7    1  0.1202531E-011  0.5930189E+02  0.7816164E-02  0.1266605E+00
        -11   -1    0    0    0    0  0.00000000000E+00  0.00000000000E+00  0.45593999997E+02  0.45594000000E+02  0.51100000000E-03 0. -1.
         11   -1    0    0    0    0 -0.00000000000E+00 -0.00000000000E+00 -0.45593999997E+02  0.45594000000E+02  0.51100000000E-03 0.  1.
    9900012    2    1    2    0    0 -0.76005401136E+01 -0.29136539682E+02  0.10488941803E+02  0.59301889312E+02  0.49999900212E+02 0.  0.
        -12    1    1    2    0    0  0.76005401136E+01  0.29136539682E+02 -0.10488941803E+02  0.31886110688E+02  0.00000000000E+00 0.  1.
         11    1    3    3    0    0 -0.12298199346E+02 -0.22106992082E+02  0.17799834561E+02  0.30932166377E+02  0.51100000000E-03 0. -1.
        -11    1    3    3    0    0 -0.67139223229E+01 -0.11325641954E+02 -0.91568842122E+01  0.16037314219E+02  0.51100000000E-03 0.  1.
        -12    1    3    3    0    0  0.11411581555E+02  0.42960943552E+01  0.18459914539E+01  0.12332408716E+02  0.00000000000E+00 0.  1.
</event>
<event>
 7    1  0.1202531E-011  0.5930196E+02  0.7816164E-02  0.1266605E+00
        -11   -1    0    0    0    0  0.00000000000E+00  0.00000000000E+00  0.45593999997E+02  0.45594000000E+02  0.51100000000E-03 0.  1.
         11   -1    0    0    0    0 -0.00000000000E+00 -0.00000000000E+00 -0.45593999997E+02  0.45594000000E+02  0.51100000000E-03 0. -1.
    9900012    2    1    2    0    0 -0.11212648735E+02  0.13155177549E+02 -0.26794354847E+02  0.59301958545E+02  0.50000026477E+02 0.  0.
        -12    1    1    2    0    0  0.11212648735E+02 -0.13155177549E+02  0.26794354847E+02  0.31886041455E+02  0.00000000000E+00 0.  1.
         11    1    3    3    0    0  0.47368006536E+01 -0.33150754325E+01  0.31166662664E+01  0.65681515232E+01  0.51100000000E-03 0. -1.
        -11    1    3    3    0    0 -0.20513798010E+02  0.20781353520E+02 -0.84874060373E+01  0.30409153629E+02  0.51100000000E-03 0.  1.
         12    1    3    3    0    0  0.45643486215E+01 -0.43111005391E+01 -0.21423615076E+02  0.22324653393E+02  0.00000000000E+00 0. -1.
</event>
<event>
 7    1  0.1202531E-011  0.5930196E+02  0.7816164E-02  0.1266605E+00
        -11   -1    0    0    0    0  0.00000000000E+00  0.00000000000E+00  0.45593999997E+02  0.45594000000E+02  0.51100000000E-03 0. -1.
         11   -1    0    0    0    0 -0.00000000000E+00 -0.00000000000E+00 -0.45593999997E+02  0.45594000000E+02  0.51100000000E-03 0.  1.
    9900012    2    1    2    0    0 -0.20295811506E+02 -0.15928979410E+02  0.18736787713E+02  0.59301959739E+02  0.50000028654E+02 0.  0.
        -12    1    1    2    0    0  0.20295811506E+02  0.15928979410E+02 -0.18736787713E+02  0.31886040261E+02  0.00000000000E+00 0.  1.
         11    1    3    3    0    0 -0.17545831502E+02  0.58892173531E+01  0.63949509098E+01  0.19581483129E+02  0.51100000000E-03 0. -1.
        -11    1    3    3    0    0 -0.14261748798E+02 -0.30397171246E+01  0.23006112794E+00  0.14583905080E+02  0.51100000000E-03 0.  1.
         12    1    3    3    0    0  0.11511768795E+02 -0.18778479638E+02  0.12111775675E+02  0.25136571530E+02  0.00000000000E+00 0. -1.
</event>
<event>
 7    1  0.1202531E-011  0.5930195E+02  0.7816164E-02  0.1266605E+00
        -11   -1    0    0    0    0  0.00000000000E+00  0.00000000000E+00  0.45593999997E+02  0.45594000000E+02  0.51100000000E-03 0.  1.
         11   -1    0    0    0    0 -0.00000000000E+00 -0.00000000000E+00 -0.45593999997E+02  0.45594000000E+02  0.51100000000E-03 0. -1.
    9900012    2    1    2    0    0  0.15679436880E+02 -0.15720303004E+02 -0.22885536196E+02  0.59301946083E+02  0.50000003748E+02 0.  0.
        -12    1    1    2    0    0 -0.15679436880E+02  0.15720303004E+02  0.22885536196E+02  0.31886053917E+02  0.00000000000E+00 0.  1.
         11    1    3    3    0    0 -0.81178871487E+00  0.13165530518E+02 -0.15584419495E+02  0.20417255594E+02  0.51100000000E-03 0.  1.
        -11    1    3    3    0    0 -0.30438744832E+01 -0.11383883697E+02 -0.52764144845E+00  0.11795608744E+02  0.51100000000E-03 0. -1.
        -12    1    3    3    0    0  0.19535100078E+02 -0.17501949825E+02 -0.67734752520E+01  0.27089081744E+02  0.00000000000E+00 0.  1.
</event>
<event>
 7    1  0.1202531E-011  0.5930183E+02  0.7816164E-02  0.1266605E+00
        -11   -1    0    0    0    0  0.00000000000E+00  0.00000000000E+00  0.45593999997E+02  0.45594000000E+02  0.51100000000E-03 0.  1.
         11   -1    0    0    0    0 -0.00000000000E+00 -0.00000000000E+00 -0.45593999997E+02  0.45594000000E+02  0.51100000000E-03 0. -1.
    9900012    2    1    2    0    0 -0.16955334982E+02  0.59156111249E+01 -0.26348621203E+02  0.59301832487E+02  0.49999796577E+02 0.  0.
        -12    1    1    2    0    0  0.16955334982E+02 -0.59156111249E+01  0.26348621203E+02  0.31886167513E+02  0.00000000000E+00 0.  1.
         11    1    3    3    0    0  0.10847712037E+02  0.16110841357E+01  0.10671426200E+01  0.11018495458E+02  0.51100000000E-03 0.  1.
        -11    1    3    3    0    0  0.47230945465E+01 -0.15426645950E+01 -0.94290315921E+01  0.10658052035E+02  0.51100000000E-03 0. -1.
         12    1    3    3    0    0 -0.32526141565E+02  0.58471915842E+01 -0.17986732231E+02  0.37625284994E+02  0.00000000000E+00 0. -1.
</event>
<event>
 7    1  0.1202531E-011  0.5930195E+02  0.7816164E-02  0.1266605E+00
        -11   -1    0    0    0    0  0.00000000000E+00  0.00000000000E+00  0.45593999997E+02  0.45594000000E+02  0.51100000000E-03 0.  1.
         11   -1    0    0    0    0 -0.00000000000E+00 -0.00000000000E+00 -0.45593999997E+02  0.45594000000E+02  0.51100000000E-03 0. -1.
    9900012    2    1    2    0    0 -0.27365903992E+02  0.33051414999E+01 -0.16028203097E+02  0.59301953582E+02  0.50000017426E+02 0.  0.
        -12    1    1    2    0    0  0.27365903992E+02 -0.33051414999E+01  0.16028203097E+02  0.31886046418E+02  0.00000000000E+00 0.  1.
         11    1    3    3    0    0 -0.16310537608E+02  0.74215921956E+01 -0.17130284470E+02  0.24790327026E+02  0.51100000000E-03 0. -1.
        -11    1    3    3    0    0 -0.21511902328E+02 -0.15286497098E+01 -0.49904998142E+01  0.22136029463E+02  0.51100000000E-03 0.  1.
         12    1    3    3    0    0  0.10456535945E+02 -0.25878009858E+01  0.60925811872E+01  0.12375597094E+02  0.00000000000E+00 0. -1.
</event>
<event>
 7    1  0.1228871E-011  0.5930192E+02  0.7816164E-02  0.1266605E+00
        -11   -1    0    0    0    0  0.00000000000E+00  0.00000000000E+00  0.45593999997E+02  0.45594000000E+02  0.51100000000E-03 0. -1.
         11   -1    0    0    0    0 -0.00000000000E+00 -0.00000000000E+00 -0.45593999997E+02  0.45594000000E+02  0.51100000000E-03 0.  1.
    9900012    2    1    2    0    0  0.64125384897E+01 -0.67890396584E+01  0.30487869038E+02  0.59301923606E+02  0.49999962755E+02 0.  0.
        -12    1    1    2    0    0 -0.64125384897E+01  0.67890396584E+01 -0.30487869038E+02  0.31886076394E+02  0.00000000000E+00 0.  1.
         11    1    3    3    0    0  0.51330856835E+01 -0.17596315159E+02  0.16124480686E+02  0.24412655600E+02  0.51100000000E-03 0. -1.
        -11    1    3    3    0    0  0.13543232543E+02 -0.13854856957E+01  0.23070302631E+01  0.13808008808E+02  0.51100000000E-03 0.  1.
        -12    1    3    3    0    0 -0.12263779737E+02  0.12192761196E+02  0.12056358088E+02  0.21081259198E+02  0.00000000000E+00 0.  1.
</event>
<event>
 7    1  0.1202531E-011  0.5930196E+02  0.7816164E-02  0.1266605E+00
        -11   -1    0    0    0    0  0.00000000000E+00  0.00000000000E+00  0.45593999997E+02  0.45594000000E+02  0.51100000000E-03 0.  1.
         11   -1    0    0    0    0 -0.00000000000E+00 -0.00000000000E+00 -0.45593999997E+02  0.45594000000E+02  0.51100000000E-03 0. -1.
    9900012    2    1    2    0    0 -0.21889666061E+01  0.31698481669E+02 -0.26709946678E+01  0.59301960305E+02  0.50000029686E+02 0.  0.
        -12    1    1    2    0    0  0.21889666061E+01 -0.31698481669E+02  0.26709946678E+01  0.31886039695E+02  0.00000000000E+00 0.  1.
         11    1    3    3    0    0 -0.71590771201E+01  0.34648515234E+02 -0.13332338425E+01  0.35405501068E+02  0.51100000000E-03 0. -1.
        -11    1    3    3    0    0  0.67259008852E+01  0.92514573010E+01  0.41388333200E+00  0.11445457815E+02  0.51100000000E-03 0.  1.
        -12    1    3    3    0    0 -0.17557903711E+01 -0.12201490866E+02 -0.17516441572E+01  0.12451001423E+02  0.00000000000E+00 0.  1.
</event>
<event>
 7    1  0.1202531E-011  0.5930193E+02  0.7816164E-02  0.1266605E+00
        -11   -1    0    0    0    0  0.00000000000E+00  0.00000000000E+00  0.45593999997E+02  0.45594000000E+02  0.51100000000E-03 0.  1.
         11   -1    0    0    0    0 -0.00000000000E+00 -0.00000000000E+00 -0.45593999997E+02  0.45594000000E+02  0.51100000000E-03 0. -1.
    9900012    2    1    2    0    0  0.14293374731E+02 -0.18389083164E+02  0.21777575881E+02  0.59301925420E+02  0.49999966064E+02 0.  0.
        -12    1    1    2    0    0 -0.14293374731E+02  0.18389083164E+02 -0.21777575881E+02  0.31886074580E+02  0.00000000000E+00 0.  1.
         11    1    3    3    0    0 -0.13584311299E+02 -0.15254918328E+02 -0.17664206101E+01  0.20502836114E+02  0.51100000000E-03 0. -1.
        -11    1    3    3    0    0  0.14174821081E+01  0.58804873272E+00  0.74489247257E+01  0.76053623628E+01  0.51100000000E-03 0.  1.
        -12    1    3    3    0    0  0.26460203923E+02 -0.37222135688E+01  0.16095071766E+02  0.31193726943E+02  0.00000000000E+00 0.  1.
</event>
<event>
 7    1  0.1223808E-011  0.5930195E+02  0.7816164E-02  0.1266605E+00
        -11   -1    0    0    0    0  0.00000000000E+00  0.00000000000E+00  0.45593999997E+02  0.45594000000E+02  0.51100000000E-03 0. -1.
         11   -1    0    0    0    0 -0.00000000000E+00 -0.00000000000E+00 -0.45593999997E+02  0.45594000000E+02  0.51100000000E-03 0.  1.
    9900012    2    1    2    0    0  0.23064307962E+00  0.63545069575E+01  0.31245591524E+02  0.59301953764E+02  0.50000017757E+02 0.  0.
        -12    1    1    2    0    0 -0.23064307962E+00 -0.63545069575E+01 -0.31245591524E+02  0.31886046236E+02  0.00000000000E+00 0.  1.
         11    1    3    3    0    0 -0.49841807041E+01 -0.66489667697E-01  0.32070140647E+02  0.32455206047E+02  0.51100000000E-03 0. -1.
        -11    1    3    3    0    0 -0.59480194153E+01 -0.52939350772E+01  0.52773613874E+01  0.95527601792E+01  0.51100000000E-03 0.  1.
        -12    1    3    3    0    0  0.11162843199E+02  0.11714931702E+02 -0.61019105108E+01  0.17293987538E+02  0.00000000000E+00 0.  1.
</event>
<event>
 7    1  0.1202531E-011  0.5930194E+02  0.7816164E-02  0.1266605E+00
        -11   -1    0    0    0    0  0.00000000000E+00  0.00000000000E+00  0.45593999997E+02  0.45594000000E+02  0.51100000000E-03 0.  1.
         11   -1    0    0    0    0 -0.00000000000E+00 -0.00000000000E+00 -0.45593999997E+02  0.45594000000E+02  0.51100000000E-03 0. -1.
    9900012    2    1    2    0    0 -0.14717735998E+02 -0.28008227484E+02  0.39557954215E+01  0.59301939141E+02  0.49999991088E+02 0.  0.
        -12    1    1    2    0    0  0.14717735998E+02  0.28008227484E+02 -0.39557954215E+01  0.31886060859E+02  0.00000000000E+00 0.  1.
         11    1    3    3    0    0 -0.18765770178E+01  0.12000498108E+02  0.49086542886E+00  0.12156251284E+02  0.51100000000E-03 0. -1.
        -11    1    3    3    0    0 -0.29842389264E+01 -0.44078880158E+01 -0.69603885328E+01  0.87625434389E+01  0.51100000000E-03 0.  1.
        -12    1    3    3    0    0 -0.98569200542E+01 -0.35600837576E+02  0.10425318525E+02  0.38383144418E+02  0.00000000000E+00 0.  1.
</event>
<event>
 7    1  0.1202531E-011  0.5930193E+02  0.7816164E-02  0.1266605E+00
        -11   -1    0    0    0    0  0.00000000000E+00  0.00000000000E+00  0.45593999997E+02  0.45594000000E+02  0.51100000000E-03 0.  1.
         11   -1    0    0    0    0 -0.00000000000E+00 -0.00000000000E+00 -0.45593999997E+02  0.45594000000E+02  0.51100000000E-03 0. -1.
    9900012    2    1    2    0    0  0.31054066542E+02  0.71336947777E+01 -0.12152735090E+01  0.59301928751E+02  0.49999972139E+02 0.  0.
        -12    1    1    2    0    0 -0.31054066542E+02 -0.71336947777E+01  0.12152735090E+01  0.31886071249E+02  0.00000000000E+00 0.  1.
         11    1    3    3    0    0  0.26708911181E+02  0.18544641474E+02  0.63707316126E+01  0.33133908393E+02  0.51100000000E-03 0. -1.
        -11    1    3    3    0    0  0.11899036713E+02 -0.11151614796E+02 -0.13398703376E+01  0.16362788273E+02  0.51100000000E-03 0.  1.
        -12    1    3    3    0    0 -0.75538813520E+01 -0.25933189955E+00 -0.62461347840E+01  0.98052320857E+01  0.00000000000E+00 0.  1.
</event>
<event>
 7    1  0.1202531E-011  0.5930194E+02  0.7816164E-02  0.1266605E+00
        -11   -1    0    0    0    0  0.00000000000E+00  0.00000000000E+00  0.45593999997E+02  0.45594000000E+02  0.51100000000E-03 0.  1.
         11   -1    0    0    0    0 -0.00000000000E+00 -0.00000000000E+00 -0.45593999997E+02  0.45594000000E+02  0.51100000000E-03 0. -1.
    9900012    2    1    2    0    0  0.12313140454E+02 -0.27850806546E+02 -0.94572567446E+01  0.59301944141E+02  0.50000000206E+02 0.  0.
        -12    1    1    2    0    0 -0.12313140454E+02  0.27850806546E+02  0.94572567446E+01  0.31886055859E+02  0.00000000000E+00 0.  1.
         11    1    3    3    0    0  0.17254021251E+01 -0.24934259665E+01 -0.95077811120E+01  0.99795835323E+01  0.51100000000E-03 0. -1.
        -11    1    3    3    0    0  0.25166139080E+02 -0.13146637924E+02 -0.66470169106E+01  0.29160786666E+02  0.51100000000E-03 0.  1.
         12    1    3    3    0    0 -0.14578400751E+02 -0.12210742655E+02  0.66975412780E+01  0.20161573942E+02  0.00000000000E+00 0. -1.
</event>
<event>
 7    1  0.1202531E-011  0.5930195E+02  0.7816164E-02  0.1266605E+00
        -11   -1    0    0    0    0  0.00000000000E+00  0.00000000000E+00  0.45593999997E+02  0.45594000000E+02  0.51100000000E-03 0.  1.
         11   -1    0    0    0    0 -0.00000000000E+00 -0.00000000000E+00 -0.45593999997E+02  0.45594000000E+02  0.51100000000E-03 0. -1.
    9900012    2    1    2    0    0  0.25199691898E+02 -0.62807150537E+01  0.18499954678E+02  0.59301950128E+02  0.50000011126E+02 0.  0.
        -12    1    1    2    0    0 -0.25199691898E+02  0.62807150537E+01 -0.18499954678E+02  0.31886049872E+02  0.00000000000E+00 0.  1.
         11    1    3    3    0    0  0.18278094480E+02  0.10369202315E+02 -0.19915113011E+00  0.21015440893E+02  0.51100000000E-03 0. -1.
        -11    1    3    3    0    0 -0.42337832040E+01  0.36635108790E+01 -0.31600471436E+01  0.64290069521E+01  0.51100000000E-03 0.  1.
        -12    1    3    3    0    0  0.11155380622E+02 -0.20313428247E+02  0.21859152951E+02  0.31857502283E+02  0.00000000000E+00 0.  1.
</event>
<event>
 7    1  0.1202531E-011  0.5930194E+02  0.7816164E-02  0.1266605E+00
        -11   -1    0    0    0    0  0.00000000000E+00  0.00000000000E+00  0.45593999997E+02  0.45594000000E+02  0.51100000000E-03 0. -1.
         11   -1    0    0    0    0 -0.00000000000E+00 -0.00000000000E+00 -0.45593999997E+02  0.45594000000E+02  0.51100000000E-03 0.  1.
    9900012    2    1    2    0    0 -0.18022017447E+02  0.15988791580E+02  0.20887471555E+02  0.59301936633E+02  0.49999986514E+02 0.  0.
        -12    1    1    2    0    0  0.18022017447E+02 -0.15988791580E+02 -0.20887471555E+02  0.31886063367E+02  0.00000000000E+00 0.  1.
         11    1    3    3    0    0 -0.84770632583E+01  0.17529370947E+02  0.10437911850E+02  0.22092746577E+02  0.51100000000E-03 0. -1.
        -11    1    3    3    0    0  0.90326021884E+01  0.66215836799E+01  0.12536489574E+02  0.16810616997E+02  0.51100000000E-03 0.  1.
         12    1    3    3    0    0 -0.18577556377E+02 -0.81621630467E+01 -0.20869298689E+01  0.20398573058E+02  0.00000000000E+00 0. -1.
</event>
<event>
 7    1  0.1202531E-011  0.5930195E+02  0.7816164E-02  0.1266605E+00
        -11   -1    0    0    0    0  0.00000000000E+00  0.00000000000E+00  0.45593999997E+02  0.45594000000E+02  0.51100000000E-03 0.  1.
         11   -1    0    0    0    0 -0.00000000000E+00 -0.00000000000E+00 -0.45593999997E+02  0.45594000000E+02  0.51100000000E-03 0. -1.
    9900012    2    1    2    0    0  0.59796369709E+01  0.20028227103E+02 -0.24079745016E+02  0.59301951966E+02  0.50000014478E+02 0.  0.
        -12    1    1    2    0    0 -0.59796369709E+01 -0.20028227103E+02  0.24079745016E+02  0.31886048034E+02  0.00000000000E+00 0.  1.
         11    1    3    3    0    0  0.65823324264E+01  0.86820980115E+01 -0.17443492822E+02  0.20566510840E+02  0.51100000000E-03 0. -1.
        -11    1    3    3    0    0 -0.36776202974E+00 -0.85387066472E+01 -0.14918690766E+02  0.17193373565E+02  0.51100000000E-03 0.  1.
        -12    1    3    3    0    0 -0.23493342573E+00  0.19884835739E+02  0.82824385724E+01  0.21542067561E+02  0.00000000000E+00 0.  1.
</event>
<event>
 7    1  0.1202531E-011  0.5930194E+02  0.7816164E-02  0.1266605E+00
        -11   -1    0    0    0    0  0.00000000000E+00  0.00000000000E+00  0.45593999997E+02  0.45594000000E+02  0.51100000000E-03 0.  1.
         11   -1    0    0    0    0 -0.00000000000E+00 -0.00000000000E+00 -0.45593999997E+02  0.45594000000E+02  0.51100000000E-03 0. -1.
    9900012    2    1    2    0    0  0.13202130040E+02 -0.28904695100E+02  0.26350049556E+01  0.59301938978E+02  0.49999990790E+02 0.  0.
        -12    1    1    2    0    0 -0.13202130040E+02  0.28904695100E+02 -0.26350049556E+01  0.31886061022E+02  0.00000000000E+00 0.  1.
         11    1    3    3    0    0  0.67891592002E+00 -0.12731969723E+02  0.12296908927E+02  0.17713778515E+02  0.51100000000E-03 0. -1.
        -11    1    3    3    0    0  0.10516287842E+01  0.85478896069E+01  0.56772785923E+01  0.10315223328E+02  0.51100000000E-03 0.  1.
         12    1    3    3    0    0  0.11471585336E+02 -0.24720614984E+02 -0.15339182564E+02  0.31272937135E+02  0.00000000000E+00 0. -1.
</event>
<event>
 7    1  0.1202531E-011  0.5930196E+02  0.7816164E-02  0.1266605E+00
        -11   -1    0    0    0    0  0.00000000000E+00  0.00000000000E+00  0.45593999997E+02  0.45594000000E+02  0.51100000000E-03 0. -1.
         11   -1    0    0    0    0 -0.00000000000E+00 -0.00000000000E+00 -0.45593999997E+02  0.45594000000E+02  0.51100000000E-03 0.  1.
    9900012    2    1    2    0    0 -0.22164154237E+02  0.90628424317E+01  0.21055520224E+02  0.59301956378E+02  0.50000022524E+02 0.  0.
        -12    1    1    2    0    0  0.22164154237E+02 -0.90628424317E+01 -0.21055520224E+02  0.31886043622E+02  0.00000000000E+00 0.  1.
         11    1    3    3    0    0 -0.13657562620E+02 -0.82595467306E+00  0.26401080919E+02  0.29735976389E+02  0.51100000000E-03 0. -1.
        -11    1    3    3    0    0 -0.39792633201E+01 -0.54503427665E+00  0.98198147534E+01  0.10609446780E+02  0.51100000000E-03 0.  1.
        -12    1    3    3    0    0 -0.45273282970E+01  0.10433831381E+02 -0.15165375448E+02  0.18956533209E+02  0.00000000000E+00 0.  1.
</event>
<event>
 7    1  0.1202531E-011  0.5930194E+02  0.7816164E-02  0.1266605E+00
        -11   -1    0    0    0    0  0.00000000000E+00  0.00000000000E+00  0.45593999997E+02  0.45594000000E+02  0.51100000000E-03 0.  1.
         11   -1    0    0    0    0 -0.00000000000E+00 -0.00000000000E+00 -0.45593999997E+02  0.45594000000E+02  0.51100000000E-03 0. -1.
    9900012    2    1    2    0    0 -0.17053319570E+02  0.16100042662E+02 -0.21603102591E+02  0.59301935275E+02  0.49999984037E+02 0.  0.
        -12    1    1    2    0    0  0.17053319570E+02 -0.16100042662E+02  0.21603102591E+02  0.31886064725E+02  0.00000000000E+00 0.  1.
         11    1    3    3    0    0 -0.94439923518E+01 -0.43768106957E+01 -0.10476922190E+02  0.14768593780E+02  0.51100000000E-03 0. -1.
        -11    1    3    3    0    0 -0.18693397010E+02  0.11003946884E+02 -0.18211013111E+02  0.28322622364E+02  0.51100000000E-03 0.  1.
        -12    1    3    3    0    0  0.11084069792E+02  0.94729064738E+01  0.70848327091E+01  0.16210719131E+02  0.00000000000E+00 0.  1.
</event>
<event>
 7    1  0.1202531E-011  0.5930193E+02  0.7816164E-02  0.1266605E+00
        -11   -1    0    0    0    0  0.00000000000E+00  0.00000000000E+00  0.45593999997E+02  0.45594000000E+02  0.51100000000E-03 0. -1.
         11   -1    0    0    0    0 -0.00000000000E+00 -0.00000000000E+00 -0.45593999997E+02  0.45594000000E+02  0.51100000000E-03 0.  1.
    9900012    2    1    2    0    0  0.30166583222E+02  0.49706650643E+01 -0.90549087160E+01  0.59301927392E+02  0.49999969661E+02 0.  0.
        -12    1    1    2    0    0 -0.30166583222E+02 -0.49706650643E+01  0.90549087160E+01  0.31886072608E+02  0.00000000000E+00 0.  1.
         11    1    3    3    0    0 -0.87244378410E+01  0.37816484543E+01  0.28815647378E+01  0.99357987234E+01  0.51100000000E-03 0. -1.
        -11    1    3    3    0    0  0.68682857432E+01  0.36909952201E+01  0.83115494784E+01  0.11396431448E+02  0.51100000000E-03 0.  1.
         12    1    3    3    0    0  0.32022735320E+02 -0.25019786101E+01 -0.20248022932E+02  0.37969697220E+02  0.00000000000E+00 0. -1.
</event>
<event>
 7    1  0.1202531E-011  0.5930193E+02  0.7816164E-02  0.1266605E+00
        -11   -1    0    0    0    0  0.00000000000E+00  0.00000000000E+00  0.45593999997E+02  0.45594000000E+02  0.51100000000E-03 0.  1.
         11   -1    0    0    0    0 -0.00000000000E+00 -0.00000000000E+00 -0.45593999997E+02  0.45594000000E+02  0.51100000000E-03 0. -1.
    9900012    2    1    2    0    0  0.93472570000E+01  0.25090461037E+02 -0.17315275262E+02  0.59301933986E+02  0.49999981686E+02 0.  0.
        -12    1    1    2    0    0 -0.93472570000E+01 -0.25090461037E+02  0.17315275262E+02  0.31886066014E+02  0.00000000000E+00 0.  1.
         11    1    3    3    0    0  0.15680327107E+02  0.99776286784E+00 -0.88207863106E+01  0.18018725269E+02  0.51100000000E-03 0. -1.
        -11    1    3    3    0    0  0.95647556593E+01  0.11474754668E+02  0.62532615855E+01  0.16194376377E+02  0.51100000000E-03 0.  1.
        -12    1    3    3    0    0 -0.15897825766E+02  0.12617943501E+02 -0.14747750537E+02  0.25088832340E+02  0.00000000000E+00 0.  1.
</event>
<event>
 7    1  0.1202531E-011  0.5930193E+02  0.7816164E-02  0.1266605E+00
        -11   -1    0    0    0    0  0.00000000000E+00  0.00000000000E+00  0.45593999997E+02  0.45594000000E+02  0.51100000000E-03 0.  1.
         11   -1    0    0    0    0 -0.00000000000E+00 -0.00000000000E+00 -0.45593999997E+02  0.45594000000E+02  0.51100000000E-03 0. -1.
    9900012    2    1    2    0    0  0.40111463302E+01  0.20658174261E+02 -0.23955624862E+02  0.59301930609E+02  0.49999975528E+02 0.  0.
        -12    1    1    2    0    0 -0.40111463302E+01 -0.20658174261E+02  0.23955624862E+02  0.31886069391E+02  0.00000000000E+00 0.  1.
         11    1    3    3    0    0 -0.16031024437E+00 -0.11869114205E+02  0.19058744330E+01  0.12022226458E+02  0.51100000000E-03 0. -1.
        -11    1    3    3    0    0  0.10594137543E+02  0.80381051258E+01 -0.41591807858E+01  0.13933616522E+02  0.51100000000E-03 0.  1.
        -12    1    3    3    0    0 -0.64226809688E+01  0.24489183341E+02 -0.21702318509E+02  0.33346087629E+02  0.00000000000E+00 0.  1.
</event>
<event>
 7    1  0.1202531E-011  0.5930190E+02  0.7816164E-02  0.1266605E+00
        -11   -1    0    0    0    0  0.00000000000E+00  0.00000000000E+00  0.45593999997E+02  0.45594000000E+02  0.51100000000E-03 0.  1.
         11   -1    0    0    0    0 -0.00000000000E+00 -0.00000000000E+00 -0.45593999997E+02  0.45594000000E+02  0.51100000000E-03 0. -1.
    9900012    2    1    2    0    0  0.73193847855E+01  0.18733014652E+02 -0.24743158063E+02  0.59301904244E+02  0.49999927445E+02 0.  0.
        -12    1    1    2    0    0 -0.73193847855E+01 -0.18733014652E+02  0.24743158063E+02  0.31886095756E+02  0.00000000000E+00 0.  1.
         11    1    3    3    0    0 -0.13576931165E+01 -0.45744170121E+01 -0.79406478199E+00  0.48372679002E+01  0.51100000000E-03 0. -1.
        -11    1    3    3    0    0 -0.71454331216E+00 -0.58715907092E+01 -0.23051539327E+02  0.23798311184E+02  0.51100000000E-03 0.  1.
        -12    1    3    3    0    0  0.93916212141E+01  0.29179022374E+02 -0.89755395361E+00  0.30666325160E+02  0.00000000000E+00 0.  1.
</event>
<event>
 7    1  0.1202531E-011  0.5930197E+02  0.7816164E-02  0.1266605E+00
        -11   -1    0    0    0    0  0.00000000000E+00  0.00000000000E+00  0.45593999997E+02  0.45594000000E+02  0.51100000000E-03 0.  1.
         11   -1    0    0    0    0 -0.00000000000E+00 -0.00000000000E+00 -0.45593999997E+02  0.45594000000E+02  0.51100000000E-03 0. -1.
    9900012    2    1    2    0    0 -0.19431898002E+02  0.22289700693E+02  0.11928507640E+02  0.59301973100E+02  0.50000053020E+02 0.  0.
        -12    1    1    2    0    0  0.19431898002E+02 -0.22289700693E+02 -0.11928507640E+02  0.31886026900E+02  0.00000000000E+00 0.  1.
         11    1    3    3    0    0 -0.75278955838E+01 -0.76840080925E+01 -0.41132784100E+01  0.11516607653E+02  0.51100000000E-03 0. -1.
        -11    1    3    3    0    0  0.72853926181E+01  0.54564944796E+01 -0.48283092965E+01  0.10303535730E+02  0.51100000000E-03 0.  1.
         12    1    3    3    0    0 -0.19189395037E+02  0.24517214306E+02  0.20870095346E+02  0.37481829718E+02  0.00000000000E+00 0. -1.
</event>
<event>
 7    1  0.1202531E-011  0.5930195E+02  0.7816164E-02  0.1266605E+00
        -11   -1    0    0    0    0  0.00000000000E+00  0.00000000000E+00  0.45593999997E+02  0.45594000000E+02  0.51100000000E-03 0.  1.
         11   -1    0    0    0    0 -0.00000000000E+00 -0.00000000000E+00 -0.45593999997E+02  0.45594000000E+02  0.51100000000E-03 0. -1.
    9900012    2    1    2    0    0 -0.78876360713E+01 -0.11415504424E+02 -0.28708738718E+02  0.59301949400E+02  0.50000009798E+02 0.  0.
        -12    1    1    2    0    0  0.78876360713E+01  0.11415504424E+02  0.28708738718E+02  0.31886050600E+02  0.00000000000E+00 0.  1.
         11    1    3    3    0    0 -0.15362330348E+02 -0.13921930323E+01 -0.16687749743E+02  0.22724884750E+02  0.51100000000E-03 0. -1.
        -11    1    3    3    0    0  0.15138241667E+02  0.56830210691E+01 -0.99317903570E+01  0.18976394525E+02  0.51100000000E-03 0.  1.
         12    1    3    3    0    0 -0.76635473901E+01 -0.15706332461E+02 -0.20891986180E+01  0.17600670125E+02  0.00000000000E+00 0. -1.
</event>
<event>
 7    1  0.1202531E-011  0.5930194E+02  0.7816164E-02  0.1266605E+00
        -11   -1    0    0    0    0  0.00000000000E+00  0.00000000000E+00  0.45593999997E+02  0.45594000000E+02  0.51100000000E-03 0.  1.
         11   -1    0    0    0    0 -0.00000000000E+00 -0.00000000000E+00 -0.45593999997E+02  0.45594000000E+02  0.51100000000E-03 0. -1.
    9900012    2    1    2    0    0  0.10121436468E+02  0.17253994531E+02  0.24830964620E+02  0.59301943370E+02  0.49999998801E+02 0.  0.
        -12    1    1    2    0    0 -0.10121436468E+02 -0.17253994531E+02 -0.24830964620E+02  0.31886056630E+02  0.00000000000E+00 0.  1.
         11    1    3    3    0    0 -0.30498428866E+01 -0.98739333388E+00 -0.48917457465E+01  0.58485608434E+01  0.51100000000E-03 0. -1.
        -11    1    3    3    0    0 -0.12105521656E+02  0.93943422545E+01  0.19472232848E+02  0.24778320631E+02  0.51100000000E-03 0.  1.
        -12    1    3    3    0    0  0.25276801010E+02  0.88470456100E+01  0.10250477518E+02  0.28675061895E+02  0.00000000000E+00 0.  1.
</event>
<event>
 7    1  0.1202531E-011  0.5930189E+02  0.7816164E-02  0.1266605E+00
        -11   -1    0    0    0    0  0.00000000000E+00  0.00000000000E+00  0.45593999997E+02  0.45594000000E+02  0.51100000000E-03 0.  1.
         11   -1    0    0    0    0 -0.00000000000E+00 -0.00000000000E+00 -0.45593999997E+02  0.45594000000E+02  0.51100000000E-03 0. -1.
    9900012    2    1    2    0    0  0.48549064900E+01 -0.26691264372E+02 -0.16755009950E+02  0.59301889086E+02  0.49999899799E+02 0.  0.
        -12    1    1    2    0    0 -0.48549064900E+01  0.26691264372E+02  0.16755009950E+02  0.31886110914E+02  0.00000000000E+00 0.  1.
         11    1    3    3    0    0 -0.48182412941E+01 -0.20128396116E+02 -0.57848630829E+01  0.21490286655E+02  0.51100000000E-03 0. -1.
        -11    1    3    3    0    0  0.20022170375E+02 -0.11581650319E+02 -0.19836306612E+01  0.23215441445E+02  0.51100000000E-03 0.  1.
        -12    1    3    3    0    0 -0.10349022591E+02  0.50187820628E+01 -0.89865162062E+01  0.14596160985E+02  0.00000000000E+00 0.  1.
</event>
<event>
 7    1  0.1202531E-011  0.5930196E+02  0.7816164E-02  0.1266605E+00
        -11   -1    0    0    0    0  0.00000000000E+00  0.00000000000E+00  0.45593999997E+02  0.45594000000E+02  0.51100000000E-03 0.  1.
         11   -1    0    0    0    0 -0.00000000000E+00 -0.00000000000E+00 -0.45593999997E+02  0.45594000000E+02  0.51100000000E-03 0. -1.
    9900012    2    1    2    0    0 -0.20756339285E+01 -0.29966980420E+02 -0.10695384228E+02  0.59301962061E+02  0.50000032888E+02 0.  0.
        -12    1    1    2    0    0  0.20756339285E+01  0.29966980420E+02  0.10695384228E+02  0.31886037939E+02  0.00000000000E+00 0.  1.
         11    1    3    3    0    0 -0.56371152100E+01  0.79392405393E+01  0.22069405729E+00  0.97394719754E+01  0.51100000000E-03 0. -1.
        -11    1    3    3    0    0  0.93456602626E+01 -0.32350827404E+01  0.48774075701E+01  0.11027068103E+02  0.51100000000E-03 0.  1.
        -12    1    3    3    0    0 -0.57841789810E+01 -0.34671138219E+02 -0.15793485856E+02  0.38535421982E+02  0.00000000000E+00 0.  1.
</event>
<event>
 7    1  0.1202531E-011  0.5930194E+02  0.7816164E-02  0.1266605E+00
        -11   -1    0    0    0    0  0.00000000000E+00  0.00000000000E+00  0.45593999997E+02  0.45594000000E+02  0.51100000000E-03 0.  1.
         11   -1    0    0    0    0 -0.00000000000E+00 -0.00000000000E+00 -0.45593999997E+02  0.45594000000E+02  0.51100000000E-03 0. -1.
    9900012    2    1    2    0    0 -0.30130169000E+02  0.95040450655E+01  0.43089082624E+01  0.59301942749E+02  0.49999997668E+02 0.  0.
        -12    1    1    2    0    0  0.30130169000E+02 -0.95040450655E+01 -0.43089082624E+01  0.31886057251E+02  0.00000000000E+00 0.  1.
         11    1    3    3    0    0 -0.20292088736E+02  0.22984291891E+02  0.61346588195E+01  0.31267884132E+02  0.51100000000E-03 0. -1.
        -11    1    3    3    0    0 -0.15444584175E+02 -0.25337838660E+01 -0.16080214550E+01  0.15733434917E+02  0.51100000000E-03 0.  1.
        -12    1    3    3    0    0  0.56065039116E+01 -0.10946462960E+02 -0.21772910218E+00  0.12300623700E+02  0.00000000000E+00 0.  1.
</event>
<event>
 7    1  0.1202531E-011  0.5930198E+02  0.7816164E-02  0.1266605E+00
        -11   -1    0    0    0    0  0.00000000000E+00  0.00000000000E+00  0.45593999997E+02  0.45594000000E+02  0.51100000000E-03 0.  1.
         11   -1    0    0    0    0 -0.00000000000E+00 -0.00000000000E+00 -0.45593999997E+02  0.45594000000E+02  0.51100000000E-03 0. -1.
    9900012    2    1    2    0    0  0.25772010718E+02  0.17742180821E+02 -0.61430267518E+01  0.59301979641E+02  0.50000064949E+02 0.  0.
        -12    1    1    2    0    0 -0.25772010718E+02 -0.17742180821E+02  0.61430267518E+01  0.31886020359E+02  0.00000000000E+00 0.  1.
         11    1    3    3    0    0 -0.31027936434E+01  0.12589839160E+02 -0.22661703777E+01  0.13163088805E+02  0.51100000000E-03 0.  1.
        -11    1    3    3    0    0 -0.16822450434E+01 -0.97827196386E+01  0.48175371455E+01  0.11033594896E+02  0.51100000000E-03 0. -1.
         12    1    3    3    0    0  0.30557049404E+02  0.14935061300E+02 -0.86943935196E+01  0.35105295939E+02  0.00000000000E+00 0. -1.
</event>
<event>
 7    1  0.1202531E-011  0.5930194E+02  0.7816164E-02  0.1266605E+00
        -11   -1    0    0    0    0  0.00000000000E+00  0.00000000000E+00  0.45593999997E+02  0.45594000000E+02  0.51100000000E-03 0.  1.
         11   -1    0    0    0    0 -0.00000000000E+00 -0.00000000000E+00 -0.45593999997E+02  0.45594000000E+02  0.51100000000E-03 0. -1.
    9900012    2    1    2    0    0  0.26550630762E+02 -0.70134396953E+01 -0.16204827471E+02  0.59301940921E+02  0.49999994334E+02 0.  0.
        -12    1    1    2    0    0 -0.26550630762E+02  0.70134396953E+01  0.16204827471E+02  0.31886059079E+02  0.00000000000E+00 0.  1.
         11    1    3    3    0    0  0.99563190926E+01 -0.46379034279E+01 -0.65432611039E+01  0.12784862307E+02  0.51100000000E-03 0. -1.
        -11    1    3    3    0    0  0.19314969660E+02  0.76249425773E+01  0.10928545370E+02  0.23465738992E+02  0.51100000000E-03 0.  1.
         12    1    3    3    0    0 -0.27206579903E+01 -0.10000478845E+02 -0.20590111737E+02  0.23051339622E+02  0.00000000000E+00 0. -1.
</event>
<event>
 7    1  0.1202531E-011  0.5930195E+02  0.7816164E-02  0.1266605E+00
        -11   -1    0    0    0    0  0.00000000000E+00  0.00000000000E+00  0.45593999997E+02  0.45594000000E+02  0.51100000000E-03 0. -1.
         11   -1    0    0    0    0 -0.00000000000E+00 -0.00000000000E+00 -0.45593999997E+02  0.45594000000E+02  0.51100000000E-03 0.  1.
    9900012    2    1    2    0    0  0.80048300831E+01  0.17706675320E+02  0.25280752218E+02  0.59301951511E+02  0.50000013647E+02 0.  0.
        -12    1    1    2    0    0 -0.80048300831E+01 -0.17706675320E+02 -0.25280752218E+02  0.31886048489E+02  0.00000000000E+00 0.  1.
         11    1    3    3    0    0  0.41020008607E+01 -0.86957233414E+01  0.68075744532E+01  0.11780708200E+02  0.51100000000E-03 0.  1.
        -11    1    3    3    0    0  0.18248313933E+02  0.13405565866E+02  0.32086016633E+01  0.22869308745E+02  0.51100000000E-03 0. -1.
         12    1    3    3    0    0 -0.14345484710E+02  0.12996832796E+02  0.15264576102E+02  0.24651934566E+02  0.00000000000E+00 0. -1.
</event>
<event>
 7    1  0.1202531E-011  0.5930195E+02  0.7816164E-02  0.1266605E+00
        -11   -1    0    0    0    0  0.00000000000E+00  0.00000000000E+00  0.45593999997E+02  0.45594000000E+02  0.51100000000E-03 0.  1.
         11   -1    0    0    0    0 -0.00000000000E+00 -0.00000000000E+00 -0.45593999997E+02  0.45594000000E+02  0.51100000000E-03 0. -1.
    9900012    2    1    2    0    0  0.23495028176E+02  0.18223306057E+02 -0.11515856197E+02  0.59301950126E+02  0.50000011121E+02 0.  0.
        -12    1    1    2    0    0 -0.23495028176E+02 -0.18223306057E+02  0.11515856197E+02  0.31886049874E+02  0.00000000000E+00 0.  1.
         11    1    3    3    0    0  0.63461006978E+01  0.58913730414E+01 -0.14513105112E+02  0.16900044101E+02  0.51100000000E-03 0. -1.
        -11    1    3    3    0    0  0.16092913578E+01 -0.45345747967E+01 -0.13381273026E+02  0.14220079300E+02  0.51100000000E-03 0.  1.
        -12    1    3    3    0    0  0.15539636121E+02  0.16866507812E+02  0.16378521941E+02  0.28181826724E+02  0.00000000000E+00 0.  1.
</event>
<event>
 7    1  0.1202531E-011  0.5930196E+02  0.7816164E-02  0.1266605E+00
        -11   -1    0    0    0    0  0.00000000000E+00  0.00000000000E+00  0.45593999997E+02  0.45594000000E+02  0.51100000000E-03 0.  1.
         11   -1    0    0    0    0 -0.00000000000E+00 -0.00000000000E+00 -0.45593999997E+02  0.45594000000E+02  0.51100000000E-03 0. -1.
    9900012    2    1    2    0    0  0.20849625165E+02 -0.19979959013E+01 -0.24042066860E+02  0.59301955465E+02  0.50000020859E+02 0.  0.
        -12    1    1    2    0    0 -0.20849625165E+02  0.19979959013E+01  0.24042066860E+02  0.31886044535E+02  0.00000000000E+00 0.  1.
         11    1    3    3    0    0  0.55994238721E+01  0.42476808098E+01 -0.60265489922E+01  0.92582737580E+01  0.51100000000E-03 0. -1.
        -11    1    3    3    0    0 -0.12287939110E+01  0.64074264710E+01 -0.26729267068E+02  0.27513974026E+02  0.51100000000E-03 0.  1.
        -12    1    3    3    0    0  0.16478995204E+02 -0.12653103182E+02  0.87137491995E+01  0.22529707681E+02  0.00000000000E+00 0.  1.
</event>
<event>
 7    1  0.1202531E-011  0.5930197E+02  0.7816164E-02  0.1266605E+00
        -11   -1    0    0    0    0  0.00000000000E+00  0.00000000000E+00  0.45593999997E+02  0.45594000000E+02  0.51100000000E-03 0.  1.
         11   -1    0    0    0    0 -0.00000000000E+00 -0.00000000000E+00 -0.45593999997E+02  0.45594000000E+02  0.51100000000E-03 0. -1.
    9900012    2    1    2    0    0 -0.23952534425E+02  0.94463631319E+01 -0.18808536938E+02  0.59301972597E+02  0.50000052103E+02 0.  0.
        -12    1    1    2    0    0  0.23952534425E+02 -0.94463631319E+01  0.18808536938E+02  0.31886027403E+02  0.00000000000E+00 0.  1.
         11    1    3    3    0    0  0.49490903806E+00  0.84777571078E+01 -0.18836105246E+02  0.20661949609E+02  0.51100000000E-03 0. -1.
        -11    1    3    3    0    0 -0.24587492981E+02  0.10420254275E+02 -0.60774615908E+01  0.27387260723E+02  0.51100000000E-03 0.  1.
        -12    1    3    3    0    0  0.14004951825E+00 -0.94516482506E+01  0.61050298987E+01  0.11252762265E+02  0.00000000000E+00 0.  1.
</event>
<event>
 7    1  0.1202531E-011  0.5930197E+02  0.7816164E-02  0.1266605E+00
        -11   -1    0    0    0    0  0.00000000000E+00  0.00000000000E+00  0.45593999997E+02  0.45594000000E+02  0.51100000000E-03 0.  1.
         11   -1    0    0    0    0 -0.00000000000E+00 -0.00000000000E+00 -0.45593999997E+02  0.45594000000E+02  0.51100000000E-03 0. -1.
    9900012    2    1    2    0    0 -0.21186215258E+02  0.50141367333E+01 -0.23296389454E+02  0.59301967858E+02  0.50000043461E+02 0.  0.
        -12    1    1    2    0    0  0.21186215258E+02 -0.50141367333E+01  0.23296389454E+02  0.31886032142E+02  0.00000000000E+00 0.  1.
         11    1    3    3    0    0 -0.77151287884E+01  0.18261245277E+01  0.13629219861E+02  0.15767484812E+02  0.51100000000E-03 0. -1.
        -11    1    3    3    0    0  0.85664257014E+00  0.60490853563E+01 -0.34662998231E+01  0.70242796688E+01  0.51100000000E-03 0.  1.
        -12    1    3    3    0    0 -0.14327729040E+02 -0.28610731507E+01 -0.33459309492E+02  0.36510203378E+02  0.00000000000E+00 0.  1.
</event>
<event>
 7    1  0.1202531E-011  0.5930196E+02  0.7816164E-02  0.1266605E+00
        -11   -1    0    0    0    0  0.00000000000E+00  0.00000000000E+00  0.45593999997E+02  0.45594000000E+02  0.51100000000E-03 0. -1.
         11   -1    0    0    0    0 -0.00000000000E+00 -0.00000000000E+00 -0.45593999997E+02  0.45594000000E+02  0.51100000000E-03 0.  1.
    9900012    2    1    2    0    0  0.35140791367E+01  0.11585576534E+02  0.29498223885E+02  0.59301959979E+02  0.50000029092E+02 0.  0.
        -12    1    1    2    0    0 -0.35140791367E+01 -0.11585576534E+02 -0.29498223885E+02  0.31886040021E+02  0.00000000000E+00 0.  1.
         11    1    3    3    0    0 -0.13416942880E+02 -0.11659345088E+02  0.11467055864E+02  0.21152967985E+02  0.51100000000E-03 0. -1.
        -11    1    3    3    0    0  0.32544925835E+01 -0.57609286097E-01  0.91429587065E+01  0.97050880973E+01  0.51100000000E-03 0.  1.
         12    1    3    3    0    0  0.13676529433E+02  0.23302530908E+02  0.88882093151E+01  0.28443903897E+02  0.00000000000E+00 0. -1.
</event>
<event>
 7    1  0.1202531E-011  0.5930195E+02  0.7816164E-02  0.1266605E+00
        -11   -1    0    0    0    0  0.00000000000E+00  0.00000000000E+00  0.45593999997E+02  0.45594000000E+02  0.51100000000E-03 0.  1.
         11   -1    0    0    0    0 -0.00000000000E+00 -0.00000000000E+00 -0.45593999997E+02  0.45594000000E+02  0.51100000000E-03 0. -1.
    9900012    2    1    2    0    0  0.51923349111E+01  0.29609462515E+02 -0.10632002230E+02  0.59301951583E+02  0.50000013779E+02 0.  0.
        -12    1    1    2    0    0 -0.51923349111E+01 -0.29609462515E+02  0.10632002230E+02  0.31886048417E+02  0.00000000000E+00 0.  1.
         11    1    3    3    0    0  0.25935287626E+01  0.16685886897E+02  0.10239095057E+02  0.19748019669E+02  0.51100000000E-03 0. -1.
        -11    1    3    3    0    0 -0.10939204290E+02  0.43826675349E+01  0.16755091104E+01  0.11902995265E+02  0.51100000000E-03 0.  1.
         12    1    3    3    0    0  0.13538010439E+02  0.85409080832E+01 -0.22546606398E+02  0.27650936650E+02  0.00000000000E+00 0. -1.
</event>
<event>
 7    1  0.1202531E-011  0.5930194E+02  0.7816164E-02  0.1266605E+00
        -11   -1    0    0    0    0  0.00000000000E+00  0.00000000000E+00  0.45593999997E+02  0.45594000000E+02  0.51100000000E-03 0. -1.
         11   -1    0    0    0    0 -0.00000000000E+00 -0.00000000000E+00 -0.45593999997E+02  0.45594000000E+02  0.51100000000E-03 0.  1.
    9900012    2    1    2    0    0  0.20427076656E+02 -0.15413844598E+02  0.19022845611E+02  0.59301941586E+02  0.49999995548E+02 0.  0.
        -12    1    1    2    0    0 -0.20427076656E+02  0.15413844598E+02 -0.19022845611E+02  0.31886058414E+02  0.00000000000E+00 0.  1.
         11    1    3    3    0    0  0.50786666446E+00 -0.13364228241E+02  0.23414333097E+02  0.26964634611E+02  0.51100000000E-03 0. -1.
        -11    1    3    3    0    0  0.24906861048E+02  0.56069279185E+00  0.44266596982E+00  0.24917103706E+02  0.51100000000E-03 0.  1.
         12    1    3    3    0    0 -0.49876510571E+01 -0.26103091494E+01 -0.48341534561E+01  0.74202032695E+01  0.00000000000E+00 0. -1.
</event>
<event>
 7    1  0.1270636E-011  0.5930195E+02  0.7816164E-02  0.1266605E+00
        -11   -1    0    0    0    0  0.00000000000E+00  0.00000000000E+00  0.45593999997E+02  0.45594000000E+02  0.51100000000E-03 0. -1.
         11   -1    0    0    0    0 -0.00000000000E+00 -0.00000000000E+00 -0.45593999997E+02  0.45594000000E+02  0.51100000000E-03 0.  1.
    9900012    2    1    2    0    0 -0.20564896576E+02  0.16521121567E+02  0.17912496393E+02  0.59301953584E+02  0.50000017428E+02 0.  0.
        -12    1    1    2    0    0  0.20564896576E+02 -0.16521121567E+02 -0.17912496393E+02  0.31886046416E+02  0.00000000000E+00 0.  1.
         11    1    3    3    0    0 -0.82619079599E+01  0.32754033384E+01  0.24592575603E+02  0.26149228769E+02  0.51100000000E-03 0. -1.
        -11    1    3    3    0    0  0.81426416076E+01  0.45166317006E+01  0.15648069582E+01  0.94419910690E+01  0.51100000000E-03 0.  1.
        -12    1    3    3    0    0 -0.20445630223E+02  0.87290865285E+01 -0.82448861679E+01  0.23710733746E+02  0.00000000000E+00 0.  1.
</event>
<event>
 7    1  0.1202531E-011  0.5930193E+02  0.7816164E-02  0.1266605E+00
        -11   -1    0    0    0    0  0.00000000000E+00  0.00000000000E+00  0.45593999997E+02  0.45594000000E+02  0.51100000000E-03 0. -1.
         11   -1    0    0    0    0 -0.00000000000E+00 -0.00000000000E+00 -0.45593999997E+02  0.45594000000E+02  0.51100000000E-03 0.  1.
    9900012    2    1    2    0    0 -0.73624244633E+00  0.30969391766E+02  0.75548599109E+01  0.59301934273E+02  0.49999982209E+02 0.  0.
        -12    1    1    2    0    0  0.73624244633E+00 -0.30969391766E+02 -0.75548599109E+01  0.31886065727E+02  0.00000000000E+00 0.  1.
         11    1    3    3    0    0 -0.12270829025E+02  0.85891643181E+01  0.65260179091E+01  0.16338173051E+02  0.51100000000E-03 0. -1.
        -11    1    3    3    0    0  0.28306190884E+01 -0.39045226806E+01 -0.11576640234E+02  0.12540984856E+02  0.51100000000E-03 0.  1.
        -12    1    3    3    0    0  0.87039674897E+01  0.26284750129E+02  0.12605482236E+02  0.30422776366E+02  0.00000000000E+00 0.  1.
</event>
<event>
 7    1  0.1202531E-011  0.5930195E+02  0.7816164E-02  0.1266605E+00
        -11   -1    0    0    0    0  0.00000000000E+00  0.00000000000E+00  0.45593999997E+02  0.45594000000E+02  0.51100000000E-03 0.  1.
         11   -1    0    0    0    0 -0.00000000000E+00 -0.00000000000E+00 -0.45593999997E+02  0.45594000000E+02  0.51100000000E-03 0. -1.
    9900012    2    1    2    0    0  0.21418436706E+02  0.18935428467E+02 -0.14121634231E+02  0.59301946066E+02  0.50000003717E+02 0.  0.
        -12    1    1    2    0    0 -0.21418436706E+02 -0.18935428467E+02  0.14121634231E+02  0.31886053934E+02  0.00000000000E+00 0.  1.
         11    1    3    3    0    0 -0.76437199574E+01 -0.26113129661E+01  0.42610282373E-01  0.80775755083E+01  0.51100000000E-03 0. -1.
        -11    1    3    3    0    0  0.22628275956E+01 -0.79177607776E+01 -0.68886807748E+01  0.10736165402E+02  0.51100000000E-03 0.  1.
         12    1    3    3    0    0  0.26799329068E+02  0.29464502210E+02 -0.72755637382E+01  0.40488205156E+02  0.00000000000E+00 0. -1.
</event>
<event>
 7    1  0.1202531E-011  0.5930198E+02  0.7816164E-02  0.1266605E+00
        -11   -1    0    0    0    0  0.00000000000E+00  0.00000000000E+00  0.45593999997E+02  0.45594000000E+02  0.51100000000E-03 0.  1.
         11   -1    0    0    0    0 -0.00000000000E+00 -0.00000000000E+00 -0.45593999997E+02  0.45594000000E+02  0.51100000000E-03 0. -1.
    9900012    2    1    2    0    0 -0.80781727085E+01 -0.26463195744E+02  0.15848052254E+02  0.59301978556E+02  0.50000062970E+02 0.  0.
        -12    1    1    2    0    0  0.80781727085E+01  0.26463195744E+02 -0.15848052254E+02  0.31886021444E+02  0.00000000000E+00 0.  1.
         11    1    3    3    0    0 -0.11289510175E+02 -0.18518498267E+02 -0.75198791939E+01  0.22955095325E+02  0.51100000000E-03 0. -1.
        -11    1    3    3    0    0 -0.86115198359E+01 -0.72079646603E+01  0.21633751496E+02  0.24374827845E+02  0.51100000000E-03 0.  1.
        -12    1    3    3    0    0  0.11822857302E+02 -0.73673281724E+00  0.17341799523E+01  0.11972055385E+02  0.00000000000E+00 0.  1.
</event>
<event>
 7    1  0.1202531E-011  0.5930194E+02  0.7816164E-02  0.1266605E+00
        -11   -1    0    0    0    0  0.00000000000E+00  0.00000000000E+00  0.45593999997E+02  0.45594000000E+02  0.51100000000E-03 0. -1.
         11   -1    0    0    0    0 -0.00000000000E+00 -0.00000000000E+00 -0.45593999997E+02  0.45594000000E+02  0.51100000000E-03 0.  1.
    9900012    2    1    2    0    0 -0.30744525867E+02  0.83558626071E+01 -0.12941263828E+01  0.59301936056E+02  0.49999985462E+02 0.  0.
        -12    1    1    2    0    0  0.30744525867E+02 -0.83558626071E+01  0.12941263828E+01  0.31886063944E+02  0.00000000000E+00 0.  1.
         11    1    3    3    0    0 -0.20569181230E+02 -0.46058414541E+01  0.32481480600E+01  0.21327340623E+02  0.51100000000E-03 0. -1.
        -11    1    3    3    0    0 -0.21743176710E+02  0.13190265695E+02  0.29762925391E+00  0.25432998761E+02  0.51100000000E-03 0.  1.
         12    1    3    3    0    0  0.11567832073E+02 -0.22856163356E+00 -0.48399036967E+01  0.12541596672E+02  0.00000000000E+00 0. -1.
</event>
<event>
 7    1  0.1202531E-011  0.5930194E+02  0.7816164E-02  0.1266605E+00
        -11   -1    0    0    0    0  0.00000000000E+00  0.00000000000E+00  0.45593999997E+02  0.45594000000E+02  0.51100000000E-03 0.  1.
         11   -1    0    0    0    0 -0.00000000000E+00 -0.00000000000E+00 -0.45593999997E+02  0.45594000000E+02  0.51100000000E-03 0. -1.
    9900012    2    1    2    0    0 -0.71422851188E+01  0.29277596789E+02 -0.10417824100E+02  0.59301937693E+02  0.49999988448E+02 0.  0.
        -12    1    1    2    0    0  0.71422851188E+01 -0.29277596789E+02  0.10417824100E+02  0.31886062307E+02  0.00000000000E+00 0.  1.
         11    1    3    3    0    0  0.32770152639E+01 -0.81663058042E+01 -0.11381918609E+02  0.14386641408E+02  0.51100000000E-03 0. -1.
        -11    1    3    3    0    0  0.44349645095E+01  0.69348149982E+01  0.65574859997E+01  0.10524314332E+02  0.51100000000E-03 0.  1.
        -12    1    3    3    0    0 -0.14854264892E+02  0.30509087595E+02 -0.55933914910E+01  0.34390981953E+02  0.00000000000E+00 0.  1.
</event>
<event>
 7    1  0.1202531E-011  0.5930194E+02  0.7816164E-02  0.1266605E+00
        -11   -1    0    0    0    0  0.00000000000E+00  0.00000000000E+00  0.45593999997E+02  0.45594000000E+02  0.51100000000E-03 0. -1.
         11   -1    0    0    0    0 -0.00000000000E+00 -0.00000000000E+00 -0.45593999997E+02  0.45594000000E+02  0.51100000000E-03 0.  1.
    9900012    2    1    2    0    0 -0.49464498722E+01 -0.90566918462E+01 -0.30170016367E+02  0.59301938451E+02  0.49999989829E+02 0.  0.
        -12    1    1    2    0    0  0.49464498722E+01  0.90566918462E+01  0.30170016367E+02  0.31886061549E+02  0.00000000000E+00 0.  1.
         11    1    3    3    0    0 -0.44117516450E+01  0.26936962465E+01  0.49574431767E+01  0.71621082900E+01  0.51100000000E-03 0. -1.
        -11    1    3    3    0    0 -0.10948672373E+02  0.51374165742E+01 -0.28926220753E+02  0.31352714764E+02  0.51100000000E-03 0.  1.
         12    1    3    3    0    0  0.10413974146E+02 -0.16887804667E+02 -0.62012387906E+01  0.20787115397E+02  0.00000000000E+00 0. -1.
</event>
<event>
 7    1  0.1202531E-011  0.5930205E+02  0.7816164E-02  0.1266604E+00
        -11   -1    0    0    0    0  0.00000000000E+00  0.00000000000E+00  0.45593999997E+02  0.45594000000E+02  0.51100000000E-03 0.  1.
         11   -1    0    0    0    0 -0.00000000000E+00 -0.00000000000E+00 -0.45593999997E+02  0.45594000000E+02  0.51100000000E-03 0. -1.
    9900012    2    1    2    0    0 -0.11617108270E+02  0.17705930143E+02 -0.23838128667E+02  0.59302054113E+02  0.50000200768E+02 0.  0.
        -12    1    1    2    0    0  0.11617108270E+02 -0.17705930143E+02  0.23838128667E+02  0.31885945887E+02  0.00000000000E+00 0.  1.
         11    1    3    3    0    0 -0.10348675615E+02  0.77434106881E+01 -0.33488443464E+02  0.35896118759E+02  0.51100000000E-03 0. -1.
        -11    1    3    3    0    0 -0.90719730413E+01  0.89831370740E+01  0.30202419387E+01  0.13119424842E+02  0.51100000000E-03 0.  1.
        -12    1    3    3    0    0  0.78035403857E+01  0.97938238098E+00  0.66300728583E+01  0.10286510512E+02  0.00000000000E+00 0.  1.
</event>
<event>
 7    1  0.1202531E-011  0.5930194E+02  0.7816164E-02  0.1266605E+00
        -11   -1    0    0    0    0  0.00000000000E+00  0.00000000000E+00  0.45593999997E+02  0.45594000000E+02  0.51100000000E-03 0.  1.
         11   -1    0    0    0    0 -0.00000000000E+00 -0.00000000000E+00 -0.45593999997E+02  0.45594000000E+02  0.51100000000E-03 0. -1.
    9900012    2    1    2    0    0 -0.31365922628E+02 -0.22534607842E+00 -0.57314210478E+01  0.59301936110E+02  0.49999985560E+02 0.  0.
        -12    1    1    2    0    0  0.31365922628E+02  0.22534607842E+00  0.57314210478E+01  0.31886063890E+02  0.00000000000E+00 0.  1.
         11    1    3    3    0    0 -0.19007635715E+02  0.48930667361E+01 -0.59510853636E+01  0.20509698555E+02  0.51100000000E-03 0. -1.
        -11    1    3    3    0    0 -0.22437228232E+02 -0.62502989748E+00 -0.92245127781E+01  0.24267499034E+02  0.51100000000E-03 0.  1.
        -12    1    3    3    0    0  0.10078941318E+02 -0.44933829170E+01  0.94441770938E+01  0.14524738521E+02  0.00000000000E+00 0.  1.
</event>
<event>
 7    1  0.1202531E-011  0.5930195E+02  0.7816164E-02  0.1266605E+00
        -11   -1    0    0    0    0  0.00000000000E+00  0.00000000000E+00  0.45593999997E+02  0.45594000000E+02  0.51100000000E-03 0.  1.
         11   -1    0    0    0    0 -0.00000000000E+00 -0.00000000000E+00 -0.45593999997E+02  0.45594000000E+02  0.51100000000E-03 0. -1.
    9900012    2    1    2    0    0 -0.20874091824E+02 -0.81709788094E+01 -0.22676592496E+02  0.59301945816E+02  0.50000003261E+02 0.  0.
        -12    1    1    2    0    0  0.20874091824E+02  0.81709788094E+01  0.22676592496E+02  0.31886054184E+02  0.00000000000E+00 0.  1.
         11    1    3    3    0    0 -0.68496196676E+01 -0.41322475412E+01 -0.34331142174E+02  0.35250816765E+02  0.51100000000E-03 0. -1.
        -11    1    3    3    0    0  0.14942586367E+01  0.34841860351E+01  0.19860885254E+01  0.42798258250E+01  0.51100000000E-03 0.  1.
        -12    1    3    3    0    0 -0.15518730794E+02 -0.75229173032E+01  0.96684611527E+01  0.19771303226E+02  0.00000000000E+00 0.  1.
</event>
<event>
 7    1  0.1202531E-011  0.5930197E+02  0.7816164E-02  0.1266605E+00
        -11   -1    0    0    0    0  0.00000000000E+00  0.00000000000E+00  0.45593999997E+02  0.45594000000E+02  0.51100000000E-03 0.  1.
         11   -1    0    0    0    0 -0.00000000000E+00 -0.00000000000E+00 -0.45593999997E+02  0.45594000000E+02  0.51100000000E-03 0. -1.
    9900012    2    1    2    0    0  0.53966830206E+01 -0.22993166205E+02  0.21422154764E+02  0.59301974935E+02  0.50000056367E+02 0.  0.
        -12    1    1    2    0    0 -0.53966830206E+01  0.22993166205E+02 -0.21422154764E+02  0.31886025065E+02  0.00000000000E+00 0.  1.
         11    1    3    3    0    0  0.13633183486E+02 -0.50691721882E+01 -0.23067428305E+01  0.14726889060E+02  0.51100000000E-03 0. -1.
        -11    1    3    3    0    0 -0.32006173860E+01  0.92486017841E+01  0.88198600238E+01  0.13174616416E+02  0.51100000000E-03 0.  1.
         12    1    3    3    0    0 -0.50358830798E+01 -0.27172595801E+02  0.14909037570E+02  0.31400469458E+02  0.00000000000E+00 0. -1.
</event>
<event>
 7    1  0.1202531E-011  0.5930194E+02  0.7816164E-02  0.1266605E+00
        -11   -1    0    0    0    0  0.00000000000E+00  0.00000000000E+00  0.45593999997E+02  0.45594000000E+02  0.51100000000E-03 0. -1.
         11   -1    0    0    0    0 -0.00000000000E+00 -0.00000000000E+00 -0.45593999997E+02  0.45594000000E+02  0.51100000000E-03 0.  1.
    9900012    2    1    2    0    0 -0.16454397626E+02 -0.26652271902E+02 -0.59690797100E+01  0.59301941740E+02  0.49999995827E+02 0.  0.
        -12    1    1    2    0    0  0.16454397626E+02  0.26652271902E+02  0.59690797100E+01  0.31886058260E+02  0.00000000000E+00 0.  1.
         11    1    3    3    0    0 -0.95620600897E+01  0.55922500617E+01  0.34867990731E+00  0.11082771849E+02  0.51100000000E-03 0. -1.
        -11    1    3    3    0    0  0.45380541764E+01 -0.28806162380E+01 -0.14667565139E+02  0.15621438889E+02  0.51100000000E-03 0.  1.
         12    1    3    3    0    0 -0.11430391713E+02 -0.29363905726E+02  0.83498055213E+01  0.32597731001E+02  0.00000000000E+00 0. -1.
</event>
<event>
 7    1  0.1202531E-011  0.5930195E+02  0.7816164E-02  0.1266605E+00
        -11   -1    0    0    0    0  0.00000000000E+00  0.00000000000E+00  0.45593999997E+02  0.45594000000E+02  0.51100000000E-03 0.  1.
         11   -1    0    0    0    0 -0.00000000000E+00 -0.00000000000E+00 -0.45593999997E+02  0.45594000000E+02  0.51100000000E-03 0. -1.
    9900012    2    1    2    0    0 -0.77089070878E-01  0.25691545093E+02 -0.18885406794E+02  0.59301952553E+02  0.50000015549E+02 0.  0.
        -12    1    1    2    0    0  0.77089070878E-01 -0.25691545093E+02  0.18885406794E+02  0.31886047447E+02  0.00000000000E+00 0.  1.
         11    1    3    3    0    0 -0.47624211650E+01 -0.49845015115E+01 -0.10679188155E+02  0.12711057021E+02  0.51100000000E-03 0. -1.
        -11    1    3    3    0    0  0.70636358254E+01  0.66520581235E+01 -0.18071497085E+02  0.20511553708E+02  0.51100000000E-03 0.  1.
        -12    1    3    3    0    0 -0.23783037312E+01  0.24023988481E+02  0.98652784464E+01  0.26079341825E+02  0.00000000000E+00 0.  1.
</event>
<event>
 7    1  0.1202531E-011  0.5930192E+02  0.7816164E-02  0.1266605E+00
        -11   -1    0    0    0    0  0.00000000000E+00  0.00000000000E+00  0.45593999997E+02  0.45594000000E+02  0.51100000000E-03 0.  1.
         11   -1    0    0    0    0 -0.00000000000E+00 -0.00000000000E+00 -0.45593999997E+02  0.45594000000E+02  0.51100000000E-03 0. -1.
    9900012    2    1    2    0    0 -0.66048699206E+00 -0.17529052670E+02 -0.26627393708E+02  0.59301921122E+02  0.49999958225E+02 0.  0.
        -12    1    1    2    0    0  0.66048699206E+00  0.17529052670E+02  0.26627393708E+02  0.31886078878E+02  0.00000000000E+00 0.  1.
         11    1    3    3    0    0 -0.20639495612E+01  0.11410080212E+01 -0.83604216643E+01  0.86866816312E+01  0.51100000000E-03 0. -1.
        -11    1    3    3    0    0 -0.20548362194E+02 -0.97872325008E+01 -0.13488957404E+02  0.26457079979E+02  0.51100000000E-03 0.  1.
         12    1    3    3    0    0  0.21951824764E+02 -0.88828281900E+01 -0.47780146391E+01  0.24158159512E+02  0.00000000000E+00 0. -1.
</event>
<event>
 7    1  0.1202531E-011  0.5930194E+02  0.7816164E-02  0.1266605E+00
        -11   -1    0    0    0    0  0.00000000000E+00  0.00000000000E+00  0.45593999997E+02  0.45594000000E+02  0.51100000000E-03 0.  1.
         11   -1    0    0    0    0 -0.00000000000E+00 -0.00000000000E+00 -0.45593999997E+02  0.45594000000E+02  0.51100000000E-03 0. -1.
    9900012    2    1    2    0    0  0.18921836922E+02 -0.24965381483E+02  0.59509995456E+01  0.59301943789E+02  0.49999999565E+02 0.  0.
        -12    1    1    2    0    0 -0.18921836922E+02  0.24965381483E+02 -0.59509995456E+01  0.31886056211E+02  0.00000000000E+00 0.  1.
         11    1    3    3    0    0  0.99656796544E+00 -0.59002909141E+00 -0.78472823372E+01  0.79322835539E+01  0.51100000000E-03 0. -1.
        -11    1    3    3    0    0  0.23029479849E+02 -0.22331659632E+02 -0.43813657615E+01  0.32376786904E+02  0.51100000000E-03 0.  1.
        -12    1    3    3    0    0 -0.51042108920E+01 -0.20436927592E+01  0.18179647644E+02  0.18992873332E+02  0.00000000000E+00 0.  1.
</event>
<event>
 7    1  0.1202531E-011  0.5930194E+02  0.7816164E-02  0.1266605E+00
        -11   -1    0    0    0    0  0.00000000000E+00  0.00000000000E+00  0.45593999997E+02  0.45594000000E+02  0.51100000000E-03 0. -1.
         11   -1    0    0    0    0 -0.00000000000E+00 -0.00000000000E+00 -0.45593999997E+02  0.45594000000E+02  0.51100000000E-03 0.  1.
    9900012    2    1    2    0    0  0.58784098314E+01 -0.11908005455E+02  0.28989044554E+02  0.59301937210E+02  0.49999987566E+02 0.  0.
        -12    1    1    2    0    0 -0.58784098314E+01  0.11908005455E+02 -0.28989044554E+02  0.31886062790E+02  0.00000000000E+00 0.  1.
         11    1    3    3    0    0 -0.25434838599E+01  0.17822457821E+01 -0.42376874026E+01  0.52539228160E+01  0.51100000000E-03 0. -1.
        -11    1    3    3    0    0  0.13272186388E+02  0.39408859901E+01 -0.23537868938E+01  0.14043568881E+02  0.51100000000E-03 0.  1.
         12    1    3    3    0    0 -0.48502926965E+01 -0.17631137227E+02  0.35580518851E+02  0.40004445514E+02  0.00000000000E+00 0. -1.
</event>
<event>
 7    1  0.1202531E-011  0.5930193E+02  0.7816164E-02  0.1266605E+00
        -11   -1    0    0    0    0  0.00000000000E+00  0.00000000000E+00  0.45593999997E+02  0.45594000000E+02  0.51100000000E-03 0. -1.
         11   -1    0    0    0    0 -0.00000000000E+00 -0.00000000000E+00 -0.45593999997E+02  0.45594000000E+02  0.51100000000E-03 0.  1.
    9900012    2    1    2    0    0  0.20784918661E+02  0.18233380421E+02  0.15882459691E+02  0.59301928885E+02  0.49999972383E+02 0.  0.
        -12    1    1    2    0    0 -0.20784918661E+02 -0.18233380421E+02 -0.15882459691E+02  0.31886071115E+02  0.00000000000E+00 0.  1.
         11    1    3    3    0    0  0.66264493819E+01  0.48399037420E+01 -0.17274015698E+01  0.83856076755E+01  0.51100000000E-03 0. -1.
        -11    1    3    3    0    0  0.52688669616E+00  0.26229353420E+01 -0.14319089846E+02  0.14566871101E+02  0.51100000000E-03 0.  1.
        -12    1    3    3    0    0  0.13631582583E+02  0.10770541337E+02  0.31928951106E+02  0.36349450108E+02  0.00000000000E+00 0.  1.
</event>
<event>
 7    1  0.1202531E-011  0.5930198E+02  0.7816164E-02  0.1266605E+00
        -11   -1    0    0    0    0  0.00000000000E+00  0.00000000000E+00  0.45593999997E+02  0.45594000000E+02  0.51100000000E-03 0.  1.
         11   -1    0    0    0    0 -0.00000000000E+00 -0.00000000000E+00 -0.45593999997E+02  0.45594000000E+02  0.51100000000E-03 0. -1.
    9900012    2    1    2    0    0  0.18057641069E+02  0.18640259922E+02 -0.18525135211E+02  0.59301979152E+02  0.50000064058E+02 0.  0.
        -12    1    1    2    0    0 -0.18057641069E+02 -0.18640259922E+02  0.18525135211E+02  0.31886020848E+02  0.00000000000E+00 0.  1.
         11    1    3    3    0    0  0.15675346346E+02  0.59282374184E+00 -0.18297697609E+02  0.24101320734E+02  0.51100000000E-03 0. -1.
        -11    1    3    3    0    0  0.12696539993E+02  0.19009339940E+02  0.52904381546E+01  0.23463713876E+02  0.51100000000E-03 0.  1.
        -12    1    3    3    0    0 -0.10314245270E+02 -0.96190375986E+00 -0.55178757567E+01  0.11736944542E+02  0.00000000000E+00 0.  1.
</event>
<event>
 7    1  0.1202531E-011  0.5930185E+02  0.7816164E-02  0.1266605E+00
        -11   -1    0    0    0    0  0.00000000000E+00  0.00000000000E+00  0.45593999997E+02  0.45594000000E+02  0.51100000000E-03 0. -1.
         11   -1    0    0    0    0 -0.00000000000E+00 -0.00000000000E+00 -0.45593999997E+02  0.45594000000E+02  0.51100000000E-03 0.  1.
    9900012    2    1    2    0    0  0.96509484863E+01 -0.14186962570E+02  0.26875932813E+02  0.59301851311E+02  0.49999830907E+02 0.  0.
        -12    1    1    2    0    0 -0.96509484863E+01  0.14186962570E+02 -0.26875932813E+02  0.31886148689E+02  0.00000000000E+00 0.  1.
         11    1    3    3    0    0  0.82440003731E+01 -0.26184684307E+02  0.53165976748E+01  0.27961892739E+02  0.51100000000E-03 0. -1.
        -11    1    3    3    0    0 -0.50046730120E+00  0.12323644799E+02  0.30176783687E+01  0.12697601019E+02  0.51100000000E-03 0.  1.
        -12    1    3    3    0    0  0.19074154144E+01 -0.32592306152E+00  0.18541656769E+02  0.18642357553E+02  0.00000000000E+00 0.  1.
</event>
<event>
 7    1  0.1202531E-011  0.5930195E+02  0.7816164E-02  0.1266605E+00
        -11   -1    0    0    0    0  0.00000000000E+00  0.00000000000E+00  0.45593999997E+02  0.45594000000E+02  0.51100000000E-03 0. -1.
         11   -1    0    0    0    0 -0.00000000000E+00 -0.00000000000E+00 -0.45593999997E+02  0.45594000000E+02  0.51100000000E-03 0.  1.
    9900012    2    1    2    0    0  0.17060089836E+02 -0.17334490862E+02  0.20620114701E+02  0.59301947109E+02  0.50000005620E+02 0.  0.
        -12    1    1    2    0    0 -0.17060089836E+02  0.17334490862E+02 -0.20620114701E+02  0.31886052891E+02  0.00000000000E+00 0.  1.
         11    1    3    3    0    0 -0.78547698787E+00 -0.17357689604E+01  0.78089098909E+01  0.80379687688E+01  0.51100000000E-03 0. -1.
        -11    1    3    3    0    0 -0.14004767318E+02  0.11025087990E+00  0.20408641278E+01  0.14153119428E+02  0.51100000000E-03 0.  1.
        -12    1    3    3    0    0  0.31850334142E+02 -0.15708972782E+02  0.10770340682E+02  0.37110858913E+02  0.00000000000E+00 0.  1.
</event>
<event>
 7    1  0.1202531E-011  0.5930196E+02  0.7816164E-02  0.1266605E+00
        -11   -1    0    0    0    0  0.00000000000E+00  0.00000000000E+00  0.45593999997E+02  0.45594000000E+02  0.51100000000E-03 0.  1.
         11   -1    0    0    0    0 -0.00000000000E+00 -0.00000000000E+00 -0.45593999997E+02  0.45594000000E+02  0.51100000000E-03 0. -1.
    9900012    2    1    2    0    0 -0.13451774126E+02 -0.23180316918E+02 -0.17275489210E+02  0.59301955294E+02  0.50000020546E+02 0.  0.
        -12    1    1    2    0    0  0.13451774126E+02  0.23180316918E+02  0.17275489210E+02  0.31886044706E+02  0.00000000000E+00 0.  1.
         11    1    3    3    0    0 -0.55722748054E+01  0.67846988522E+01 -0.38742551567E+00  0.87882013981E+01  0.51100000000E-03 0. -1.
        -11    1    3    3    0    0 -0.17676182956E+02 -0.17874345958E+01 -0.58375271929E+01  0.18700777800E+02  0.51100000000E-03 0.  1.
         12    1    3    3    0    0  0.97966836352E+01 -0.28177581175E+02 -0.11050536502E+02  0.31812976096E+02  0.00000000000E+00 0. -1.
</event>
<event>
 7    1  0.1202531E-011  0.5930194E+02  0.7816164E-02  0.1266605E+00
        -11   -1    0    0    0    0  0.00000000000E+00  0.00000000000E+00  0.45593999997E+02  0.45594000000E+02  0.51100000000E-03 0.  1.
         11   -1    0    0    0    0 -0.00000000000E+00 -0.00000000000E+00 -0.45593999997E+02  0.45594000000E+02  0.51100000000E-03 0. -1.
    9900012    2    1    2    0    0 -0.10844274372E+02 -0.21229485805E+02 -0.21176201871E+02  0.59301939097E+02  0.49999991008E+02 0.  0.
        -12    1    1    2    0    0  0.10844274372E+02  0.21229485805E+02  0.21176201871E+02  0.31886060903E+02  0.00000000000E+00 0.  1.
         11    1    3    3    0    0  0.14391526095E+00 -0.51703676115E+00 -0.13180756666E+02  0.13191678634E+02  0.51100000000E-03 0. -1.
        -11    1    3    3    0    0 -0.14971903202E+02 -0.10123796325E+02 -0.21764019999E+02  0.28289957658E+02  0.51100000000E-03 0.  1.
        -12    1    3    3    0    0  0.39837135692E+01 -0.10588652720E+02  0.13768574794E+02  0.17820302806E+02  0.00000000000E+00 0.  1.
</event>
<event>
 7    1  0.1202531E-011  0.5930198E+02  0.7816164E-02  0.1266605E+00
        -11   -1    0    0    0    0  0.00000000000E+00  0.00000000000E+00  0.45593999997E+02  0.45594000000E+02  0.51100000000E-03 0.  1.
         11   -1    0    0    0    0 -0.00000000000E+00 -0.00000000000E+00 -0.45593999997E+02  0.45594000000E+02  0.51100000000E-03 0. -1.
    9900012    2    1    2    0    0  0.22988244757E+02 -0.69611260928E+01 -0.20971451275E+02  0.59301977325E+02  0.50000060726E+02 0.  0.
        -12    1    1    2    0    0 -0.22988244757E+02  0.69611260928E+01  0.20971451275E+02  0.31886022675E+02  0.00000000000E+00 0.  1.
         11    1    3    3    0    0 -0.34174926425E+01  0.36654930949E+01 -0.20152266683E+02  0.20766052786E+02  0.51100000000E-03 0. -1.
        -11    1    3    3    0    0  0.10491860350E+02  0.85051732393E+01 -0.18330135471E+01  0.13630005296E+02  0.51100000000E-03 0.  1.
        -12    1    3    3    0    0  0.15913877049E+02 -0.19131792427E+02  0.10138289550E+01  0.24905919243E+02  0.00000000000E+00 0.  1.
</event>
<event>
 7    1  0.1202531E-011  0.5930193E+02  0.7816164E-02  0.1266605E+00
        -11   -1    0    0    0    0  0.00000000000E+00  0.00000000000E+00  0.45593999997E+02  0.45594000000E+02  0.51100000000E-03 0. -1.
         11   -1    0    0    0    0 -0.00000000000E+00 -0.00000000000E+00 -0.45593999997E+02  0.45594000000E+02  0.51100000000E-03 0.  1.
    9900012    2    1    2    0    0  0.48089574157E+01 -0.25126737050E+02  0.19032661863E+02  0.59301934018E+02  0.49999981745E+02 0.  0.
        -12    1    1    2    0    0 -0.48089574157E+01  0.25126737050E+02 -0.19032661863E+02  0.31886065982E+02  0.00000000000E+00 0.  1.
         11    1    3    3    0    0  0.31299584018E+00  0.88226117980E+01 -0.28030288644E+01  0.92624735578E+01  0.51100000000E-03 0. -1.
        -11    1    3    3    0    0  0.12801894238E+02 -0.25867904287E+02  0.45355685643E+01  0.29216576644E+02  0.51100000000E-03 0.  1.
         12    1    3    3    0    0 -0.83059326624E+01 -0.80814445603E+01  0.17300122163E+02  0.20822883817E+02  0.00000000000E+00 0. -1.
</event>
<event>
 7    1  0.1202531E-011  0.5930193E+02  0.7816164E-02  0.1266605E+00
        -11   -1    0    0    0    0  0.00000000000E+00  0.00000000000E+00  0.45593999997E+02  0.45594000000E+02  0.51100000000E-03 0.  1.
         11   -1    0    0    0    0 -0.00000000000E+00 -0.00000000000E+00 -0.45593999997E+02  0.45594000000E+02  0.51100000000E-03 0. -1.
    9900012    2    1    2    0    0  0.74192673748E+01  0.31010807367E+02 -0.75537964709E-01  0.59301930818E+02  0.49999975908E+02 0.  0.
        -12    1    1    2    0    0 -0.74192673748E+01 -0.31010807367E+02  0.75537964709E-01  0.31886069182E+02  0.00000000000E+00 0.  1.
         11    1    3    3    0    0 -0.30539319065E+01  0.93535475560E+01  0.94152624308E+01  0.13618462427E+02  0.51100000000E-03 0.  1.
        -11    1    3    3    0    0  0.20505883251E+02  0.72748100592E+01 -0.15968849750E+02  0.26989225108E+02  0.51100000000E-03 0. -1.
         12    1    3    3    0    0 -0.10032683970E+02  0.14382449752E+02  0.64780493544E+01  0.18694243283E+02  0.00000000000E+00 0. -1.
</event>
<event>
 7    1  0.1202531E-011  0.5930195E+02  0.7816164E-02  0.1266605E+00
        -11   -1    0    0    0    0  0.00000000000E+00  0.00000000000E+00  0.45593999997E+02  0.45594000000E+02  0.51100000000E-03 0.  1.
         11   -1    0    0    0    0 -0.00000000000E+00 -0.00000000000E+00 -0.45593999997E+02  0.45594000000E+02  0.51100000000E-03 0. -1.
    9900012    2    1    2    0    0  0.16472655744E+02  0.27106607252E+02 -0.32562865778E+01  0.59301953737E+02  0.50000017708E+02 0.  0.
        -12    1    1    2    0    0 -0.16472655744E+02 -0.27106607252E+02  0.32562865778E+01  0.31886046263E+02  0.00000000000E+00 0.  1.
         11    1    3    3    0    0  0.74002246697E+00 -0.61555888601E+01 -0.10293508440E+02  0.12016456371E+02  0.51100000000E-03 0. -1.
        -11    1    3    3    0    0  0.94119436229E+01 -0.25250642020E+01  0.48333410196E+01  0.10877583264E+02  0.51100000000E-03 0.  1.
         12    1    3    3    0    0  0.63206896540E+01  0.35787260314E+02  0.22038808421E+01  0.36407914102E+02  0.00000000000E+00 0. -1.
</event>
<event>
 7    1  0.1202531E-011  0.5930190E+02  0.7816164E-02  0.1266605E+00
        -11   -1    0    0    0    0  0.00000000000E+00  0.00000000000E+00  0.45593999997E+02  0.45594000000E+02  0.51100000000E-03 0. -1.
         11   -1    0    0    0    0 -0.00000000000E+00 -0.00000000000E+00 -0.45593999997E+02  0.45594000000E+02  0.51100000000E-03 0.  1.
    9900012    2    1    2    0    0 -0.12002500781E+01 -0.14258952152E+02  0.28494995667E+02  0.59301904366E+02  0.49999927666E+02 0.  0.
        -12    1    1    2    0    0  0.12002500781E+01  0.14258952152E+02 -0.28494995667E+02  0.31886095634E+02  0.00000000000E+00 0.  1.
         11    1    3    3    0    0  0.27182828378E+01 -0.11947991618E+02 -0.67473522283E+01  0.13988221032E+02  0.51100000000E-03 0. -1.
        -11    1    3    3    0    0  0.12162119559E+02  0.11854111885E+00  0.13664343330E+02  0.18293317990E+02  0.51100000000E-03 0.  1.
         12    1    3    3    0    0 -0.16080652475E+02 -0.24295016535E+01  0.21578004565E+02  0.27020365344E+02  0.00000000000E+00 0. -1.
</event>
<event>
 7    1  0.1202531E-011  0.5930194E+02  0.7816164E-02  0.1266605E+00
        -11   -1    0    0    0    0  0.00000000000E+00  0.00000000000E+00  0.45593999997E+02  0.45594000000E+02  0.51100000000E-03 0. -1.
         11   -1    0    0    0    0 -0.00000000000E+00 -0.00000000000E+00 -0.45593999997E+02  0.45594000000E+02  0.51100000000E-03 0.  1.
    9900012    2    1    2    0    0  0.21033880587E+02  0.14441445085E+02 -0.19124365579E+02  0.59301939919E+02  0.49999992507E+02 0.  0.
        -12    1    1    2    0    0 -0.21033880587E+02 -0.14441445085E+02  0.19124365579E+02  0.31886060081E+02  0.00000000000E+00 0.  1.
         11    1    3    3    0    0  0.98197738759E+01  0.49858869228E-01  0.27690088720E+01  0.10202835649E+02  0.51100000000E-03 0. -1.
        -11    1    3    3    0    0  0.25727605533E+01 -0.54928888034E+01  0.93047392498E+01  0.11107164221E+02  0.51100000000E-03 0.  1.
        -12    1    3    3    0    0  0.86413461574E+01  0.19884475019E+02 -0.31198113701E+02  0.37991940049E+02  0.00000000000E+00 0.  1.
</event>
<event>
 7    1  0.1202531E-011  0.5930195E+02  0.7816164E-02  0.1266605E+00
        -11   -1    0    0    0    0  0.00000000000E+00  0.00000000000E+00  0.45593999997E+02  0.45594000000E+02  0.51100000000E-03 0.  1.
         11   -1    0    0    0    0 -0.00000000000E+00 -0.00000000000E+00 -0.45593999997E+02  0.45594000000E+02  0.51100000000E-03 0. -1.
    9900012    2    1    2    0    0 -0.73837108854E+01 -0.42681830120E+01 -0.30724312418E+02  0.59301953738E+02  0.50000017710E+02 0.  0.
        -12    1    1    2    0    0  0.73837108854E+01  0.42681830120E+01  0.30724312418E+02  0.31886046262E+02  0.00000000000E+00 0.  1.
         11    1    3    3    0    0  0.29293949458E+01 -0.20437036199E+01 -0.61930166257E+01  0.71492331352E+01  0.51100000000E-03 0. -1.
        -11    1    3    3    0    0 -0.10579689336E+02  0.78552575588E+01  0.97675482894E+01  0.16402435722E+02  0.51100000000E-03 0.  1.
         12    1    3    3    0    0  0.26658350502E+00 -0.10079736951E+02 -0.34298844081E+02  0.35750284881E+02  0.00000000000E+00 0. -1.
</event>
<event>
 7    1  0.1202531E-011  0.5930194E+02  0.7816164E-02  0.1266605E+00
        -11   -1    0    0    0    0  0.00000000000E+00  0.00000000000E+00  0.45593999997E+02  0.45594000000E+02  0.51100000000E-03 0.  1.
         11   -1    0    0    0    0 -0.00000000000E+00 -0.00000000000E+00 -0.45593999997E+02  0.45594000000E+02  0.51100000000E-03 0. -1.
    9900012    2    1    2    0    0 -0.27381872304E+02 -0.45808402097E+00  0.16332292963E+02  0.59301944031E+02  0.50000000006E+02 0.  0.
        -12    1    1    2    0    0  0.27381872304E+02  0.45808402097E+00 -0.16332292963E+02  0.31886055969E+02  0.00000000000E+00 0.  1.
         11    1    3    3    0    0  0.93895895227E+00 -0.12362889234E+02 -0.22220992172E+01  0.12596046972E+02  0.51100000000E-03 0. -1.
        -11    1    3    3    0    0 -0.33722097064E+01  0.16707583240E+02  0.43200775432E+01  0.17583464001E+02  0.51100000000E-03 0.  1.
         12    1    3    3    0    0 -0.24948621550E+02 -0.48027780273E+01  0.14234314637E+02  0.29122433058E+02  0.00000000000E+00 0. -1.
</event>
<event>
 7    1  0.1202531E-011  0.5930194E+02  0.7816164E-02  0.1266605E+00
        -11   -1    0    0    0    0  0.00000000000E+00  0.00000000000E+00  0.45593999997E+02  0.45594000000E+02  0.51100000000E-03 0.  1.
         11   -1    0    0    0    0 -0.00000000000E+00 -0.00000000000E+00 -0.45593999997E+02  0.45594000000E+02  0.51100000000E-03 0. -1.
    9900012    2    1    2    0    0  0.37390093594E+00  0.26188307366E+02 -0.18186636616E+02  0.59301937277E+02  0.49999987688E+02 0.  0.
        -12    1    1    2    0    0 -0.37390093594E+00 -0.26188307366E+02  0.18186636616E+02  0.31886062723E+02  0.00000000000E+00 0.  1.
         11    1    3    3    0    0  0.29219171507E+01  0.20322285067E+02 -0.30584335073E+01  0.20757815057E+02  0.51100000000E-03 0. -1.
        -11    1    3    3    0    0 -0.31333108221E+01  0.85037757723E+00  0.11238582819E+02  0.11698141851E+02  0.51100000000E-03 0.  1.
         12    1    3    3    0    0  0.58529460729E+00  0.50156447214E+01 -0.26366785928E+02  0.26845980368E+02  0.00000000000E+00 0. -1.
</event>
<event>
 7    1  0.1202531E-011  0.5930194E+02  0.7816164E-02  0.1266605E+00
        -11   -1    0    0    0    0  0.00000000000E+00  0.00000000000E+00  0.45593999997E+02  0.45594000000E+02  0.51100000000E-03 0.  1.
         11   -1    0    0    0    0 -0.00000000000E+00 -0.00000000000E+00 -0.45593999997E+02  0.45594000000E+02  0.51100000000E-03 0. -1.
    9900012    2    1    2    0    0 -0.18811105881E+02  0.24574467977E+02  0.76784654471E+01  0.59301937019E+02  0.49999987218E+02 0.  0.
        -12    1    1    2    0    0  0.18811105881E+02 -0.24574467977E+02 -0.76784654471E+01  0.31886062981E+02  0.00000000000E+00 0.  1.
         11    1    3    3    0    0 -0.24079910023E+01  0.19645279256E+01 -0.10520105677E+02  0.10969522066E+02  0.51100000000E-03 0. -1.
        -11    1    3    3    0    0  0.84629034064E+01  0.11778026459E+02 -0.18270290104E+01  0.14617820515E+02  0.51100000000E-03 0.  1.
        -12    1    3    3    0    0 -0.24866018285E+02  0.10831913592E+02  0.20025600134E+02  0.33714594438E+02  0.00000000000E+00 0.  1.
</event>
<event>
 7    1  0.1202531E-011  0.5930211E+02  0.7816164E-02  0.1266604E+00
        -11   -1    0    0    0    0  0.00000000000E+00  0.00000000000E+00  0.45593999997E+02  0.45594000000E+02  0.51100000000E-03 0.  1.
         11   -1    0    0    0    0 -0.00000000000E+00 -0.00000000000E+00 -0.45593999997E+02  0.45594000000E+02  0.51100000000E-03 0. -1.
    9900012    2    1    2    0    0 -0.25471858555E+02  0.19119239778E+02  0.15326154871E+01  0.59302112555E+02  0.50000307352E+02 0.  0.
        -12    1    1    2    0    0  0.25471858555E+02 -0.19119239778E+02 -0.15326154871E+01  0.31885887445E+02  0.00000000000E+00 0.  1.
         11    1    3    3    0    0 -0.78665817458E+01  0.26898084795E+02 -0.13077572831E+01  0.28055307936E+02  0.51100000000E-03 0. -1.
        -11    1    3    3    0    0 -0.81774515282E+01  0.55523375653E+01  0.94094711649E+01  0.13646879270E+02  0.51100000000E-03 0.  1.
        -12    1    3    3    0    0 -0.94278252810E+01 -0.13331182583E+02 -0.65690983947E+01  0.17599925349E+02  0.00000000000E+00 0.  1.
</event>
<event>
 7    1  0.1202531E-011  0.5930198E+02  0.7816164E-02  0.1266605E+00
        -11   -1    0    0    0    0  0.00000000000E+00  0.00000000000E+00  0.45593999997E+02  0.45594000000E+02  0.51100000000E-03 0.  1.
         11   -1    0    0    0    0 -0.00000000000E+00 -0.00000000000E+00 -0.45593999997E+02  0.45594000000E+02  0.51100000000E-03 0. -1.
    9900012    2    1    2    0    0  0.15050178053E+01 -0.31817687034E+02 -0.14449738622E+01  0.59301980551E+02  0.50000066610E+02 0.  0.
        -12    1    1    2    0    0 -0.15050178053E+01  0.31817687034E+02  0.14449738622E+01  0.31886019449E+02  0.00000000000E+00 0.  1.
         11    1    3    3    0    0  0.10815295394E+02 -0.54778819835E+01  0.78468464792E+01  0.14441288219E+02  0.51100000000E-03 0.  1.
        -11    1    3    3    0    0  0.53077217569E+01 -0.26027689431E+02  0.16257081080E+01  0.26613069242E+02  0.51100000000E-03 0. -1.
         12    1    3    3    0    0 -0.14617999345E+02 -0.31211561991E+00 -0.10917528449E+02  0.18247623091E+02  0.00000000000E+00 0. -1.
</event>
<event>
 7    1  0.1202531E-011  0.5930191E+02  0.7816164E-02  0.1266605E+00
        -11   -1    0    0    0    0  0.00000000000E+00  0.00000000000E+00  0.45593999997E+02  0.45594000000E+02  0.51100000000E-03 0. -1.
         11   -1    0    0    0    0 -0.00000000000E+00 -0.00000000000E+00 -0.45593999997E+02  0.45594000000E+02  0.51100000000E-03 0.  1.
    9900012    2    1    2    0    0 -0.24218532953E+02  0.10145149711E+02  0.18090361040E+02  0.59301912695E+02  0.49999942857E+02 0.  0.
        -12    1    1    2    0    0  0.24218532953E+02 -0.10145149711E+02 -0.18090361040E+02  0.31886087305E+02  0.00000000000E+00 0.  1.
         11    1    3    3    0    0 -0.28288938556E+02 -0.27213707340E+01  0.93756985863E+01  0.29926136195E+02  0.51100000000E-03 0. -1.
        -11    1    3    3    0    0  0.36120450168E+01 -0.68599647061E+01 -0.12638064932E+00  0.77538350061E+01  0.51100000000E-03 0.  1.
         12    1    3    3    0    0  0.45836058654E+00  0.19726485151E+02  0.88410431030E+01  0.21621941495E+02  0.00000000000E+00 0. -1.
</event>
<event>
 7    1  0.1202531E-011  0.5930193E+02  0.7816164E-02  0.1266605E+00
        -11   -1    0    0    0    0  0.00000000000E+00  0.00000000000E+00  0.45593999997E+02  0.45594000000E+02  0.51100000000E-03 0. -1.
         11   -1    0    0    0    0 -0.00000000000E+00 -0.00000000000E+00 -0.45593999997E+02  0.45594000000E+02  0.51100000000E-03 0.  1.
    9900012    2    1    2    0    0 -0.13253239175E+02 -0.32548537307E+01  0.28818030722E+02  0.59301932257E+02  0.49999978532E+02 0.  0.
        -12    1    1    2    0    0  0.13253239175E+02  0.32548537307E+01 -0.28818030722E+02  0.31886067743E+02  0.00000000000E+00 0.  1.
         11    1    3    3    0    0 -0.62724446282E+01  0.87988634662E+01  0.11657013655E+01  0.10868413861E+02  0.51100000000E-03 0. -1.
        -11    1    3    3    0    0 -0.20818763831E+02  0.85581269770E+00  0.14211199315E+02  0.25221251536E+02  0.51100000000E-03 0.  1.
        -12    1    3    3    0    0  0.13837969283E+02 -0.12909529895E+02  0.13441130041E+02  0.23212266860E+02  0.00000000000E+00 0.  1.
</event>
<event>
 7    1  0.1202531E-011  0.5930204E+02  0.7816164E-02  0.1266604E+00
        -11   -1    0    0    0    0  0.00000000000E+00  0.00000000000E+00  0.45593999997E+02  0.45594000000E+02  0.51100000000E-03 0. -1.
         11   -1    0    0    0    0 -0.00000000000E+00 -0.00000000000E+00 -0.45593999997E+02  0.45594000000E+02  0.51100000000E-03 0.  1.
    9900012    2    1    2    0    0 -0.17444664947E+02  0.24148588280E+02  0.11368549176E+02  0.59302038177E+02  0.50000171705E+02 0.  0.
        -12    1    1    2    0    0  0.17444664947E+02 -0.24148588280E+02 -0.11368549176E+02  0.31885961823E+02  0.00000000000E+00 0.  1.
         11    1    3    3    0    0  0.49569579479E+01 -0.38277351279E+01 -0.14014835901E+01  0.64177211548E+01  0.51100000000E-03 0. -1.
        -11    1    3    3    0    0 -0.79764722174E+01 -0.75772240168E+01  0.92156908004E+01  0.14351564027E+02  0.51100000000E-03 0.  1.
        -12    1    3    3    0    0 -0.14425150677E+02  0.35553547425E+02  0.35543419656E+01  0.38532752995E+02  0.00000000000E+00 0.  1.
</event>
<event>
 7    1  0.1202531E-011  0.5930195E+02  0.7816164E-02  0.1266605E+00
        -11   -1    0    0    0    0  0.00000000000E+00  0.00000000000E+00  0.45593999997E+02  0.45594000000E+02  0.51100000000E-03 0. -1.
         11   -1    0    0    0    0 -0.00000000000E+00 -0.00000000000E+00 -0.45593999997E+02  0.45594000000E+02  0.51100000000E-03 0.  1.
    9900012    2    1    2    0    0  0.46344932559E+01 -0.17734955483E+02  0.26090477692E+02  0.59301949760E+02  0.50000010454E+02 0.  0.
        -12    1    1    2    0    0 -0.46344932559E+01  0.17734955483E+02 -0.26090477692E+02  0.31886050240E+02  0.00000000000E+00 0.  1.
         11    1    3    3    0    0  0.92119111953E+01 -0.16802614959E+02  0.76015347466E+01  0.20614812832E+02  0.51100000000E-03 0. -1.
        -11    1    3    3    0    0 -0.82993207039E+01 -0.11708203541E+02  0.22426884430E+02  0.26625662429E+02  0.51100000000E-03 0.  1.
        -12    1    3    3    0    0  0.37219027645E+01  0.10775863017E+02 -0.39379414847E+01  0.12061474499E+02  0.00000000000E+00 0.  1.
</event>
<event>
 7    1  0.1202531E-011  0.5930189E+02  0.7816164E-02  0.1266605E+00
        -11   -1    0    0    0    0  0.00000000000E+00  0.00000000000E+00  0.45593999997E+02  0.45594000000E+02  0.51100000000E-03 0.  1.
         11   -1    0    0    0    0 -0.00000000000E+00 -0.00000000000E+00 -0.45593999997E+02  0.45594000000E+02  0.51100000000E-03 0. -1.
    9900012    2    1    2    0    0  0.20561549636E+02 -0.10851765482E+02 -0.21821676633E+02  0.59301894741E+02  0.49999910112E+02 0.  0.
        -12    1    1    2    0    0 -0.20561549636E+02  0.10851765482E+02  0.21821676633E+02  0.31886105259E+02  0.00000000000E+00 0.  1.
         11    1    3    3    0    0  0.44753994912E+01  0.11490404708E+02 -0.15499150945E+01  0.12428227469E+02  0.51100000000E-03 0. -1.
        -11    1    3    3    0    0  0.19199223219E+02 -0.78028552055E+01  0.11969124386E+01  0.20758789012E+02  0.51100000000E-03 0.  1.
         12    1    3    3    0    0 -0.31130730745E+01 -0.14539314985E+02 -0.21468673977E+02  0.26114878260E+02  0.00000000000E+00 0. -1.
</event>
<event>
 7    1  0.1202531E-011  0.5930194E+02  0.7816164E-02  0.1266605E+00
        -11   -1    0    0    0    0  0.00000000000E+00  0.00000000000E+00  0.45593999997E+02  0.45594000000E+02  0.51100000000E-03 0.  1.
         11   -1    0    0    0    0 -0.00000000000E+00 -0.00000000000E+00 -0.45593999997E+02  0.45594000000E+02  0.51100000000E-03 0. -1.
    9900012    2    1    2    0    0  0.96910281893E+01 -0.22731233280E+02 -0.20151823286E+02  0.59301937598E+02  0.49999988273E+02 0.  0.
        -12    1    1    2    0    0 -0.96910281893E+01  0.22731233280E+02  0.20151823286E+02  0.31886062402E+02  0.00000000000E+00 0.  1.
         11    1    3    3    0    0  0.13384426982E+02 -0.23644741921E+02 -0.45766129343E+01  0.27552896261E+02  0.51100000000E-03 0. -1.
        -11    1    3    3    0    0  0.89727331815E+01 -0.36714010285E+01  0.17000415331E+01  0.98427266412E+01  0.51100000000E-03 0.  1.
         12    1    3    3    0    0 -0.12666131974E+02  0.45849096693E+01 -0.17275251885E+02  0.21906314696E+02  0.00000000000E+00 0. -1.
</event>
<event>
 7    1  0.1202531E-011  0.5930196E+02  0.7816164E-02  0.1266605E+00
        -11   -1    0    0    0    0  0.00000000000E+00  0.00000000000E+00  0.45593999997E+02  0.45594000000E+02  0.51100000000E-03 0.  1.
         11   -1    0    0    0    0 -0.00000000000E+00 -0.00000000000E+00 -0.45593999997E+02  0.45594000000E+02  0.51100000000E-03 0. -1.
    9900012    2    1    2    0    0  0.31163635385E+02 -0.67044108880E+01  0.77360431665E+00  0.59301956667E+02  0.50000023052E+02 0.  0.
        -12    1    1    2    0    0 -0.31163635385E+02  0.67044108880E+01 -0.77360431665E+00  0.31886043333E+02  0.00000000000E+00 0.  1.
         11    1    3    3    0    0  0.52127416588E+01  0.15099251114E+01  0.29213003954E+01  0.61633226189E+01  0.51100000000E-03 0. -1.
        -11    1    3    3    0    0  0.18967740919E+02  0.13031533242E+02  0.12709480730E+02  0.26289293541E+02  0.51100000000E-03 0.  1.
        -12    1    3    3    0    0  0.69831528076E+01 -0.21245869242E+02 -0.14857176808E+02  0.26849340507E+02  0.00000000000E+00 0.  1.
</event>
<event>
 7    1  0.1202531E-011  0.5930191E+02  0.7816164E-02  0.1266605E+00
        -11   -1    0    0    0    0  0.00000000000E+00  0.00000000000E+00  0.45593999997E+02  0.45594000000E+02  0.51100000000E-03 0. -1.
         11   -1    0    0    0    0 -0.00000000000E+00 -0.00000000000E+00 -0.45593999997E+02  0.45594000000E+02  0.51100000000E-03 0.  1.
    9900012    2    1    2    0    0  0.69474684224E+01 -0.18145205970E+02 -0.25282545445E+02  0.59301907086E+02  0.49999932626E+02 0.  0.
        -12    1    1    2    0    0 -0.69474684224E+01  0.18145205970E+02  0.25282545445E+02  0.31886092914E+02  0.00000000000E+00 0.  1.
         11    1    3    3    0    0 -0.13113291899E+02 -0.10950061680E+01 -0.33683310028E+01  0.13583192443E+02  0.51100000000E-03 0. -1.
        -11    1    3    3    0    0  0.11035611057E+02  0.46615051170E+01 -0.18383419868E+02  0.21942298596E+02  0.51100000000E-03 0.  1.
         12    1    3    3    0    0  0.90251492644E+01 -0.21711704919E+02 -0.35307945740E+01  0.23776416047E+02  0.00000000000E+00 0. -1.
</event>
<event>
 7    1  0.1202531E-011  0.5930195E+02  0.7816164E-02  0.1266605E+00
        -11   -1    0    0    0    0  0.00000000000E+00  0.00000000000E+00  0.45593999997E+02  0.45594000000E+02  0.51100000000E-03 0. -1.
         11   -1    0    0    0    0 -0.00000000000E+00 -0.00000000000E+00 -0.45593999997E+02  0.45594000000E+02  0.51100000000E-03 0.  1.
    9900012    2    1    2    0    0  0.15046578369E+02 -0.11157304736E+02  0.25803787138E+02  0.59301946619E+02  0.50000004725E+02 0.  0.
        -12    1    1    2    0    0 -0.15046578369E+02  0.11157304736E+02 -0.25803787138E+02  0.31886053381E+02  0.00000000000E+00 0.  1.
         11    1    3    3    0    0  0.80987156763E+01 -0.89856665038E+01  0.20388259154E+01  0.12267363592E+02  0.51100000000E-03 0. -1.
        -11    1    3    3    0    0 -0.49646649446E+01 -0.15276354176E+02  0.24515075127E+02  0.29308766669E+02  0.51100000000E-03 0.  1.
         12    1    3    3    0    0  0.11912527637E+02  0.13104715944E+02 -0.75011390500E+00  0.17725816358E+02  0.00000000000E+00 0. -1.
</event>
<event>
 7    1  0.1202531E-011  0.5930195E+02  0.7816164E-02  0.1266605E+00
        -11   -1    0    0    0    0  0.00000000000E+00  0.00000000000E+00  0.45593999997E+02  0.45594000000E+02  0.51100000000E-03 0.  1.
         11   -1    0    0    0    0 -0.00000000000E+00 -0.00000000000E+00 -0.45593999997E+02  0.45594000000E+02  0.51100000000E-03 0. -1.
    9900012    2    1    2    0    0  0.23100597727E+02  0.14911316476E+02 -0.16147300789E+02  0.59301948234E+02  0.50000007672E+02 0.  0.
        -12    1    1    2    0    0 -0.23100597727E+02 -0.14911316476E+02  0.16147300789E+02  0.31886051766E+02  0.00000000000E+00 0.  1.
         11    1    3    3    0    0 -0.76711262156E+00  0.60073818801E+01 -0.19582012909E+02  0.20497129766E+02  0.51100000000E-03 0. -1.
        -11    1    3    3    0    0  0.12124832872E+01 -0.73945565106E+01  0.74995791502E+01  0.10601569195E+02  0.51100000000E-03 0.  1.
         12    1    3    3    0    0  0.22655227062E+02  0.16298491107E+02 -0.40648670308E+01  0.28203249273E+02  0.00000000000E+00 0. -1.
</event>
<event>
 7    1  0.1202531E-011  0.5930195E+02  0.7816164E-02  0.1266605E+00
        -11   -1    0    0    0    0  0.00000000000E+00  0.00000000000E+00  0.45593999997E+02  0.45594000000E+02  0.51100000000E-03 0. -1.
         11   -1    0    0    0    0 -0.00000000000E+00 -0.00000000000E+00 -0.45593999997E+02  0.45594000000E+02  0.51100000000E-03 0.  1.
    9900012    2    1    2    0    0 -0.19384551560E+02  0.41199079364E+01  0.24979709732E+02  0.59301946954E+02  0.50000005336E+02 0.  0.
        -12    1    1    2    0    0  0.19384551560E+02 -0.41199079364E+01 -0.24979709732E+02  0.31886053046E+02  0.00000000000E+00 0.  1.
         11    1    3    3    0    0  0.84349223502E+01  0.38688347164E+01  0.10596619051E+02  0.14085600189E+02  0.51100000000E-03 0. -1.
        -11    1    3    3    0    0 -0.42555448138E+01 -0.70938543899E+01  0.18433022397E+02  0.20204176467E+02  0.51100000000E-03 0.  1.
        -12    1    3    3    0    0 -0.23563929097E+02  0.73449276100E+01 -0.40499317161E+01  0.25012170297E+02  0.00000000000E+00 0.  1.
</event>
<event>
 7    1  0.1202531E-011  0.5930186E+02  0.7816164E-02  0.1266605E+00
        -11   -1    0    0    0    0  0.00000000000E+00  0.00000000000E+00  0.45593999997E+02  0.45594000000E+02  0.51100000000E-03 0. -1.
         11   -1    0    0    0    0 -0.00000000000E+00 -0.00000000000E+00 -0.45593999997E+02  0.45594000000E+02  0.51100000000E-03 0.  1.
    9900012    2    1    2    0    0 -0.10173886965E+02 -0.55992760538E+01  0.29696230157E+02  0.59301859534E+02  0.49999845903E+02 0.  0.
        -12    1    1    2    0    0  0.10173886965E+02  0.55992760538E+01 -0.29696230157E+02  0.31886140466E+02  0.00000000000E+00 0.  1.
         11    1    3    3    0    0 -0.10740090707E+02 -0.46862189581E+01  0.28399907475E+00  0.11721384400E+02  0.51100000000E-03 0. -1.
        -11    1    3    3    0    0 -0.13029306720E+02 -0.13579235479E+02  0.14705521210E+02  0.23883274987E+02  0.51100000000E-03 0.  1.
         12    1    3    3    0    0  0.13595510462E+02  0.12666178383E+02  0.14706709872E+02  0.23697200147E+02  0.00000000000E+00 0. -1.
</event>
<event>
 7    1  0.1202531E-011  0.5930195E+02  0.7816164E-02  0.1266605E+00
        -11   -1    0    0    0    0  0.00000000000E+00  0.00000000000E+00  0.45593999997E+02  0.45594000000E+02  0.51100000000E-03 0.  1.
         11   -1    0    0    0    0 -0.00000000000E+00 -0.00000000000E+00 -0.45593999997E+02  0.45594000000E+02  0.51100000000E-03 0. -1.
    9900012    2    1    2    0    0  0.30275699023E+02  0.42850225038E+01  0.90410716146E+01  0.59301947483E+02  0.50000006301E+02 0.  0.
        -12    1    1    2    0    0 -0.30275699023E+02 -0.42850225038E+01 -0.90410716146E+01  0.31886052517E+02  0.00000000000E+00 0.  1.
         11    1    3    3    0    0 -0.27121214384E+01  0.63112852539E+01 -0.52619641468E+01  0.86531029807E+01  0.51100000000E-03 0. -1.
        -11    1    3    3    0    0 -0.23224189241E+01  0.27978378253E+01  0.14562555312E+02  0.15009648352E+02  0.51100000000E-03 0.  1.
         12    1    3    3    0    0  0.35310239386E+02 -0.48241005754E+01 -0.25951955105E+00  0.35639196150E+02  0.00000000000E+00 0. -1.
</event>
<event>
 7    1  0.1202531E-011  0.5930194E+02  0.7816164E-02  0.1266605E+00
        -11   -1    0    0    0    0  0.00000000000E+00  0.00000000000E+00  0.45593999997E+02  0.45594000000E+02  0.51100000000E-03 0. -1.
         11   -1    0    0    0    0 -0.00000000000E+00 -0.00000000000E+00 -0.45593999997E+02  0.45594000000E+02  0.51100000000E-03 0.  1.
    9900012    2    1    2    0    0  0.29532461597E+02 -0.11773984435E+02  0.24346582919E+01  0.59301944138E+02  0.50000000201E+02 0.  0.
        -12    1    1    2    0    0 -0.29532461597E+02  0.11773984435E+02 -0.24346582919E+01  0.31886055862E+02  0.00000000000E+00 0.  1.
         11    1    3    3    0    0  0.25989493763E+02 -0.49024493083E+01 -0.17340755440E+02  0.31625774216E+02  0.51100000000E-03 0. -1.
        -11    1    3    3    0    0  0.26089192485E+01 -0.56160632642E+01 -0.14770426325E+01  0.63661826421E+01  0.51100000000E-03 0.  1.
        -12    1    3    3    0    0  0.93404858491E+00 -0.12554718625E+01  0.21252456364E+02  0.21309987280E+02  0.00000000000E+00 0.  1.
</event>
<event>
 7    1  0.1202531E-011  0.5930193E+02  0.7816164E-02  0.1266605E+00
        -11   -1    0    0    0    0  0.00000000000E+00  0.00000000000E+00  0.45593999997E+02  0.45594000000E+02  0.51100000000E-03 0.  1.
         11   -1    0    0    0    0 -0.00000000000E+00 -0.00000000000E+00 -0.45593999997E+02  0.45594000000E+02  0.51100000000E-03 0. -1.
    9900012    2    1    2    0    0  0.18817228063E+02 -0.13521977201E+02 -0.21904096355E+02  0.59301931310E+02  0.49999976806E+02 0.  0.
        -12    1    1    2    0    0 -0.18817228063E+02  0.13521977201E+02  0.21904096355E+02  0.31886068690E+02  0.00000000000E+00 0.  1.
         11    1    3    3    0    0  0.14716476881E+02 -0.77982887788E+01 -0.11619508836E+02  0.20307658297E+02  0.51100000000E-03 0. -1.
        -11    1    3    3    0    0  0.14348368220E+02 -0.60947562483E+00  0.87229882297E+01  0.16802906148E+02  0.51100000000E-03 0.  1.
         12    1    3    3    0    0 -0.10247617038E+02 -0.51142127977E+01 -0.19007575748E+02  0.22191366864E+02  0.00000000000E+00 0. -1.
</event>
<event>
 7    1  0.1202531E-011  0.5930194E+02  0.7816164E-02  0.1266605E+00
        -11   -1    0    0    0    0  0.00000000000E+00  0.00000000000E+00  0.45593999997E+02  0.45594000000E+02  0.51100000000E-03 0.  1.
         11   -1    0    0    0    0 -0.00000000000E+00 -0.00000000000E+00 -0.45593999997E+02  0.45594000000E+02  0.51100000000E-03 0. -1.
    9900012    2    1    2    0    0 -0.27908343920E+02  0.55660818207E+00 -0.15412174965E+02  0.59301943327E+02  0.49999998722E+02 0.  0.
        -12    1    1    2    0    0  0.27908343920E+02 -0.55660818207E+00  0.15412174965E+02  0.31886056673E+02  0.00000000000E+00 0.  1.
         11    1    3    3    0    0 -0.30565302819E+01 -0.78504090519E+01  0.11367384159E+01  0.85007925592E+01  0.51100000000E-03 0. -1.
        -11    1    3    3    0    0 -0.16435934162E+02 -0.15186408790E+02 -0.11825358436E+02  0.25310196485E+02  0.51100000000E-03 0.  1.
         12    1    3    3    0    0 -0.84158794757E+01  0.23593426024E+02 -0.47235549447E+01  0.25490954282E+02  0.00000000000E+00 0. -1.
</event>
<event>
 7    1  0.1202531E-011  0.5930192E+02  0.7816164E-02  0.1266605E+00
        -11   -1    0    0    0    0  0.00000000000E+00  0.00000000000E+00  0.45593999997E+02  0.45594000000E+02  0.51100000000E-03 0.  1.
         11   -1    0    0    0    0 -0.00000000000E+00 -0.00000000000E+00 -0.45593999997E+02  0.45594000000E+02  0.51100000000E-03 0. -1.
    9900012    2    1    2    0    0  0.13381068786E+02 -0.52527658331E+01 -0.28461855801E+02  0.59301924882E+02  0.49999965084E+02 0.  0.
        -12    1    1    2    0    0 -0.13381068786E+02  0.52527658331E+01  0.28461855801E+02  0.31886075118E+02  0.00000000000E+00 0.  1.
         11    1    3    3    0    0  0.16184234414E+01  0.48981015585E+01 -0.50288515778E+01  0.72041683604E+01  0.51100000000E-03 0. -1.
        -11    1    3    3    0    0  0.26252355543E+02 -0.77756849567E+00 -0.47963367290E+01  0.26698232725E+02  0.51100000000E-03 0.  1.
         12    1    3    3    0    0 -0.14489710199E+02 -0.93732988959E+01 -0.18636667494E+02  0.25399523797E+02  0.00000000000E+00 0. -1.
</event>
<event>
 7    1  0.1202531E-011  0.5930190E+02  0.7816164E-02  0.1266605E+00
        -11   -1    0    0    0    0  0.00000000000E+00  0.00000000000E+00  0.45593999997E+02  0.45594000000E+02  0.51100000000E-03 0. -1.
         11   -1    0    0    0    0 -0.00000000000E+00 -0.00000000000E+00 -0.45593999997E+02  0.45594000000E+02  0.51100000000E-03 0.  1.
    9900012    2    1    2    0    0 -0.17636278115E+02 -0.25480233448E+02  0.75128494202E+01  0.59301897875E+02  0.49999915828E+02 0.  0.
        -12    1    1    2    0    0  0.17636278115E+02  0.25480233448E+02 -0.75128494202E+01  0.31886102125E+02  0.00000000000E+00 0.  1.
         11    1    3    3    0    0  0.42355683043E+01 -0.24748851031E+02 -0.37919995788E+01  0.25393403223E+02  0.51100000000E-03 0. -1.
        -11    1    3    3    0    0  0.18925606997E+01  0.53707541750E+01  0.69578822455E+01  0.89910462135E+01  0.51100000000E-03 0.  1.
        -12    1    3    3    0    0 -0.23764407119E+02 -0.61021365923E+01  0.43469667535E+01  0.24917448438E+02  0.00000000000E+00 0.  1.
</event>
<event>
 7    1  0.1202531E-011  0.5930194E+02  0.7816164E-02  0.1266605E+00
        -11   -1    0    0    0    0  0.00000000000E+00  0.00000000000E+00  0.45593999997E+02  0.45594000000E+02  0.51100000000E-03 0.  1.
         11   -1    0    0    0    0 -0.00000000000E+00 -0.00000000000E+00 -0.45593999997E+02  0.45594000000E+02  0.51100000000E-03 0. -1.
    9900012    2    1    2    0    0  0.11357403435E+02  0.10680030585E+02 -0.27814871571E+02  0.59301941188E+02  0.49999994821E+02 0.  0.
        -12    1    1    2    0    0 -0.11357403435E+02 -0.10680030585E+02  0.27814871571E+02  0.31886058812E+02  0.00000000000E+00 0.  1.
         11    1    3    3    0    0 -0.59560106971E+01 -0.83682124789E+00 -0.12490010178E+02  0.13862708528E+02  0.51100000000E-03 0. -1.
        -11    1    3    3    0    0 -0.95461766184E+01 -0.47081427127E+01 -0.30088603583E+00  0.10648315759E+02  0.51100000000E-03 0.  1.
         12    1    3    3    0    0  0.26859590751E+02  0.16224994546E+02 -0.15023975357E+02  0.34790916901E+02  0.00000000000E+00 0. -1.
</event>
<event>
 7    1  0.1202531E-011  0.5930197E+02  0.7816164E-02  0.1266605E+00
        -11   -1    0    0    0    0  0.00000000000E+00  0.00000000000E+00  0.45593999997E+02  0.45594000000E+02  0.51100000000E-03 0. -1.
         11   -1    0    0    0    0 -0.00000000000E+00 -0.00000000000E+00 -0.45593999997E+02  0.45594000000E+02  0.51100000000E-03 0.  1.
    9900012    2    1    2    0    0 -0.74239557899E+01 -0.43472576087E+01  0.30703501296E+02  0.59301972337E+02  0.50000051630E+02 0.  0.
        -12    1    1    2    0    0  0.74239557899E+01  0.43472576087E+01 -0.30703501296E+02  0.31886027663E+02  0.00000000000E+00 0.  1.
         11    1    3    3    0    0 -0.38379223728E+00 -0.91619277545E+01  0.18523884187E+02  0.20669361439E+02  0.51100000000E-03 0. -1.
        -11    1    3    3    0    0 -0.39486774357E+01 -0.90687679104E+01 -0.88313762271E+01  0.13260007965E+02  0.51100000000E-03 0.  1.
        -12    1    3    3    0    0 -0.30914861170E+01  0.13883438056E+02  0.21010993336E+02  0.25372602934E+02  0.00000000000E+00 0.  1.
</event>
<event>
 7    1  0.1202531E-011  0.5930196E+02  0.7816164E-02  0.1266605E+00
        -11   -1    0    0    0    0  0.00000000000E+00  0.00000000000E+00  0.45593999997E+02  0.45594000000E+02  0.51100000000E-03 0.  1.
         11   -1    0    0    0    0 -0.00000000000E+00 -0.00000000000E+00 -0.45593999997E+02  0.45594000000E+02  0.51100000000E-03 0. -1.
    9900012    2    1    2    0    0  0.30735994424E+02 -0.32860233408E+01 -0.78243456273E+01  0.59301957801E+02  0.50000025119E+02 0.  0.
        -12    1    1    2    0    0 -0.30735994424E+02  0.32860233408E+01  0.78243456273E+01  0.31886042199E+02  0.00000000000E+00 0.  1.
         11    1    3    3    0    0  0.27137248228E+00 -0.32145708520E+00  0.61108161485E+01  0.61252797441E+01  0.51100000000E-03 0.  1.
        -11    1    3    3    0    0  0.78203950298E+01 -0.19324642131E+02 -0.14227459060E+02  0.25239274226E+02  0.51100000000E-03 0. -1.
        -12    1    3    3    0    0  0.22644226912E+02  0.16360075875E+02  0.29229728398E+00  0.27937403831E+02  0.00000000000E+00 0.  1.
</event>
<event>
 7    1  0.1202531E-011  0.5930196E+02  0.7816164E-02  0.1266605E+00
        -11   -1    0    0    0    0  0.00000000000E+00  0.00000000000E+00  0.45593999997E+02  0.45594000000E+02  0.51100000000E-03 0. -1.
         11   -1    0    0    0    0 -0.00000000000E+00 -0.00000000000E+00 -0.45593999997E+02  0.45594000000E+02  0.51100000000E-03 0.  1.
    9900012    2    1    2    0    0  0.19767838782E+02 -0.15222069226E+02  0.19855494568E+02  0.59301960638E+02  0.50000030293E+02 0.  0.
        -12    1    1    2    0    0 -0.19767838782E+02  0.15222069226E+02 -0.19855494568E+02  0.31886039362E+02  0.00000000000E+00 0.  1.
         11    1    3    3    0    0 -0.60352212237E+01 -0.69580752109E+01  0.25268569833E+02  0.26894968442E+02  0.51100000000E-03 0. -1.
        -11    1    3    3    0    0 -0.20904796956E+01  0.10332340140E+01 -0.14321104885E+01  0.27365340483E+01  0.51100000000E-03 0.  1.
        -12    1    3    3    0    0  0.27893539701E+02 -0.92972280295E+01 -0.39809647760E+01  0.29670458147E+02  0.00000000000E+00 0.  1.
</event>
<event>
 7    1  0.1202531E-011  0.5930191E+02  0.7816164E-02  0.1266605E+00
        -11   -1    0    0    0    0  0.00000000000E+00  0.00000000000E+00  0.45593999997E+02  0.45594000000E+02  0.51100000000E-03 0.  1.
         11   -1    0    0    0    0 -0.00000000000E+00 -0.00000000000E+00 -0.45593999997E+02  0.45594000000E+02  0.51100000000E-03 0. -1.
    9900012    2    1    2    0    0  0.55698488341E+01 -0.25437122561E+02 -0.18402513173E+02  0.59301907243E+02  0.49999932914E+02 0.  0.
        -12    1    1    2    0    0 -0.55698488341E+01  0.25437122561E+02  0.18402513173E+02  0.31886092757E+02  0.00000000000E+00 0.  1.
         11    1    3    3    0    0  0.10426124234E+01 -0.29163725893E+01 -0.20127495896E+02  0.20364389533E+02  0.51100000000E-03 0. -1.
        -11    1    3    3    0    0  0.17819070404E+02 -0.11289674965E+02  0.37274393866E+01  0.21421247291E+02  0.51100000000E-03 0.  1.
         12    1    3    3    0    0 -0.13291833993E+02 -0.11231075007E+02 -0.20024566638E+01  0.17516270419E+02  0.00000000000E+00 0. -1.
</event>
<event>
 7    1  0.1202531E-011  0.5930194E+02  0.7816164E-02  0.1266605E+00
        -11   -1    0    0    0    0  0.00000000000E+00  0.00000000000E+00  0.45593999997E+02  0.45594000000E+02  0.51100000000E-03 0.  1.
         11   -1    0    0    0    0 -0.00000000000E+00 -0.00000000000E+00 -0.45593999997E+02  0.45594000000E+02  0.51100000000E-03 0. -1.
    9900012    2    1    2    0    0  0.30279370967E+02  0.63345930986E+01 -0.77300148970E+01  0.59301944957E+02  0.50000001695E+02 0.  0.
        -12    1    1    2    0    0 -0.30279370967E+02 -0.63345930986E+01  0.77300148970E+01  0.31886055043E+02  0.00000000000E+00 0.  1.
         11    1    3    3    0    0  0.66563501012E+01  0.11689292631E+02  0.13178198043E+02  0.18831130152E+02  0.51100000000E-03 0. -1.
        -11    1    3    3    0    0 -0.36019287700E+01 -0.18230542595E+01  0.21904526505E+01  0.45929838638E+01  0.51100000000E-03 0.  1.
         12    1    3    3    0    0  0.27224949636E+02 -0.35316452727E+01 -0.23098665590E+02  0.35877830941E+02  0.00000000000E+00 0. -1.
</event>
<event>
 7    1  0.1202531E-011  0.5930202E+02  0.7816164E-02  0.1266604E+00
        -11   -1    0    0    0    0  0.00000000000E+00  0.00000000000E+00  0.45593999997E+02  0.45594000000E+02  0.51100000000E-03 0.  1.
         11   -1    0    0    0    0 -0.00000000000E+00 -0.00000000000E+00 -0.45593999997E+02  0.45594000000E+02  0.51100000000E-03 0. -1.
    9900012    2    1    2    0    0  0.27293425757E+02 -0.76989389874E+01 -0.14577754265E+02  0.59302020785E+02  0.50000139987E+02 0.  0.
        -12    1    1    2    0    0 -0.27293425757E+02  0.76989389874E+01  0.14577754265E+02  0.31885979215E+02  0.00000000000E+00 0.  1.
         11    1    3    3    0    0  0.22376188389E+02 -0.18034491117E+02 -0.14445059657E+02  0.32165143019E+02  0.51100000000E-03 0. -1.
        -11    1    3    3    0    0  0.89033241294E+01 -0.47681783695E+01  0.41816120578E+01  0.10931174922E+02  0.51100000000E-03 0.  1.
        -12    1    3    3    0    0 -0.39860867615E+01  0.15103730499E+02 -0.43143066656E+01  0.16205702844E+02  0.00000000000E+00 0.  1.
</event>
<event>
 7    1  0.1202531E-011  0.5930193E+02  0.7816164E-02  0.1266605E+00
        -11   -1    0    0    0    0  0.00000000000E+00  0.00000000000E+00  0.45593999997E+02  0.45594000000E+02  0.51100000000E-03 0. -1.
         11   -1    0    0    0    0 -0.00000000000E+00 -0.00000000000E+00 -0.45593999997E+02  0.45594000000E+02  0.51100000000E-03 0.  1.
    9900012    2    1    2    0    0  0.16569834564E+02  0.24535767077E+02  0.11838851052E+02  0.59301926586E+02  0.49999968190E+02 0.  0.
        -12    1    1    2    0    0 -0.16569834564E+02 -0.24535767077E+02 -0.11838851052E+02  0.31886073414E+02  0.00000000000E+00 0.  1.
         11    1    3    3    0    0 -0.20059637727E+01  0.52994972598E+01 -0.72090022974E+01  0.91694207150E+01  0.51100000000E-03 0. -1.
        -11    1    3    3    0    0 -0.58364654172E+01  0.16889010529E+02  0.18327790371E+02  0.25597087830E+02  0.51100000000E-03 0.  1.
         12    1    3    3    0    0  0.24412263754E+02  0.23472592881E+01  0.72006297743E+00  0.24535418041E+02  0.00000000000E+00 0. -1.
</event>
<event>
 7    1  0.1202531E-011  0.5930192E+02  0.7816164E-02  0.1266605E+00
        -11   -1    0    0    0    0  0.00000000000E+00  0.00000000000E+00  0.45593999997E+02  0.45594000000E+02  0.51100000000E-03 0.  1.
         11   -1    0    0    0    0 -0.00000000000E+00 -0.00000000000E+00 -0.45593999997E+02  0.45594000000E+02  0.51100000000E-03 0. -1.
    9900012    2    1    2    0    0  0.31527549537E+02  0.45255967435E+01 -0.15014876347E+01  0.59301923558E+02  0.49999962669E+02 0.  0.
        -12    1    1    2    0    0 -0.31527549537E+02 -0.45255967435E+01  0.15014876347E+01  0.31886076442E+02  0.00000000000E+00 0.  1.
         11    1    3    3    0    0  0.33975170443E+02  0.17778343543E+02 -0.10584208188E+02  0.39779481759E+02  0.51100000000E-03 0. -1.
        -11    1    3    3    0    0 -0.48360358962E+01 -0.12259528201E+01  0.31571220925E+01  0.59040345252E+01  0.51100000000E-03 0.  1.
        -12    1    3    3    0    0  0.23884149902E+01 -0.12026793979E+02  0.59255984603E+01  0.13618407274E+02  0.00000000000E+00 0.  1.
</event>
<event>
 7    1  0.1202531E-011  0.5930195E+02  0.7816164E-02  0.1266605E+00
        -11   -1    0    0    0    0  0.00000000000E+00  0.00000000000E+00  0.45593999997E+02  0.45594000000E+02  0.51100000000E-03 0. -1.
         11   -1    0    0    0    0 -0.00000000000E+00 -0.00000000000E+00 -0.45593999997E+02  0.45594000000E+02  0.51100000000E-03 0.  1.
    9900012    2    1    2    0    0  0.57720648852E+01  0.30779433839E+02 -0.60025064373E+01  0.59301947187E+02  0.50000005761E+02 0.  0.
        -12    1    1    2    0    0 -0.57720648852E+01 -0.30779433839E+02  0.60025064373E+01  0.31886052813E+02  0.00000000000E+00 0.  1.
         11    1    3    3    0    0 -0.49508578149E+01  0.10897123686E+01 -0.55562083383E+01  0.75212975948E+01  0.51100000000E-03 0. -1.
        -11    1    3    3    0    0 -0.12940809372E+02  0.49043469149E+00  0.48431134298E+01  0.13826092049E+02  0.51100000000E-03 0.  1.
         12    1    3    3    0    0  0.23663732072E+02  0.29199286779E+02 -0.52894115288E+01  0.37954557543E+02  0.00000000000E+00 0. -1.
</event>
<event>
 7    1  0.1202531E-011  0.5930198E+02  0.7816164E-02  0.1266605E+00
        -11   -1    0    0    0    0  0.00000000000E+00  0.00000000000E+00  0.45593999997E+02  0.45594000000E+02  0.51100000000E-03 0.  1.
         11   -1    0    0    0    0 -0.00000000000E+00 -0.00000000000E+00 -0.45593999997E+02  0.45594000000E+02  0.51100000000E-03 0. -1.
    9900012    2    1    2    0    0 -0.29571206296E+02 -0.96341971884E+01 -0.70316739576E+01  0.59301977421E+02  0.50000060902E+02 0.  0.
        -12    1    1    2    0    0  0.29571206296E+02  0.96341971884E+01  0.70316739576E+01  0.31886022579E+02  0.00000000000E+00 0.  1.
         11    1    3    3    0    0 -0.18258807474E+02  0.79308209214E+01  0.51586657521E+01  0.20564381913E+02  0.51100000000E-03 0.  1.
        -11    1    3    3    0    0 -0.12924500032E+02 -0.21629304886E+02  0.61731736131E+00  0.25204178461E+02  0.51100000000E-03 0. -1.
        -12    1    3    3    0    0  0.16121012107E+01  0.40642867760E+01 -0.12807657071E+02  0.13533417047E+02  0.00000000000E+00 0.  1.
</event>
<event>
 7    1  0.1202531E-011  0.5930183E+02  0.7816164E-02  0.1266605E+00
        -11   -1    0    0    0    0  0.00000000000E+00  0.00000000000E+00  0.45593999997E+02  0.45594000000E+02  0.51100000000E-03 0. -1.
         11   -1    0    0    0    0 -0.00000000000E+00 -0.00000000000E+00 -0.45593999997E+02  0.45594000000E+02  0.51100000000E-03 0.  1.
    9900012    2    1    2    0    0  0.53588788293E+01 -0.16802587404E+01  0.31387692597E+02  0.59301825907E+02  0.49999784575E+02 0.  0.
        -12    1    1    2    0    0 -0.53588788293E+01  0.16802587404E+01 -0.31387692597E+02  0.31886174093E+02  0.00000000000E+00 0.  1.
         11    1    3    3    0    0 -0.13638447717E+02 -0.71561187433E+01 -0.28315161614E+01  0.15659973679E+02  0.51100000000E-03 0. -1.
        -11    1    3    3    0    0  0.30290815778E+01  0.10030949979E+02  0.13531298250E+02  0.17114068052E+02  0.51100000000E-03 0.  1.
        -12    1    3    3    0    0  0.15968244969E+02 -0.45550899765E+01  0.20687910508E+02  0.26527784176E+02  0.00000000000E+00 0.  1.
</event>
<event>
 7    1  0.1202531E-011  0.5930199E+02  0.7816164E-02  0.1266605E+00
        -11   -1    0    0    0    0  0.00000000000E+00  0.00000000000E+00  0.45593999997E+02  0.45594000000E+02  0.51100000000E-03 0.  1.
         11   -1    0    0    0    0 -0.00000000000E+00 -0.00000000000E+00 -0.45593999997E+02  0.45594000000E+02  0.51100000000E-03 0. -1.
    9900012    2    1    2    0    0  0.11595071684E+02 -0.23646851522E+02 -0.17974936976E+02  0.59301990002E+02  0.50000083847E+02 0.  0.
        -12    1    1    2    0    0 -0.11595071684E+02  0.23646851522E+02  0.17974936976E+02  0.31886009998E+02  0.00000000000E+00 0.  1.
         11    1    3    3    0    0  0.81290202943E+00 -0.70037127757E+00  0.31717452358E+01  0.33483276031E+01  0.51100000000E-03 0. -1.
        -11    1    3    3    0    0  0.54126368727E+01 -0.27078307106E+02  0.57589401514E+01  0.28208097163E+02  0.51100000000E-03 0.  1.
         12    1    3    3    0    0  0.53695327823E+01  0.41318268616E+01 -0.26905622363E+02  0.27745565236E+02  0.00000000000E+00 0. -1.
</event>
<event>
 7    1  0.1202531E-011  0.5930195E+02  0.7816164E-02  0.1266605E+00
        -11   -1    0    0    0    0  0.00000000000E+00  0.00000000000E+00  0.45593999997E+02  0.45594000000E+02  0.51100000000E-03 0.  1.
         11   -1    0    0    0    0 -0.00000000000E+00 -0.00000000000E+00 -0.45593999997E+02  0.45594000000E+02  0.51100000000E-03 0. -1.
    9900012    2    1    2    0    0  0.58718171006E+01 -0.31329954817E+02 -0.82222873705E+00  0.59301947172E+02  0.50000005734E+02 0.  0.
        -12    1    1    2    0    0 -0.58718171006E+01  0.31329954817E+02  0.82222873705E+00  0.31886052828E+02  0.00000000000E+00 0.  1.
         11    1    3    3    0    0  0.68807298658E+01 -0.42215919648E+01 -0.36109804070E+01  0.88433852095E+01  0.51100000000E-03 0. -1.
        -11    1    3    3    0    0 -0.46099988504E+01  0.39748514381E+01 -0.13770603633E+02  0.15055930992E+02  0.51100000000E-03 0.  1.
        -12    1    3    3    0    0  0.36010860852E+01 -0.31083214290E+02  0.16559355303E+02  0.35402630970E+02  0.00000000000E+00 0.  1.
</event>
<event>
 7    1  0.1202531E-011  0.5930177E+02  0.7816164E-02  0.1266605E+00
        -11   -1    0    0    0    0  0.00000000000E+00  0.00000000000E+00  0.45593999997E+02  0.45594000000E+02  0.51100000000E-03 0.  1.
         11   -1    0    0    0    0 -0.00000000000E+00 -0.00000000000E+00 -0.45593999997E+02  0.45594000000E+02  0.51100000000E-03 0. -1.
    9900012    2    1    2    0    0  0.12305725624E+02 -0.10244432236E+02 -0.27574485646E+02  0.59301772038E+02  0.49999686332E+02 0.  0.
        -12    1    1    2    0    0 -0.12305725624E+02  0.10244432236E+02  0.27574485646E+02  0.31886227962E+02  0.00000000000E+00 0.  1.
         11    1    3    3    0    0 -0.24440950713E+00 -0.40132417480E+01 -0.35510140630E+02  0.35737038673E+02  0.51100000000E-03 0. -1.
        -11    1    3    3    0    0  0.61965257167E+00  0.51690977167E+01 -0.10768530945E+00  0.52072196902E+01  0.51100000000E-03 0.  1.
        -12    1    3    3    0    0  0.11930482559E+02 -0.11400288205E+02  0.80433402930E+01  0.18357513675E+02  0.00000000000E+00 0.  1.
</event>
<event>
 7    1  0.1202531E-011  0.5930192E+02  0.7816164E-02  0.1266605E+00
        -11   -1    0    0    0    0  0.00000000000E+00  0.00000000000E+00  0.45593999997E+02  0.45594000000E+02  0.51100000000E-03 0. -1.
         11   -1    0    0    0    0 -0.00000000000E+00 -0.00000000000E+00 -0.45593999997E+02  0.45594000000E+02  0.51100000000E-03 0.  1.
    9900012    2    1    2    0    0 -0.10266026374E+02  0.32754490069E+01  0.30010034177E+02  0.59301921298E+02  0.49999958546E+02 0.  0.
        -12    1    1    2    0    0  0.10266026374E+02 -0.32754490069E+01 -0.30010034177E+02  0.31886078702E+02  0.00000000000E+00 0.  1.
         11    1    3    3    0    0 -0.16493868351E+02 -0.26545446962E+01  0.30774056913E+01  0.16987193022E+02  0.51100000000E-03 0. -1.
        -11    1    3    3    0    0  0.10218625503E+02  0.11371176544E+02  0.78252324266E+00  0.15308047101E+02  0.51100000000E-03 0.  1.
         12    1    3    3    0    0 -0.39907835264E+01 -0.54411828406E+01  0.26150105243E+02  0.27006681174E+02  0.00000000000E+00 0. -1.
</event>
<event>
 7    1  0.1202531E-011  0.5930201E+02  0.7816164E-02  0.1266605E+00
        -11   -1    0    0    0    0  0.00000000000E+00  0.00000000000E+00  0.45593999997E+02  0.45594000000E+02  0.51100000000E-03 0.  1.
         11   -1    0    0    0    0 -0.00000000000E+00 -0.00000000000E+00 -0.45593999997E+02  0.45594000000E+02  0.51100000000E-03 0. -1.
    9900012    2    1    2    0    0  0.28188844407E+02  0.88255837413E+01 -0.12008925532E+02  0.59302012956E+02  0.50000125708E+02 0.  0.
        -12    1    1    2    0    0 -0.28188844407E+02 -0.88255837413E+01  0.12008925532E+02  0.31885987044E+02  0.00000000000E+00 0.  1.
         11    1    3    3    0    0  0.16942363482E+02 -0.10102989370E+02 -0.17184830726E+02  0.26161660534E+02  0.51100000000E-03 0. -1.
        -11    1    3    3    0    0  0.33827852246E+01 -0.58214333445E+01  0.48039447389E+00  0.67500445311E+01  0.51100000000E-03 0.  1.
        -12    1    3    3    0    0  0.78636957004E+01  0.24750006455E+02  0.46955107207E+01  0.26390307890E+02  0.00000000000E+00 0.  1.
</event>
<event>
 7    1  0.1202531E-011  0.5930190E+02  0.7816164E-02  0.1266605E+00
        -11   -1    0    0    0    0  0.00000000000E+00  0.00000000000E+00  0.45593999997E+02  0.45594000000E+02  0.51100000000E-03 0.  1.
         11   -1    0    0    0    0 -0.00000000000E+00 -0.00000000000E+00 -0.45593999997E+02  0.45594000000E+02  0.51100000000E-03 0. -1.
    9900012    2    1    2    0    0 -0.22470199351E+02  0.20211832163E+02 -0.10163430781E+02  0.59301900466E+02  0.49999920554E+02 0.  0.
        -12    1    1    2    0    0  0.22470199351E+02 -0.20211832163E+02  0.10163430781E+02  0.31886099534E+02  0.00000000000E+00 0.  1.
         11    1    3    3    0    0 -0.11537842568E+02  0.10009312294E+02 -0.91631254267E+01  0.17812102952E+02  0.51100000000E-03 0. -1.
        -11    1    3    3    0    0 -0.12899865497E+02 -0.11986428946E+02 -0.61031894435E+01  0.18636789701E+02  0.51100000000E-03 0.  1.
        -12    1    3    3    0    0  0.19675087147E+01  0.22188948815E+02  0.51028840889E+01  0.22853007813E+02  0.00000000000E+00 0.  1.
</event>
<event>
 7    1  0.1202531E-011  0.5930194E+02  0.7816164E-02  0.1266605E+00
        -11   -1    0    0    0    0  0.00000000000E+00  0.00000000000E+00  0.45593999997E+02  0.45594000000E+02  0.51100000000E-03 0. -1.
         11   -1    0    0    0    0 -0.00000000000E+00 -0.00000000000E+00 -0.45593999997E+02  0.45594000000E+02  0.51100000000E-03 0.  1.
    9900012    2    1    2    0    0 -0.10704258135E+02  0.12631136104E+02  0.27250577586E+02  0.59301941600E+02  0.49999995573E+02 0.  0.
        -12    1    1    2    0    0  0.10704258135E+02 -0.12631136104E+02 -0.27250577586E+02  0.31886058400E+02  0.00000000000E+00 0.  1.
         11    1    3    3    0    0 -0.23694600982E+01  0.85657362915E+01 -0.27017343523E+01  0.92890014611E+01  0.51100000000E-03 0. -1.
        -11    1    3    3    0    0 -0.21105742931E+02  0.10587036268E+02  0.10487915815E+02  0.25836681289E+02  0.51100000000E-03 0.  1.
         12    1    3    3    0    0  0.12770944894E+02 -0.65216364559E+01  0.19464396123E+02  0.24176258850E+02  0.00000000000E+00 0. -1.
</event>
<event>
 7    1  0.1202531E-011  0.5930193E+02  0.7816164E-02  0.1266605E+00
        -11   -1    0    0    0    0  0.00000000000E+00  0.00000000000E+00  0.45593999997E+02  0.45594000000E+02  0.51100000000E-03 0.  1.
         11   -1    0    0    0    0 -0.00000000000E+00 -0.00000000000E+00 -0.45593999997E+02  0.45594000000E+02  0.51100000000E-03 0. -1.
    9900012    2    1    2    0    0  0.16933908343E+02  0.22640612355E+02 -0.14743371343E+02  0.59301928148E+02  0.49999971039E+02 0.  0.
        -12    1    1    2    0    0 -0.16933908343E+02 -0.22640612355E+02  0.14743371343E+02  0.31886071852E+02  0.00000000000E+00 0.  1.
         11    1    3    3    0    0 -0.68434194603E+01  0.62413297862E+01  0.32801628123E+01  0.98257852483E+01  0.51100000000E-03 0. -1.
        -11    1    3    3    0    0  0.10037045270E+02  0.15900052597E+02  0.76921084645E+01  0.20315572432E+02  0.51100000000E-03 0.  1.
         12    1    3    3    0    0  0.13740282533E+02  0.49922997227E+00 -0.25715642620E+02  0.29160570468E+02  0.00000000000E+00 0. -1.
</event>
<event>
 7    1  0.1202531E-011  0.5930195E+02  0.7816164E-02  0.1266605E+00
        -11   -1    0    0    0    0  0.00000000000E+00  0.00000000000E+00  0.45593999997E+02  0.45594000000E+02  0.51100000000E-03 0. -1.
         11   -1    0    0    0    0 -0.00000000000E+00 -0.00000000000E+00 -0.45593999997E+02  0.45594000000E+02  0.51100000000E-03 0.  1.
    9900012    2    1    2    0    0 -0.28486331467E+02  0.12974694467E+02  0.60750809681E+01  0.59301946846E+02  0.50000005141E+02 0.  0.
        -12    1    1    2    0    0  0.28486331467E+02 -0.12974694467E+02 -0.60750809681E+01  0.31886053154E+02  0.00000000000E+00 0.  1.
         11    1    3    3    0    0 -0.18853442464E+01  0.27776148021E+01  0.10783075109E+02  0.11293554621E+02  0.51100000000E-03 0. -1.
        -11    1    3    3    0    0 -0.25261025560E+02 -0.92851412447E+01  0.28599882234E+01  0.27064973548E+02  0.51100000000E-03 0.  1.
         12    1    3    3    0    0 -0.13399616605E+01  0.19482220909E+02 -0.75679823641E+01  0.20943418677E+02  0.00000000000E+00 0. -1.
</event>
<event>
 7    1  0.1202531E-011  0.5930235E+02  0.7816164E-02  0.1266603E+00
        -11   -1    0    0    0    0  0.00000000000E+00  0.00000000000E+00  0.45593999997E+02  0.45594000000E+02  0.51100000000E-03 0.  1.
         11   -1    0    0    0    0 -0.00000000000E+00 -0.00000000000E+00 -0.45593999997E+02  0.45594000000E+02  0.51100000000E-03 0. -1.
    9900012    2    1    2    0    0 -0.20635619273E+02  0.19279766437E+02 -0.14803937228E+02  0.59302349088E+02  0.50000738726E+02 0.  0.
        -12    1    1    2    0    0  0.20635619273E+02 -0.19279766437E+02  0.14803937228E+02  0.31885650912E+02  0.00000000000E+00 0.  1.
         11    1    3    3    0    0 -0.29884609136E+01 -0.49502466459E-01  0.21010542389E+01  0.36534611401E+01  0.51100000000E-03 0. -1.
        -11    1    3    3    0    0 -0.94116189537E+01 -0.13945188593E+02 -0.12770760810E+02  0.21122007200E+02  0.51100000000E-03 0.  1.
         12    1    3    3    0    0 -0.82355394060E+01  0.33274457497E+02 -0.41342306563E+01  0.34526880747E+02  0.00000000000E+00 0. -1.
</event>
<event>
 7    1  0.1202531E-011  0.5930192E+02  0.7816164E-02  0.1266605E+00
        -11   -1    0    0    0    0  0.00000000000E+00  0.00000000000E+00  0.45593999997E+02  0.45594000000E+02  0.51100000000E-03 0.  1.
         11   -1    0    0    0    0 -0.00000000000E+00 -0.00000000000E+00 -0.45593999997E+02  0.45594000000E+02  0.51100000000E-03 0. -1.
    9900012    2    1    2    0    0 -0.56572306528E+01 -0.22057050515E+02 -0.22320491293E+02  0.59301920473E+02  0.49999957041E+02 0.  0.
        -12    1    1    2    0    0  0.56572306528E+01  0.22057050515E+02  0.22320491293E+02  0.31886079527E+02  0.00000000000E+00 0.  1.
         11    1    3    3    0    0  0.10767589080E+02  0.32025628094E+01  0.11925643046E+01  0.11296884217E+02  0.51100000000E-03 0. -1.
        -11    1    3    3    0    0  0.35915146936E+01 -0.13148734935E+02  0.15517125662E+01  0.13718455465E+02  0.51100000000E-03 0.  1.
        -12    1    3    3    0    0 -0.20016334426E+02 -0.12110878389E+02 -0.25064768163E+02  0.34286580790E+02  0.00000000000E+00 0.  1.
</event>
<event>
 7    1  0.1202531E-011  0.5930196E+02  0.7816164E-02  0.1266605E+00
        -11   -1    0    0    0    0  0.00000000000E+00  0.00000000000E+00  0.45593999997E+02  0.45594000000E+02  0.51100000000E-03 0. -1.
         11   -1    0    0    0    0 -0.00000000000E+00 -0.00000000000E+00 -0.45593999997E+02  0.45594000000E+02  0.51100000000E-03 0.  1.
    9900012    2    1    2    0    0 -0.13167632173E+02 -0.26679102052E+02 -0.11469889045E+02  0.59301962647E+02  0.50000033958E+02 0.  0.
        -12    1    1    2    0    0  0.13167632173E+02  0.26679102052E+02  0.11469889045E+02  0.31886037353E+02  0.00000000000E+00 0.  1.
         11    1    3    3    0    0  0.63604462591E+01  0.85105722635E+00  0.61398343624E+01  0.88812803850E+01  0.51100000000E-03 0.  1.
        -11    1    3    3    0    0 -0.10660868797E+02  0.48709829600E+01  0.14295307507E+01  0.11807800682E+02  0.51100000000E-03 0. -1.
         12    1    3    3    0    0 -0.88672096353E+01 -0.32401142238E+02 -0.19039254158E+02  0.38612881581E+02  0.00000000000E+00 0. -1.
</event>
<event>
 7    1  0.1202531E-011  0.5930195E+02  0.7816164E-02  0.1266605E+00
        -11   -1    0    0    0    0  0.00000000000E+00  0.00000000000E+00  0.45593999997E+02  0.45594000000E+02  0.51100000000E-03 0. -1.
         11   -1    0    0    0    0 -0.00000000000E+00 -0.00000000000E+00 -0.45593999997E+02  0.45594000000E+02  0.51100000000E-03 0.  1.
    9900012    2    1    2    0    0 -0.92533205344E+01  0.28824159027E+02 -0.10013184342E+02  0.59301953754E+02  0.50000017739E+02 0.  0.
        -12    1    1    2    0    0  0.92533205344E+01 -0.28824159027E+02  0.10013184342E+02  0.31886046246E+02  0.00000000000E+00 0.  1.
         11    1    3    3    0    0 -0.61651242004E+01  0.34555951446E+01 -0.78934203374E+01  0.10595092217E+02  0.51100000000E-03 0. -1.
        -11    1    3    3    0    0 -0.49401357099E+01  0.31936099636E+02 -0.13832091084E+02  0.35151758773E+02  0.51100000000E-03 0.  1.
        -12    1    3    3    0    0  0.18519393760E+01 -0.65675357532E+01  0.11712327080E+02  0.13555102764E+02  0.00000000000E+00 0.  1.
</event>
<event>
 7    1  0.1202531E-011  0.5930190E+02  0.7816164E-02  0.1266605E+00
        -11   -1    0    0    0    0  0.00000000000E+00  0.00000000000E+00  0.45593999997E+02  0.45594000000E+02  0.51100000000E-03 0.  1.
         11   -1    0    0    0    0 -0.00000000000E+00 -0.00000000000E+00 -0.45593999997E+02  0.45594000000E+02  0.51100000000E-03 0. -1.
    9900012    2    1    2    0    0  0.19679776553E+02  0.65757585921E+00 -0.25079825687E+02  0.59301895383E+02  0.49999911283E+02 0.  0.
        -12    1    1    2    0    0 -0.19679776553E+02 -0.65757585921E+00  0.25079825687E+02  0.31886104617E+02  0.00000000000E+00 0.  1.
         11    1    3    3    0    0 -0.59035670297E+01  0.18655136142E+02 -0.13851856047E+02  0.23973738222E+02  0.51100000000E-03 0. -1.
        -11    1    3    3    0    0  0.47593114505E+01  0.38998991118E+00 -0.48884377081E+01  0.68337369792E+01  0.51100000000E-03 0.  1.
        -12    1    3    3    0    0  0.20824032132E+02 -0.18387550194E+02 -0.63395319315E+01  0.28494420181E+02  0.00000000000E+00 0.  1.
</event>
<event>
 7    1  0.1202531E-011  0.5930195E+02  0.7816164E-02  0.1266605E+00
        -11   -1    0    0    0    0  0.00000000000E+00  0.00000000000E+00  0.45593999997E+02  0.45594000000E+02  0.51100000000E-03 0.  1.
         11   -1    0    0    0    0 -0.00000000000E+00 -0.00000000000E+00 -0.45593999997E+02  0.45594000000E+02  0.51100000000E-03 0. -1.
    9900012    2    1    2    0    0  0.24522880517E+02  0.12566139151E+02 -0.16044962904E+02  0.59301947303E+02  0.50000005973E+02 0.  0.
        -12    1    1    2    0    0 -0.24522880517E+02 -0.12566139151E+02  0.16044962904E+02  0.31886052697E+02  0.00000000000E+00 0.  1.
         11    1    3    3    0    0  0.19571398403E+02  0.13211150732E+02 -0.40529121404E+01  0.23958302030E+02  0.51100000000E-03 0. -1.
        -11    1    3    3    0    0  0.99328793540E+01 -0.14906150543E+02 -0.85594673717E+01  0.19852453204E+02  0.51100000000E-03 0.  1.
         12    1    3    3    0    0 -0.49813972398E+01  0.14261138962E+02 -0.34325833920E+01  0.15491192068E+02  0.00000000000E+00 0. -1.
</event>
<event>
 7    1  0.1202531E-011  0.5930213E+02  0.7816164E-02  0.1266604E+00
        -11   -1    0    0    0    0  0.00000000000E+00  0.00000000000E+00  0.45593999997E+02  0.45594000000E+02  0.51100000000E-03 0. -1.
         11   -1    0    0    0    0 -0.00000000000E+00 -0.00000000000E+00 -0.45593999997E+02  0.45594000000E+02  0.51100000000E-03 0.  1.
    9900012    2    1    2    0    0 -0.15625911881E+02  0.79636991177E+01  0.26629288370E+02  0.59302131267E+02  0.50000341479E+02 0.  0.
        -12    1    1    2    0    0  0.15625911881E+02 -0.79636991177E+01 -0.26629288370E+02  0.31885868733E+02  0.00000000000E+00 0.  1.
         11    1    3    3    0    0  0.19031415629E+01  0.20087479666E+01 -0.74875404470E+01  0.79824982561E+01  0.51100000000E-03 0.  1.
        -11    1    3    3    0    0 -0.20110425783E+02 -0.97998272543E+01  0.19698141663E+02  0.29807425662E+02  0.51100000000E-03 0. -1.
         12    1    3    3    0    0  0.25813723389E+01  0.15754778405E+02  0.14418687154E+02  0.21512207349E+02  0.00000000000E+00 0. -1.
</event>
<event>
 7    1  0.1202531E-011  0.5930195E+02  0.7816164E-02  0.1266605E+00
        -11   -1    0    0    0    0  0.00000000000E+00  0.00000000000E+00  0.45593999997E+02  0.45594000000E+02  0.51100000000E-03 0. -1.
         11   -1    0    0    0    0 -0.00000000000E+00 -0.00000000000E+00 -0.45593999997E+02  0.45594000000E+02  0.51100000000E-03 0.  1.
    9900012    2    1    2    0    0 -0.78035528015E+01  0.86868038400E+01  0.29670929620E+02  0.59301951926E+02  0.50000014404E+02 0.  0.
        -12    1    1    2    0    0  0.78035528015E+01 -0.86868038400E+01 -0.29670929620E+02  0.31886048074E+02  0.00000000000E+00 0.  1.
         11    1    3    3    0    0  0.11461088703E+02  0.10443793409E+02  0.24909857615E+02  0.29341615185E+02  0.51100000000E-03 0. -1.
        -11    1    3    3    0    0 -0.92965035086E+01  0.55228612259E+01 -0.70240218441E+01  0.12894334288E+02  0.51100000000E-03 0.  1.
        -12    1    3    3    0    0 -0.99681379958E+01 -0.72798507945E+01  0.11785093849E+02  0.17066002453E+02  0.00000000000E+00 0.  1.
</event>
<event>
 7    1  0.1202531E-011  0.5930198E+02  0.7816164E-02  0.1266605E+00
        -11   -1    0    0    0    0  0.00000000000E+00  0.00000000000E+00  0.45593999997E+02  0.45594000000E+02  0.51100000000E-03 0. -1.
         11   -1    0    0    0    0 -0.00000000000E+00 -0.00000000000E+00 -0.45593999997E+02  0.45594000000E+02  0.51100000000E-03 0.  1.
    9900012    2    1    2    0    0 -0.16943520094E+02 -0.70430782543E+01  0.26077395158E+02  0.59301978569E+02  0.50000062996E+02 0.  0.
        -12    1    1    2    0    0  0.16943520094E+02  0.70430782543E+01 -0.26077395158E+02  0.31886021431E+02  0.00000000000E+00 0.  1.
         11    1    3    3    0    0 -0.66090259027E+01  0.77925350674E+01  0.68668542245E+01  0.12310829109E+02  0.51100000000E-03 0. -1.
        -11    1    3    3    0    0 -0.10335469165E+02 -0.19923824982E+02 -0.43711715159E+01  0.22866741470E+02  0.51100000000E-03 0.  1.
         12    1    3    3    0    0  0.97497434770E-03  0.50882116601E+01  0.23581712449E+02  0.24124407990E+02  0.00000000000E+00 0. -1.
</event>
<event>
 7    1  0.1202531E-011  0.5930194E+02  0.7816164E-02  0.1266605E+00
        -11   -1    0    0    0    0  0.00000000000E+00  0.00000000000E+00  0.45593999997E+02  0.45594000000E+02  0.51100000000E-03 0. -1.
         11   -1    0    0    0    0 -0.00000000000E+00 -0.00000000000E+00 -0.45593999997E+02  0.45594000000E+02  0.51100000000E-03 0.  1.
    9900012    2    1    2    0    0 -0.10055653835E+02 -0.10131933155E+02  0.28512249209E+02  0.59301943511E+02  0.49999999057E+02 0.  0.
        -12    1    1    2    0    0  0.10055653835E+02  0.10131933155E+02 -0.28512249209E+02  0.31886056489E+02  0.00000000000E+00 0.  1.
         11    1    3    3    0    0  0.99958259745E+01  0.25178279700E+01  0.21034883821E+02  0.23424822993E+02  0.51100000000E-03 0. -1.
        -11    1    3    3    0    0 -0.17035496017E+01  0.73185343867E+01  0.40710630486E+01  0.85461442429E+01  0.51100000000E-03 0.  1.
        -12    1    3    3    0    0 -0.18347930208E+02 -0.19968295512E+02  0.34063023387E+01  0.27330976275E+02  0.00000000000E+00 0.  1.
</event>
<event>
 7    1  0.1202531E-011  0.5930191E+02  0.7816164E-02  0.1266605E+00
        -11   -1    0    0    0    0  0.00000000000E+00  0.00000000000E+00  0.45593999997E+02  0.45594000000E+02  0.51100000000E-03 0. -1.
         11   -1    0    0    0    0 -0.00000000000E+00 -0.00000000000E+00 -0.45593999997E+02  0.45594000000E+02  0.51100000000E-03 0.  1.
    9900012    2    1    2    0    0  0.29425643517E+02  0.19148060461E+01  0.12132095430E+02  0.59301910272E+02  0.49999938438E+02 0.  0.
        -12    1    1    2    0    0 -0.29425643517E+02 -0.19148060461E+01 -0.12132095430E+02  0.31886089728E+02  0.00000000000E+00 0.  1.
         11    1    3    3    0    0  0.24588335241E+02  0.62397896237E+01  0.77302354559E+01  0.26519384324E+02  0.51100000000E-03 0. -1.
        -11    1    3    3    0    0  0.17103318970E+02  0.36828275060E+01  0.47540301533E+01  0.18129741895E+02  0.51100000000E-03 0.  1.
         12    1    3    3    0    0 -0.12266010693E+02 -0.80078110835E+01 -0.35217017896E+00  0.14652784053E+02  0.00000000000E+00 0. -1.
</event>
<event>
 7    1  0.1202531E-011  0.5930199E+02  0.7816164E-02  0.1266605E+00
        -11   -1    0    0    0    0  0.00000000000E+00  0.00000000000E+00  0.45593999997E+02  0.45594000000E+02  0.51100000000E-03 0.  1.
         11   -1    0    0    0    0 -0.00000000000E+00 -0.00000000000E+00 -0.45593999997E+02  0.45594000000E+02  0.51100000000E-03 0. -1.
    9900012    2    1    2    0    0  0.27438760541E+02  0.80503791117E+01 -0.14107567654E+02  0.59301989760E+02  0.50000083405E+02 0.  0.
        -12    1    1    2    0    0 -0.27438760541E+02 -0.80503791117E+01  0.14107567654E+02  0.31886010240E+02  0.00000000000E+00 0.  1.
         11    1    3    3    0    0  0.17680917365E+02  0.20465725411E+02 -0.17004657305E+01  0.27098936131E+02  0.51100000000E-03 0. -1.
        -11    1    3    3    0    0 -0.23012221487E+01  0.31393505943E+01  0.47162999517E+01  0.61151149643E+01  0.51100000000E-03 0.  1.
         12    1    3    3    0    0  0.12059065325E+02 -0.15554696894E+02 -0.17123401876E+02  0.26087938665E+02  0.00000000000E+00 0. -1.
</event>
<event>
 7    1  0.1202531E-011  0.5930195E+02  0.7816164E-02  0.1266605E+00
        -11   -1    0    0    0    0  0.00000000000E+00  0.00000000000E+00  0.45593999997E+02  0.45594000000E+02  0.51100000000E-03 0.  1.
         11   -1    0    0    0    0 -0.00000000000E+00 -0.00000000000E+00 -0.45593999997E+02  0.45594000000E+02  0.51100000000E-03 0. -1.
    9900012    2    1    2    0    0  0.20647790350E+02  0.30943774226E+01 -0.24100082341E+02  0.59301946829E+02  0.50000005110E+02 0.  0.
        -12    1    1    2    0    0 -0.20647790350E+02 -0.30943774226E+01  0.24100082341E+02  0.31886053171E+02  0.00000000000E+00 0.  1.
         11    1    3    3    0    0  0.13531594508E+02  0.10112875540E+02 -0.25721580491E+02  0.30772942739E+02  0.51100000000E-03 0. -1.
        -11    1    3    3    0    0 -0.33909688249E+01  0.27954149031E+01 -0.94241045637E+01  0.10398401855E+02  0.51100000000E-03 0.  1.
        -12    1    3    3    0    0  0.10507164667E+02 -0.98139130202E+01  0.11045602714E+02  0.18130602235E+02  0.00000000000E+00 0.  1.
</event>
<event>
 7    1  0.1202531E-011  0.5930195E+02  0.7816164E-02  0.1266605E+00
        -11   -1    0    0    0    0  0.00000000000E+00  0.00000000000E+00  0.45593999997E+02  0.45594000000E+02  0.51100000000E-03 0. -1.
         11   -1    0    0    0    0 -0.00000000000E+00 -0.00000000000E+00 -0.45593999997E+02  0.45594000000E+02  0.51100000000E-03 0.  1.
    9900012    2    1    2    0    0 -0.89919562207E+00 -0.29651585227E+02  0.11691662328E+02  0.59301952468E+02  0.50000015393E+02 0.  0.
        -12    1    1    2    0    0  0.89919562207E+00  0.29651585227E+02 -0.11691662328E+02  0.31886047532E+02  0.00000000000E+00 0.  1.
         11    1    3    3    0    0  0.16858777345E+02 -0.15974872274E+02  0.46562118310E+01  0.23687448714E+02  0.51100000000E-03 0. -1.
        -11    1    3    3    0    0  0.39196757844E+01 -0.64501111495E+01  0.10047221820E+02  0.12566401977E+02  0.51100000000E-03 0.  1.
        -12    1    3    3    0    0 -0.21677648751E+02 -0.72266018034E+01 -0.30117713232E+01  0.23048101776E+02  0.00000000000E+00 0.  1.
</event>
<event>
 7    1  0.1202531E-011  0.5930194E+02  0.7816164E-02  0.1266605E+00
        -11   -1    0    0    0    0  0.00000000000E+00  0.00000000000E+00  0.45593999997E+02  0.45594000000E+02  0.51100000000E-03 0. -1.
         11   -1    0    0    0    0 -0.00000000000E+00 -0.00000000000E+00 -0.45593999997E+02  0.45594000000E+02  0.51100000000E-03 0.  1.
    9900012    2    1    2    0    0  0.27127068050E+02  0.26380175555E+01  0.16549438234E+02  0.59301939355E+02  0.49999991478E+02 0.  0.
        -12    1    1    2    0    0 -0.27127068050E+02 -0.26380175555E+01 -0.16549438234E+02  0.31886060645E+02  0.00000000000E+00 0.  1.
         11    1    3    3    0    0 -0.30238924558E+01 -0.23074815701E+00 -0.68272411015E+01  0.74705014299E+01  0.51100000000E-03 0. -1.
        -11    1    3    3    0    0  0.32979029214E+02  0.10292938878E+00  0.53922531274E+01  0.33417111730E+02  0.51100000000E-03 0.  1.
         12    1    3    3    0    0 -0.28280687080E+01  0.27658363237E+01  0.17984426208E+02  0.18414326195E+02  0.00000000000E+00 0. -1.
</event>
<event>
 7    1  0.1202531E-011  0.5930192E+02  0.7816164E-02  0.1266605E+00
        -11   -1    0    0    0    0  0.00000000000E+00  0.00000000000E+00  0.45593999997E+02  0.45594000000E+02  0.51100000000E-03 0.  1.
         11   -1    0    0    0    0 -0.00000000000E+00 -0.00000000000E+00 -0.45593999997E+02  0.45594000000E+02  0.51100000000E-03 0. -1.
    9900012    2    1    2    0    0  0.32650637985E+01 -0.30269457220E+02 -0.94774050187E+01  0.59301923291E+02  0.49999962182E+02 0.  0.
        -12    1    1    2    0    0 -0.32650637985E+01  0.30269457220E+02  0.94774050187E+01  0.31886076709E+02  0.00000000000E+00 0.  1.
         11    1    3    3    0    0 -0.27741600566E+01  0.72178009224E+01 -0.10790120554E+02  0.13274762371E+02  0.51100000000E-03 0. -1.
        -11    1    3    3    0    0  0.27946589822E+01 -0.14483863565E+02 -0.12208354758E+02  0.19147750488E+02  0.51100000000E-03 0.  1.
        -12    1    3    3    0    0  0.32445648729E+01 -0.23003394577E+02  0.13521070294E+02  0.26879410432E+02  0.00000000000E+00 0.  1.
</event>
<event>
 7    1  0.1202531E-011  0.5930195E+02  0.7816164E-02  0.1266605E+00
        -11   -1    0    0    0    0  0.00000000000E+00  0.00000000000E+00  0.45593999997E+02  0.45594000000E+02  0.51100000000E-03 0.  1.
         11   -1    0    0    0    0 -0.00000000000E+00 -0.00000000000E+00 -0.45593999997E+02  0.45594000000E+02  0.51100000000E-03 0. -1.
    9900012    2    1    2    0    0  0.14531658892E+02  0.86843009158E+01 -0.27020996242E+02  0.59301946145E+02  0.50000003861E+02 0.  0.
        -12    1    1    2    0    0 -0.14531658892E+02 -0.86843009158E+01  0.27020996242E+02  0.31886053855E+02  0.00000000000E+00 0.  1.
         11    1    3    3    0    0  0.97020370552E+01 -0.89504860444E+01 -0.24918165751E+01  0.13433163200E+02  0.51100000000E-03 0. -1.
        -11    1    3    3    0    0 -0.11848438037E+01 -0.10173696062E+02 -0.53390695359E+01  0.11550480950E+02  0.51100000000E-03 0.  1.
         12    1    3    3    0    0  0.60144656405E+01  0.27808483022E+02 -0.19190110131E+02  0.34318301995E+02  0.00000000000E+00 0. -1.
</event>
<event>
 7    1  0.1202531E-011  0.5930193E+02  0.7816164E-02  0.1266605E+00
        -11   -1    0    0    0    0  0.00000000000E+00  0.00000000000E+00  0.45593999997E+02  0.45594000000E+02  0.51100000000E-03 0. -1.
         11   -1    0    0    0    0 -0.00000000000E+00 -0.00000000000E+00 -0.45593999997E+02  0.45594000000E+02  0.51100000000E-03 0.  1.
    9900012    2    1    2    0    0  0.26877899676E+02  0.16453111817E+02 -0.48574697245E+01  0.59301931074E+02  0.49999976375E+02 0.  0.
        -12    1    1    2    0    0 -0.26877899676E+02 -0.16453111817E+02  0.48574697245E+01  0.31886068926E+02  0.00000000000E+00 0.  1.
         11    1    3    3    0    0  0.39221615675E+01  0.81102605453E+01 -0.18794886265E+02  0.20842442934E+02  0.51100000000E-03 0. -1.
        -11    1    3    3    0    0  0.10427340869E+02 -0.26148540460E+01 -0.61400087942E+01  0.12380089157E+02  0.51100000000E-03 0.  1.
         12    1    3    3    0    0  0.12528397239E+02  0.10957705318E+02  0.20077425335E+02  0.26079398983E+02  0.00000000000E+00 0. -1.
</event>
<event>
 7    1  0.1202531E-011  0.5930198E+02  0.7816164E-02  0.1266605E+00
        -11   -1    0    0    0    0  0.00000000000E+00  0.00000000000E+00  0.45593999997E+02  0.45594000000E+02  0.51100000000E-03 0. -1.
         11   -1    0    0    0    0 -0.00000000000E+00 -0.00000000000E+00 -0.45593999997E+02  0.45594000000E+02  0.51100000000E-03 0.  1.
    9900012    2    1    2    0    0 -0.23946308325E+02 -0.19589232462E+02  0.77171490287E+01  0.59301982688E+02  0.50000070507E+02 0.  0.
        -12    1    1    2    0    0  0.23946308325E+02  0.19589232462E+02 -0.77171490287E+01  0.31886017312E+02  0.00000000000E+00 0.  1.
         11    1    3    3    0    0 -0.33006453211E+01  0.81990646012E+01  0.38448178908E+01  0.96385447420E+01  0.51100000000E-03 0. -1.
        -11    1    3    3    0    0  0.91717005685E+01 -0.24803427460E+01  0.45797852985E+01  0.10547351568E+02  0.51100000000E-03 0.  1.
         12    1    3    3    0    0 -0.29817363573E+02 -0.25307954318E+02 -0.70745416055E+00  0.39116086378E+02  0.00000000000E+00 0. -1.
</event>
<event>
 7    1  0.1202531E-011  0.5930192E+02  0.7816164E-02  0.1266605E+00
        -11   -1    0    0    0    0  0.00000000000E+00  0.00000000000E+00  0.45593999997E+02  0.45594000000E+02  0.51100000000E-03 0.  1.
         11   -1    0    0    0    0 -0.00000000000E+00 -0.00000000000E+00 -0.45593999997E+02  0.45594000000E+02  0.51100000000E-03 0. -1.
    9900012    2    1    2    0    0 -0.25324212936E+02  0.68815208254E+00 -0.19363177292E+02  0.59301922334E+02  0.49999960435E+02 0.  0.
        -12    1    1    2    0    0  0.25324212936E+02 -0.68815208254E+00  0.19363177292E+02  0.31886077666E+02  0.00000000000E+00 0.  1.
         11    1    3    3    0    0 -0.17809044098E+02  0.15583396557E+02  0.14559261647E+01  0.23709154797E+02  0.51100000000E-03 0. -1.
        -11    1    3    3    0    0  0.25521229917E+01 -0.39482196097E+00  0.42255092673E+01  0.49521858785E+01  0.51100000000E-03 0.  1.
        -12    1    3    3    0    0 -0.10067291829E+02 -0.14500422513E+02 -0.25044612724E+02  0.30640581658E+02  0.00000000000E+00 0.  1.
</event>
<event>
 7    1  0.1202531E-011  0.5930198E+02  0.7816164E-02  0.1266605E+00
        -11   -1    0    0    0    0  0.00000000000E+00  0.00000000000E+00  0.45593999997E+02  0.45594000000E+02  0.51100000000E-03 0.  1.
         11   -1    0    0    0    0 -0.00000000000E+00 -0.00000000000E+00 -0.45593999997E+02  0.45594000000E+02  0.51100000000E-03 0. -1.
    9900012    2    1    2    0    0 -0.34894918327E+01  0.11919876776E+02 -0.29367635235E+02  0.59301984023E+02  0.50000072942E+02 0.  0.
        -12    1    1    2    0    0  0.34894918327E+01 -0.11919876776E+02  0.29367635235E+02  0.31886015977E+02  0.00000000000E+00 0.  1.
         11    1    3    3    0    0  0.16685282556E+02 -0.40859337655E+01 -0.85795139706E+01  0.19201603291E+02  0.51100000000E-03 0. -1.
        -11    1    3    3    0    0 -0.13601692680E+02 -0.31489912271E+01 -0.98260816570E+01  0.17072611707E+02  0.51100000000E-03 0.  1.
        -12    1    3    3    0    0 -0.65730817084E+01  0.19154801768E+02 -0.10962039607E+02  0.23027769025E+02  0.00000000000E+00 0.  1.
</event>
<event>
 7    1  0.1202531E-011  0.5930195E+02  0.7816164E-02  0.1266605E+00
        -11   -1    0    0    0    0  0.00000000000E+00  0.00000000000E+00  0.45593999997E+02  0.45594000000E+02  0.51100000000E-03 0.  1.
         11   -1    0    0    0    0 -0.00000000000E+00 -0.00000000000E+00 -0.45593999997E+02  0.45594000000E+02  0.51100000000E-03 0. -1.
    9900012    2    1    2    0    0  0.46976312964E+01 -0.30542369225E+02 -0.78623335709E+01  0.59301947456E+02  0.50000006252E+02 0.  0.
        -12    1    1    2    0    0 -0.46976312964E+01  0.30542369225E+02  0.78623335709E+01  0.31886052544E+02  0.00000000000E+00 0.  1.
         11    1    3    3    0    0  0.17286422778E+02 -0.19712151540E+02 -0.13835202081E+02  0.29644597276E+02  0.51100000000E-03 0. -1.
        -11    1    3    3    0    0  0.56368625146E+01 -0.90017937256E+01  0.94674431867E+00  0.10663153115E+02  0.51100000000E-03 0.  1.
        -12    1    3    3    0    0 -0.18225653996E+02 -0.18284239589E+01  0.50261241909E+01  0.18994197065E+02  0.00000000000E+00 0.  1.
</event>
<event>
 7    1  0.1202531E-011  0.5930198E+02  0.7816164E-02  0.1266605E+00
        -11   -1    0    0    0    0  0.00000000000E+00  0.00000000000E+00  0.45593999997E+02  0.45594000000E+02  0.51100000000E-03 0. -1.
         11   -1    0    0    0    0 -0.00000000000E+00 -0.00000000000E+00 -0.45593999997E+02  0.45594000000E+02  0.51100000000E-03 0.  1.
    9900012    2    1    2    0    0  0.18771139357E+02 -0.49662791926E+00  0.25770452749E+02  0.59301975680E+02  0.50000057727E+02 0.  0.
        -12    1    1    2    0    0 -0.18771139357E+02  0.49662791926E+00 -0.25770452749E+02  0.31886024320E+02  0.00000000000E+00 0.  1.
         11    1    3    3    0    0  0.20774986762E+02  0.18403029863E+02  0.94760522238E+01  0.29326901457E+02  0.51100000000E-03 0. -1.
        -11    1    3    3    0    0 -0.82631481297E+00 -0.15056366597E+02  0.21024906207E+01  0.15224895347E+02  0.51100000000E-03 0.  1.
        -12    1    3    3    0    0 -0.11775325919E+01 -0.38432911853E+01  0.14191909904E+02  0.14750178876E+02  0.00000000000E+00 0.  1.
</event>
<event>
 7    1  0.1202531E-011  0.5930194E+02  0.7816164E-02  0.1266605E+00
        -11   -1    0    0    0    0  0.00000000000E+00  0.00000000000E+00  0.45593999997E+02  0.45594000000E+02  0.51100000000E-03 0.  1.
         11   -1    0    0    0    0 -0.00000000000E+00 -0.00000000000E+00 -0.45593999997E+02  0.45594000000E+02  0.51100000000E-03 0. -1.
    9900012    2    1    2    0    0 -0.81076165986E+01  0.28082486844E+02 -0.12742100584E+02  0.59301942835E+02  0.49999997824E+02 0.  0.
        -12    1    1    2    0    0  0.81076165986E+01 -0.28082486844E+02  0.12742100584E+02  0.31886057165E+02  0.00000000000E+00 0.  1.
         11    1    3    3    0    0 -0.12619347007E+02 -0.62585997606E+01  0.18331046629E+01  0.14204867575E+02  0.51100000000E-03 0. -1.
        -11    1    3    3    0    0  0.72091189714E+01 -0.48378155239E+00 -0.52898858312E+01  0.89547938727E+01  0.51100000000E-03 0.  1.
        -12    1    3    3    0    0 -0.26973885631E+01  0.34824868157E+02 -0.92853194159E+01  0.36142281387E+02  0.00000000000E+00 0.  1.
</event>
<event>
 7    1  0.1202531E-011  0.5930197E+02  0.7816164E-02  0.1266605E+00
        -11   -1    0    0    0    0  0.00000000000E+00  0.00000000000E+00  0.45593999997E+02  0.45594000000E+02  0.51100000000E-03 0. -1.
         11   -1    0    0    0    0 -0.00000000000E+00 -0.00000000000E+00 -0.45593999997E+02  0.45594000000E+02  0.51100000000E-03 0.  1.
    9900012    2    1    2    0    0  0.61005576869E+01  0.93127695809E+01  0.29879327107E+02  0.59301973754E+02  0.50000054214E+02 0.  0.
        -12    1    1    2    0    0 -0.61005576869E+01 -0.93127695809E+01 -0.29879327107E+02  0.31886026246E+02  0.00000000000E+00 0.  1.
         11    1    3    3    0    0  0.16034905189E+02  0.18863677683E+02  0.29525809376E+02  0.38532193549E+02  0.51100000000E-03 0. -1.
        -11    1    3    3    0    0  0.32808860640E+00  0.19558194481E+01 -0.42407956097E+01  0.46815830134E+01  0.51100000000E-03 0.  1.
        -12    1    3    3    0    0 -0.10262436109E+02 -0.11506727550E+02  0.45943133414E+01  0.16088197192E+02  0.00000000000E+00 0.  1.
</event>
<event>
 7    1  0.1202531E-011  0.5930195E+02  0.7816164E-02  0.1266605E+00
        -11   -1    0    0    0    0  0.00000000000E+00  0.00000000000E+00  0.45593999997E+02  0.45594000000E+02  0.51100000000E-03 0. -1.
         11   -1    0    0    0    0 -0.00000000000E+00 -0.00000000000E+00 -0.45593999997E+02  0.45594000000E+02  0.51100000000E-03 0.  1.
    9900012    2    1    2    0    0 -0.16245115995E+00 -0.30103764551E+02  0.10509845882E+02  0.59301954604E+02  0.50000019289E+02 0.  0.
        -12    1    1    2    0    0  0.16245115995E+00  0.30103764551E+02 -0.10509845882E+02  0.31886045396E+02  0.00000000000E+00 0.  1.
         11    1    3    3    0    0 -0.11181768237E+02 -0.16871707180E+02  0.11592193870E+02  0.23325209603E+02  0.51100000000E-03 0. -1.
        -11    1    3    3    0    0  0.30001550749E+01 -0.18119935890E+02  0.10428560258E+02  0.21120792515E+02  0.51100000000E-03 0.  1.
        -12    1    3    3    0    0  0.80191620017E+01  0.48878785193E+01 -0.11510908246E+02  0.14855952486E+02  0.00000000000E+00 0.  1.
</event>
<event>
 7    1  0.1202531E-011  0.5930195E+02  0.7816164E-02  0.1266605E+00
        -11   -1    0    0    0    0  0.00000000000E+00  0.00000000000E+00  0.45593999997E+02  0.45594000000E+02  0.51100000000E-03 0. -1.
         11   -1    0    0    0    0 -0.00000000000E+00 -0.00000000000E+00 -0.45593999997E+02  0.45594000000E+02  0.51100000000E-03 0.  1.
    9900012    2    1    2    0    0 -0.71685201405E+01  0.87189246578E+01  0.29821344770E+02  0.59301953960E+02  0.50000018114E+02 0.  0.
        -12    1    1    2    0    0  0.71685201405E+01 -0.87189246578E+01 -0.29821344770E+02  0.31886046040E+02  0.00000000000E+00 0.  1.
         11    1    3    3    0    0 -0.13816552277E+00 -0.10693549818E+01 -0.77514545453E+01  0.78260882706E+01  0.51100000000E-03 0. -1.
        -11    1    3    3    0    0 -0.10512269995E+02  0.73275501692E+01 -0.82637647142E+00  0.12840705209E+02  0.51100000000E-03 0.  1.
         12    1    3    3    0    0  0.34819153775E+01  0.24607294704E+01  0.38399175787E+02  0.38635160480E+02  0.00000000000E+00 0. -1.
</event>
<event>
 7    1  0.1202531E-011  0.5930179E+02  0.7816164E-02  0.1266605E+00
        -11   -1    0    0    0    0  0.00000000000E+00  0.00000000000E+00  0.45593999997E+02  0.45594000000E+02  0.51100000000E-03 0. -1.
         11   -1    0    0    0    0 -0.00000000000E+00 -0.00000000000E+00 -0.45593999997E+02  0.45594000000E+02  0.51100000000E-03 0.  1.
    9900012    2    1    2    0    0  0.31143731754E+02  0.57374033347E+01  0.37256650006E+01  0.59301789747E+02  0.49999718629E+02 0.  0.
        -12    1    1    2    0    0 -0.31143731754E+02 -0.57374033347E+01 -0.37256650006E+01  0.31886210253E+02  0.00000000000E+00 0.  1.
         11    1    3    3    0    0  0.16185092307E+02 -0.42045643943E+00  0.13431705760E+02  0.21036746813E+02  0.51100000000E-03 0. -1.
        -11    1    3    3    0    0  0.21316556649E+02  0.70124328072E+01  0.43101464589E+01  0.22850539687E+02  0.51100000000E-03 0.  1.
         12    1    3    3    0    0 -0.63579172019E+01 -0.85457303304E+00 -0.14016187218E+02  0.15414503247E+02  0.00000000000E+00 0. -1.
</event>
<event>
 7    1  0.1202531E-011  0.5930196E+02  0.7816164E-02  0.1266605E+00
        -11   -1    0    0    0    0  0.00000000000E+00  0.00000000000E+00  0.45593999997E+02  0.45594000000E+02  0.51100000000E-03 0. -1.
         11   -1    0    0    0    0 -0.00000000000E+00 -0.00000000000E+00 -0.45593999997E+02  0.45594000000E+02  0.51100000000E-03 0.  1.
    9900012    2    1    2    0    0  0.94970730742E+01 -0.22119088114E+02  0.20911024511E+02  0.59301962271E+02  0.50000033271E+02 0.  0.
        -12    1    1    2    0    0 -0.94970730742E+01  0.22119088114E+02 -0.20911024511E+02  0.31886037729E+02  0.00000000000E+00 0.  1.
         11    1    3    3    0    0 -0.75776742006E+01 -0.14884387549E+02  0.12349226969E+02  0.20771845031E+02  0.51100000000E-03 0. -1.
        -11    1    3    3    0    0  0.10440510572E+02  0.54758430480E+01  0.17889792505E+02  0.21425073961E+02  0.51100000000E-03 0.  1.
         12    1    3    3    0    0  0.66342367030E+01 -0.12710543613E+02 -0.93279949628E+01  0.17105043280E+02  0.00000000000E+00 0. -1.
</event>
<event>
 7    1  0.1202531E-011  0.5930197E+02  0.7816164E-02  0.1266605E+00
        -11   -1    0    0    0    0  0.00000000000E+00  0.00000000000E+00  0.45593999997E+02  0.45594000000E+02  0.51100000000E-03 0. -1.
         11   -1    0    0    0    0 -0.00000000000E+00 -0.00000000000E+00 -0.45593999997E+02  0.45594000000E+02  0.51100000000E-03 0.  1.
    9900012    2    1    2    0    0  0.31015640875E+02  0.73985420864E+01  0.10347214152E+00  0.59301966845E+02  0.50000041613E+02 0.  0.
        -12    1    1    2    0    0 -0.31015640875E+02 -0.73985420864E+01 -0.10347214152E+00  0.31886033155E+02  0.00000000000E+00 0.  1.
         11    1    3    3    0    0  0.79333125641E+01  0.62192512869E+01  0.11960516170E+02  0.15641946238E+02  0.51100000000E-03 0. -1.
        -11    1    3    3    0    0  0.24389012281E+02  0.13379148628E+02 -0.19428037426E+01  0.27885480535E+02  0.51100000000E-03 0.  1.
        -12    1    3    3    0    0 -0.13066839701E+01 -0.12199857828E+02 -0.99142402855E+01  0.15774540071E+02  0.00000000000E+00 0.  1.
</event>
<event>
 7    1  0.1202531E-011  0.5930198E+02  0.7816164E-02  0.1266605E+00
        -11   -1    0    0    0    0  0.00000000000E+00  0.00000000000E+00  0.45593999997E+02  0.45594000000E+02  0.51100000000E-03 0.  1.
         11   -1    0    0    0    0 -0.00000000000E+00 -0.00000000000E+00 -0.45593999997E+02  0.45594000000E+02  0.51100000000E-03 0. -1.
    9900012    2    1    2    0    0  0.27700041422E+02  0.97377651896E+00 -0.15763167651E+02  0.59301984415E+02  0.50000073657E+02 0.  0.
        -12    1    1    2    0    0 -0.27700041422E+02 -0.97377651896E+00  0.15763167651E+02  0.31886015585E+02  0.00000000000E+00 0.  1.
         11    1    3    3    0    0  0.45102761598E+01  0.12749850150E+02 -0.16890415395E+02  0.21637638558E+02  0.51100000000E-03 0.  1.
        -11    1    3    3    0    0  0.18699497334E+02  0.59534022275E+00  0.10549347392E+02  0.21478229937E+02  0.51100000000E-03 0. -1.
        -12    1    3    3    0    0  0.44902679278E+01 -0.12371413854E+02 -0.94220996478E+01  0.16186115920E+02  0.00000000000E+00 0.  1.
</event>
<event>
 7    1  0.1202531E-011  0.5930194E+02  0.7816164E-02  0.1266605E+00
        -11   -1    0    0    0    0  0.00000000000E+00  0.00000000000E+00  0.45593999997E+02  0.45594000000E+02  0.51100000000E-03 0.  1.
         11   -1    0    0    0    0 -0.00000000000E+00 -0.00000000000E+00 -0.45593999997E+02  0.45594000000E+02  0.51100000000E-03 0. -1.
    9900012    2    1    2    0    0 -0.61509718535E+01  0.13395111776E+02 -0.28274679956E+02  0.59301937201E+02  0.49999987549E+02 0.  0.
        -12    1    1    2    0    0  0.61509718535E+01 -0.13395111776E+02  0.28274679956E+02  0.31886062799E+02  0.00000000000E+00 0.  1.
         11    1    3    3    0    0  0.26238429974E+01 -0.77669580979E+01 -0.18426603472E+01  0.84027131086E+01  0.51100000000E-03 0. -1.
        -11    1    3    3    0    0  0.13708527836E+02  0.20914844954E+01 -0.65243508845E+01  0.15325312315E+02  0.51100000000E-03 0.  1.
        -12    1    3    3    0    0 -0.22483342687E+02  0.19070585378E+02 -0.19907668724E+02  0.35573911777E+02  0.00000000000E+00 0.  1.
</event>
<event>
 7    1  0.1202531E-011  0.5930194E+02  0.7816164E-02  0.1266605E+00
        -11   -1    0    0    0    0  0.00000000000E+00  0.00000000000E+00  0.45593999997E+02  0.45594000000E+02  0.51100000000E-03 0.  1.
         11   -1    0    0    0    0 -0.00000000000E+00 -0.00000000000E+00 -0.45593999997E+02  0.45594000000E+02  0.51100000000E-03 0. -1.
    9900012    2    1    2    0    0  0.14985168901E+02 -0.27340389747E+02  0.66834687303E+01  0.59301937954E+02  0.49999988924E+02 0.  0.
        -12    1    1    2    0    0 -0.14985168901E+02  0.27340389747E+02 -0.66834687303E+01  0.31886062046E+02  0.00000000000E+00 0.  1.
         11    1    3    3    0    0  0.15912589290E+02 -0.23323252222E+02  0.87908644428E+00  0.28248139503E+02  0.51100000000E-03 0. -1.
        -11    1    3    3    0    0 -0.15912468147E+01 -0.15619182081E+02  0.10095594351E+02  0.18665796014E+02  0.51100000000E-03 0.  1.
        -12    1    3    3    0    0  0.66382642571E+00  0.11602044556E+02 -0.42912120647E+01  0.12388002437E+02  0.00000000000E+00 0.  1.
</event>
<event>
 7    1  0.1202531E-011  0.5930185E+02  0.7816164E-02  0.1266605E+00
        -11   -1    0    0    0    0  0.00000000000E+00  0.00000000000E+00  0.45593999997E+02  0.45594000000E+02  0.51100000000E-03 0. -1.
         11   -1    0    0    0    0 -0.00000000000E+00 -0.00000000000E+00 -0.45593999997E+02  0.45594000000E+02  0.51100000000E-03 0.  1.
    9900012    2    1    2    0    0  0.27037062890E+02 -0.11343976481E+02  0.12531488766E+02  0.59301846535E+02  0.49999822196E+02 0.  0.
        -12    1    1    2    0    0 -0.27037062890E+02  0.11343976481E+02 -0.12531488766E+02  0.31886153465E+02  0.00000000000E+00 0.  1.
         11    1    3    3    0    0  0.51318546495E+01 -0.38727446716E+01  0.24180699934E+02  0.25020798009E+02  0.51100000000E-03 0. -1.
        -11    1    3    3    0    0  0.42368579593E+01  0.19473676510E+00  0.65366704376E+01  0.77921080874E+01  0.51100000000E-03 0.  1.
        -12    1    3    3    0    0  0.17668350281E+02 -0.76659685741E+01 -0.18185881605E+02  0.26488940439E+02  0.00000000000E+00 0.  1.
</event>
<event>
 7    1  0.1202531E-011  0.5930196E+02  0.7816164E-02  0.1266605E+00
        -11   -1    0    0    0    0  0.00000000000E+00  0.00000000000E+00  0.45593999997E+02  0.45594000000E+02  0.51100000000E-03 0. -1.
         11   -1    0    0    0    0 -0.00000000000E+00 -0.00000000000E+00 -0.45593999997E+02  0.45594000000E+02  0.51100000000E-03 0.  1.
    9900012    2    1    2    0    0  0.25150059866E+01  0.31128808089E+02  0.64336076674E+01  0.59301964565E+02  0.50000037455E+02 0.  0.
        -12    1    1    2    0    0 -0.25150059866E+01 -0.31128808089E+02 -0.64336076674E+01  0.31886035435E+02  0.00000000000E+00 0.  1.
         11    1    3    3    0    0  0.27729028779E+01  0.31113709774E+02  0.20747405222E+02  0.37499423328E+02  0.51100000000E-03 0. -1.
        -11    1    3    3    0    0 -0.45347375046E+01  0.33878848100E+01  0.81889889881E+00  0.57194583126E+01  0.51100000000E-03 0.  1.
        -12    1    3    3    0    0  0.42768406133E+01 -0.33727864945E+01 -0.15132696454E+02  0.16083082924E+02  0.00000000000E+00 0.  1.
</event>
<event>
 7    1  0.1202531E-011  0.5930192E+02  0.7816164E-02  0.1266605E+00
        -11   -1    0    0    0    0  0.00000000000E+00  0.00000000000E+00  0.45593999997E+02  0.45594000000E+02  0.51100000000E-03 0.  1.
         11   -1    0    0    0    0 -0.00000000000E+00 -0.00000000000E+00 -0.45593999997E+02  0.45594000000E+02  0.51100000000E-03 0. -1.
    9900012    2    1    2    0    0 -0.16566618828E+02 -0.27000158465E+02 -0.36415634231E+01  0.59301915250E+02  0.49999947517E+02 0.  0.
        -12    1    1    2    0    0  0.16566618828E+02  0.27000158465E+02  0.36415634231E+01  0.31886084750E+02  0.00000000000E+00 0.  1.
         11    1    3    3    0    0 -0.38106992180E+01 -0.22546015200E+02  0.39412554808E+01  0.23202968020E+02  0.51100000000E-03 0. -1.
        -11    1    3    3    0    0  0.58552543529E+01 -0.41756357359E+00  0.90680941969E+01  0.10802254186E+02  0.51100000000E-03 0.  1.
         12    1    3    3    0    0 -0.18611173962E+02 -0.40365796914E+01 -0.16650913101E+02  0.25296693044E+02  0.00000000000E+00 0. -1.
</event>
<event>
 7    1  0.1202531E-011  0.5930194E+02  0.7816164E-02  0.1266605E+00
        -11   -1    0    0    0    0  0.00000000000E+00  0.00000000000E+00  0.45593999997E+02  0.45594000000E+02  0.51100000000E-03 0.  1.
         11   -1    0    0    0    0 -0.00000000000E+00 -0.00000000000E+00 -0.45593999997E+02  0.45594000000E+02  0.51100000000E-03 0. -1.
    9900012    2    1    2    0    0 -0.15871665117E+02  0.81303519877E+01 -0.26433088859E+02  0.59301944056E+02  0.50000000051E+02 0.  0.
        -12    1    1    2    0    0  0.15871665117E+02 -0.81303519877E+01  0.26433088859E+02  0.31886055944E+02  0.00000000000E+00 0.  1.
         11    1    3    3    0    0 -0.17437906441E+02 -0.21935751900E+01 -0.23794880586E+02  0.29581898106E+02  0.51100000000E-03 0. -1.
        -11    1    3    3    0    0 -0.10500867654E+02  0.13139342479E+02  0.86805705987E+00  0.16842329577E+02  0.51100000000E-03 0.  1.
         12    1    3    3    0    0  0.12067108978E+02 -0.28154153008E+01 -0.35062653330E+01  0.12877716373E+02  0.00000000000E+00 0. -1.
</event>
<event>
 7    1  0.1202531E-011  0.5930204E+02  0.7816164E-02  0.1266604E+00
        -11   -1    0    0    0    0  0.00000000000E+00  0.00000000000E+00  0.45593999997E+02  0.45594000000E+02  0.51100000000E-03 0. -1.
         11   -1    0    0    0    0 -0.00000000000E+00 -0.00000000000E+00 -0.45593999997E+02  0.45594000000E+02  0.51100000000E-03 0.  1.
    9900012    2    1    2    0    0 -0.10649889792E+02  0.46808001866E+01  0.29688122017E+02  0.59302037072E+02  0.50000169690E+02 0.  0.
        -12    1    1    2    0    0  0.10649889792E+02 -0.46808001866E+01 -0.29688122017E+02  0.31885962928E+02  0.00000000000E+00 0.  1.
         11    1    3    3    0    0 -0.10715241936E+01  0.54820325301E+01 -0.14571054135E+01  0.57726944494E+01  0.51100000000E-03 0. -1.
        -11    1    3    3    0    0 -0.57178357844E+01 -0.19499677252E+02  0.46065976543E+01  0.20836309683E+02  0.51100000000E-03 0.  1.
         12    1    3    3    0    0 -0.38605298137E+01  0.18698444908E+02  0.26538629776E+02  0.32693032940E+02  0.00000000000E+00 0. -1.
</event>
<event>
 7    1  0.1202531E-011  0.5930195E+02  0.7816164E-02  0.1266605E+00
        -11   -1    0    0    0    0  0.00000000000E+00  0.00000000000E+00  0.45593999997E+02  0.45594000000E+02  0.51100000000E-03 0.  1.
         11   -1    0    0    0    0 -0.00000000000E+00 -0.00000000000E+00 -0.45593999997E+02  0.45594000000E+02  0.51100000000E-03 0. -1.
    9900012    2    1    2    0    0  0.22013922022E+02  0.95573638072E+01 -0.20994380606E+02  0.59301953165E+02  0.50000016664E+02 0.  0.
        -12    1    1    2    0    0 -0.22013922022E+02 -0.95573638072E+01  0.20994380606E+02  0.31886046835E+02  0.00000000000E+00 0.  1.
         11    1    3    3    0    0  0.13575672968E+02 -0.75675831628E+01 -0.78142021236E+01  0.17396234263E+02  0.51100000000E-03 0.  1.
        -11    1    3    3    0    0  0.20807575321E+02  0.14489268897E+02 -0.27339150821E+01  0.25502321381E+02  0.51100000000E-03 0. -1.
         12    1    3    3    0    0 -0.12369326266E+02  0.26356780734E+01 -0.10446263400E+02  0.16403397520E+02  0.00000000000E+00 0. -1.
</event>
<event>
 7    1  0.1202531E-011  0.5930194E+02  0.7816164E-02  0.1266605E+00
        -11   -1    0    0    0    0  0.00000000000E+00  0.00000000000E+00  0.45593999997E+02  0.45594000000E+02  0.51100000000E-03 0.  1.
         11   -1    0    0    0    0 -0.00000000000E+00 -0.00000000000E+00 -0.45593999997E+02  0.45594000000E+02  0.51100000000E-03 0. -1.
    9900012    2    1    2    0    0 -0.29926436914E+02 -0.26271617661E+01 -0.10687720878E+02  0.59301937482E+02  0.49999988062E+02 0.  0.
        -12    1    1    2    0    0  0.29926436914E+02  0.26271617661E+01  0.10687720878E+02  0.31886062518E+02  0.00000000000E+00 0.  1.
         11    1    3    3    0    0 -0.48012544487E+01 -0.24481255125E+01  0.65533722891E+01  0.84848129871E+01  0.51100000000E-03 0. -1.
        -11    1    3    3    0    0  0.39691304317E+01  0.14611555120E+02 -0.47191892386E+01  0.15859454175E+02  0.51100000000E-03 0.  1.
         12    1    3    3    0    0 -0.29094312897E+02 -0.14790591374E+02 -0.12521903929E+02  0.34957670319E+02  0.00000000000E+00 0. -1.
</event>
<event>
 7    1  0.1202531E-011  0.5930188E+02  0.7816164E-02  0.1266605E+00
        -11   -1    0    0    0    0  0.00000000000E+00  0.00000000000E+00  0.45593999997E+02  0.45594000000E+02  0.51100000000E-03 0.  1.
         11   -1    0    0    0    0 -0.00000000000E+00 -0.00000000000E+00 -0.45593999997E+02  0.45594000000E+02  0.51100000000E-03 0. -1.
    9900012    2    1    2    0    0  0.25207762793E+02 -0.19526740314E+02  0.31728486208E-02  0.59301876021E+02  0.49999875973E+02 0.  0.
        -12    1    1    2    0    0 -0.25207762793E+02  0.19526740314E+02 -0.31728486207E-02  0.31886123979E+02  0.00000000000E+00 0.  1.
         11    1    3    3    0    0 -0.81543030826E+01 -0.71213824632E+01  0.28506568490E+01  0.11195221824E+02  0.51100000000E-03 0. -1.
        -11    1    3    3    0    0  0.13423382142E+02  0.10061270014E+02 -0.61941063976E+01  0.17882485754E+02  0.51100000000E-03 0.  1.
         12    1    3    3    0    0  0.19938683733E+02 -0.22466627865E+02  0.33466223972E+01  0.30224168444E+02  0.00000000000E+00 0. -1.
</event>
<event>
 7    1  0.1202531E-011  0.5930200E+02  0.7816164E-02  0.1266605E+00
        -11   -1    0    0    0    0  0.00000000000E+00  0.00000000000E+00  0.45593999997E+02  0.45594000000E+02  0.51100000000E-03 0. -1.
         11   -1    0    0    0    0 -0.00000000000E+00 -0.00000000000E+00 -0.45593999997E+02  0.45594000000E+02  0.51100000000E-03 0.  1.
    9900012    2    1    2    0    0 -0.84510958022E+01  0.21721391001E+02  0.21759523966E+02  0.59302004163E+02  0.50000109673E+02 0.  0.
        -12    1    1    2    0    0  0.84510958022E+01 -0.21721391001E+02 -0.21759523966E+02  0.31885995837E+02  0.00000000000E+00 0.  1.
         11    1    3    3    0    0 -0.66870625599E+01 -0.33437162930E+01 -0.53035480805E+01  0.91665078864E+01  0.51100000000E-03 0. -1.
        -11    1    3    3    0    0 -0.61894820546E+01  0.10810899273E+02 -0.60243065142E+01  0.13837539537E+02  0.51100000000E-03 0.  1.
         12    1    3    3    0    0  0.44254488122E+01  0.14254208020E+02  0.33087378561E+02  0.36297956740E+02  0.00000000000E+00 0. -1.
</event>
<event>
 7    1  0.1448266E-011  0.5930196E+02  0.7816164E-02  0.1266605E+00
        -11   -1    0    0    0    0  0.00000000000E+00  0.00000000000E+00  0.45593999997E+02  0.45594000000E+02  0.51100000000E-03 0.  1.
         11   -1    0    0    0    0 -0.00000000000E+00 -0.00000000000E+00 -0.45593999997E+02  0.45594000000E+02  0.51100000000E-03 0. -1.
    9900012    2    1    2    0    0  0.30016607694E+02 -0.99292454812E+01 -0.41391920790E+01  0.59301959726E+02  0.50000028629E+02 0.  0.
        -12    1    1    2    0    0 -0.30016607694E+02  0.99292454812E+01  0.41391920790E+01  0.31886040274E+02  0.00000000000E+00 0.  1.
         11    1    3    3    0    0  0.16275872596E+02 -0.54076872469E+01 -0.15545478342E+02  0.23147548623E+02  0.51100000000E-03 0. -1.
        -11    1    3    3    0    0 -0.69516634855E+00  0.39454327820E+01 -0.89476332119E+01  0.98035624364E+01  0.51100000000E-03 0.  1.
        -12    1    3    3    0    0  0.14435901447E+02 -0.84669910163E+01  0.20353919475E+02  0.26350848666E+02  0.00000000000E+00 0.  1.
</event>
<event>
 7    1  0.1202531E-011  0.5930194E+02  0.7816164E-02  0.1266605E+00
        -11   -1    0    0    0    0  0.00000000000E+00  0.00000000000E+00  0.45593999997E+02  0.45594000000E+02  0.51100000000E-03 0. -1.
         11   -1    0    0    0    0 -0.00000000000E+00 -0.00000000000E+00 -0.45593999997E+02  0.45594000000E+02  0.51100000000E-03 0.  1.
    9900012    2    1    2    0    0 -0.75169687379E+00 -0.30447045452E+02  0.94410448840E+01  0.59301937944E+02  0.49999988905E+02 0.  0.
        -12    1    1    2    0    0  0.75169687379E+00  0.30447045452E+02 -0.94410448840E+01  0.31886062056E+02  0.00000000000E+00 0.  1.
         11    1    3    3    0    0  0.12291176780E+01 -0.33939455860E+02 -0.96229127449E+01  0.35298694655E+02  0.51100000000E-03 0. -1.
        -11    1    3    3    0    0  0.72399767932E+00  0.98888676616E+00 -0.21482312228E+01  0.24732503560E+01  0.51100000000E-03 0.  1.
        -12    1    3    3    0    0 -0.27048122311E+01  0.25035236426E+01  0.21212188852E+02  0.21529992933E+02  0.00000000000E+00 0.  1.
</event>
<event>
 7    1  0.1202531E-011  0.5930196E+02  0.7816164E-02  0.1266605E+00
        -11   -1    0    0    0    0  0.00000000000E+00  0.00000000000E+00  0.45593999997E+02  0.45594000000E+02  0.51100000000E-03 0.  1.
         11   -1    0    0    0    0 -0.00000000000E+00 -0.00000000000E+00 -0.45593999997E+02  0.45594000000E+02  0.51100000000E-03 0. -1.
    9900012    2    1    2    0    0 -0.29732714019E+02 -0.40219634327E+01 -0.10793944261E+02  0.59301957512E+02  0.50000024593E+02 0.  0.
        -12    1    1    2    0    0  0.29732714019E+02  0.40219634327E+01  0.10793944261E+02  0.31886042488E+02  0.00000000000E+00 0.  1.
         11    1    3    3    0    0  0.11692551580E+00  0.67672059005E+01 -0.13809823622E+01  0.69076667422E+01  0.51100000000E-03 0. -1.
        -11    1    3    3    0    0  0.64880506932E+01 -0.99687613779E+01  0.55033614251E+01  0.13105647349E+02  0.51100000000E-03 0.  1.
        -12    1    3    3    0    0 -0.36337690228E+02 -0.82040795529E+00 -0.14916323324E+02  0.39288643421E+02  0.00000000000E+00 0.  1.
</event>
<event>
 7    1  0.1202531E-011  0.5930200E+02  0.7816164E-02  0.1266605E+00
        -11   -1    0    0    0    0  0.00000000000E+00  0.00000000000E+00  0.45593999997E+02  0.45594000000E+02  0.51100000000E-03 0.  1.
         11   -1    0    0    0    0 -0.00000000000E+00 -0.00000000000E+00 -0.45593999997E+02  0.45594000000E+02  0.51100000000E-03 0. -1.
    9900012    2    1    2    0    0 -0.10492014987E+02 -0.11996935563E+02 -0.27617167778E+02  0.59302003113E+02  0.50000107758E+02 0.  0.
        -12    1    1    2    0    0  0.10492014987E+02  0.11996935563E+02  0.27617167778E+02  0.31885996887E+02  0.00000000000E+00 0.  1.
         11    1    3    3    0    0 -0.39714152272E+01 -0.15625901229E+02  0.19326222023E+01  0.16238102013E+02  0.51100000000E-03 0. -1.
        -11    1    3    3    0    0  0.25040869140E+01  0.11825437654E+02 -0.11309036075E+01  0.12140443576E+02  0.51100000000E-03 0.  1.
         12    1    3    3    0    0 -0.90246866742E+01 -0.81964719878E+01 -0.28418886373E+02  0.30923457525E+02  0.00000000000E+00 0. -1.
</event>
<event>
 7    1  0.1202531E-011  0.5930198E+02  0.7816164E-02  0.1266605E+00
        -11   -1    0    0    0    0  0.00000000000E+00  0.00000000000E+00  0.45593999997E+02  0.45594000000E+02  0.51100000000E-03 0.  1.
         11   -1    0    0    0    0 -0.00000000000E+00 -0.00000000000E+00 -0.45593999997E+02  0.45594000000E+02  0.51100000000E-03 0. -1.
    9900012    2    1    2    0    0  0.12659773458E+02  0.12054957765E+02 -0.26666956394E+02  0.59301977450E+02  0.50000060955E+02 0.  0.
        -12    1    1    2    0    0 -0.12659773458E+02 -0.12054957765E+02  0.26666956394E+02  0.31886022550E+02  0.00000000000E+00 0.  1.
         11    1    3    3    0    0 -0.19431374611E+01 -0.71600468883E+00  0.46672381994E+01  0.51060315881E+01  0.51100000000E-03 0. -1.
        -11    1    3    3    0    0 -0.81764932132E+01 -0.45840204476E+01 -0.22263501641E+02  0.24156402678E+02  0.51100000000E-03 0.  1.
         12    1    3    3    0    0  0.22779404132E+02  0.17354982901E+02 -0.90706929520E+01  0.30039543185E+02  0.00000000000E+00 0. -1.
</event>
<event>
 7    1  0.1202531E-011  0.5930200E+02  0.7816164E-02  0.1266605E+00
        -11   -1    0    0    0    0  0.00000000000E+00  0.00000000000E+00  0.45593999997E+02  0.45594000000E+02  0.51100000000E-03 0.  1.
         11   -1    0    0    0    0 -0.00000000000E+00 -0.00000000000E+00 -0.45593999997E+02  0.45594000000E+02  0.51100000000E-03 0. -1.
    9900012    2    1    2    0    0 -0.30142721386E+02  0.89165336593E+01 -0.53506120176E+01  0.59301995640E+02  0.50000094129E+02 0.  0.
        -12    1    1    2    0    0  0.30142721386E+02 -0.89165336593E+01  0.53506120176E+01  0.31886004360E+02  0.00000000000E+00 0.  1.
         11    1    3    3    0    0 -0.17973746223E+02 -0.17327541052E+02 -0.89239922998E+01  0.26512956663E+02  0.51100000000E-03 0.  1.
        -11    1    3    3    0    0  0.65948552240E+00  0.15296519878E+02  0.43177757623E+01  0.15907910904E+02  0.51100000000E-03 0. -1.
        -12    1    3    3    0    0 -0.12828460686E+02  0.10947554833E+02 -0.74439548013E+00  0.16881128073E+02  0.00000000000E+00 0.  1.
</event>
<event>
 7    1  0.1202531E-011  0.5930194E+02  0.7816164E-02  0.1266605E+00
        -11   -1    0    0    0    0  0.00000000000E+00  0.00000000000E+00  0.45593999997E+02  0.45594000000E+02  0.51100000000E-03 0.  1.
         11   -1    0    0    0    0 -0.00000000000E+00 -0.00000000000E+00 -0.45593999997E+02  0.45594000000E+02  0.51100000000E-03 0. -1.
    9900012    2    1    2    0    0 -0.27831544100E+01  0.17576311293E+02 -0.26458424175E+02  0.59301939144E+02  0.49999991092E+02 0.  0.
        -12    1    1    2    0    0  0.27831544100E+01 -0.17576311293E+02  0.26458424175E+02  0.31886060856E+02  0.00000000000E+00 0.  1.
         11    1    3    3    0    0 -0.84614743287E+01  0.10054633504E+02 -0.17349222279E+02  0.21764368051E+02  0.51100000000E-03 0. -1.
        -11    1    3    3    0    0  0.59201771837E+01  0.10706835271E+02 -0.21502358380E+02  0.24739366110E+02  0.51100000000E-03 0.  1.
        -12    1    3    3    0    0 -0.24185726510E+00 -0.31851574815E+01  0.12393156484E+02  0.12798204982E+02  0.00000000000E+00 0.  1.
</event>
<event>
 7    1  0.1202531E-011  0.5930195E+02  0.7816164E-02  0.1266605E+00
        -11   -1    0    0    0    0  0.00000000000E+00  0.00000000000E+00  0.45593999997E+02  0.45594000000E+02  0.51100000000E-03 0.  1.
         11   -1    0    0    0    0 -0.00000000000E+00 -0.00000000000E+00 -0.45593999997E+02  0.45594000000E+02  0.51100000000E-03 0. -1.
    9900012    2    1    2    0    0  0.62672280874E+01 -0.23400342177E+01 -0.31176372133E+02  0.59301951524E+02  0.50000013671E+02 0.  0.
        -12    1    1    2    0    0 -0.62672280874E+01  0.23400342177E+01  0.31176372133E+02  0.31886048476E+02  0.00000000000E+00 0.  1.
         11    1    3    3    0    0  0.10333552099E+01 -0.76186925345E+01 -0.65916304576E+01  0.10127284497E+02  0.51100000000E-03 0. -1.
        -11    1    3    3    0    0  0.12344588875E+00  0.15518557879E+02 -0.31981581289E+02  0.35548029756E+02  0.51100000000E-03 0.  1.
         12    1    3    3    0    0  0.51104269887E+01 -0.10239899563E+02  0.73968396128E+01  0.13626637271E+02  0.00000000000E+00 0. -1.
</event>
<event>
 7    1  0.1202531E-011  0.5930194E+02  0.7816164E-02  0.1266605E+00
        -11   -1    0    0    0    0  0.00000000000E+00  0.00000000000E+00  0.45593999997E+02  0.45594000000E+02  0.51100000000E-03 0.  1.
         11   -1    0    0    0    0 -0.00000000000E+00 -0.00000000000E+00 -0.45593999997E+02  0.45594000000E+02  0.51100000000E-03 0. -1.
    9900012    2    1    2    0    0  0.24436768905E+02  0.20450209143E+02  0.11635996340E+01  0.59301942034E+02  0.49999996364E+02 0.  0.
        -12    1    1    2    0    0 -0.24436768905E+02 -0.20450209143E+02 -0.11635996340E+01  0.31886057966E+02  0.00000000000E+00 0.  1.
         11    1    3    3    0    0  0.26351818010E+02  0.27860260699E+01  0.18121788268E+01  0.26560576915E+02  0.51100000000E-03 0. -1.
        -11    1    3    3    0    0  0.12190538697E+02  0.13117476548E+02 -0.12805516627E-01  0.17907472992E+02  0.51100000000E-03 0.  1.
        -12    1    3    3    0    0 -0.14105587802E+02  0.45467065251E+01 -0.63577367623E+00  0.14833892127E+02  0.00000000000E+00 0.  1.
</event>
<event>
 7    1  0.1202531E-011  0.5930191E+02  0.7816164E-02  0.1266605E+00
        -11   -1    0    0    0    0  0.00000000000E+00  0.00000000000E+00  0.45593999997E+02  0.45594000000E+02  0.51100000000E-03 0.  1.
         11   -1    0    0    0    0 -0.00000000000E+00 -0.00000000000E+00 -0.45593999997E+02  0.45594000000E+02  0.51100000000E-03 0. -1.
    9900012    2    1    2    0    0 -0.23355193134E+02 -0.21707452166E+02  0.20958356144E+00  0.59301914458E+02  0.49999946072E+02 0.  0.
        -12    1    1    2    0    0  0.23355193134E+02  0.21707452166E+02 -0.20958356144E+00  0.31886085542E+02  0.00000000000E+00 0.  1.
         11    1    3    3    0    0 -0.18616193744E+02 -0.82339588662E+01 -0.16711702664E+02  0.26337079457E+02  0.51100000000E-03 0. -1.
        -11    1    3    3    0    0  0.36697437816E+01  0.52690416748E+01  0.11263473583E+00  0.64220328898E+01  0.51100000000E-03 0.  1.
        -12    1    3    3    0    0 -0.84087431723E+01 -0.18742534975E+02  0.16808651490E+02  0.26542802112E+02  0.00000000000E+00 0.  1.
</event>
<event>
 7    1  0.1202531E-011  0.5930189E+02  0.7816164E-02  0.1266605E+00
        -11   -1    0    0    0    0  0.00000000000E+00  0.00000000000E+00  0.45593999997E+02  0.45594000000E+02  0.51100000000E-03 0. -1.
         11   -1    0    0    0    0 -0.00000000000E+00 -0.00000000000E+00 -0.45593999997E+02  0.45594000000E+02  0.51100000000E-03 0.  1.
    9900012    2    1    2    0    0 -0.55431730453E+01  0.29524804045E+02  0.10690337301E+02  0.59301888087E+02  0.49999897978E+02 0.  0.
        -12    1    1    2    0    0  0.55431730453E+01 -0.29524804045E+02 -0.10690337301E+02  0.31886111913E+02  0.00000000000E+00 0.  1.
         11    1    3    3    0    0  0.68677048751E+01  0.17898788531E+02  0.53732660912E+01  0.19909896782E+02  0.51100000000E-03 0. -1.
        -11    1    3    3    0    0  0.11680561081E+02  0.16007747100E+01 -0.26982903242E+01  0.12094575551E+02  0.51100000000E-03 0.  1.
         12    1    3    3    0    0 -0.24091439001E+02  0.10025240804E+02  0.80153615336E+01  0.27297415754E+02  0.00000000000E+00 0. -1.
</event>
<event>
 7    1  0.1202531E-011  0.5930194E+02  0.7816164E-02  0.1266605E+00
        -11   -1    0    0    0    0  0.00000000000E+00  0.00000000000E+00  0.45593999997E+02  0.45594000000E+02  0.51100000000E-03 0. -1.
         11   -1    0    0    0    0 -0.00000000000E+00 -0.00000000000E+00 -0.45593999997E+02  0.45594000000E+02  0.51100000000E-03 0.  1.
    9900012    2    1    2    0    0  0.68249539287E+01 -0.31145282401E+02 -0.33477464885E+00  0.59301942137E+02  0.49999996551E+02 0.  0.
        -12    1    1    2    0    0 -0.68249539287E+01  0.31145282401E+02  0.33477464885E+00  0.31886057863E+02  0.00000000000E+00 0.  1.
         11    1    3    3    0    0  0.11387717565E+02 -0.13267586538E+01 -0.49964915922E+01  0.12506211591E+02  0.51100000000E-03 0. -1.
        -11    1    3    3    0    0  0.66702738701E+01  0.35414731831E+01  0.85190435937E+01  0.11384581232E+02  0.51100000000E-03 0.  1.
         12    1    3    3    0    0 -0.11233037507E+02 -0.33359996931E+02 -0.38573266503E+01  0.35411149314E+02  0.00000000000E+00 0. -1.
</event>
<event>
 7    1  0.1202531E-011  0.5930194E+02  0.7816164E-02  0.1266605E+00
        -11   -1    0    0    0    0  0.00000000000E+00  0.00000000000E+00  0.45593999997E+02  0.45594000000E+02  0.51100000000E-03 0. -1.
         11   -1    0    0    0    0 -0.00000000000E+00 -0.00000000000E+00 -0.45593999997E+02  0.45594000000E+02  0.51100000000E-03 0.  1.
    9900012    2    1    2    0    0 -0.13451334406E+02  0.13830638454E+02  0.25386924909E+02  0.59301938568E+02  0.49999990042E+02 0.  0.
        -12    1    1    2    0    0  0.13451334406E+02 -0.13830638454E+02 -0.25386924909E+02  0.31886061432E+02  0.00000000000E+00 0.  1.
         11    1    3    3    0    0  0.60559115374E+01 -0.42830563819E+00 -0.70735031425E+01  0.93215855538E+01  0.51100000000E-03 0.  1.
        -11    1    3    3    0    0  0.18555398907E+01  0.12952239928E+02  0.27611172377E+01  0.13372633102E+02  0.51100000000E-03 0. -1.
        -12    1    3    3    0    0 -0.21362785834E+02  0.13067041649E+01  0.29699310813E+02  0.36607719912E+02  0.00000000000E+00 0.  1.
</event>
<event>
 7    1  0.1202531E-011  0.5930193E+02  0.7816164E-02  0.1266605E+00
        -11   -1    0    0    0    0  0.00000000000E+00  0.00000000000E+00  0.45593999997E+02  0.45594000000E+02  0.51100000000E-03 0. -1.
         11   -1    0    0    0    0 -0.00000000000E+00 -0.00000000000E+00 -0.45593999997E+02  0.45594000000E+02  0.51100000000E-03 0.  1.
    9900012    2    1    2    0    0  0.20107289667E+02  0.15057833230E+02  0.19638737684E+02  0.59301930045E+02  0.49999974500E+02 0.  0.
        -12    1    1    2    0    0 -0.20107289667E+02 -0.15057833230E+02 -0.19638737684E+02  0.31886069955E+02  0.00000000000E+00 0.  1.
         11    1    3    3    0    0  0.25827755129E+01 -0.95320385687E+01  0.24001720035E+02  0.25954056591E+02  0.51100000000E-03 0. -1.
        -11    1    3    3    0    0 -0.21895769502E+00 -0.13628865302E+01  0.62661441579E+00  0.15159314146E+01  0.51100000000E-03 0.  1.
        -12    1    3    3    0    0  0.17743471850E+02  0.25952758329E+02 -0.49895967670E+01  0.31831942040E+02  0.00000000000E+00 0.  1.
</event>
<event>
 7    1  0.1202531E-011  0.5930189E+02  0.7816164E-02  0.1266605E+00
        -11   -1    0    0    0    0  0.00000000000E+00  0.00000000000E+00  0.45593999997E+02  0.45594000000E+02  0.51100000000E-03 0.  1.
         11   -1    0    0    0    0 -0.00000000000E+00 -0.00000000000E+00 -0.45593999997E+02  0.45594000000E+02  0.51100000000E-03 0. -1.
    9900012    2    1    2    0    0 -0.22370980761E+02  0.16198348827E+02 -0.15933504213E+02  0.59301892658E+02  0.49999906313E+02 0.  0.
        -12    1    1    2    0    0  0.22370980761E+02 -0.16198348827E+02  0.15933504213E+02  0.31886107342E+02  0.00000000000E+00 0.  1.
         11    1    3    3    0    0 -0.25047670280E+02  0.16524929251E+02  0.64115631172E+01  0.30684967249E+02  0.51100000000E-03 0. -1.
        -11    1    3    3    0    0  0.31442094353E+01 -0.10293959283E+01  0.22540657784E+01  0.40033138454E+01  0.51100000000E-03 0.  1.
        -12    1    3    3    0    0 -0.46751991634E+00  0.70281550468E+00 -0.24599133108E+02  0.24613611563E+02  0.00000000000E+00 0.  1.
</event>
<event>
 7    1  0.1202531E-011  0.5930194E+02  0.7816164E-02  0.1266605E+00
        -11   -1    0    0    0    0  0.00000000000E+00  0.00000000000E+00  0.45593999997E+02  0.45594000000E+02  0.51100000000E-03 0.  1.
         11   -1    0    0    0    0 -0.00000000000E+00 -0.00000000000E+00 -0.45593999997E+02  0.45594000000E+02  0.51100000000E-03 0. -1.
    9900012    2    1    2    0    0  0.18302439389E+02 -0.25292352870E+02  0.64836852349E+01  0.59301943870E+02  0.49999999712E+02 0.  0.
        -12    1    1    2    0    0 -0.18302439389E+02  0.25292352870E+02 -0.64836852349E+01  0.31886056130E+02  0.00000000000E+00 0.  1.
         11    1    3    3    0    0 -0.12107756354E+01  0.47384305571E+01  0.94109857335E+00  0.49803984348E+01  0.51100000000E-03 0. -1.
        -11    1    3    3    0    0  0.26634422324E+02 -0.16830320013E+02  0.16671089817E+02  0.35645159001E+02  0.51100000000E-03 0.  1.
         12    1    3    3    0    0 -0.71212072993E+01 -0.13200463414E+02 -0.11128503156E+02  0.18676386434E+02  0.00000000000E+00 0. -1.
</event>
<event>
 7    1  0.1442331E-011  0.5930195E+02  0.7816164E-02  0.1266605E+00
        -11   -1    0    0    0    0  0.00000000000E+00  0.00000000000E+00  0.45593999997E+02  0.45594000000E+02  0.51100000000E-03 0. -1.
         11   -1    0    0    0    0 -0.00000000000E+00 -0.00000000000E+00 -0.45593999997E+02  0.45594000000E+02  0.51100000000E-03 0.  1.
    9900012    2    1    2    0    0  0.14118219308E+02 -0.17430375857E+01  0.28536960251E+02  0.59301946672E+02  0.50000004823E+02 0.  0.
        -12    1    1    2    0    0 -0.14118219308E+02  0.17430375857E+01 -0.28536960251E+02  0.31886053328E+02  0.00000000000E+00 0.  1.
         11    1    3    3    0    0  0.18987572465E+02  0.55323674420E-01  0.11925158769E+02  0.22421872820E+02  0.51100000000E-03 0. -1.
        -11    1    3    3    0    0  0.17222685898E+00 -0.61007160693E+01 -0.87490671039E+01  0.10667453965E+02  0.51100000000E-03 0.  1.
        -12    1    3    3    0    0 -0.50415800153E+01  0.43023548092E+01  0.25360868585E+02  0.26212619887E+02  0.00000000000E+00 0.  1.
</event>
<event>
 7    1  0.1202531E-011  0.5930194E+02  0.7816164E-02  0.1266605E+00
        -11   -1    0    0    0    0  0.00000000000E+00  0.00000000000E+00  0.45593999997E+02  0.45594000000E+02  0.51100000000E-03 0.  1.
         11   -1    0    0    0    0 -0.00000000000E+00 -0.00000000000E+00 -0.45593999997E+02  0.45594000000E+02  0.51100000000E-03 0. -1.
    9900012    2    1    2    0    0 -0.21967540001E+02 -0.10241158719E+02 -0.20718749632E+02  0.59301941418E+02  0.49999995240E+02 0.  0.
        -12    1    1    2    0    0  0.21967540001E+02  0.10241158719E+02  0.20718749632E+02  0.31886058582E+02  0.00000000000E+00 0.  1.
         11    1    3    3    0    0 -0.29169049131E+01 -0.70374509247E+01 -0.26357786807E+02  0.27436599196E+02  0.51100000000E-03 0. -1.
        -11    1    3    3    0    0 -0.17814624196E+02 -0.86987720421E+01  0.12153399569E+02  0.23253700601E+02  0.51100000000E-03 0.  1.
         12    1    3    3    0    0 -0.12360108923E+01  0.54950642477E+01 -0.65143623939E+01  0.86116416211E+01  0.00000000000E+00 0. -1.
</event>
<event>
 7    1  0.1202531E-011  0.5930193E+02  0.7816164E-02  0.1266605E+00
        -11   -1    0    0    0    0  0.00000000000E+00  0.00000000000E+00  0.45593999997E+02  0.45594000000E+02  0.51100000000E-03 0.  1.
         11   -1    0    0    0    0 -0.00000000000E+00 -0.00000000000E+00 -0.45593999997E+02  0.45594000000E+02  0.51100000000E-03 0. -1.
    9900012    2    1    2    0    0 -0.11641170798E+02 -0.21064410331E+02 -0.20916379950E+02  0.59301934229E+02  0.49999982130E+02 0.  0.
        -12    1    1    2    0    0  0.11641170798E+02  0.21064410331E+02  0.20916379950E+02  0.31886065771E+02  0.00000000000E+00 0.  1.
         11    1    3    3    0    0  0.14131060589E+02 -0.17216594585E+02 -0.18361167219E+02  0.28865731662E+02  0.51100000000E-03 0. -1.
        -11    1    3    3    0    0 -0.11113105153E+01  0.39872754914E+01 -0.18942761707E+01  0.45521049393E+01  0.51100000000E-03 0.  1.
        -12    1    3    3    0    0 -0.24660920871E+02 -0.78350912377E+01 -0.66093655993E+00  0.25884097628E+02  0.00000000000E+00 0.  1.
</event>
<event>
 7    1  0.1202531E-011  0.5930194E+02  0.7816164E-02  0.1266605E+00
        -11   -1    0    0    0    0  0.00000000000E+00  0.00000000000E+00  0.45593999997E+02  0.45594000000E+02  0.51100000000E-03 0. -1.
         11   -1    0    0    0    0 -0.00000000000E+00 -0.00000000000E+00 -0.45593999997E+02  0.45594000000E+02  0.51100000000E-03 0.  1.
    9900012    2    1    2    0    0  0.51194351646E+01 -0.30226614663E+02 -0.87672185329E+01  0.59301937666E+02  0.49999988397E+02 0.  0.
        -12    1    1    2    0    0 -0.51194351646E+01  0.30226614663E+02  0.87672185329E+01  0.31886062334E+02  0.00000000000E+00 0.  1.
         11    1    3    3    0    0 -0.55676896759E+01 -0.19885863938E+02 -0.15125411735E+02  0.25597359890E+02  0.51100000000E-03 0. -1.
        -11    1    3    3    0    0  0.63536509689E+01 -0.20750100732E+02  0.55544616174E+01  0.22400616177E+02  0.51100000000E-03 0.  1.
        -12    1    3    3    0    0  0.43334738716E+01  0.10409350007E+02  0.80373158475E+00  0.11303961599E+02  0.00000000000E+00 0.  1.
</event>
<event>
 7    1  0.1202531E-011  0.5930191E+02  0.7816164E-02  0.1266605E+00
        -11   -1    0    0    0    0  0.00000000000E+00  0.00000000000E+00  0.45593999997E+02  0.45594000000E+02  0.51100000000E-03 0. -1.
         11   -1    0    0    0    0 -0.00000000000E+00 -0.00000000000E+00 -0.45593999997E+02  0.45594000000E+02  0.51100000000E-03 0.  1.
    9900012    2    1    2    0    0  0.95269270556E+00 -0.19964208355E+02  0.24844426854E+02  0.59301909234E+02  0.49999936545E+02 0.  0.
        -12    1    1    2    0    0 -0.95269270556E+00  0.19964208355E+02 -0.24844426854E+02  0.31886090766E+02  0.00000000000E+00 0.  1.
         11    1    3    3    0    0 -0.31189112515E+01  0.72793279592E+01  0.30837005049E+01  0.84985547005E+01  0.51100000000E-03 0. -1.
        -11    1    3    3    0    0  0.79186834483E+01  0.74785745270E+01  0.39114564530E+01  0.11572990813E+02  0.51100000000E-03 0.  1.
         12    1    3    3    0    0 -0.38470794913E+01 -0.34722110841E+02  0.17849269896E+02  0.39230363721E+02  0.00000000000E+00 0. -1.
</event>
<event>
 7    1  0.1202531E-011  0.5930207E+02  0.7816164E-02  0.1266604E+00
        -11   -1    0    0    0    0  0.00000000000E+00  0.00000000000E+00  0.45593999997E+02  0.45594000000E+02  0.51100000000E-03 0. -1.
         11   -1    0    0    0    0 -0.00000000000E+00 -0.00000000000E+00 -0.45593999997E+02  0.45594000000E+02  0.51100000000E-03 0.  1.
    9900012    2    1    2    0    0  0.14343345044E+02 -0.71174093871E+01  0.27573963731E+02  0.59302069886E+02  0.50000229534E+02 0.  0.
        -12    1    1    2    0    0 -0.14343345044E+02  0.71174093871E+01 -0.27573963731E+02  0.31885930114E+02  0.00000000000E+00 0.  1.
         11    1    3    3    0    0  0.10209520945E+02  0.50743933720E+01  0.26993877353E+02  0.29302784865E+02  0.51100000000E-03 0. -1.
        -11    1    3    3    0    0 -0.17905199570E+01  0.66367197908E+01 -0.60701505706E+01  0.91705364897E+01  0.51100000000E-03 0.  1.
         12    1    3    3    0    0  0.59243440562E+01 -0.18828522550E+02  0.66502369483E+01  0.20828748531E+02  0.00000000000E+00 0. -1.
</event>
<event>
 7    1  0.1202531E-011  0.5930196E+02  0.7816164E-02  0.1266605E+00
        -11   -1    0    0    0    0  0.00000000000E+00  0.00000000000E+00  0.45593999997E+02  0.45594000000E+02  0.51100000000E-03 0.  1.
         11   -1    0    0    0    0 -0.00000000000E+00 -0.00000000000E+00 -0.45593999997E+02  0.45594000000E+02  0.51100000000E-03 0. -1.
    9900012    2    1    2    0    0 -0.30328508666E+02 -0.17035652051E+01 -0.96953100981E+01  0.59301959007E+02  0.50000027319E+02 0.  0.
        -12    1    1    2    0    0  0.30328508666E+02  0.17035652051E+01  0.96953100981E+01  0.31886040993E+02  0.00000000000E+00 0.  1.
         11    1    3    3    0    0 -0.10947743797E+02  0.16424997720E+02 -0.45060671401E+01  0.20246932747E+02  0.51100000000E-03 0. -1.
        -11    1    3    3    0    0 -0.84697013752E+01  0.99513715933E+00  0.93618256148E+01  0.12663724510E+02  0.51100000000E-03 0.  1.
         12    1    3    3    0    0 -0.10911063494E+02 -0.19123700084E+02 -0.14551068573E+02  0.26391301750E+02  0.00000000000E+00 0. -1.
</event>
<event>
 7    1  0.1202531E-011  0.5930196E+02  0.7816164E-02  0.1266605E+00
        -11   -1    0    0    0    0  0.00000000000E+00  0.00000000000E+00  0.45593999997E+02  0.45594000000E+02  0.51100000000E-03 0.  1.
         11   -1    0    0    0    0 -0.00000000000E+00 -0.00000000000E+00 -0.45593999997E+02  0.45594000000E+02  0.51100000000E-03 0. -1.
    9900012    2    1    2    0    0 -0.16644422338E+01  0.29285575195E+02 -0.12502180850E+02  0.59301955898E+02  0.50000021648E+02 0.  0.
        -12    1    1    2    0    0  0.16644422338E+01 -0.29285575195E+02  0.12502180850E+02  0.31886044102E+02  0.00000000000E+00 0.  1.
         11    1    3    3    0    0  0.19797426369E+01  0.38268091461E+02 -0.70380584585E+01  0.38960242198E+02  0.51100000000E-03 0. -1.
        -11    1    3    3    0    0  0.52318497693E+01 -0.12210283997E+01 -0.65840009393E+01  0.84977780031E+01  0.51100000000E-03 0.  1.
        -12    1    3    3    0    0 -0.88760346399E+01 -0.77614878663E+01  0.11198785478E+01  0.11843935697E+02  0.00000000000E+00 0.  1.
</event>
<event>
 7    1  0.1202531E-011  0.5930193E+02  0.7816164E-02  0.1266605E+00
        -11   -1    0    0    0    0  0.00000000000E+00  0.00000000000E+00  0.45593999997E+02  0.45594000000E+02  0.51100000000E-03 0.  1.
         11   -1    0    0    0    0 -0.00000000000E+00 -0.00000000000E+00 -0.45593999997E+02  0.45594000000E+02  0.51100000000E-03 0. -1.
    9900012    2    1    2    0    0  0.22155310983E+02 -0.20552956274E+01  0.22839423835E+02  0.59301932102E+02  0.49999978250E+02 0.  0.
        -12    1    1    2    0    0 -0.22155310983E+02  0.20552956274E+01 -0.22839423835E+02  0.31886067898E+02  0.00000000000E+00 0.  1.
         11    1    3    3    0    0 -0.67227288467E+01 -0.65967489544E+01  0.12942470092E+02  0.16006864536E+02  0.51100000000E-03 0. -1.
        -11    1    3    3    0    0  0.22483244661E+00 -0.58007920283E+01  0.11402637179E+02  0.12795306667E+02  0.51100000000E-03 0.  1.
         12    1    3    3    0    0  0.28653207383E+02  0.10342245355E+02 -0.15056834366E+01  0.30499760900E+02  0.00000000000E+00 0. -1.
</event>
<event>
 7    1  0.1202531E-011  0.5930197E+02  0.7816164E-02  0.1266605E+00
        -11   -1    0    0    0    0  0.00000000000E+00  0.00000000000E+00  0.45593999997E+02  0.45594000000E+02  0.51100000000E-03 0. -1.
         11   -1    0    0    0    0 -0.00000000000E+00 -0.00000000000E+00 -0.45593999997E+02  0.45594000000E+02  0.51100000000E-03 0.  1.
    9900012    2    1    2    0    0  0.11832712502E+01  0.31472844542E+02  0.49778188657E+01  0.59301972417E+02  0.50000051774E+02 0.  0.
        -12    1    1    2    0    0 -0.11832712502E+01 -0.31472844542E+02 -0.49778188657E+01  0.31886027583E+02  0.00000000000E+00 0.  1.
         11    1    3    3    0    0  0.15392817349E+02 -0.36663706778E+01  0.10393164563E+02  0.18931428097E+02  0.51100000000E-03 0. -1.
        -11    1    3    3    0    0  0.16076717669E+01  0.26368117934E+01  0.17071640713E+01  0.35287100152E+01  0.51100000000E-03 0.  1.
        -12    1    3    3    0    0 -0.15817217866E+02  0.32502403426E+02 -0.71225097688E+01  0.36841834304E+02  0.00000000000E+00 0.  1.
</event>
<event>
 7    1  0.1202531E-011  0.5930190E+02  0.7816164E-02  0.1266605E+00
        -11   -1    0    0    0    0  0.00000000000E+00  0.00000000000E+00  0.45593999997E+02  0.45594000000E+02  0.51100000000E-03 0.  1.
         11   -1    0    0    0    0 -0.00000000000E+00 -0.00000000000E+00 -0.45593999997E+02  0.45594000000E+02  0.51100000000E-03 0. -1.
    9900012    2    1    2    0    0 -0.31095556255E+02  0.40622374319E+01 -0.57695585680E+01  0.59301902750E+02  0.49999924719E+02 0.  0.
        -12    1    1    2    0    0  0.31095556255E+02 -0.40622374319E+01  0.57695585680E+01  0.31886097250E+02  0.00000000000E+00 0.  1.
         11    1    3    3    0    0 -0.19463957171E+02  0.31086921030E+01 -0.14862317084E+02  0.24685989240E+02  0.51100000000E-03 0. -1.
        -11    1    3    3    0    0  0.13580640950E+01  0.14416087089E+02  0.20391329793E+01  0.14622789358E+02  0.51100000000E-03 0.  1.
        -12    1    3    3    0    0 -0.12989663179E+02 -0.13462541760E+02  0.70536255371E+01  0.19993124152E+02  0.00000000000E+00 0.  1.
</event>
<event>
 7    1  0.1202531E-011  0.5930196E+02  0.7816164E-02  0.1266605E+00
        -11   -1    0    0    0    0  0.00000000000E+00  0.00000000000E+00  0.45593999997E+02  0.45594000000E+02  0.51100000000E-03 0.  1.
         11   -1    0    0    0    0 -0.00000000000E+00 -0.00000000000E+00 -0.45593999997E+02  0.45594000000E+02  0.51100000000E-03 0. -1.
    9900012    2    1    2    0    0 -0.30024451818E+02 -0.10475601003E+02  0.23481440751E+01  0.59301957538E+02  0.50000024639E+02 0.  0.
        -12    1    1    2    0    0  0.30024451818E+02  0.10475601003E+02 -0.23481440751E+01  0.31886042462E+02  0.00000000000E+00 0.  1.
         11    1    3    3    0    0 -0.70434814831E+01 -0.46206779257E+01 -0.13123045266E+02  0.15594089047E+02  0.51100000000E-03 0. -1.
        -11    1    3    3    0    0 -0.62666289775E+00 -0.13248148331E+02 -0.32170067477E+01  0.13647537260E+02  0.51100000000E-03 0.  1.
        -12    1    3    3    0    0 -0.22354307437E+02  0.73932252534E+01  0.18688196089E+02  0.30060331230E+02  0.00000000000E+00 0.  1.
</event>
<event>
 7    1  0.1202531E-011  0.5930195E+02  0.7816164E-02  0.1266605E+00
        -11   -1    0    0    0    0  0.00000000000E+00  0.00000000000E+00  0.45593999997E+02  0.45594000000E+02  0.51100000000E-03 0.  1.
         11   -1    0    0    0    0 -0.00000000000E+00 -0.00000000000E+00 -0.45593999997E+02  0.45594000000E+02  0.51100000000E-03 0. -1.
    9900012    2    1    2    0    0 -0.31372408837E+02 -0.55384733009E+01 -0.13480429394E+01  0.59301953797E+02  0.50000017816E+02 0.  0.
        -12    1    1    2    0    0  0.31372408837E+02  0.55384733009E+01  0.13480429394E+01  0.31886046203E+02  0.00000000000E+00 0.  1.
         11    1    3    3    0    0 -0.39042712519E+00  0.34614480258E+00  0.13681523019E+02  0.13691468948E+02  0.51100000000E-03 0. -1.
        -11    1    3    3    0    0 -0.10312217911E+02 -0.11863071738E+02  0.47115937264E+01  0.16409552858E+02  0.51100000000E-03 0.  1.
         12    1    3    3    0    0 -0.20669763800E+02  0.59784536346E+01 -0.19741159685E+02  0.29200931991E+02  0.00000000000E+00 0. -1.
</event>
<event>
 7    1  0.1202531E-011  0.5930194E+02  0.7816164E-02  0.1266605E+00
        -11   -1    0    0    0    0  0.00000000000E+00  0.00000000000E+00  0.45593999997E+02  0.45594000000E+02  0.51100000000E-03 0. -1.
         11   -1    0    0    0    0 -0.00000000000E+00 -0.00000000000E+00 -0.45593999997E+02  0.45594000000E+02  0.51100000000E-03 0.  1.
    9900012    2    1    2    0    0 -0.43381677521E+01 -0.17465342300E+02  0.26322291507E+02  0.59301938605E+02  0.49999990110E+02 0.  0.
        -12    1    1    2    0    0  0.43381677521E+01  0.17465342300E+02 -0.26322291507E+02  0.31886061395E+02  0.00000000000E+00 0.  1.
         11    1    3    3    0    0 -0.10000834854E+02  0.68979745964E+01  0.45540160403E+01  0.12974506297E+02  0.51100000000E-03 0. -1.
        -11    1    3    3    0    0 -0.85289170015E+01 -0.97508491788E+01 -0.39278278760E+01  0.13536961144E+02  0.51100000000E-03 0.  1.
         12    1    3    3    0    0  0.14191584103E+02 -0.14612467717E+02  0.25696103343E+02  0.32790471164E+02  0.00000000000E+00 0. -1.
</event>
<event>
 7    1  0.1202531E-011  0.5930195E+02  0.7816164E-02  0.1266605E+00
        -11   -1    0    0    0    0  0.00000000000E+00  0.00000000000E+00  0.45593999997E+02  0.45594000000E+02  0.51100000000E-03 0. -1.
         11   -1    0    0    0    0 -0.00000000000E+00 -0.00000000000E+00 -0.45593999997E+02  0.45594000000E+02  0.51100000000E-03 0.  1.
    9900012    2    1    2    0    0 -0.89632806328E+01  0.23126329892E+02 -0.20038783080E+02  0.59301947229E+02  0.50000005838E+02 0.  0.
        -12    1    1    2    0    0  0.89632806328E+01 -0.23126329892E+02  0.20038783080E+02  0.31886052771E+02  0.00000000000E+00 0.  1.
         11    1    3    3    0    0 -0.11433876649E+02 -0.55341032294E+01 -0.10884079712E+02  0.16727911562E+02  0.51100000000E-03 0. -1.
        -11    1    3    3    0    0  0.23162116668E+01 -0.24090862933E+01  0.68518247344E+01  0.76233874167E+01  0.51100000000E-03 0.  1.
         12    1    3    3    0    0  0.15438434917E+00  0.31069519415E+02 -0.16006528102E+02  0.34950648250E+02  0.00000000000E+00 0. -1.
</event>
<event>
 7    1  0.1202531E-011  0.5930184E+02  0.7816164E-02  0.1266605E+00
        -11   -1    0    0    0    0  0.00000000000E+00  0.00000000000E+00  0.45593999997E+02  0.45594000000E+02  0.51100000000E-03 0. -1.
         11   -1    0    0    0    0 -0.00000000000E+00 -0.00000000000E+00 -0.45593999997E+02  0.45594000000E+02  0.51100000000E-03 0.  1.
    9900012    2    1    2    0    0  0.26866199365E+02 -0.48269066043E+01  0.16481371338E+02  0.59301838474E+02  0.49999807496E+02 0.  0.
        -12    1    1    2    0    0 -0.26866199365E+02  0.48269066043E+01 -0.16481371338E+02  0.31886161526E+02  0.00000000000E+00 0.  1.
         11    1    3    3    0    0  0.32172968887E+02  0.73954831131E+01  0.17124475206E+02  0.37189255825E+02  0.51100000000E-03 0. -1.
        -11    1    3    3    0    0 -0.69811552840E+00 -0.11622621468E+02  0.66915763049E+01  0.13429441119E+02  0.51100000000E-03 0.  1.
        -12    1    3    3    0    0 -0.46086539938E+01 -0.59976824956E+00 -0.73346801732E+01  0.86831415300E+01  0.00000000000E+00 0.  1.
</event>
<event>
 7    1  0.1202531E-011  0.5930192E+02  0.7816164E-02  0.1266605E+00
        -11   -1    0    0    0    0  0.00000000000E+00  0.00000000000E+00  0.45593999997E+02  0.45594000000E+02  0.51100000000E-03 0.  1.
         11   -1    0    0    0    0 -0.00000000000E+00 -0.00000000000E+00 -0.45593999997E+02  0.45594000000E+02  0.51100000000E-03 0. -1.
    9900012    2    1    2    0    0  0.11791121656E+02  0.18969167253E+01 -0.29565066025E+02  0.59301921971E+02  0.49999959775E+02 0.  0.
        -12    1    1    2    0    0 -0.11791121656E+02 -0.18969167253E+01  0.29565066025E+02  0.31886078029E+02  0.00000000000E+00 0.  1.
         11    1    3    3    0    0  0.38432160932E+01 -0.13339918964E+02 -0.11507246898E+02  0.18031652152E+02  0.51100000000E-03 0. -1.
        -11    1    3    3    0    0 -0.42103856959E+01  0.15503346075E+02  0.35709453361E+01  0.16456996630E+02  0.51100000000E-03 0.  1.
         12    1    3    3    0    0  0.12158291259E+02 -0.26651038535E+00 -0.21628764463E+02  0.24813273189E+02  0.00000000000E+00 0. -1.
</event>
<event>
 7    1  0.1202531E-011  0.5930194E+02  0.7816164E-02  0.1266605E+00
        -11   -1    0    0    0    0  0.00000000000E+00  0.00000000000E+00  0.45593999997E+02  0.45594000000E+02  0.51100000000E-03 0. -1.
         11   -1    0    0    0    0 -0.00000000000E+00 -0.00000000000E+00 -0.45593999997E+02  0.45594000000E+02  0.51100000000E-03 0.  1.
    9900012    2    1    2    0    0 -0.22781303405E+01  0.16158964047E+02  0.27393773455E+02  0.59301940021E+02  0.49999992692E+02 0.  0.
        -12    1    1    2    0    0  0.22781303405E+01 -0.16158964047E+02 -0.27393773455E+02  0.31886059979E+02  0.00000000000E+00 0.  1.
         11    1    3    3    0    0 -0.10958713652E+02 -0.71224652940E+01  0.98263833070E+01  0.16351780513E+02  0.51100000000E-03 0. -1.
        -11    1    3    3    0    0  0.48843115566E+01 -0.48623875657E+01  0.12253293823E+02  0.14058539113E+02  0.51100000000E-03 0.  1.
         12    1    3    3    0    0  0.37962717550E+01  0.28143816906E+02  0.53140963245E+01  0.28891620395E+02  0.00000000000E+00 0. -1.
</event>
<event>
 7    1  0.1202531E-011  0.5930191E+02  0.7816164E-02  0.1266605E+00
        -11   -1    0    0    0    0  0.00000000000E+00  0.00000000000E+00  0.45593999997E+02  0.45594000000E+02  0.51100000000E-03 0. -1.
         11   -1    0    0    0    0 -0.00000000000E+00 -0.00000000000E+00 -0.45593999997E+02  0.45594000000E+02  0.51100000000E-03 0.  1.
    9900012    2    1    2    0    0 -0.23118503029E+02 -0.97104677645E+00  0.21938881219E+02  0.59301911759E+02  0.49999941150E+02 0.  0.
        -12    1    1    2    0    0  0.23118503029E+02  0.97104677645E+00 -0.21938881219E+02  0.31886088241E+02  0.00000000000E+00 0.  1.
         11    1    3    3    0    0 -0.10668743865E+02  0.18101456121E+02  0.73112681949E+01  0.22247234710E+02  0.51100000000E-03 0. -1.
        -11    1    3    3    0    0 -0.64370809150E+01  0.39458238784E+01 -0.22581242091E+01  0.78806511146E+01  0.51100000000E-03 0.  1.
         12    1    3    3    0    0 -0.60126782488E+01 -0.23018326776E+02  0.16885737233E+02  0.29174025934E+02  0.00000000000E+00 0. -1.
</event>
<event>
 7    1  0.1202531E-011  0.5930195E+02  0.7816164E-02  0.1266605E+00
        -11   -1    0    0    0    0  0.00000000000E+00  0.00000000000E+00  0.45593999997E+02  0.45594000000E+02  0.51100000000E-03 0. -1.
         11   -1    0    0    0    0 -0.00000000000E+00 -0.00000000000E+00 -0.45593999997E+02  0.45594000000E+02  0.51100000000E-03 0.  1.
    9900012    2    1    2    0    0  0.83871296014E+01  0.28615785202E+02  0.11292175901E+02  0.59301947528E+02  0.50000006384E+02 0.  0.
        -12    1    1    2    0    0 -0.83871296014E+01 -0.28615785202E+02 -0.11292175901E+02  0.31886052472E+02  0.00000000000E+00 0.  1.
         11    1    3    3    0    0  0.86065081481E+01  0.21044679081E+02  0.36369543619E+01  0.23025593096E+02  0.51100000000E-03 0.  1.
        -11    1    3    3    0    0  0.13927267730E+02  0.11062230650E+02 -0.32447059706E+01  0.18079542319E+02  0.51100000000E-03 0. -1.
         12    1    3    3    0    0 -0.14146646277E+02 -0.34911245298E+01  0.10899927510E+02  0.18196812113E+02  0.00000000000E+00 0. -1.
</event>
<event>
 7    1  0.1202531E-011  0.5930184E+02  0.7816164E-02  0.1266605E+00
        -11   -1    0    0    0    0  0.00000000000E+00  0.00000000000E+00  0.45593999997E+02  0.45594000000E+02  0.51100000000E-03 0. -1.
         11   -1    0    0    0    0 -0.00000000000E+00 -0.00000000000E+00 -0.45593999997E+02  0.45594000000E+02  0.51100000000E-03 0.  1.
    9900012    2    1    2    0    0 -0.34821640107E+01  0.22067847362E+02 -0.22751083770E+02  0.59301840525E+02  0.49999811235E+02 0.  0.
        -12    1    1    2    0    0  0.34821640107E+01 -0.22067847362E+02  0.22751083770E+02  0.31886159475E+02  0.00000000000E+00 0.  1.
         11    1    3    3    0    0 -0.64604521008E+01  0.13359029312E+02 -0.57959622589E+01  0.15930922267E+02  0.51100000000E-03 0. -1.
        -11    1    3    3    0    0  0.29107433675E+01  0.64672630706E+01 -0.29646468098E+02  0.30482962283E+02  0.51100000000E-03 0.  1.
         12    1    3    3    0    0  0.67544722565E-01  0.22415549794E+01  0.12691346587E+02  0.12887955975E+02  0.00000000000E+00 0. -1.
</event>
<event>
 7    1  0.1202531E-011  0.5930193E+02  0.7816164E-02  0.1266605E+00
        -11   -1    0    0    0    0  0.00000000000E+00  0.00000000000E+00  0.45593999997E+02  0.45594000000E+02  0.51100000000E-03 0.  1.
         11   -1    0    0    0    0 -0.00000000000E+00 -0.00000000000E+00 -0.45593999997E+02  0.45594000000E+02  0.51100000000E-03 0. -1.
    9900012    2    1    2    0    0  0.12678117067E+02  0.24297311257E+02 -0.16298074605E+02  0.59301933725E+02  0.49999981210E+02 0.  0.
        -12    1    1    2    0    0 -0.12678117067E+02 -0.24297311257E+02  0.16298074605E+02  0.31886066275E+02  0.00000000000E+00 0.  1.
         11    1    3    3    0    0  0.17451671495E+02  0.27585225246E+02 -0.16551710174E+01  0.32684018743E+02  0.51100000000E-03 0. -1.
        -11    1    3    3    0    0 -0.99639892719E+01  0.55631016873E+01 -0.47373433448E+01  0.12356035158E+02  0.51100000000E-03 0.  1.
        -12    1    3    3    0    0  0.51904348445E+01 -0.88510156769E+01 -0.99055602428E+01  0.14261879824E+02  0.00000000000E+00 0.  1.
</event>
<event>
 7    1  0.1202531E-011  0.5930193E+02  0.7816164E-02  0.1266605E+00
        -11   -1    0    0    0    0  0.00000000000E+00  0.00000000000E+00  0.45593999997E+02  0.45594000000E+02  0.51100000000E-03 0.  1.
         11   -1    0    0    0    0 -0.00000000000E+00 -0.00000000000E+00 -0.45593999997E+02  0.45594000000E+02  0.51100000000E-03 0. -1.
    9900012    2    1    2    0    0  0.24000462705E+02  0.20854932518E+02 -0.24023538540E+01  0.59301925854E+02  0.49999966856E+02 0.  0.
        -12    1    1    2    0    0 -0.24000462705E+02 -0.20854932518E+02  0.24023538540E+01  0.31886074146E+02  0.00000000000E+00 0.  1.
         11    1    3    3    0    0  0.11719993149E+02 -0.15520687376E+01 -0.58551811009E+01  0.13192812542E+02  0.51100000000E-03 0. -1.
        -11    1    3    3    0    0 -0.14712295859E+01  0.11687535435E+02 -0.16075509402E+02  0.19929500843E+02  0.51100000000E-03 0.  1.
        -12    1    3    3    0    0  0.13751699142E+02  0.10719465820E+02  0.19528336649E+02  0.26179612469E+02  0.00000000000E+00 0.  1.
</event>
<event>
 7    1  0.1202531E-011  0.5930194E+02  0.7816164E-02  0.1266605E+00
        -11   -1    0    0    0    0  0.00000000000E+00  0.00000000000E+00  0.45593999997E+02  0.45594000000E+02  0.51100000000E-03 0. -1.
         11   -1    0    0    0    0 -0.00000000000E+00 -0.00000000000E+00 -0.45593999997E+02  0.45594000000E+02  0.51100000000E-03 0.  1.
    9900012    2    1    2    0    0  0.10703732425E+02  0.29975069639E+02  0.19094622889E+01  0.59301941386E+02  0.49999995182E+02 0.  0.
        -12    1    1    2    0    0 -0.10703732425E+02 -0.29975069639E+02 -0.19094622889E+01  0.31886058614E+02  0.00000000000E+00 0.  1.
         11    1    3    3    0    0  0.17434486917E+02  0.14402378998E+02 -0.10953652330E+02  0.25127123880E+02  0.51100000000E-03 0. -1.
        -11    1    3    3    0    0  0.80937901140E+01  0.14581104271E+02  0.52727081131E+01  0.17490554344E+02  0.51100000000E-03 0.  1.
        -12    1    3    3    0    0 -0.14824544606E+02  0.99158636997E+00  0.75904065059E+01  0.16684263161E+02  0.00000000000E+00 0.  1.
</event>
<event>
 7    1  0.1202531E-011  0.5930195E+02  0.7816164E-02  0.1266605E+00
        -11   -1    0    0    0    0  0.00000000000E+00  0.00000000000E+00  0.45593999997E+02  0.45594000000E+02  0.51100000000E-03 0.  1.
         11   -1    0    0    0    0 -0.00000000000E+00 -0.00000000000E+00 -0.45593999997E+02  0.45594000000E+02  0.51100000000E-03 0. -1.
    9900012    2    1    2    0    0 -0.12669599224E+02  0.16717319176E+02 -0.24015253680E+02  0.59301954240E+02  0.50000018624E+02 0.  0.
        -12    1    1    2    0    0  0.12669599224E+02 -0.16717319176E+02  0.24015253680E+02  0.31886045760E+02  0.00000000000E+00 0.  1.
         11    1    3    3    0    0 -0.77348187139E+01  0.83913376005E+01  0.40838897563E+01  0.12121061136E+02  0.51100000000E-03 0. -1.
        -11    1    3    3    0    0 -0.17732080422E+02  0.13095340067E+02 -0.92534561083E+01  0.23906924892E+02  0.51100000000E-03 0.  1.
         12    1    3    3    0    0  0.12797299912E+02 -0.47693584915E+01 -0.18845687328E+02  0.23273968211E+02  0.00000000000E+00 0. -1.
</event>
<event>
 7    1  0.1202531E-011  0.5930157E+02  0.7816164E-02  0.1266606E+00
        -11   -1    0    0    0    0  0.00000000000E+00  0.00000000000E+00  0.45593999997E+02  0.45594000000E+02  0.51100000000E-03 0.  1.
         11   -1    0    0    0    0 -0.00000000000E+00 -0.00000000000E+00 -0.45593999997E+02  0.45594000000E+02  0.51100000000E-03 0. -1.
    9900012    2    1    2    0    0  0.19169176462E+02  0.99686811447E+01 -0.23450213002E+02  0.59301569973E+02  0.49999317810E+02 0.  0.
        -12    1    1    2    0    0 -0.19169176462E+02 -0.99686811447E+01  0.23450213002E+02  0.31886430027E+02  0.00000000000E+00 0.  1.
         11    1    3    3    0    0  0.21949552716E+02 -0.62565908642E+01 -0.82421268331E+01  0.24266446972E+02  0.51100000000E-03 0. -1.
        -11    1    3    3    0    0  0.10370140273E+02  0.71504147960E+01  0.53064883849E+00  0.12607530666E+02  0.51100000000E-03 0.  1.
        -12    1    3    3    0    0 -0.13150516526E+02  0.90748572130E+01 -0.15738735007E+02  0.22427592336E+02  0.00000000000E+00 0.  1.
</event>
<event>
 7    1  0.1202531E-011  0.5930193E+02  0.7816164E-02  0.1266605E+00
        -11   -1    0    0    0    0  0.00000000000E+00  0.00000000000E+00  0.45593999997E+02  0.45594000000E+02  0.51100000000E-03 0. -1.
         11   -1    0    0    0    0 -0.00000000000E+00 -0.00000000000E+00 -0.45593999997E+02  0.45594000000E+02  0.51100000000E-03 0.  1.
    9900012    2    1    2    0    0 -0.29110002405E+02  0.11641777057E+02  0.58135999813E+01  0.59301934739E+02  0.49999983060E+02 0.  0.
        -12    1    1    2    0    0  0.29110002405E+02 -0.11641777057E+02 -0.58135999813E+01  0.31886065261E+02  0.00000000000E+00 0.  1.
         11    1    3    3    0    0 -0.32386413884E+02  0.15192040897E+02 -0.24361820432E+01  0.35855444413E+02  0.51100000000E-03 0. -1.
        -11    1    3    3    0    0  0.14297135924E+01  0.80165070260E+01 -0.14096273168E+01  0.82641100723E+01  0.51100000000E-03 0.  1.
         12    1    3    3    0    0  0.18466978861E+01 -0.11566770866E+02  0.96594093413E+01  0.15182380254E+02  0.00000000000E+00 0. -1.
</event>
<event>
 7    1  0.1202531E-011  0.5930195E+02  0.7816164E-02  0.1266605E+00
        -11   -1    0    0    0    0  0.00000000000E+00  0.00000000000E+00  0.45593999997E+02  0.45594000000E+02  0.51100000000E-03 0. -1.
         11   -1    0    0    0    0 -0.00000000000E+00 -0.00000000000E+00 -0.45593999997E+02  0.45594000000E+02  0.51100000000E-03 0.  1.
    9900012    2    1    2    0    0 -0.97072483134E+01 -0.20937359055E+02  0.22002648844E+02  0.59301949286E+02  0.50000009589E+02 0.  0.
        -12    1    1    2    0    0  0.97072483134E+01  0.20937359055E+02 -0.22002648844E+02  0.31886050714E+02  0.00000000000E+00 0.  1.
         11    1    3    3    0    0 -0.21498285128E+00  0.83088066318E+01  0.18168607781E+01  0.85078474727E+01  0.51100000000E-03 0. -1.
        -11    1    3    3    0    0  0.97817266584E+01 -0.11640187963E+01 -0.21248356424E+01  0.10077303357E+02  0.51100000000E-03 0.  1.
         12    1    3    3    0    0 -0.19273992121E+02 -0.28082146891E+02  0.22310623708E+02  0.40716798456E+02  0.00000000000E+00 0. -1.
</event>
<event>
 7    1  0.1202531E-011  0.5930194E+02  0.7816164E-02  0.1266605E+00
        -11   -1    0    0    0    0  0.00000000000E+00  0.00000000000E+00  0.45593999997E+02  0.45594000000E+02  0.51100000000E-03 0. -1.
         11   -1    0    0    0    0 -0.00000000000E+00 -0.00000000000E+00 -0.45593999997E+02  0.45594000000E+02  0.51100000000E-03 0.  1.
    9900012    2    1    2    0    0 -0.26620819993E+02 -0.12471765889E+01 -0.17507064829E+02  0.59301939951E+02  0.49999992565E+02 0.  0.
        -12    1    1    2    0    0  0.26620819993E+02  0.12471765889E+01  0.17507064829E+02  0.31886060049E+02  0.00000000000E+00 0.  1.
         11    1    3    3    0    0  0.22974640777E+01  0.12769893685E+01  0.13502262205E+02  0.13755730731E+02  0.51100000000E-03 0. -1.
        -11    1    3    3    0    0 -0.66019871046E+01 -0.34717771661E-01  0.75650208078E+00  0.66452791298E+01  0.51100000000E-03 0.  1.
        -12    1    3    3    0    0 -0.22316296966E+02 -0.24894481858E+01 -0.31765829114E+02  0.38900930090E+02  0.00000000000E+00 0.  1.
</event>
<event>
 7    1  0.1202531E-011  0.5930198E+02  0.7816164E-02  0.1266605E+00
        -11   -1    0    0    0    0  0.00000000000E+00  0.00000000000E+00  0.45593999997E+02  0.45594000000E+02  0.51100000000E-03 0.  1.
         11   -1    0    0    0    0 -0.00000000000E+00 -0.00000000000E+00 -0.45593999997E+02  0.45594000000E+02  0.51100000000E-03 0. -1.
    9900012    2    1    2    0    0 -0.80582340011E+01 -0.12858035268E+02 -0.28043791059E+02  0.59301977622E+02  0.50000061267E+02 0.  0.
        -12    1    1    2    0    0  0.80582340011E+01  0.12858035268E+02  0.28043791059E+02  0.31886022378E+02  0.00000000000E+00 0.  1.
         11    1    3    3    0    0 -0.33009158712E+01 -0.12633362388E+02  0.19420193604E+01  0.13201110948E+02  0.51100000000E-03 0.  1.
        -11    1    3    3    0    0  0.59525986204E+01 -0.14420495642E+02 -0.71589780789E+01  0.17164937876E+02  0.51100000000E-03 0. -1.
         12    1    3    3    0    0 -0.10709916750E+02  0.14195822762E+02 -0.22826832340E+02  0.28935928797E+02  0.00000000000E+00 0. -1.
</event>
<event>
 7    1  0.1202531E-011  0.5930194E+02  0.7816164E-02  0.1266605E+00
        -11   -1    0    0    0    0  0.00000000000E+00  0.00000000000E+00  0.45593999997E+02  0.45594000000E+02  0.51100000000E-03 0.  1.
         11   -1    0    0    0    0 -0.00000000000E+00 -0.00000000000E+00 -0.45593999997E+02  0.45594000000E+02  0.51100000000E-03 0. -1.
    9900012    2    1    2    0    0 -0.14883109428E+02  0.27496576553E+02 -0.62571595361E+01  0.59301941701E+02  0.49999995756E+02 0.  0.
        -12    1    1    2    0    0  0.14883109428E+02 -0.27496576553E+02  0.62571595361E+01  0.31886058299E+02  0.00000000000E+00 0.  1.
         11    1    3    3    0    0 -0.19943333038E+02 -0.29737941335E+01 -0.37595858814E+01  0.20511325419E+02  0.51100000000E-03 0.  1.
        -11    1    3    3    0    0 -0.52861652513E+00 -0.11312943737E+01 -0.63468574252E+01  0.64685285674E+01  0.51100000000E-03 0. -1.
         12    1    3    3    0    0  0.55888401351E+01  0.31601665060E+02  0.38492837705E+01  0.32322087714E+02  0.00000000000E+00 0. -1.
</event>
<event>
 7    1  0.1202531E-011  0.5930196E+02  0.7816164E-02  0.1266605E+00
        -11   -1    0    0    0    0  0.00000000000E+00  0.00000000000E+00  0.45593999997E+02  0.45594000000E+02  0.51100000000E-03 0.  1.
         11   -1    0    0    0    0 -0.00000000000E+00 -0.00000000000E+00 -0.45593999997E+02  0.45594000000E+02  0.51100000000E-03 0. -1.
    9900012    2    1    2    0    0 -0.29517591251E+02  0.63548997928E+01  0.10249223133E+02  0.59301960430E+02  0.50000029914E+02 0.  0.
        -12    1    1    2    0    0  0.29517591251E+02 -0.63548997928E+01 -0.10249223133E+02  0.31886039570E+02  0.00000000000E+00 0.  1.
         11    1    3    3    0    0  0.39360560233E+01 -0.54053404746E+01  0.66477362803E+01  0.94288196811E+01  0.51100000000E-03 0. -1.
        -11    1    3    3    0    0 -0.19984331618E+02 -0.71963146937E+01  0.12874706762E+02  0.24837844711E+02  0.51100000000E-03 0.  1.
        -12    1    3    3    0    0 -0.13469315656E+02  0.18956554961E+02 -0.92732199092E+01  0.25035296038E+02  0.00000000000E+00 0.  1.
</event>
<event>
 7    1  0.1202531E-011  0.5930184E+02  0.7816164E-02  0.1266605E+00
        -11   -1    0    0    0    0  0.00000000000E+00  0.00000000000E+00  0.45593999997E+02  0.45594000000E+02  0.51100000000E-03 0.  1.
         11   -1    0    0    0    0 -0.00000000000E+00 -0.00000000000E+00 -0.45593999997E+02  0.45594000000E+02  0.51100000000E-03 0. -1.
    9900012    2    1    2    0    0  0.10770307745E+01  0.31714726496E+02 -0.31214251170E+01  0.59301840514E+02  0.49999811215E+02 0.  0.
        -12    1    1    2    0    0 -0.10770307745E+01 -0.31714726496E+02  0.31214251170E+01  0.31886159486E+02  0.00000000000E+00 0.  1.
         11    1    3    3    0    0 -0.76867259927E+01 -0.18794773649E+01 -0.49067266762E+01  0.93109697985E+01  0.51100000000E-03 0. -1.
        -11    1    3    3    0    0 -0.11592333940E+02  0.57994268840E+01 -0.65822298266E+01  0.14537582609E+02  0.51100000000E-03 0.  1.
        -12    1    3    3    0    0  0.20356090707E+02  0.27794776977E+02  0.83675313859E+01  0.35453288107E+02  0.00000000000E+00 0.  1.
</event>
<event>
 7    1  0.1202531E-011  0.5930194E+02  0.7816164E-02  0.1266605E+00
        -11   -1    0    0    0    0  0.00000000000E+00  0.00000000000E+00  0.45593999997E+02  0.45594000000E+02  0.51100000000E-03 0. -1.
         11   -1    0    0    0    0 -0.00000000000E+00 -0.00000000000E+00 -0.45593999997E+02  0.45594000000E+02  0.51100000000E-03 0.  1.
    9900012    2    1    2    0    0 -0.30235486788E+02  0.73086265031E+00  0.10099609483E+02  0.59301938261E+02  0.49999989484E+02 0.  0.
        -12    1    1    2    0    0  0.30235486788E+02 -0.73086265031E+00 -0.10099609483E+02  0.31886061739E+02  0.00000000000E+00 0.  1.
         11    1    3    3    0    0  0.10656390525E+01  0.88787385902E+01 -0.23918209675E+01  0.92568025444E+01  0.51100000000E-03 0. -1.
        -11    1    3    3    0    0  0.81169034383E+01  0.61839557620E-02  0.32631383443E+01  0.87482702167E+01  0.51100000000E-03 0.  1.
        -12    1    3    3    0    0 -0.39418029278E+02 -0.81540598957E+01  0.92282921057E+01  0.41296865500E+02  0.00000000000E+00 0.  1.
</event>
